Generated by trjconv : CNT in water t= 389.00000
33518
    1C        C    1   2.842   2.771   4.750
    1C        C    2   2.901   2.724   4.869
    1C        C    3   2.846   2.779   4.986
    1C        C    4   2.846   2.774   4.261
    1C        C    5   2.901   2.729   4.384
    1C        C    6   2.849   2.775   4.506
    1C        C    7   3.013   2.643   4.629
    1C        C    8   2.897   2.723   4.629
    1C        C    9   3.080   2.605   4.747
    1C        C   10   3.013   2.638   4.867
    1C        C   11   3.185   2.499   4.979
    1C        C   12   3.065   2.571   4.979
    1C        C   13   2.850   2.770   3.773
    1C        C   14   2.895   2.716   3.896
    1C        C   15   2.849   2.770   4.018
    1C        C   16   3.017   2.643   4.142
    1C        C   17   2.902   2.725   4.141
    1C        C   18   3.081   2.612   4.264
    1C        C   19   3.019   2.651   4.385
    1C        C   20   3.207   2.555   4.505
    1C        C   21   3.077   2.610   4.507
    1C        C   22   3.279   2.534   4.625
    1C        C   23   3.208   2.544   4.747
    1C        C   24   3.415   2.484   4.867
    1C        C   25   3.273   2.500   4.866
    1C        C   26   3.490   2.475   4.985
    1C        C   27   2.853   2.771   3.284
    1C        C   28   2.904   2.722   3.406
    1C        C   29   2.853   2.772   3.528
    1C        C   30   3.015   2.638   3.653
    1C        C   31   2.904   2.725   3.651
    1C        C   32   3.076   2.600   3.775
    1C        C   33   3.010   2.634   3.896
    1C        C   34   3.206   2.554   4.017
    1C        C   35   3.074   2.604   4.018
    1C        C   36   3.276   2.537   4.138
    1C        C   37   3.213   2.563   4.262
    1C        C   38   3.418   2.512   4.383
    1C        C   39   3.280   2.542   4.385
    1C        C   40   3.488   2.503   4.505
    1C        C   41   3.417   2.507   4.628
    1C        C   42   3.633   2.486   4.744
    1C        C   43   3.491   2.484   4.746
    1C        C   44   3.706   2.489   4.865
    1C        C   45   3.629   2.474   4.982
    1C        C   46   2.838   2.751   2.793
    1C        C   47   2.891   2.709   2.916
    1C        C   48   2.841   2.762   3.037
    1C        C   49   3.012   2.638   3.162
    1C        C   50   2.896   2.718   3.160
    1C        C   51   3.076   2.603   3.283
    1C        C   52   3.018   2.638   3.407
    1C        C   53   3.206   2.550   3.527
    1C        C   54   3.075   2.601   3.530
    1C        C   55   3.272   2.527   3.650
    1C        C   56   3.206   2.546   3.774
    1C        C   57   3.413   2.503   3.895
    1C        C   58   3.274   2.528   3.896
    1C        C   59   3.486   2.505   4.016
    1C        C   60   3.416   2.517   4.138
    1C        C   61   3.627   2.507   4.260
    1C        C   62   3.486   2.502   4.260
    1C        C   63   3.700   2.504   4.381
    1C        C   64   3.629   2.501   4.502
    1C        C   65   3.839   2.535   4.620
    1C        C   66   3.703   2.495   4.622
    1C        C   67   3.906   2.558   4.742
    1C        C   68   3.842   2.526   4.864
    1C        C   69   4.054   2.582   4.982
    1C        C   70   3.925   2.527   4.977
    1C        C   71   2.821   2.732   2.309
    1C        C   72   2.884   2.692   2.429
    1C        C   73   2.827   2.742   2.549
    1C        C   74   3.003   2.622   2.673
    1C        C   75   2.884   2.698   2.670
    1C        C   76   3.069   2.594   2.795
    1C        C   77   3.011   2.633   2.917
    1C        C   78   3.204   2.548   3.039
    1C        C   79   3.073   2.601   3.040
    1C        C   80   3.271   2.526   3.161
    1C        C   81   3.205   2.544   3.285
    1C        C   82   3.414   2.500   3.403
    1C        C   83   3.274   2.521   3.406
    1C        C   84   3.480   2.495   3.528
    1C        C   85   3.411   2.501   3.651
    1C        C   86   3.625   2.507   3.770
    1C        C   87   3.484   2.501   3.772
    1C        C   88   3.696   2.514   3.892
    1C        C   89   3.627   2.505   4.015
    1C        C   90   3.834   2.548   4.138
    1C        C   91   3.697   2.515   4.137
    1C        C   92   3.904   2.570   4.259
    1C        C   93   3.836   2.542   4.380
    1C        C   94   4.032   2.629   4.498
    1C        C   95   3.909   2.558   4.500
    1C        C   96   4.090   2.668   4.621
    1C        C   97   4.031   2.626   4.742
    1C        C   98   4.186   2.764   4.863
    1C        C   99   4.097   2.651   4.865
    1C        C  100   4.211   2.845   4.974
    1C        C  101   2.824   2.727   2.068
    1C        C  102   2.986   2.589   2.191
    1C        C  103   2.872   2.676   2.189
    1C        C  104   3.062   2.573   2.310
    1C        C  105   3.004   2.618   2.431
    1C        C  106   3.199   2.533   2.553
    1C        C  107   3.069   2.588   2.553
    1C        C  108   3.270   2.519   2.674
    1C        C  109   3.202   2.544   2.795
    1C        C  110   3.410   2.499   2.913
    1C        C  111   3.271   2.526   2.917
    1C        C  112   3.479   2.501   3.036
    1C        C  113   3.410   2.503   3.159
    1C        C  114   3.624   2.505   3.281
    1C        C  115   3.483   2.498   3.280
    1C        C  116   3.693   2.513   3.405
    1C        C  117   3.621   2.503   3.526
    1C        C  118   3.831   2.547   3.646
    1C        C  119   3.693   2.513   3.647
    1C        C  120   3.896   2.573   3.768
    1C        C  121   3.833   2.550   3.892
    1C        C  122   4.024   2.640   4.012
    1C        C  123   3.896   2.579   4.015
    1C        C  124   4.083   2.681   4.134
    1C        C  125   4.026   2.641   4.257
    1C        C  126   4.192   2.773   4.376
    1C        C  127   4.088   2.678   4.378
    1C        C  128   4.238   2.822   4.500
    1C        C  129   4.194   2.764   4.622
    1C        C  130   4.324   2.934   4.741
    1C        C  131   4.239   2.820   4.743
    1C        C  132   4.351   3.007   4.859
    1C        C  133   4.280   2.966   4.973
    1C        C  134   3.172   2.468   2.084
    1C        C  135   3.037   2.507   2.086
    1C        C  136   3.260   2.479   2.192
    1C        C  137   3.193   2.518   2.310
    1C        C  138   3.404   2.481   2.427
    1C        C  139   3.265   2.505   2.431
    1C        C  140   3.476   2.481   2.549
    1C        C  141   3.409   2.496   2.672
    1C        C  142   3.623   2.492   2.794
    1C        C  143   3.482   2.487   2.793
    1C        C  144   3.692   2.510   2.915
    1C        C  145   3.621   2.501   3.037
    1C        C  146   3.831   2.536   3.158
    1C        C  147   3.693   2.505   3.158
    1C        C  148   3.901   2.557   3.279
    1C        C  149   3.831   2.544   3.401
    1C        C  150   4.024   2.631   3.524
    1C        C  151   3.897   2.571   3.523
    1C        C  152   4.081   2.673   3.646
    1C        C  153   4.023   2.636   3.769
    1C        C  154   4.196   2.761   3.886
    1C        C  155   4.087   2.671   3.890
    1C        C  156   4.248   2.810   4.008
    1C        C  157   4.197   2.763   4.131
    1C        C  158   4.340   2.921   4.253
    1C        C  159   4.249   2.813   4.253
    1C        C  160   4.374   2.985   4.375
    1C        C  161   4.330   2.930   4.497
    1C        C  162   4.437   3.113   4.617
    1C        C  163   4.365   2.992   4.619
    1C        C  164   4.468   3.186   4.734
    1C        C  165   4.426   3.127   4.854
    1C        C  166   4.513   3.321   4.970
    1C        C  167   4.475   3.187   4.971
    1C        C  168   3.478   2.435   2.075
    1C        C  169   3.400   2.458   2.189
    1C        C  170   3.619   2.461   2.310
    1C        C  171   3.477   2.464   2.307
    1C        C  172   3.691   2.481   2.430
    1C        C  173   3.617   2.486   2.549
    1C        C  174   3.825   2.540   2.667
    1C        C  175   3.691   2.496   2.670
    1C        C  176   3.892   2.564   2.789
    1C        C  177   3.830   2.541   2.914
    1C        C  178   4.027   2.620   3.033
    1C        C  179   3.898   2.561   3.036
    1C        C  180   4.086   2.657   3.156
    1C        C  181   4.025   2.623   3.279
    1C        C  182   4.199   2.747   3.398
    1C        C  183   4.087   2.662   3.400
    1C        C  184   4.249   2.801   3.519
    1C        C  185   4.197   2.754   3.642
    1C        C  186   4.336   2.916   3.763
    1C        C  187   4.250   2.804   3.763
    1C        C  188   4.375   2.977   3.885
    1C        C  189   4.338   2.920   4.009
    1C        C  190   4.447   3.102   4.129
    1C        C  191   4.382   2.977   4.130
    1C        C  192   4.475   3.170   4.250
    1C        C  193   4.442   3.109   4.373
    1C        C  194   4.501   3.314   4.489
    1C        C  195   4.463   3.178   4.494
    1C        C  196   4.522   3.388   4.608
    1C        C  197   4.509   3.322   4.732
    1C        C  198   4.555   3.536   4.852
    1C        C  199   4.532   3.394   4.853
    1C        C  200   4.586   3.624   4.960
    1C        C  201   3.617   2.422   2.074
    1C        C  202   3.827   2.511   2.184
    1C        C  203   3.693   2.462   2.188
    1C        C  204   3.898   2.539   2.304
    1C        C  205   3.828   2.516   2.425
    1C        C  206   4.018   2.620   2.545
    1C        C  207   3.894   2.553   2.544
    1C        C  208   4.081   2.655   2.666
    1C        C  209   4.020   2.623   2.790
    1C        C  210   4.196   2.745   2.907
    1C        C  211   4.085   2.659   2.910
    1C        C  212   4.245   2.795   3.030
    1C        C  213   4.196   2.745   3.152
    1C        C  214   4.332   2.908   3.272
    1C        C  215   4.249   2.793   3.274
    1C        C  216   4.369   2.970   3.393
    1C        C  217   4.331   2.916   3.518
    1C        C  218   4.435   3.101   3.639
    1C        C  219   4.371   2.975   3.640
    1C        C  220   4.467   3.166   3.760
    1C        C  221   4.443   3.101   3.883
    1C        C  222   4.507   3.303   4.004
    1C        C  223   4.471   3.166   4.005
    1C        C  224   4.520   3.376   4.124
    1C        C  225   4.506   3.308   4.246
    1C        C  226   4.516   3.524   4.369
    1C        C  227   4.512   3.382   4.366
    1C        C  228   4.521   3.599   4.488
    1C        C  229   4.533   3.529   4.610
    1C        C  230   4.502   3.743   4.725
    1C        C  231   4.535   3.605   4.729
    1C        C  232   4.493   3.819   4.844
    1C        C  233   4.538   3.755   4.960
    1C        C  234   4.021   2.606   2.065
    1C        C  235   3.898   2.542   2.067
    1C        C  236   4.087   2.645   2.183
    1C        C  237   4.026   2.600   2.303
    1C        C  238   4.199   2.731   2.422
    1C        C  239   4.084   2.648   2.423
    1C        C  240   4.250   2.785   2.542
    1C        C  241   4.194   2.739   2.664
    1C        C  242   4.337   2.900   2.786
    1C        C  243   4.252   2.787   2.783
    1C        C  244   4.376   2.961   2.907
    1C        C  245   4.337   2.902   3.029
    1C        C  246   4.441   3.089   3.148
    1C        C  247   4.376   2.964   3.150
    1C        C  248   4.459   3.160   3.269
    1C        C  249   4.431   3.097   3.392
    1C        C  250   4.495   3.301   3.516
    1C        C  251   4.454   3.165   3.514
    1C        C  252   4.507   3.371   3.638
    1C        C  253   4.496   3.304   3.762
    1C        C  254   4.515   3.517   3.878
    1C        C  255   4.512   3.376   3.883
    1C        C  256   4.515   3.588   4.001
    1C        C  257   4.523   3.518   4.123
    1C        C  258   4.492   3.730   4.240
    1C        C  259   4.513   3.590   4.244
    1C        C  260   4.474   3.804   4.359
    1C        C  261   4.491   3.737   4.482
    1C        C  262   4.426   3.941   4.602
    1C        C  263   4.472   3.807   4.603
    1C        C  264   4.399   4.010   4.722
    1C        C  265   4.437   3.949   4.844
    1C        C  266   4.322   4.134   4.959
    1C        C  267   4.395   4.016   4.959
    1C        C  268   4.265   2.773   2.065
    1C        C  269   4.197   2.733   2.181
    1C        C  270   4.350   2.884   2.299
    1C        C  271   4.255   2.779   2.301
    1C        C  272   4.386   2.947   2.420
    1C        C  273   4.340   2.893   2.542
    1C        C  274   4.444   3.081   2.662
    1C        C  275   4.376   2.958   2.663
    1C        C  276   4.469   3.151   2.782
    1C        C  277   4.437   3.089   2.905
    1C        C  278   4.499   3.292   3.023
    1C        C  279   4.467   3.155   3.026
    1C        C  280   4.504   3.364   3.145
    1C        C  281   4.493   3.297   3.270
    1C        C  282   4.512   3.508   3.390
    1C        C  283   4.507   3.367   3.392
    1C        C  284   4.506   3.580   3.511
    1C        C  285   4.511   3.512   3.636
    1C        C  286   4.487   3.726   3.750
    1C        C  287   4.508   3.587   3.756
    1C        C  288   4.475   3.791   3.875
    1C        C  289   4.491   3.727   4.000
    1C        C  290   4.416   3.929   4.116
    1C        C  291   4.475   3.801   4.119
    1C        C  292   4.393   3.999   4.237
    1C        C  293   4.424   3.937   4.360
    1C        C  294   4.328   4.129   4.481
    1C        C  295   4.395   4.005   4.480
    1C        C  296   4.288   4.194   4.600
    1C        C  297   4.326   4.132   4.722
    1C        C  298   4.198   4.313   4.838
    1C        C  299   4.284   4.198   4.840
    1C        C  300   4.171   4.403   4.946
    1C        C  301   4.357   2.877   2.061
    1C        C  302   4.466   3.067   2.176
    1C        C  303   4.401   2.940   2.178
    1C        C  304   4.476   3.141   2.297
    1C        C  305   4.443   3.077   2.418
    1C        C  306   4.503   3.283   2.533
    1C        C  307   4.469   3.145   2.538
    1C        C  308   4.517   3.352   2.655
    1C        C  309   4.506   3.287   2.780
    1C        C  310   4.518   3.501   2.900
    1C        C  311   4.518   3.360   2.901
    1C        C  312   4.511   3.574   3.021
    1C        C  313   4.510   3.505   3.145
    1C        C  314   4.477   3.715   3.263
    1C        C  315   4.506   3.577   3.266
    1C        C  316   4.461   3.785   3.385
    1C        C  317   4.482   3.719   3.508
    1C        C  318   4.423   3.927   3.629
    1C        C  319   4.467   3.793   3.627
    1C        C  320   4.398   3.993   3.751
    1C        C  321   4.428   3.924   3.871
    1C        C  322   4.319   4.111   3.993
    1C        C  323   4.389   3.988   3.991
    1C        C  324   4.280   4.173   4.113
    1C        C  325   4.323   4.121   4.237
    1C        C  326   4.185   4.284   4.354
    1C        C  327   4.283   4.182   4.358
    1C        C  328   4.137   4.340   4.474
    1C        C  329   4.192   4.297   4.597
    1C        C  330   4.026   4.441   4.716
    1C        C  331   4.138   4.353   4.715
    1C        C  332   3.971   4.495   4.834
    1C        C  333   4.048   4.470   4.949
    1C        C  334   4.542   3.269   2.058
    1C        C  335   4.536   3.129   2.067
    1C        C  336   4.537   3.349   2.173
    1C        C  337   4.511   3.279   2.293
    1C        C  338   4.523   3.496   2.411
    1C        C  339   4.517   3.355   2.412
    1C        C  340   4.518   3.566   2.534
    1C        C  341   4.519   3.494   2.655
    1C        C  342   4.484   3.706   2.774
    1C        C  343   4.506   3.566   2.775
    1C        C  344   4.474   3.779   2.895
    1C        C  345   4.493   3.714   3.019
    1C        C  346   4.420   3.916   3.134
    1C        C  347   4.464   3.782   3.139
    1C        C  348   4.387   3.977   3.257
    1C        C  349   4.413   3.918   3.383
    1C        C  350   4.316   4.106   3.503
    1C        C  351   4.390   3.986   3.504
    1C        C  352   4.280   4.168   3.625
    1C        C  353   4.325   4.114   3.747
    1C        C  354   4.184   4.272   3.868
    1C        C  355   4.277   4.166   3.870
    1C        C  356   4.128   4.321   3.989
    1C        C  357   4.184   4.277   4.111
    1C        C  358   4.016   4.410   4.233
    1C        C  359   4.132   4.330   4.231
    1C        C  360   3.954   4.450   4.353
    1C        C  361   4.020   4.419   4.475
    1C        C  362   3.829   4.519   4.596
    1C        C  363   3.959   4.464   4.594
    1C        C  364   3.764   4.553   4.717
    1C        C  365   3.838   4.541   4.836
    1C        C  366   3.630   4.592   4.952
    1C        C  367   3.768   4.575   4.953
    1C        C  368   4.495   3.561   2.056
    1C        C  369   4.527   3.489   2.172
    1C        C  370   4.498   3.707   2.288
    1C        C  371   4.523   3.568   2.289
    1C        C  372   4.479   3.774   2.410
    1C        C  373   4.496   3.705   2.532
    1C        C  374   4.419   3.907   2.650
    1C        C  375   4.471   3.775   2.652
    1C        C  376   4.394   3.977   2.770
    1C        C  377   4.425   3.911   2.892
    1C        C  378   4.322   4.102   3.011
    1C        C  379   4.394   3.980   3.011
    1C        C  380   4.278   4.156   3.134
    1C        C  381   4.313   4.097   3.258
    1C        C  382   4.180   4.264   3.377
    1C        C  383   4.277   4.161   3.378
    1C        C  384   4.122   4.305   3.500
    1C        C  385   4.180   4.268   3.623
    1C        C  386   4.008   4.390   3.744
    1C        C  387   4.127   4.313   3.746
    1C        C  388   3.950   4.431   3.866
    1C        C  389   4.010   4.399   3.989
    1C        C  390   3.819   4.491   4.110
    1C        C  391   3.949   4.438   4.111
    1C        C  392   3.751   4.517   4.232
    1C        C  393   3.823   4.502   4.352
    1C        C  394   3.617   4.543   4.478
    1C        C  395   3.758   4.531   4.474
    1C        C  396   3.546   4.562   4.598
    1C        C  397   3.624   4.570   4.716
    1C        C  398   3.413   4.546   4.840
    1C        C  399   3.552   4.571   4.837
    1C        C  400   3.344   4.505   4.955
    1C        C  401   4.490   3.700   2.052
    1C        C  402   4.445   3.914   2.165
    1C        C  403   4.490   3.780   2.167
    1C        C  404   4.415   3.977   2.288
    1C        C  405   4.436   3.909   2.410
    1C        C  406   4.332   4.100   2.525
    1C        C  407   4.403   3.978   2.529
    1C        C  408   4.283   4.153   2.647
    1C        C  409   4.321   4.098   2.771
    1C        C  410   4.175   4.257   2.891
    1C        C  411   4.276   4.158   2.890
    1C        C  412   4.124   4.301   3.015
    1C        C  413   4.177   4.254   3.137
    1C        C  414   4.004   4.385   3.253
    1C        C  415   4.123   4.309   3.256
    1C        C  416   3.949   4.425   3.377
    1C        C  417   4.006   4.386   3.500
    1C        C  418   3.813   4.475   3.621
    1C        C  419   3.943   4.419   3.622
    1C        C  420   3.749   4.502   3.744
    1C        C  421   3.820   4.487   3.866
    1C        C  422   3.613   4.533   3.987
    1C        C  423   3.752   4.510   3.987
    1C        C  424   3.542   4.538   4.109
    1C        C  425   3.611   4.537   4.232
    1C        C  426   3.403   4.543   4.357
    1C        C  427   3.545   4.546   4.356
    1C        C  428   3.332   4.542   4.479
    1C        C  429   3.405   4.552   4.599
    1C        C  430   3.196   4.520   4.721
    1C        C  431   3.336   4.543   4.722
    1C        C  432   3.128   4.495   4.844
    1C        C  433   3.205   4.500   4.960
    1C        C  434   4.384   4.122   2.054
    1C        C  435   4.448   3.998   2.053
    1C        C  436   4.304   4.164   2.165
    1C        C  437   4.342   4.099   2.285
    1C        C  438   4.184   4.251   2.405
    1C        C  439   4.288   4.155   2.403
    1C        C  440   4.127   4.296   2.526
    1C        C  441   4.178   4.248   2.648
    1C        C  442   4.004   4.378   2.767
    1C        C  443   4.121   4.299   2.767
    1C        C  444   3.945   4.417   2.889
    1C        C  445   4.010   4.385   3.010
    1C        C  446   3.814   4.475   3.130
    1C        C  447   3.945   4.420   3.130
    1C        C  448   3.750   4.496   3.254
    1C        C  449   3.817   4.476   3.377
    1C        C  450   3.610   4.527   3.500
    1C        C  451   3.749   4.499   3.498
    1C        C  452   3.540   4.537   3.622
    1C        C  453   3.611   4.532   3.744
    1C        C  454   3.400   4.536   3.866
    1C        C  455   3.541   4.543   3.866
    1C        C  456   3.331   4.527   3.989
    1C        C  457   3.401   4.530   4.112
    1C        C  458   3.195   4.497   4.237
    1C        C  459   3.333   4.525   4.236
    1C        C  460   3.127   4.480   4.360
    1C        C  461   3.196   4.503   4.480
    1C        C  462   2.994   4.440   4.604
    1C        C  463   3.125   4.494   4.602
    1C        C  464   2.932   4.405   4.726
    1C        C  465   2.994   4.445   4.847
    1C        C  466   2.807   4.335   4.963
    1C        C  467   2.912   4.428   4.963
    1C        C  468   4.127   4.283   2.041
    1C        C  469   4.189   4.249   2.162
    1C        C  470   4.011   4.373   2.280
    1C        C  471   4.132   4.298   2.283
    1C        C  472   3.944   4.403   2.401
    1C        C  473   4.007   4.371   2.523
    1C        C  474   3.814   4.466   2.644
    1C        C  475   3.943   4.409   2.643
    1C        C  476   3.747   4.492   2.765
    1C        C  477   3.816   4.474   2.887
    1C        C  478   3.607   4.522   3.011
    1C        C  479   3.746   4.496   3.008
    1C        C  480   3.538   4.525   3.134
    1C        C  481   3.611   4.518   3.255
    1C        C  482   3.399   4.534   3.380
    1C        C  483   3.540   4.530   3.377
    1C        C  484   3.327   4.525   3.501
    1C        C  485   3.399   4.531   3.622
    1C        C  486   3.191   4.493   3.745
    1C        C  487   3.328   4.527   3.744
    1C        C  488   3.127   4.473   3.869
    1C        C  489   3.193   4.500   3.991
    1C        C  490   3.000   4.418   4.114
    1C        C  491   3.126   4.480   4.114
    1C        C  492   2.939   4.387   4.238
    1C        C  493   2.995   4.430   4.360
    1C        C  494   2.826   4.307   4.483
    1C        C  495   2.933   4.399   4.484
    1C        C  496   2.776   4.257   4.606
    1C        C  497   2.821   4.315   4.726
    1C        C  498   2.671   4.164   4.846
    1C        C  499   2.760   4.274   4.846
    1C        C  500   2.598   4.115   4.955
    1C        C  501   4.008   4.355   2.043
    1C        C  502   3.820   4.468   2.160
    1C        C  503   3.945   4.402   2.158
    1C        C  504   3.746   4.480   2.279
    1C        C  505   3.811   4.451   2.400
    1C        C  506   3.605   4.502   2.520
    1C        C  507   3.745   4.480   2.522
    1C        C  508   3.534   4.511   2.642
    1C        C  509   3.607   4.514   2.763
    1C        C  510   3.399   4.527   2.888
    1C        C  511   3.540   4.523   2.887
    1C        C  512   3.327   4.517   3.010
    1C        C  513   3.397   4.525   3.132
    1C        C  514   3.193   4.489   3.256
    1C        C  515   3.330   4.524   3.257
    1C        C  516   3.125   4.464   3.377
    1C        C  517   3.190   4.490   3.500
    1C        C  518   2.997   4.409   3.624
    1C        C  519   3.124   4.471   3.623
    1C        C  520   2.937   4.376   3.748
    1C        C  521   2.999   4.412   3.870
    1C        C  522   2.833   4.284   3.997
    1C        C  523   2.941   4.374   3.993
    1C        C  524   2.782   4.239   4.121
    1C        C  525   2.834   4.292   4.242
    1C        C  526   2.697   4.133   4.365
    1C        C  527   2.779   4.248   4.364
    1C        C  528   2.654   4.077   4.488
    1C        C  529   2.688   4.146   4.606
    1C        C  530   2.584   3.962   4.732
    1C        C  531   2.645   4.090   4.728
    1C        C  532   2.539   3.901   4.852
    1C        C  533   2.530   3.993   4.962
    1C        C  534   3.621   4.547   2.038
    1C        C  535   3.756   4.511   2.043
    1C        C  536   3.539   4.528   2.154
    1C        C  537   3.607   4.511   2.278
    1C        C  538   3.393   4.515   2.400
    1C        C  539   3.534   4.514   2.399
    1C        C  540   3.321   4.505   2.522
    1C        C  541   3.393   4.510   2.643
    1C        C  542   3.188   4.479   2.767
    1C        C  543   3.326   4.509   2.768
    1C        C  544   3.122   4.463   2.891
    1C        C  545   3.191   4.481   3.013
    1C        C  546   2.996   4.403   3.133
    1C        C  547   3.124   4.462   3.136
    1C        C  548   2.934   4.368   3.255
    1C        C  549   2.995   4.407   3.377
    1C        C  550   2.827   4.286   3.505
    1C        C  551   2.937   4.373   3.501
    1C        C  552   2.778   4.237   3.629
    1C        C  553   2.828   4.287   3.751
    1C        C  554   2.697   4.123   3.874
    1C        C  555   2.781   4.237   3.875
    1C        C  556   2.657   4.067   3.998
    1C        C  557   2.694   4.129   4.120
    1C        C  558   2.593   3.946   4.247
    1C        C  559   2.658   4.072   4.244
    1C        C  560   2.562   3.882   4.369
    1C        C  561   2.592   3.950   4.489
    1C        C  562   2.532   3.751   4.616
    1C        C  563   2.567   3.887   4.613
    1C        C  564   2.515   3.681   4.738
    1C        C  565   2.524   3.759   4.856
    1C        C  566   2.519   3.546   4.977
    1C        C  567   2.526   3.685   4.975
    1C        C  568   3.326   4.486   2.037
    1C        C  569   3.398   4.510   2.155
    1C        C  570   3.188   4.469   2.280
    1C        C  571   3.325   4.505   2.277
    1C        C  572   3.118   4.452   2.402
    1C        C  573   3.182   4.481   2.524
    1C        C  574   2.987   4.401   2.649
    1C        C  575   3.115   4.461   2.647
    1C        C  576   2.929   4.365   2.772
    1C        C  577   2.995   4.401   2.892
    1C        C  578   2.822   4.276   3.016
    1C        C  579   2.932   4.365   3.013
    1C        C  580   2.772   4.229   3.139
    1C        C  581   2.825   4.278   3.261
    1C        C  582   2.693   4.117   3.386
    1C        C  583   2.779   4.229   3.385
    1C        C  584   2.655   4.058   3.509
    1C        C  585   2.695   4.122   3.628
    1C        C  586   2.595   3.938   3.756
    1C        C  587   2.659   4.064   3.752
    1C        C  588   2.571   3.874   3.879
    1C        C  589   2.596   3.940   4.001
    1C        C  590   2.537   3.741   4.127
    1C        C  591   2.574   3.877   4.126
    1C        C  592   2.531   3.673   4.251
    1C        C  593   2.534   3.744   4.373
    1C        C  594   2.513   3.535   4.496
    1C        C  595   2.520   3.676   4.497
    1C        C  596   2.515   3.466   4.619
    1C        C  597   2.506   3.539   4.740
    1C        C  598   2.520   3.327   4.860
    1C        C  599   2.509   3.467   4.861
    1C        C  600   2.517   3.250   4.977
    1C        C  601   3.195   4.444   2.041
    1C        C  602   2.984   4.393   2.163
    1C        C  603   3.120   4.437   2.159
    1C        C  604   2.925   4.357   2.287
    1C        C  605   2.987   4.398   2.406
    1C        C  606   2.816   4.272   2.529
    1C        C  607   2.926   4.360   2.528
    1C        C  608   2.767   4.223   2.652
    1C        C  609   2.821   4.275   2.772
    1C        C  610   2.686   4.114   2.896
    1C        C  611   2.766   4.230   2.894
    1C        C  612   2.650   4.054   3.019
    1C        C  613   2.685   4.118   3.141
    1C        C  614   2.592   3.931   3.264
    1C        C  615   2.649   4.060   3.265
    1C        C  616   2.567   3.867   3.387
    1C        C  617   2.592   3.931   3.510
    1C        C  618   2.533   3.734   3.637
    1C        C  619   2.565   3.871   3.635
    1C        C  620   2.518   3.666   3.760
    1C        C  621   2.536   3.737   3.882
    1C        C  622   2.514   3.529   4.010
    1C        C  623   2.523   3.670   4.005
    1C        C  624   2.518   3.459   4.133
    1C        C  625   2.516   3.533   4.253
    1C        C  626   2.539   3.323   4.378
    1C        C  627   2.513   3.462   4.376
    1C        C  628   2.560   3.255   4.499
    1C        C  629   2.536   3.326   4.619
    1C        C  630   2.592   3.121   4.745
    1C        C  631   2.542   3.254   4.741
    1C        C  632   2.621   3.053   4.867
    1C        C  633   2.564   3.118   4.982
    1C        C  634   2.783   4.307   2.051
    1C        C  635   2.890   4.397   2.055
    1C        C  636   2.747   4.233   2.165
    1C        C  637   2.808   4.276   2.286
    1C        C  638   2.674   4.114   2.408
    1C        C  639   2.755   4.229   2.408
    1C        C  640   2.640   4.052   2.530
    1C        C  641   2.682   4.110   2.652
    1C        C  642   2.584   3.926   2.775
    1C        C  643   2.646   4.052   2.775
    1C        C  644   2.559   3.862   2.899
    1C        C  645   2.581   3.931   3.020
    1C        C  646   2.529   3.727   3.148
    1C        C  647   2.562   3.864   3.142
    1C        C  648   2.518   3.658   3.270
    1C        C  649   2.530   3.731   3.391
    1C        C  650   2.512   3.523   3.518
    1C        C  651   2.520   3.664   3.515
    1C        C  652   2.516   3.455   3.641
    1C        C  653   2.513   3.525   3.764
    1C        C  654   2.541   3.319   3.888
    1C        C  655   2.514   3.457   3.888
    1C        C  656   2.557   3.250   4.010
    1C        C  657   2.540   3.320   4.132
    1C        C  658   2.606   3.122   4.260
    1C        C  659   2.553   3.253   4.256
    1C        C  660   2.635   3.055   4.380
    1C        C  661   2.603   3.120   4.502
    1C        C  662   2.709   2.940   4.625
    1C        C  663   2.630   3.057   4.625
    1C        C  664   2.747   2.877   4.745
    1C        C  665   2.700   2.934   4.867
    1C        C  666   2.745   2.874   4.985
    1C        C  667   2.674   4.025   2.055
    1C        C  668   2.685   4.107   2.169
    1C        C  669   2.594   3.912   2.290
    1C        C  670   2.642   4.046   2.288
    1C        C  671   2.563   3.848   2.412
    1C        C  672   2.584   3.922   2.530
    1C        C  673   2.519   3.722   2.658
    1C        C  674   2.559   3.858   2.654
    1C        C  675   2.506   3.654   2.781
    1C        C  676   2.523   3.725   2.902
    1C        C  677   2.506   3.516   3.029
    1C        C  678   2.514   3.657   3.026
    1C        C  679   2.507   3.446   3.151
    1C        C  680   2.505   3.517   3.274
    1C        C  681   2.535   3.309   3.402
    1C        C  682   2.515   3.449   3.397
    1C        C  683   2.558   3.243   3.525
    1C        C  684   2.536   3.315   3.644
    1C        C  685   2.606   3.116   3.771
    1C        C  686   2.555   3.247   3.767
    1C        C  687   2.645   3.055   3.893
    1C        C  688   2.613   3.121   4.014
    1C        C  689   2.714   2.939   4.138
    1C        C  690   2.638   3.058   4.138
    1C        C  691   2.757   2.884   4.260
    1C        C  692   2.712   2.937   4.383
    1C        C  693   2.756   2.882   4.506
    1C        C  694   2.626   3.894   2.051
    1C        C  695   2.527   3.706   2.173
    1C        C  696   2.580   3.837   2.171
    1C        C  697   2.512   3.639   2.296
    1C        C  698   2.533   3.710   2.416
    1C        C  699   2.491   3.506   2.540
    1C        C  700   2.509   3.646   2.540
    1C        C  701   2.506   3.439   2.664
    1C        C  702   2.507   3.513   2.784
    1C        C  703   2.540   3.306   2.911
    1C        C  704   2.510   3.444   2.907
    1C        C  705   2.550   3.237   3.034
    1C        C  706   2.537   3.308   3.155
    1C        C  707   2.605   3.111   3.280
    1C        C  708   2.555   3.243   3.279
    1C        C  709   2.637   3.048   3.403
    1C        C  710   2.610   3.111   3.526
    1C        C  711   2.714   2.931   3.649
    1C        C  712   2.636   3.049   3.650
    1C        C  713   2.757   2.877   3.772
    1C        C  714   2.716   2.933   3.895
    1C        C  715   2.756   2.876   4.018
    1C        C  716   2.444   3.504   2.066
    1C        C  717   2.490   3.637   2.058
    1C        C  718   2.469   3.423   2.181
    1C        C  719   2.485   3.499   2.300
    1C        C  720   2.512   3.291   2.425
    1C        C  721   2.484   3.429   2.422
    1C        C  722   2.542   3.227   2.547
    1C        C  723   2.531   3.300   2.668
    1C        C  724   2.606   3.103   2.790
    1C        C  725   2.555   3.234   2.790
    1C        C  726   2.631   3.038   2.914
    1C        C  727   2.595   3.103   3.034
    1C        C  728   2.708   2.927   3.159
    1C        C  729   2.631   3.045   3.158
    1C        C  730   2.757   2.875   3.281
    1C        C  731   2.712   2.929   3.404
    1C        C  732   2.754   2.873   3.527
    1C        C  733   2.496   3.197   2.072
    1C        C  734   2.494   3.282   2.184
    1C        C  735   2.593   3.090   2.304
    1C        C  736   2.530   3.217   2.305
    1C        C  737   2.621   3.026   2.427
    1C        C  738   2.594   3.096   2.547
    1C        C  739   2.699   2.911   2.670
    1C        C  740   2.631   3.034   2.669
    1C        C  741   2.740   2.853   2.793
    1C        C  742   2.701   2.916   2.913
    1C        C  743   2.743   2.864   3.037
    1C        C  744   2.542   3.066   2.073
    1C        C  745   2.681   2.894   2.184
    1C        C  746   2.610   3.016   2.185
    1C        C  747   2.727   2.839   2.305
    1C        C  748   2.692   2.904   2.425
    1C        C  749   2.739   2.852   2.548
    1C        C  750   2.733   2.832   2.069
    1C        C  751   3.684   2.341   1.969
    1C        O  752   3.745   2.234   1.997
    1C        O  753   3.669   2.375   1.834
    1C        C  754   4.636   3.057   1.985
    1C        O  755   4.610   3.039   1.863
    1C        O  756   4.770   3.049   2.025
    1C        C  757   4.450   4.226   1.972
    1C        O  758   4.499   4.335   2.012
    1C        O  759   4.472   4.209   1.835
    1C        C  760   3.593   4.670   1.960
    1C        O  761   3.617   4.788   1.998
    1C        O  762   3.556   4.664   1.825
    1C        C  763   2.872   4.518   1.972
    1C        O  764   2.891   4.515   1.847
    1C        O  765   2.798   4.626   2.022
    1C        C  766   2.327   3.480   1.978
    1C        O  767   2.339   3.488   1.853
    1C        O  768   2.199   3.442   2.020
    1C        C  769   4.701   3.588   5.047
    1C        O  770   4.690   3.623   5.167
    1C        O  771   4.810   3.653   4.990
    1C        C  772   4.286   4.453   5.024
    1C        O  773   4.287   4.439   5.149
    1C        O  774   4.361   4.561   4.974
    1C        C  775   4.142   2.532   5.091
    1C        O  776   4.241   2.457   5.074
    1C        O  777   4.092   2.500   5.218
    1C        C  778   2.890   4.536   5.061
    1C        O  779   2.875   4.657   5.031
    1C        O  780   2.858   4.527   5.197
    1C        C  781   2.494   3.049   5.093
    1C        O  782   2.396   2.972   5.077
    1C        O  783   2.528   3.076   5.225
    1C        C  784   2.405   3.993   5.041
    1C        O  785   2.304   4.029   4.974
    1C        O  786   2.394   4.058   5.164
    1C        C  787   2.946   2.412   2.018
    1C        O  788   2.910   2.445   1.902
    1C        O  789   2.869   2.318   2.085
    1C        C  790   3.205   2.409   5.094
    1C        O  791   3.124   2.313   5.109
    1C        O  792   3.268   2.445   5.214
    1C        H  793   4.299   3.013   5.067
    1C        H  794   4.193   2.804   5.072
    1C        H  795   4.521   3.125   5.045
    1C        H  796   4.490   3.378   5.058
    1C        H  797   4.520   3.796   5.058
    1C        H  798   4.466   4.013   5.040
    1C        H  799   4.264   4.163   5.044
    1C        H  800   4.016   4.508   5.044
    1C        H  801   3.817   4.600   5.045
    1C        H  802   3.592   4.644   5.037
    1C        H  803   3.398   4.440   5.022
    1C        H  804   3.167   4.554   5.044
    1C        H  805   3.900   2.464   5.060
    1C        H  806   3.677   2.407   5.050
    1C        H  807   2.989   2.540   5.048
    1C        H  808   3.443   2.469   5.081
    1C        H  809   2.875   2.748   5.084
    1C        H  810   2.704   2.903   5.079
    1C        H  811   2.459   3.287   5.058
    1C        H  812   2.517   3.504   5.076
    1C        H  813   2.536   3.733   5.070
    1C        H  814   2.605   4.167   5.048
    1C        H  815   2.779   4.294   5.058
    1C        H  816   2.688   2.859   1.976
    1C        H  817   2.858   2.696   1.971
    1C        H  818   3.201   2.412   1.997
    1C        H  819   3.429   2.403   1.986
    1C        H  820   3.854   2.521   1.972
    1C        H  821   4.095   2.573   1.994
    1C        H  822   4.280   2.695   1.992
    1C        H  823   4.384   2.923   1.968
    1C        H  824   4.582   3.309   1.967
    1C        H  825   4.446   3.510   1.976
    1C        H  826   4.465   3.744   1.958
    1C        H  827   3.811   4.521   1.952
    1C        H  828   3.950   4.346   1.953
    1C        H  829   4.154   4.226   1.955
    1C        H  830   4.479   3.958   1.959
    1C        H  831   2.662   3.836   1.969
    1C        H  832   2.656   4.077   1.963
    1C        H  833   2.744   4.282   1.955
    1C        H  834   3.379   4.469   1.946
    1C        H  835   3.144   4.410   1.953
    1C        H  836   2.501   2.999   2.001
    1C        H  837   2.466   3.242   1.980
    1C        H  838   2.477   3.691   1.966
    2V3OU   H29  839   2.810   3.553   4.720
    2V3OU   C27  840   2.793   3.502   4.819
    2V3OU   H27  841   2.733   3.573   4.882
    2V3OU   H28  842   2.738   3.406   4.798
    2V3OU   O11  843   2.910   3.478   4.896
    2V3OU   C15  844   2.920   3.393   5.005
    2V3OU   C13  845   3.052   3.372   5.049
    2V3OU   C14  846   3.077   3.265   5.136
    2V3OU   C16  847   2.976   3.180   5.181
    2V3OU    H6  848   2.994   3.099   5.253
    2V3OU   C12  849   3.218   3.230   5.164
    2V3OU    O2  850   3.240   3.126   5.230
    2V3OU   C10  851   3.324   3.312   5.103
    2V3OU    C8  852   3.457   3.278   5.122
    2V3OU   O10  853   3.487   3.152   5.165
    2V3OU   H26  854   3.404   3.111   5.192
    2V3OU    C6  855   3.567   3.353   5.071
    2V3OU    C5  856   3.536   3.471   5.003
    2V3OU    C4  857   3.703   3.292   5.060
    2V3OU    H4  858   3.728   3.221   5.144
    2V3OU    H5  859   3.713   3.227   4.968
    2V3OU    C2  860   3.816   3.395   5.058
    2V3OU    O6  861   3.805   3.472   5.178
    2V3OU   H21  862   3.766   3.560   5.161
    2V3OU    C3  863   3.784   3.495   4.946
    2V3OU    H2  864   3.866   3.571   4.938
    2V3OU    H3  865   3.787   3.437   4.850
    2V3OU   C25  866   3.951   3.326   5.045
    2V3OU    O7  867   4.000   3.293   4.937
    2V3OU   C26  868   4.034   3.288   5.167
    2V3OU   H22  869   4.079   3.383   5.207
    2V3OU   H23  870   4.117   3.220   5.137
    2V3OU    O8  871   3.962   3.209   5.260
    2V3OU   H24  872   3.919   3.265   5.325
    2V3OU    C1  873   3.649   3.562   4.965
    2V3OU    H1  874   3.628   3.619   4.870
    2V3OU    O3  875   3.665   3.661   5.067
    2V3OU   C19  876   3.621   3.795   5.043
    2V3OU    H9  877   3.517   3.801   4.997
    2V3OU    O4  878   3.712   3.853   4.952
    2V3OU   C20  879   3.846   3.873   4.998
    2V3OU   H10  880   3.901   3.776   5.015
    2V3OU   C24  881   3.609   3.856   5.182
    2V3OU   H16  882   3.544   3.788   5.244
    2V3OU   H17  883   3.562   3.956   5.165
    2V3OU   C23  884   3.752   3.875   5.235
    2V3OU   H15  885   3.794   3.770   5.250
    2V3OU    N1  886   3.741   3.951   5.358
    2V3OU   H19  887   3.811   3.932   5.426
    2V3OU   H20  888   3.650   3.935   5.395
    2V3OU   C21  889   3.846   3.946   5.133
    2V3OU   H11  890   3.952   3.935   5.172
    2V3OU    O5  891   3.825   4.086   5.132
    2V3OU   H18  892   3.780   4.107   5.215
    2V3OU   C22  893   3.915   3.950   4.887
    2V3OU   H12  894   3.861   4.046   4.864
    2V3OU   H13  895   3.904   3.892   4.792
    2V3OU   H14  896   4.024   3.960   4.911
    2V3OU   C11  897   3.158   3.469   5.021
    2V3OU    O1  898   3.132   3.591   5.036
    2V3OU    C9  899   3.298   3.421   5.016
    2V3OU    C7  900   3.401   3.502   4.968
    2V3OU    O9  901   3.387   3.618   4.896
    2V3OU   H25  902   3.290   3.630   4.892
    2V3OU   C17  903   2.817   3.314   5.059
    2V3OU    H7  904   2.716   3.354   5.071
    2V3OU   C18  905   2.845   3.207   5.144
    2V3OU    H8  906   2.758   3.150   5.178
    3SOL     OW  907   2.990   4.234   5.247
    3SOL    HW1  908   2.966   4.298   5.175
    3SOL    HW2  909   2.970   4.274   5.336
    4SOL     OW  910   6.831   0.344   0.141
    4SOL    HW1  911   6.837   0.245   0.149
    4SOL    HW2  912   6.747   0.376   0.186
    5SOL     OW  913   4.293   0.932   1.489
    5SOL    HW1  914   4.230   0.923   1.566
    5SOL    HW2  915   4.283   1.023   1.449
    6SOL     OW  916   5.696   1.207   3.431
    6SOL    HW1  917   5.624   1.151   3.471
    6SOL    HW2  918   5.687   1.208   3.332
    7SOL     OW  919   1.201   4.318   5.426
    7SOL    HW1  920   1.191   4.330   5.327
    7SOL    HW2  921   1.248   4.232   5.445
    8SOL     OW  922   2.217   2.672   5.869
    8SOL    HW1  923   2.126   2.684   5.908
    8SOL    HW2  924   2.210   2.662   5.769
    9SOL     OW  925   6.551   1.497   6.498
    9SOL    HW1  926   6.621   1.558   6.460
    9SOL    HW2  927   6.587   1.452   6.579
   10SOL     OW  928   4.836   4.711   2.611
   10SOL    HW1  929   4.743   4.679   2.592
   10SOL    HW2  930   4.849   4.720   2.709
   11SOL     OW  931   2.009   0.790   6.937
   11SOL    HW1  932   1.942   0.810   6.866
   11SOL    HW2  933   2.068   0.869   6.951
   12SOL     OW  934   2.315   4.782   3.273
   12SOL    HW1  935   2.367   4.715   3.327
   12SOL    HW2  936   2.286   4.740   3.187
   13SOL     OW  937   4.418   6.273   2.767
   13SOL    HW1  938   4.382   6.312   2.682
   13SOL    HW2  939   4.396   6.175   2.769
   14SOL     OW  940   4.966   4.607   5.257
   14SOL    HW1  941   5.006   4.516   5.255
   14SOL    HW2  942   4.896   4.614   5.186
   15SOL     OW  943   0.756   5.901   6.247
   15SOL    HW1  944   0.809   5.979   6.278
   15SOL    HW2  945   0.806   5.817   6.267
   16SOL     OW  946   6.225   2.729   6.181
   16SOL    HW1  947   6.194   2.764   6.269
   16SOL    HW2  948   6.187   2.637   6.167
   17SOL     OW  949   6.182   0.652   6.008
   17SOL    HW1  950   6.254   0.696   5.955
   17SOL    HW2  951   6.093   0.678   5.970
   18SOL     OW  952   3.012   0.723   5.172
   18SOL    HW1  953   3.088   0.739   5.236
   18SOL    HW2  954   2.970   0.811   5.149
   19SOL     OW  955   1.177   1.424   3.152
   19SOL    HW1  956   1.264   1.469   3.131
   19SOL    HW2  957   1.167   1.343   3.094
   20SOL     OW  958   5.463   2.656   5.781
   20SOL    HW1  959   5.384   2.602   5.751
   20SOL    HW2  960   5.433   2.725   5.846
   21SOL     OW  961   3.738   6.222   2.859
   21SOL    HW1  962   3.788   6.139   2.887
   21SOL    HW2  963   3.644   6.198   2.837
   22SOL     OW  964   1.936   6.547   4.841
   22SOL    HW1  965   1.946   6.452   4.811
   22SOL    HW2  966   1.864   6.552   4.911
   23SOL     OW  967   5.199   4.671   1.965
   23SOL    HW1  968   5.252   4.589   1.988
   23SOL    HW2  969   5.113   4.644   1.922
   24SOL     OW  970   3.761   0.205   1.691
   24SOL    HW1  971   3.783   0.132   1.755
   24SOL    HW2  972   3.835   0.214   1.624
   25SOL     OW  973   2.647   6.951   3.273
   25SOL    HW1  974   2.587   0.007   3.275
   25SOL    HW2  975   2.735   6.977   3.234
   26SOL     OW  976   1.844   2.058   6.448
   26SOL    HW1  977   1.866   1.988   6.380
   26SOL    HW2  978   1.801   2.015   6.527
   27SOL     OW  979   6.641   0.956   2.276
   27SOL    HW1  980   6.657   1.042   2.228
   27SOL    HW2  981   6.722   0.898   2.267
   28SOL     OW  982   1.864   0.947   4.995
   28SOL    HW1  983   1.884   0.939   5.092
   28SOL    HW2  984   1.857   0.855   4.954
   29SOL     OW  985   6.874   0.999   6.998
   29SOL    HW1  986   6.797   0.936   6.996
   29SOL    HW2  987   6.932   0.978   0.053
   30SOL     OW  988   3.541   0.551   4.834
   30SOL    HW1  989   3.527   0.649   4.817
   30SOL    HW2  990   3.452   0.504   4.834
   31SOL     OW  991   0.293   2.725   5.032
   31SOL    HW1  992   0.279   2.823   5.046
   31SOL    HW2  993   0.273   2.702   4.937
   32SOL     OW  994   1.473   1.196   0.640
   32SOL    HW1  995   1.386   1.148   0.646
   32SOL    HW2  996   1.494   1.239   0.728
   33SOL     OW  997   0.446   3.764   6.145
   33SOL    HW1  998   0.471   3.688   6.205
   33SOL    HW2  999   0.365   3.810   6.182
   34SOL     OW 1000   1.912   5.417   5.224
   34SOL    HW1 1001   1.971   5.493   5.252
   34SOL    HW2 1002   1.850   5.394   5.298
   35SOL     OW 1003   3.664   3.043   6.649
   35SOL    HW1 1004   3.661   3.119   6.583
   35SOL    HW2 1005   3.572   3.004   6.659
   36SOL     OW 1006   4.925   0.754   4.149
   36SOL    HW1 1007   4.989   0.829   4.131
   36SOL    HW2 1008   4.975   0.667   4.144
   37SOL     OW 1009   2.070   1.514   3.643
   37SOL    HW1 1010   2.009   1.588   3.671
   37SOL    HW2 1011   2.129   1.489   3.720
   38SOL     OW 1012   1.835   5.450   2.074
   38SOL    HW1 1013   1.805   5.446   1.979
   38SOL    HW2 1014   1.866   5.359   2.103
   39SOL     OW 1015   5.804   5.122   6.702
   39SOL    HW1 1016   5.798   5.047   6.768
   39SOL    HW2 1017   5.754   5.201   6.736
   40SOL     OW 1018   3.436   0.524   6.553
   40SOL    HW1 1019   3.397   0.432   6.563
   40SOL    HW2 1020   3.380   0.590   6.602
   41SOL     OW 1021   5.743   4.127   2.171
   41SOL    HW1 1022   5.769   4.030   2.161
   41SOL    HW2 1023   5.803   4.171   2.238
   42SOL     OW 1024   3.042   5.530   4.685
   42SOL    HW1 1025   3.111   5.598   4.663
   42SOL    HW2 1026   3.025   5.472   4.605
   43SOL     OW 1027   4.338   0.064   4.938
   43SOL    HW1 1028   4.364   0.010   4.858
   43SOL    HW2 1029   4.408   0.054   5.008
   44SOL     OW 1030   6.181   3.451   4.866
   44SOL    HW1 1031   6.209   3.443   4.962
   44SOL    HW2 1032   6.251   3.409   4.807
   45SOL     OW 1033   4.416   5.686   0.812
   45SOL    HW1 1034   4.323   5.685   0.848
   45SOL    HW2 1035   4.430   5.607   0.752
   46SOL     OW 1036   0.371   3.130   4.240
   46SOL    HW1 1037   0.310   3.122   4.318
   46SOL    HW2 1038   0.465   3.145   4.272
   47SOL     OW 1039   5.351   3.307   2.022
   47SOL    HW1 1040   5.334   3.209   2.014
   47SOL    HW2 1041   5.266   3.357   2.002
   48SOL     OW 1042   6.898   3.322   0.031
   48SOL    HW1 1043   6.827   3.365   6.999
   48SOL    HW2 1044   6.869   3.230   0.057
   49SOL     OW 1045   4.973   3.112   0.264
   49SOL    HW1 1046   4.982   3.175   0.187
   49SOL    HW2 1047   4.878   3.112   0.297
   50SOL     OW 1048   6.032   2.082   6.085
   50SOL    HW1 1049   5.988   2.047   6.003
   50SOL    HW2 1050   6.123   2.117   6.063
   51SOL     OW 1051   1.887   4.819   3.345
   51SOL    HW1 1052   1.835   4.825   3.260
   51SOL    HW2 1053   1.972   4.871   3.336
   52SOL     OW 1054   5.407   3.365   1.717
   52SOL    HW1 1055   5.338   3.384   1.786
   52SOL    HW2 1056   5.426   3.266   1.716
   53SOL     OW 1057   4.795   0.061   3.385
   53SOL    HW1 1058   4.803   6.993   3.346
   53SOL    HW2 1059   4.860   0.122   3.341
   54SOL     OW 1060   5.723   5.983   0.516
   54SOL    HW1 1061   5.770   5.917   0.458
   54SOL    HW2 1062   5.629   5.952   0.531
   55SOL     OW 1063   2.255   2.509   6.483
   55SOL    HW1 1064   2.212   2.552   6.562
   55SOL    HW2 1065   2.330   2.450   6.515
   56SOL     OW 1066   1.577   1.868   0.056
   56SOL    HW1 1067   1.572   1.841   0.152
   56SOL    HW2 1068   1.671   1.894   0.034
   57SOL     OW 1069   3.916   0.947   0.093
   57SOL    HW1 1070   3.933   0.972   7.022
   57SOL    HW2 1071   3.904   0.848   0.100
   58SOL     OW 1072   1.008   0.433   6.133
   58SOL    HW1 1073   0.995   0.515   6.188
   58SOL    HW2 1074   0.931   0.370   6.148
   59SOL     OW 1075   6.461   3.655   6.301
   59SOL    HW1 1076   6.525   3.590   6.340
   59SOL    HW2 1077   6.368   3.617   6.305
   60SOL     OW 1078   5.667   0.531   3.433
   60SOL    HW1 1079   5.745   0.488   3.387
   60SOL    HW2 1080   5.669   0.510   3.531
   61SOL     OW 1081   0.418   1.473   4.257
   61SOL    HW1 1082   0.387   1.513   4.170
   61SOL    HW2 1083   0.503   1.518   4.286
   62SOL     OW 1084   0.854   1.225   2.034
   62SOL    HW1 1085   0.765   1.219   2.079
   62SOL    HW2 1086   0.858   1.308   1.978
   63SOL     OW 1087   3.773   6.203   4.031
   63SOL    HW1 1088   3.726   6.222   4.117
   63SOL    HW2 1089   3.855   6.260   4.024
   64SOL     OW 1090   1.405   4.139   6.685
   64SOL    HW1 1091   1.460   4.092   6.616
   64SOL    HW2 1092   1.452   4.133   6.774
   65SOL     OW 1093   0.695   0.504   5.434
   65SOL    HW1 1094   0.629   0.478   5.504
   65SOL    HW2 1095   0.670   0.463   5.347
   66SOL     OW 1096   3.658   0.020   2.290
   66SOL    HW1 1097   3.737   0.077   2.272
   66SOL    HW2 1098   3.648   0.006   2.388
   67SOL     OW 1099   0.437   2.121   0.817
   67SOL    HW1 1100   0.444   2.067   0.900
   67SOL    HW2 1101   0.524   2.118   0.767
   68SOL     OW 1102   6.963   2.298   5.488
   68SOL    HW1 1103   6.888   2.235   5.467
   68SOL    HW2 1104   6.933   2.363   5.558
   69SOL     OW 1105   0.829   5.210   5.782
   69SOL    HW1 1106   0.915   5.214   5.832
   69SOL    HW2 1107   0.775   5.292   5.801
   70SOL     OW 1108   5.354   3.147   4.643
   70SOL    HW1 1109   5.321   3.066   4.596
   70SOL    HW2 1110   5.322   3.229   4.595
   71SOL     OW 1111   4.695   1.642   4.687
   71SOL    HW1 1112   4.670   1.562   4.742
   71SOL    HW2 1113   4.619   1.707   4.686
   72SOL     OW 1114   0.231   0.631   3.768
   72SOL    HW1 1115   0.286   0.648   3.686
   72SOL    HW2 1116   0.171   0.553   3.753
   73SOL     OW 1117   3.110   0.583   0.298
   73SOL    HW1 1118   3.099   0.682   0.306
   73SOL    HW2 1119   3.119   0.544   0.390
   74SOL     OW 1120   2.564   1.402   6.334
   74SOL    HW1 1121   2.494   1.426   6.402
   74SOL    HW2 1122   2.649   1.379   6.380
   75SOL     OW 1123   4.164   1.536   1.099
   75SOL    HW1 1124   4.224   1.508   1.175
   75SOL    HW2 1125   4.110   1.615   1.127
   76SOL     OW 1126   2.811   4.432   5.433
   76SOL    HW1 1127   2.753   4.490   5.491
   76SOL    HW2 1128   2.833   4.481   5.349
   77SOL     OW 1129   2.118   5.648   4.465
   77SOL    HW1 1130   2.089   5.742   4.446
   77SOL    HW2 1131   2.051   5.584   4.429
   78SOL     OW 1132   4.540   1.877   1.102
   78SOL    HW1 1133   4.552   1.937   1.181
   78SOL    HW2 1134   4.458   1.903   1.051
   79SOL     OW 1135   2.088   5.108   1.795
   79SOL    HW1 1136   2.009   5.138   1.741
   79SOL    HW2 1137   2.102   5.171   1.871
   80SOL     OW 1138   4.494   1.952   5.064
   80SOL    HW1 1139   4.492   1.990   4.972
   80SOL    HW2 1140   4.566   1.997   5.117
   81SOL     OW 1141   1.967   6.561   1.206
   81SOL    HW1 1142   1.972   6.476   1.154
   81SOL    HW2 1143   1.890   6.557   1.270
   82SOL     OW 1144   0.802   5.827   1.839
   82SOL    HW1 1145   0.791   5.757   1.910
   82SOL    HW2 1146   0.771   5.915   1.875
   83SOL     OW 1147   6.276   2.118   5.725
   83SOL    HW1 1148   6.306   2.066   5.645
   83SOL    HW2 1149   6.252   2.211   5.697
   84SOL     OW 1150   6.567   3.333   3.759
   84SOL    HW1 1151   6.566   3.392   3.678
   84SOL    HW2 1152   6.579   3.388   3.841
   85SOL     OW 1153   1.726   6.961   3.949
   85SOL    HW1 1154   1.676   6.896   4.005
   85SOL    HW2 1155   1.662   7.021   3.902
   86SOL     OW 1156   5.748   1.189   6.142
   86SOL    HW1 1157   5.669   1.244   6.170
   86SOL    HW2 1158   5.825   1.249   6.124
   87SOL     OW 1159   4.084   4.577   7.008
   87SOL    HW1 1160   4.055   4.655   6.952
   87SOL    HW2 1161   4.175   4.547   6.978
   88SOL     OW 1162   2.836   2.953   5.759
   88SOL    HW1 1163   2.847   2.869   5.706
   88SOL    HW2 1164   2.747   2.952   5.805
   89SOL     OW 1165   3.050   3.025   2.449
   89SOL    HW1 1166   3.046   3.028   2.549
   89SOL    HW2 1167   2.972   2.975   2.413
   90SOL     OW 1168   4.973   3.533   2.958
   90SOL    HW1 1169   5.046   3.598   2.940
   90SOL    HW2 1170   4.885   3.573   2.931
   91SOL     OW 1171   5.527   5.614   6.121
   91SOL    HW1 1172   5.582   5.612   6.204
   91SOL    HW2 1173   5.573   5.562   6.049
   92SOL     OW 1174   5.012   4.655   0.031
   92SOL    HW1 1175   5.094   4.598   0.035
   92SOL    HW2 1176   4.931   4.599   0.047
   93SOL     OW 1177   2.987   2.904   1.152
   93SOL    HW1 1178   3.001   2.943   1.243
   93SOL    HW2 1179   2.943   2.972   1.093
   94SOL     OW 1180   3.045   0.193   6.294
   94SOL    HW1 1181   3.006   0.102   6.305
   94SOL    HW2 1182   3.107   0.193   6.215
   95SOL     OW 1183   0.439   0.793   4.429
   95SOL    HW1 1184   0.423   0.753   4.519
   95SOL    HW2 1185   0.443   0.720   4.360
   96SOL     OW 1186   4.741   5.036   6.853
   96SOL    HW1 1187   4.696   5.090   6.924
   96SOL    HW2 1188   4.830   5.005   6.885
   97SOL     OW 1189   1.702   4.982   5.693
   97SOL    HW1 1190   1.689   4.910   5.626
   97SOL    HW2 1191   1.789   5.029   5.675
   98SOL     OW 1192   1.043   2.485   2.352
   98SOL    HW1 1193   1.074   2.472   2.258
   98SOL    HW2 1194   1.068   2.577   2.383
   99SOL     OW 1195   3.577   3.391   3.497
   99SOL    HW1 1196   3.508   3.328   3.461
   99SOL    HW2 1197   3.664   3.344   3.508
  100SOL     OW 1198   0.075   6.840   4.240
  100SOL    HW1 1199   0.058   6.743   4.260
  100SOL    HW2 1200   0.124   6.847   4.153
  101SOL     OW 1201   0.859   4.605   2.346
  101SOL    HW1 1202   0.847   4.519   2.295
  101SOL    HW2 1203   0.914   4.668   2.292
  102SOL     OW 1204   2.894   6.222   1.735
  102SOL    HW1 1205   2.949   6.150   1.692
  102SOL    HW2 1206   2.923   6.311   1.699
  103SOL     OW 1207   1.936   1.379   2.300
  103SOL    HW1 1208   1.976   1.338   2.382
  103SOL    HW2 1209   1.952   1.477   2.301
  104SOL     OW 1210   0.968   4.163   1.950
  104SOL    HW1 1211   1.051   4.136   1.901
  104SOL    HW2 1212   0.959   4.108   2.033
  105SOL     OW 1213   5.697   1.731   6.689
  105SOL    HW1 1214   5.606   1.702   6.659
  105SOL    HW2 1215   5.694   1.757   6.785
  106SOL     OW 1216   5.261   5.319   1.653
  106SOL    HW1 1217   5.191   5.262   1.695
  106SOL    HW2 1218   5.331   5.262   1.611
  107SOL     OW 1219   6.949   1.426   0.329
  107SOL    HW1 1220   6.925   1.429   0.232
  107SOL    HW2 1221   6.868   1.444   0.384
  108SOL     OW 1222   1.851   0.691   4.884
  108SOL    HW1 1223   1.790   0.618   4.855
  108SOL    HW2 1224   1.890   0.736   4.803
  109SOL     OW 1225   3.655   1.184   3.063
  109SOL    HW1 1226   3.652   1.233   2.976
  109SOL    HW2 1227   3.631   1.088   3.048
  110SOL     OW 1228   2.443   4.348   5.938
  110SOL    HW1 1229   2.478   4.261   5.903
  110SOL    HW2 1230   2.503   4.422   5.908
  111SOL     OW 1231   5.850   1.384   2.473
  111SOL    HW1 1232   5.903   1.408   2.392
  111SOL    HW2 1233   5.782   1.314   2.449
  112SOL     OW 1234   4.335   6.837   6.774
  112SOL    HW1 1235   4.286   6.912   6.820
  112SOL    HW2 1236   4.270   6.765   6.750
  113SOL     OW 1237   6.340   5.917   2.849
  113SOL    HW1 1238   6.380   5.841   2.799
  113SOL    HW2 1239   6.399   5.998   2.840
  114SOL     OW 1240   1.130   4.329   3.809
  114SOL    HW1 1241   1.189   4.336   3.729
  114SOL    HW2 1242   1.142   4.411   3.866
  115SOL     OW 1243   5.663   0.808   3.451
  115SOL    HW1 1244   5.666   0.710   3.431
  115SOL    HW2 1245   5.756   0.844   3.455
  116SOL     OW 1246   0.966   5.688   1.119
  116SOL    HW1 1247   0.992   5.781   1.144
  116SOL    HW2 1248   0.867   5.679   1.120
  117SOL     OW 1249   2.758   1.458   0.158
  117SOL    HW1 1250   2.660   1.473   0.175
  117SOL    HW2 1251   2.771   1.416   0.069
  118SOL     OW 1252   1.084   1.181   3.414
  118SOL    HW1 1253   1.124   1.268   3.386
  118SOL    HW2 1254   1.156   1.119   3.445
  119SOL     OW 1255   6.855   0.046   6.959
  119SOL    HW1 1256   6.890   6.976   6.949
  119SOL    HW2 1257   6.826   0.080   6.869
  120SOL     OW 1258   4.849   0.873   5.339
  120SOL    HW1 1259   4.761   0.867   5.387
  120SOL    HW2 1260   4.919   0.824   5.391
  121SOL     OW 1261   1.364   3.100   0.024
  121SOL    HW1 1262   1.453   3.076   7.011
  121SOL    HW2 1263   1.296   3.033   7.020
  122SOL     OW 1264   1.470   4.155   6.950
  122SOL    HW1 1265   1.521   4.240   6.962
  122SOL    HW2 1266   1.377   4.167   6.985
  123SOL     OW 1267   1.147   1.168   1.424
  123SOL    HW1 1268   1.198   1.082   1.430
  123SOL    HW2 1269   1.205   1.238   1.383
  124SOL     OW 1270   2.739   2.126   0.918
  124SOL    HW1 1271   2.796   2.199   0.955
  124SOL    HW2 1272   2.645   2.137   0.951
  125SOL     OW 1273   3.080   2.507   6.943
  125SOL    HW1 1274   3.068   2.458   6.857
  125SOL    HW2 1275   3.071   2.605   6.926
  126SOL     OW 1276   3.714   3.028   3.284
  126SOL    HW1 1277   3.671   2.949   3.239
  126SOL    HW2 1278   3.715   3.105   3.221
  127SOL     OW 1279   0.197   5.878   6.154
  127SOL    HW1 1280   0.167   5.874   6.059
  127SOL    HW2 1281   0.217   5.972   6.179
  128SOL     OW 1282   4.625   3.725   1.449
  128SOL    HW1 1283   4.600   3.745   1.543
  128SOL    HW2 1284   4.562   3.771   1.386
  129SOL     OW 1285   2.194   6.221   1.297
  129SOL    HW1 1286   2.267   6.174   1.347
  129SOL    HW2 1287   2.112   6.164   1.296
  130SOL     OW 1288   5.361   1.998   4.771
  130SOL    HW1 1289   5.441   2.004   4.711
  130SOL    HW2 1290   5.387   2.026   4.864
  131SOL     OW 1291   0.413   1.966   3.849
  131SOL    HW1 1292   0.316   1.971   3.824
  131SOL    HW2 1293   0.424   1.993   3.945
  132SOL     OW 1294   3.294   4.085   1.907
  132SOL    HW1 1295   3.222   4.090   1.977
  132SOL    HW2 1296   3.345   4.000   1.918
  133SOL     OW 1297   5.143   6.924   4.732
  133SOL    HW1 1298   5.151   6.991   4.659
  133SOL    HW2 1299   5.155   6.832   4.694
  134SOL     OW 1300   5.971   0.733   2.089
  134SOL    HW1 1301   5.968   0.787   2.174
  134SOL    HW2 1302   5.968   0.794   2.010
  135SOL     OW 1303   5.072   3.553   4.412
  135SOL    HW1 1304   5.129   3.562   4.330
  135SOL    HW2 1305   5.033   3.642   4.435
  136SOL     OW 1306   2.629   6.414   4.385
  136SOL    HW1 1307   2.658   6.426   4.290
  136SOL    HW2 1308   2.636   6.317   4.409
  137SOL     OW 1309   3.227   2.103   4.850
  137SOL    HW1 1310   3.145   2.147   4.886
  137SOL    HW2 1311   3.203   2.013   4.813
  138SOL     OW 1312   1.049   5.258   4.652
  138SOL    HW1 1313   1.094   5.196   4.588
  138SOL    HW2 1314   1.010   5.336   4.603
  139SOL     OW 1315   2.003   6.075   6.803
  139SOL    HW1 1316   2.055   6.141   6.857
  139SOL    HW2 1317   2.045   6.066   6.712
  140SOL     OW 1318   2.550   0.814   2.938
  140SOL    HW1 1319   2.599   0.857   2.862
  140SOL    HW2 1320   2.460   0.786   2.908
  141SOL     OW 1321   6.734   4.087   0.395
  141SOL    HW1 1322   6.694   4.174   0.370
  141SOL    HW2 1323   6.678   4.012   0.359
  142SOL     OW 1324   0.809   4.254   1.627
  142SOL    HW1 1325   0.874   4.178   1.622
  142SOL    HW2 1326   0.856   4.339   1.607
  143SOL     OW 1327   5.757   6.952   1.556
  143SOL    HW1 1328   5.816   0.004   1.530
  143SOL    HW2 1329   5.736   6.958   1.654
  144SOL     OW 1330   2.848   4.743   3.827
  144SOL    HW1 1331   2.811   4.766   3.917
  144SOL    HW2 1332   2.942   4.775   3.820
  145SOL     OW 1333   6.593   4.873   2.785
  145SOL    HW1 1334   6.689   4.844   2.779
  145SOL    HW2 1335   6.569   4.890   2.880
  146SOL     OW 1336   6.362   1.954   5.506
  146SOL    HW1 1337   6.458   1.957   5.480
  146SOL    HW2 1338   6.320   1.870   5.472
  147SOL     OW 1339   5.069   1.136   5.069
  147SOL    HW1 1340   4.984   1.083   5.069
  147SOL    HW2 1341   5.076   1.187   4.983
  148SOL     OW 1342   1.324   4.678   1.119
  148SOL    HW1 1343   1.229   4.674   1.149
  148SOL    HW2 1344   1.331   4.646   1.025
  149SOL     OW 1345   2.362   2.263   5.155
  149SOL    HW1 1346   2.349   2.351   5.201
  149SOL    HW2 1347   2.276   2.235   5.113
  150SOL     OW 1348   4.714   1.332   5.265
  150SOL    HW1 1349   4.626   1.318   5.310
  150SOL    HW2 1350   4.754   1.243   5.242
  151SOL     OW 1351   4.175   2.126   0.744
  151SOL    HW1 1352   4.127   2.038   0.742
  151SOL    HW2 1353   4.200   2.152   0.651
  152SOL     OW 1354   0.950   1.437   6.881
  152SOL    HW1 1355   0.882   1.364   6.887
  152SOL    HW2 1356   0.921   1.505   6.814
  153SOL     OW 1357   2.279   1.428   3.804
  153SOL    HW1 1358   2.314   1.401   3.894
  153SOL    HW2 1359   2.351   1.473   3.752
  154SOL     OW 1360   6.202   2.064   1.454
  154SOL    HW1 1361   6.236   2.029   1.542
  154SOL    HW2 1362   6.112   2.024   1.435
  155SOL     OW 1363   0.487   0.327   2.240
  155SOL    HW1 1364   0.403   0.309   2.189
  155SOL    HW2 1365   0.465   0.337   2.337
  156SOL     OW 1366   4.506   0.804   0.161
  156SOL    HW1 1367   4.579   0.743   0.193
  156SOL    HW2 1368   4.491   0.788   0.063
  157SOL     OW 1369   5.211   3.890   0.616
  157SOL    HW1 1370   5.295   3.843   0.642
  157SOL    HW2 1371   5.217   3.986   0.642
  158SOL     OW 1372   1.248   3.207   2.643
  158SOL    HW1 1373   1.320   3.194   2.711
  158SOL    HW2 1374   1.163   3.166   2.676
  159SOL     OW 1375   5.106   5.527   0.633
  159SOL    HW1 1376   5.116   5.436   0.593
  159SOL    HW2 1377   5.117   5.521   0.732
  160SOL     OW 1378   5.797   0.362   0.502
  160SOL    HW1 1379   5.735   0.405   0.567
  160SOL    HW2 1380   5.769   0.384   0.409
  161SOL     OW 1381   0.798   6.968   0.240
  161SOL    HW1 1382   0.827   0.021   0.298
  161SOL    HW2 1383   0.878   6.913   0.215
  162SOL     OW 1384   2.404   6.302   0.110
  162SOL    HW1 1385   2.471   6.229   0.095
  162SOL    HW2 1386   2.435   6.386   0.066
  163SOL     OW 1387   6.538   4.251   3.353
  163SOL    HW1 1388   6.492   4.258   3.265
  163SOL    HW2 1389   6.474   4.217   3.422
  164SOL     OW 1390   1.464   1.836   2.816
  164SOL    HW1 1391   1.539   1.779   2.783
  164SOL    HW2 1392   1.392   1.778   2.853
  165SOL     OW 1393   0.558   5.946   2.595
  165SOL    HW1 1394   0.532   6.023   2.653
  165SOL    HW2 1395   0.610   5.979   2.516
  166SOL     OW 1396   6.356   4.189   2.343
  166SOL    HW1 1397   6.353   4.217   2.247
  166SOL    HW2 1398   6.364   4.270   2.401
  167SOL     OW 1399   5.085   1.377   0.418
  167SOL    HW1 1400   5.136   1.433   0.484
  167SOL    HW2 1401   4.991   1.409   0.412
  168SOL     OW 1402   4.907   3.923   1.640
  168SOL    HW1 1403   4.816   3.962   1.647
  168SOL    HW2 1404   4.903   3.824   1.656
  169SOL     OW 1405   5.889   2.952   1.041
  169SOL    HW1 1406   5.830   2.872   1.046
  169SOL    HW2 1407   5.889   2.988   0.948
  170SOL     OW 1408   1.337   5.071   3.013
  170SOL    HW1 1409   1.244   5.036   3.011
  170SOL    HW2 1410   1.391   5.020   3.080
  171SOL     OW 1411   2.086   3.203   0.607
  171SOL    HW1 1412   2.114   3.115   0.645
  171SOL    HW2 1413   2.109   3.206   0.509
  172SOL     OW 1414   5.737   2.326   2.010
  172SOL    HW1 1415   5.787   2.411   1.988
  172SOL    HW2 1416   5.747   2.306   2.107
  173SOL     OW 1417   6.192   1.351   5.091
  173SOL    HW1 1418   6.182   1.419   5.018
  173SOL    HW2 1419   6.289   1.330   5.104
  174SOL     OW 1420   5.402   5.749   5.293
  174SOL    HW1 1421   5.444   5.833   5.260
  174SOL    HW2 1422   5.407   5.746   5.393
  175SOL     OW 1423   1.494   0.459   0.818
  175SOL    HW1 1424   1.542   0.499   0.740
  175SOL    HW2 1425   1.431   0.527   0.857
  176SOL     OW 1426   4.975   4.694   2.374
  176SOL    HW1 1427   4.910   4.662   2.443
  176SOL    HW2 1428   4.937   4.775   2.328
  177SOL     OW 1429   5.555   1.924   4.572
  177SOL    HW1 1430   5.556   1.989   4.496
  177SOL    HW2 1431   5.536   1.832   4.537
  178SOL     OW 1432   2.348   6.304   4.955
  178SOL    HW1 1433   2.435   6.283   4.910
  178SOL    HW2 1434   2.344   6.401   4.977
  179SOL     OW 1435   4.329   5.032   0.567
  179SOL    HW1 1436   4.284   4.968   0.504
  179SOL    HW2 1437   4.370   5.107   0.516
  180SOL     OW 1438   3.889   0.305   1.058
  180SOL    HW1 1439   3.864   0.313   0.962
  180SOL    HW2 1440   3.978   0.260   1.067
  181SOL     OW 1441   3.190   2.343   5.464
  181SOL    HW1 1442   3.278   2.320   5.505
  181SOL    HW2 1443   3.205   2.379   5.372
  182SOL     OW 1444   5.554   2.567   0.102
  182SOL    HW1 1445   5.608   2.527   0.176
  182SOL    HW2 1446   5.594   2.655   0.075
  183SOL     OW 1447   3.530   1.739   4.509
  183SOL    HW1 1448   3.578   1.772   4.428
  183SOL    HW2 1449   3.437   1.776   4.511
  184SOL     OW 1450   0.504   6.573   3.609
  184SOL    HW1 1451   0.569   6.571   3.685
  184SOL    HW2 1452   0.549   6.539   3.526
  185SOL     OW 1453   0.357   1.677   4.064
  185SOL    HW1 1454   0.442   1.710   4.104
  185SOL    HW2 1455   0.280   1.705   4.120
  186SOL     OW 1456   5.318   5.502   4.343
  186SOL    HW1 1457   5.377   5.551   4.279
  186SOL    HW2 1458   5.300   5.559   4.423
  187SOL     OW 1459   3.947   5.663   2.919
  187SOL    HW1 1460   3.942   5.731   2.846
  187SOL    HW2 1461   4.040   5.661   2.956
  188SOL     OW 1462   2.446   2.303   2.799
  188SOL    HW1 1463   2.412   2.382   2.749
  188SOL    HW2 1464   2.417   2.219   2.754
  189SOL     OW 1465   6.497   5.509   6.841
  189SOL    HW1 1466   6.548   5.505   6.755
  189SOL    HW2 1467   6.560   5.499   6.918
  190SOL     OW 1468   6.186   5.977   0.271
  190SOL    HW1 1469   6.169   5.880   0.287
  190SOL    HW2 1470   6.099   6.023   0.254
  191SOL     OW 1471   6.458   0.779   6.253
  191SOL    HW1 1472   6.547   0.780   6.207
  191SOL    HW2 1473   6.388   0.742   6.192
  192SOL     OW 1474   0.172   4.942   1.051
  192SOL    HW1 1475   0.144   5.028   1.007
  192SOL    HW2 1476   0.140   4.942   1.145
  193SOL     OW 1477   3.244   4.881   6.575
  193SOL    HW1 1478   3.333   4.847   6.603
  193SOL    HW2 1479   3.256   4.967   6.525
  194SOL     OW 1480   3.907   6.591   2.075
  194SOL    HW1 1481   3.847   6.668   2.096
  194SOL    HW2 1482   3.860   6.527   2.014
  195SOL     OW 1483   3.247   0.846   1.845
  195SOL    HW1 1484   3.291   0.898   1.772
  195SOL    HW2 1485   3.213   0.909   1.915
  196SOL     OW 1486   2.600   1.070   6.460
  196SOL    HW1 1487   2.661   1.149   6.463
  196SOL    HW2 1488   2.522   1.089   6.400
  197SOL     OW 1489   2.182   6.178   0.000
  197SOL    HW1 1490   2.246   6.229   0.057
  197SOL    HW2 1491   2.108   6.238   6.996
  198SOL     OW 1492   4.475   5.971   0.694
  198SOL    HW1 1493   4.485   6.009   0.786
  198SOL    HW2 1494   4.496   5.873   0.696
  199SOL     OW 1495   5.599   0.566   2.385
  199SOL    HW1 1496   5.578   0.615   2.300
  199SOL    HW2 1497   5.543   0.484   2.391
  200SOL     OW 1498   1.521   3.542   2.101
  200SOL    HW1 1499   1.549   3.620   2.157
  200SOL    HW2 1500   1.431   3.510   2.132
  201SOL     OW 1501   2.836   0.824   7.009
  201SOL    HW1 1502   2.861   0.864   6.921
  201SOL    HW2 1503   2.903   0.852   0.054
  202SOL     OW 1504   4.655   6.482   4.090
  202SOL    HW1 1505   4.735   6.433   4.055
  202SOL    HW2 1506   4.675   6.519   4.180
  203SOL     OW 1507   5.109   3.528   6.129
  203SOL    HW1 1508   5.014   3.554   6.107
  203SOL    HW2 1509   5.158   3.608   6.162
  204SOL     OW 1510   1.531   0.171   0.581
  204SOL    HW1 1511   1.551   0.268   0.562
  204SOL    HW2 1512   1.582   0.114   0.517
  205SOL     OW 1513   6.788   1.563   0.967
  205SOL    HW1 1514   6.854   1.630   1.001
  205SOL    HW2 1515   6.832   1.474   0.958
  206SOL     OW 1516   0.664   4.540   1.094
  206SOL    HW1 1517   0.657   4.595   1.010
  206SOL    HW2 1518   0.721   4.460   1.076
  207SOL     OW 1519   4.267   0.227   5.950
  207SOL    HW1 1520   4.300   0.320   5.963
  207SOL    HW2 1521   4.204   0.224   5.873
  208SOL     OW 1522   5.213   4.824   5.758
  208SOL    HW1 1523   5.278   4.781   5.820
  208SOL    HW2 1524   5.244   4.814   5.664
  209SOL     OW 1525   0.255   6.139   5.920
  209SOL    HW1 1526   0.343   6.090   5.917
  209SOL    HW2 1527   0.181   6.073   5.929
  210SOL     OW 1528   3.982   2.184   2.111
  210SOL    HW1 1529   3.894   2.228   2.094
  210SOL    HW2 1530   4.024   2.160   2.024
  211SOL     OW 1531   0.728   1.351   1.654
  211SOL    HW1 1532   0.767   1.395   1.735
  211SOL    HW2 1533   0.740   1.252   1.660
  212SOL     OW 1534   0.395   4.457   3.274
  212SOL    HW1 1535   0.463   4.527   3.252
  212SOL    HW2 1536   0.304   4.491   3.252
  213SOL     OW 1537   5.115   1.195   0.222
  213SOL    HW1 1538   5.192   1.137   0.248
  213SOL    HW2 1539   5.102   1.267   0.291
  214SOL     OW 1540   0.687   6.800   3.365
  214SOL    HW1 1541   0.596   6.761   3.381
  214SOL    HW2 1542   0.696   6.825   3.269
  215SOL     OW 1543   4.165   3.243   2.054
  215SOL    HW1 1544   4.257   3.206   2.067
  215SOL    HW2 1545   4.132   3.282   2.140
  216SOL     OW 1546   1.366   0.145   4.542
  216SOL    HW1 1547   1.268   0.145   4.561
  216SOL    HW2 1548   1.416   0.160   4.628
  217SOL     OW 1549   1.888   2.741   4.322
  217SOL    HW1 1550   1.816   2.674   4.341
  217SOL    HW2 1551   1.960   2.698   4.268
  218SOL     OW 1552   1.152   2.439   4.143
  218SOL    HW1 1553   1.242   2.419   4.183
  218SOL    HW2 1554   1.118   2.359   4.094
  219SOL     OW 1555   3.486   4.258   0.656
  219SOL    HW1 1556   3.552   4.326   0.689
  219SOL    HW2 1557   3.525   4.210   0.577
  220SOL     OW 1558   2.352   5.438   6.717
  220SOL    HW1 1559   2.265   5.420   6.670
  220SOL    HW2 1560   2.349   5.395   6.808
  221SOL     OW 1561   5.532   3.178   3.805
  221SOL    HW1 1562   5.501   3.122   3.729
  221SOL    HW2 1563   5.615   3.228   3.779
  222SOL     OW 1564   1.554   5.493   5.076
  222SOL    HW1 1565   1.547   5.522   5.172
  222SOL    HW2 1566   1.633   5.433   5.065
  223SOL     OW 1567   6.935   3.395   2.055
  223SOL    HW1 1568   6.936   3.432   1.962
  223SOL    HW2 1569   0.001   3.354   2.075
  224SOL     OW 1570   2.739   2.322   2.329
  224SOL    HW1 1571   2.781   2.341   2.241
  224SOL    HW2 1572   2.800   2.266   2.384
  225SOL     OW 1573   5.766   1.173   0.066
  225SOL    HW1 1574   5.741   1.266   0.040
  225SOL    HW2 1575   5.848   1.176   0.124
  226SOL     OW 1576   1.023   6.856   0.875
  226SOL    HW1 1577   1.017   6.772   0.821
  226SOL    HW2 1578   1.117   6.892   0.870
  227SOL     OW 1579   1.495   3.800   3.261
  227SOL    HW1 1580   1.498   3.820   3.359
  227SOL    HW2 1581   1.403   3.770   3.236
  228SOL     OW 1582   3.690   0.012   4.203
  228SOL    HW1 1583   3.713   0.060   4.288
  228SOL    HW2 1584   3.593   7.012   4.203
  229SOL     OW 1585   6.073   5.631   1.399
  229SOL    HW1 1586   6.032   5.648   1.310
  229SOL    HW2 1587   6.114   5.716   1.434
  230SOL     OW 1588   2.290   4.191   4.327
  230SOL    HW1 1589   2.224   4.128   4.368
  230SOL    HW2 1590   2.382   4.152   4.334
  231SOL     OW 1591   6.760   3.197   6.107
  231SOL    HW1 1592   6.811   3.135   6.048
  231SOL    HW2 1593   6.792   3.188   6.202
  232SOL     OW 1594   1.627   3.817   6.534
  232SOL    HW1 1595   1.716   3.802   6.577
  232SOL    HW2 1596   1.619   3.761   6.452
  233SOL     OW 1597   2.717   1.080   5.755
  233SOL    HW1 1598   2.812   1.052   5.747
  233SOL    HW2 1599   2.659   1.014   5.706
  234SOL     OW 1600   2.637   4.964   0.052
  234SOL    HW1 1601   2.654   4.868   0.075
  234SOL    HW2 1602   2.682   5.023   0.119
  235SOL     OW 1603   3.553   3.266   3.741
  235SOL    HW1 1604   3.567   3.318   3.656
  235SOL    HW2 1605   3.558   3.329   3.819
  236SOL     OW 1606   6.219   2.826   5.942
  236SOL    HW1 1607   6.244   2.800   6.035
  236SOL    HW2 1608   6.124   2.858   5.941
  237SOL     OW 1609   0.067   6.881   1.618
  237SOL    HW1 1610   7.011   6.841   1.573
  237SOL    HW2 1611   0.136   6.810   1.633
  238SOL     OW 1612   5.690   3.730   1.767
  238SOL    HW1 1613   5.704   3.761   1.673
  238SOL    HW2 1614   5.599   3.757   1.798
  239SOL     OW 1615   6.845   5.963   0.041
  239SOL    HW1 1616   6.766   5.994   7.011
  239SOL    HW2 1617   6.925   5.955   7.005
  240SOL     OW 1618   0.879   3.981   6.342
  240SOL    HW1 1619   0.833   4.044   6.404
  240SOL    HW2 1620   0.901   3.896   6.391
  241SOL     OW 1621   0.425   1.230   3.887
  241SOL    HW1 1622   0.514   1.197   3.920
  241SOL    HW2 1623   0.422   1.222   3.787
  242SOL     OW 1624   1.458   3.324   4.860
  242SOL    HW1 1625   1.456   3.226   4.839
  242SOL    HW2 1626   1.553   3.356   4.862
  243SOL     OW 1627   5.105   0.383   6.255
  243SOL    HW1 1628   5.131   0.479   6.267
  243SOL    HW2 1629   5.182   0.324   6.277
  244SOL     OW 1630   5.223   1.594   4.966
  244SOL    HW1 1631   5.180   1.549   5.044
  244SOL    HW2 1632   5.322   1.602   4.982
  245SOL     OW 1633   6.072   2.602   5.236
  245SOL    HW1 1634   6.096   2.550   5.317
  245SOL    HW2 1635   6.002   2.670   5.259
  246SOL     OW 1636   5.087   3.747   3.657
  246SOL    HW1 1637   5.064   3.840   3.629
  246SOL    HW2 1638   5.186   3.739   3.668
  247SOL     OW 1639   2.489   0.989   3.598
  247SOL    HW1 1640   2.579   1.015   3.565
  247SOL    HW2 1641   2.442   1.069   3.636
  248SOL     OW 1642   4.695   1.860   4.436
  248SOL    HW1 1643   4.762   1.817   4.497
  248SOL    HW2 1644   4.706   1.959   4.438
  249SOL     OW 1645   3.382   6.507   4.605
  249SOL    HW1 1646   3.322   6.490   4.684
  249SOL    HW2 1647   3.343   6.465   4.524
  250SOL     OW 1648   5.326   2.976   5.395
  250SOL    HW1 1649   5.227   2.986   5.393
  250SOL    HW2 1650   5.354   2.937   5.483
  251SOL     OW 1651   4.791   2.972   6.463
  251SOL    HW1 1652   4.711   2.915   6.446
  251SOL    HW2 1653   4.864   2.945   6.401
  252SOL     OW 1654   6.448   0.991   5.977
  252SOL    HW1 1655   6.492   1.072   6.016
  252SOL    HW2 1656   6.363   0.972   6.027
  253SOL     OW 1657   2.288   2.756   0.776
  253SOL    HW1 1658   2.265   2.729   0.869
  253SOL    HW2 1659   2.364   2.821   0.777
  254SOL     OW 1660   6.687   3.612   4.377
  254SOL    HW1 1661   6.707   3.536   4.316
  254SOL    HW2 1662   6.673   3.695   4.323
  255SOL     OW 1663   3.092   2.019   3.412
  255SOL    HW1 1664   3.031   2.005   3.335
  255SOL    HW2 1665   3.063   2.100   3.463
  256SOL     OW 1666   6.117   5.442   6.543
  256SOL    HW1 1667   6.038   5.462   6.602
  256SOL    HW2 1668   6.098   5.475   6.451
  257SOL     OW 1669   2.778   5.219   6.133
  257SOL    HW1 1670   2.861   5.208   6.078
  257SOL    HW2 1671   2.786   5.300   6.191
  258SOL     OW 1672   4.971   4.205   4.587
  258SOL    HW1 1673   4.893   4.160   4.632
  258SOL    HW2 1674   4.938   4.264   4.514
  259SOL     OW 1675   1.894   3.051   2.607
  259SOL    HW1 1676   1.811   3.105   2.593
  259SOL    HW2 1677   1.939   3.081   2.692
  260SOL     OW 1678   5.304   0.258   6.379
  260SOL    HW1 1679   5.351   0.170   6.372
  260SOL    HW2 1680   5.343   0.310   6.454
  261SOL     OW 1681   0.564   4.339   1.677
  261SOL    HW1 1682   0.660   4.311   1.675
  261SOL    HW2 1683   0.506   4.257   1.669
  262SOL     OW 1684   1.154   2.721   2.526
  262SOL    HW1 1685   1.218   2.792   2.557
  262SOL    HW2 1686   1.168   2.638   2.579
  263SOL     OW 1687   0.982   2.507   4.765
  263SOL    HW1 1688   0.927   2.586   4.739
  263SOL    HW2 1689   0.935   2.423   4.737
  264SOL     OW 1690   0.577   3.762   5.910
  264SOL    HW1 1691   0.520   3.762   5.993
  264SOL    HW2 1692   0.669   3.732   5.933
  265SOL     OW 1693   5.151   4.302   4.001
  265SOL    HW1 1694   5.185   4.368   3.934
  265SOL    HW2 1695   5.056   4.324   4.025
  266SOL     OW 1696   4.283   1.741   0.932
  266SOL    HW1 1697   4.246   1.668   0.989
  266SOL    HW2 1698   4.208   1.783   0.879
  267SOL     OW 1699   1.969   2.563   6.030
  267SOL    HW1 1700   1.914   2.609   6.099
  267SOL    HW2 1701   1.920   2.564   5.942
  268SOL     OW 1702   4.726   4.162   4.698
  268SOL    HW1 1703   4.639   4.116   4.717
  268SOL    HW2 1704   4.759   4.207   4.781
  269SOL     OW 1705   1.413   1.955   6.497
  269SOL    HW1 1706   1.421   2.047   6.534
  269SOL    HW2 1707   1.339   1.907   6.543
  270SOL     OW 1708   5.420   0.707   2.660
  270SOL    HW1 1709   5.457   0.661   2.741
  270SOL    HW2 1710   5.337   0.658   2.629
  271SOL     OW 1711   1.712   0.586   1.097
  271SOL    HW1 1712   1.770   0.506   1.079
  271SOL    HW2 1713   1.658   0.606   1.015
  272SOL     OW 1714   3.923   5.227   3.712
  272SOL    HW1 1715   3.848   5.238   3.647
  272SOL    HW2 1716   3.887   5.210   3.803
  273SOL     OW 1717   1.844   5.874   4.769
  273SOL    HW1 1718   1.793   5.811   4.711
  273SOL    HW2 1719   1.813   5.865   4.863
  274SOL     OW 1720   6.375   2.645   3.025
  274SOL    HW1 1721   6.422   2.661   2.938
  274SOL    HW2 1722   6.277   2.656   3.012
  275SOL     OW 1723   6.886   6.560   5.931
  275SOL    HW1 1724   6.894   6.554   6.030
  275SOL    HW2 1725   6.790   6.558   5.904
  276SOL     OW 1726   6.482   6.131   3.763
  276SOL    HW1 1727   6.514   6.139   3.669
  276SOL    HW2 1728   6.558   6.144   3.826
  277SOL     OW 1729   3.637   1.720   5.375
  277SOL    HW1 1730   3.689   1.763   5.302
  277SOL    HW2 1731   3.544   1.757   5.377
  278SOL     OW 1732   5.571   3.869   2.589
  278SOL    HW1 1733   5.547   3.858   2.492
  278SOL    HW2 1734   5.664   3.906   2.595
  279SOL     OW 1735   6.967   2.906   2.943
  279SOL    HW1 1736   6.971   2.823   2.886
  279SOL    HW2 1737   6.911   2.888   3.023
  280SOL     OW 1738   4.533   0.121   3.664
  280SOL    HW1 1739   4.622   0.078   3.681
  280SOL    HW2 1740   4.475   0.058   3.613
  281SOL     OW 1741   4.626   5.784   3.949
  281SOL    HW1 1742   4.621   5.778   3.850
  281SOL    HW2 1743   4.710   5.831   3.976
  282SOL     OW 1744   4.164   2.217   6.272
  282SOL    HW1 1745   4.175   2.187   6.177
  282SOL    HW2 1746   4.155   2.137   6.331
  283SOL     OW 1747   6.385   0.734   5.001
  283SOL    HW1 1748   6.443   0.680   5.061
  283SOL    HW2 1749   6.365   0.681   4.918
  284SOL     OW 1750   0.109   5.028   5.316
  284SOL    HW1 1751   0.121   5.125   5.340
  284SOL    HW2 1752   0.196   4.991   5.285
  285SOL     OW 1753   4.947   0.256   6.783
  285SOL    HW1 1754   5.029   0.219   6.827
  285SOL    HW2 1755   4.971   0.295   6.695
  286SOL     OW 1756   3.659   5.197   4.613
  286SOL    HW1 1757   3.655   5.097   4.610
  286SOL    HW2 1758   3.566   5.234   4.616
  287SOL     OW 1759   2.174   5.910   5.909
  287SOL    HW1 1760   2.137   5.929   5.818
  287SOL    HW2 1761   2.267   5.876   5.901
  288SOL     OW 1762   3.569   0.779   0.647
  288SOL    HW1 1763   3.621   0.792   0.562
  288SOL    HW2 1764   3.632   0.766   0.723
  289SOL     OW 1765   0.701   6.334   5.063
  289SOL    HW1 1766   0.788   6.383   5.059
  289SOL    HW2 1767   0.654   6.342   4.975
  290SOL     OW 1768   4.544   0.742   3.594
  290SOL    HW1 1769   4.614   0.737   3.666
  290SOL    HW2 1770   4.459   0.778   3.632
  291SOL     OW 1771   4.676   0.454   4.210
  291SOL    HW1 1772   4.717   0.443   4.119
  291SOL    HW2 1773   4.580   0.427   4.206
  292SOL     OW 1774   3.631   0.165   3.723
  292SOL    HW1 1775   3.628   0.173   3.823
  292SOL    HW2 1776   3.724   0.141   3.694
  293SOL     OW 1777   5.630   6.018   2.338
  293SOL    HW1 1778   5.693   5.940   2.349
  293SOL    HW2 1779   5.550   5.988   2.285
  294SOL     OW 1780   5.958   0.185   5.557
  294SOL    HW1 1781   5.994   0.197   5.649
  294SOL    HW2 1782   6.027   0.212   5.490
  295SOL     OW 1783   1.485   2.267   5.175
  295SOL    HW1 1784   1.391   2.290   5.151
  295SOL    HW2 1785   1.506   2.305   5.265
  296SOL     OW 1786   6.991   0.937   1.581
  296SOL    HW1 1787   6.948   0.918   1.493
  296SOL    HW2 1788   6.925   0.919   1.655
  297SOL     OW 1789   5.308   4.160   3.644
  297SOL    HW1 1790   5.350   4.191   3.559
  297SOL    HW2 1791   5.378   4.154   3.715
  298SOL     OW 1792   4.223   0.756   0.485
  298SOL    HW1 1793   4.221   0.847   0.525
  298SOL    HW2 1794   4.152   0.748   0.415
  299SOL     OW 1795   3.107   1.914   0.242
  299SOL    HW1 1796   3.113   1.884   0.337
  299SOL    HW2 1797   3.178   1.868   0.188
  300SOL     OW 1798   3.673   1.316   2.593
  300SOL    HW1 1799   3.763   1.338   2.630
  300SOL    HW2 1800   3.640   1.393   2.538
  301SOL     OW 1801   5.478   6.038   1.736
  301SOL    HW1 1802   5.485   6.054   1.834
  301SOL    HW2 1803   5.568   6.050   1.693
  302SOL     OW 1804   6.735   6.173   1.685
  302SOL    HW1 1805   6.704   6.260   1.722
  302SOL    HW2 1806   6.833   6.162   1.701
  303SOL     OW 1807   6.409   5.452   2.334
  303SOL    HW1 1808   6.321   5.455   2.381
  303SOL    HW2 1809   6.419   5.531   2.275
  304SOL     OW 1810   1.566   0.061   5.083
  304SOL    HW1 1811   1.570   7.012   5.014
  304SOL    HW2 1812   1.496   0.040   5.150
  305SOL     OW 1813   1.189   2.946   1.520
  305SOL    HW1 1814   1.128   2.926   1.443
  305SOL    HW2 1815   1.147   3.017   1.577
  306SOL     OW 1816   6.959   0.768   2.989
  306SOL    HW1 1817   6.912   0.772   3.077
  306SOL    HW2 1818   0.017   0.826   2.992
  307SOL     OW 1819   3.099   3.594   1.231
  307SOL    HW1 1820   3.022   3.640   1.274
  307SOL    HW2 1821   3.100   3.497   1.257
  308SOL     OW 1822   5.622   0.749   4.381
  308SOL    HW1 1823   5.709   0.749   4.331
  308SOL    HW2 1824   5.550   0.786   4.323
  309SOL     OW 1825   0.831   0.227   6.926
  309SOL    HW1 1826   0.903   0.268   6.982
  309SOL    HW2 1827   0.871   0.158   6.865
  310SOL     OW 1828   5.266   6.115   4.475
  310SOL    HW1 1829   5.277   6.189   4.543
  310SOL    HW2 1830   5.336   6.045   4.491
  311SOL     OW 1831   2.362   5.145   3.183
  311SOL    HW1 1832   2.289   5.192   3.133
  311SOL    HW2 1833   2.412   5.086   3.119
  312SOL     OW 1834   4.610   2.252   3.467
  312SOL    HW1 1835   4.689   2.220   3.415
  312SOL    HW2 1836   4.541   2.180   3.471
  313SOL     OW 1837   3.700   3.614   2.765
  313SOL    HW1 1838   3.713   3.583   2.860
  313SOL    HW2 1839   3.787   3.609   2.716
  314SOL     OW 1840   2.030   6.293   5.321
  314SOL    HW1 1841   2.059   6.366   5.259
  314SOL    HW2 1842   2.050   6.319   5.415
  315SOL     OW 1843   6.130   1.172   3.318
  315SOL    HW1 1844   6.048   1.191   3.373
  315SOL    HW2 1845   6.117   1.208   3.226
  316SOL     OW 1846   4.584   1.710   5.533
  316SOL    HW1 1847   4.536   1.794   5.507
  316SOL    HW2 1848   4.629   1.723   5.621
  317SOL     OW 1849   1.701   1.729   1.411
  317SOL    HW1 1850   1.687   1.665   1.336
  317SOL    HW2 1851   1.777   1.790   1.389
  318SOL     OW 1852   6.682   0.729   5.577
  318SOL    HW1 1853   6.612   0.765   5.515
  318SOL    HW2 1854   6.680   0.781   5.663
  319SOL     OW 1855   0.524   1.953   2.754
  319SOL    HW1 1856   0.567   1.949   2.844
  319SOL    HW2 1857   0.570   2.023   2.699
  320SOL     OW 1858   6.002   1.849   6.846
  320SOL    HW1 1859   6.079   1.793   6.877
  320SOL    HW2 1860   5.920   1.823   6.896
  321SOL     OW 1861   4.052   3.127   0.796
  321SOL    HW1 1862   4.099   3.054   0.748
  321SOL    HW2 1863   4.106   3.211   0.792
  322SOL     OW 1864   4.250   3.696   6.405
  322SOL    HW1 1865   4.191   3.616   6.412
  322SOL    HW2 1866   4.218   3.755   6.331
  323SOL     OW 1867   0.399   2.669   3.278
  323SOL    HW1 1868   0.431   2.755   3.238
  323SOL    HW2 1869   0.330   2.688   3.347
  324SOL     OW 1870   1.993   6.937   3.308
  324SOL    HW1 1871   1.920   6.891   3.359
  324SOL    HW2 1872   2.000   0.008   3.338
  325SOL     OW 1873   1.192   3.656   2.369
  325SOL    HW1 1874   1.279   3.684   2.409
  325SOL    HW2 1875   1.209   3.590   2.295
  326SOL     OW 1876   1.881   5.216   6.138
  326SOL    HW1 1877   1.799   5.218   6.081
  326SOL    HW2 1878   1.860   5.252   6.228
  327SOL     OW 1879   3.318   4.963   2.540
  327SOL    HW1 1880   3.335   5.045   2.594
  327SOL    HW2 1881   3.246   4.982   2.473
  328SOL     OW 1882   1.197   4.110   1.793
  328SOL    HW1 1883   1.273   4.060   1.751
  328SOL    HW2 1884   1.201   4.206   1.764
  329SOL     OW 1885   3.200   4.017   1.379
  329SOL    HW1 1886   3.105   4.038   1.402
  329SOL    HW2 1887   3.253   4.102   1.376
  330SOL     OW 1888   3.557   5.429   0.247
  330SOL    HW1 1889   3.611   5.422   0.331
  330SOL    HW2 1890   3.521   5.339   0.223
  331SOL     OW 1891   5.083   5.250   0.782
  331SOL    HW1 1892   5.146   5.245   0.704
  331SOL    HW2 1893   5.111   5.183   0.852
  332SOL     OW 1894   5.357   1.606   3.874
  332SOL    HW1 1895   5.385   1.512   3.855
  332SOL    HW2 1896   5.271   1.605   3.925
  333SOL     OW 1897   4.113   0.961   5.174
  333SOL    HW1 1898   4.125   1.006   5.085
  333SOL    HW2 1899   4.198   0.917   5.201
  334SOL     OW 1900   4.022   3.206   2.657
  334SOL    HW1 1901   4.022   3.286   2.597
  334SOL    HW2 1902   4.048   3.233   2.750
  335SOL     OW 1903   4.002   0.023   0.153
  335SOL    HW1 1904   3.979   6.985   0.228
  335SOL    HW2 1905   4.084   0.075   0.177
  336SOL     OW 1906   2.923   1.180   3.804
  336SOL    HW1 1907   2.849   1.243   3.780
  336SOL    HW2 1908   2.884   1.096   3.843
  337SOL     OW 1909   1.526   1.872   5.705
  337SOL    HW1 1910   1.609   1.925   5.719
  337SOL    HW2 1911   1.526   1.794   5.768
  338SOL     OW 1912   4.278   3.164   1.340
  338SOL    HW1 1913   4.230   3.144   1.254
  338SOL    HW2 1914   4.227   3.125   1.417
  339SOL     OW 1915   4.256   4.781   4.469
  339SOL    HW1 1916   4.288   4.711   4.534
  339SOL    HW2 1917   4.166   4.814   4.498
  340SOL     OW 1918   4.958   2.925   4.951
  340SOL    HW1 1919   4.967   2.978   4.866
  340SOL    HW2 1920   5.048   2.888   4.976
  341SOL     OW 1921   5.588   5.612   4.540
  341SOL    HW1 1922   5.628   5.695   4.501
  341SOL    HW2 1923   5.596   5.537   4.475
  342SOL     OW 1924   4.613   4.249   0.857
  342SOL    HW1 1925   4.570   4.309   0.790
  342SOL    HW2 1926   4.583   4.155   0.843
  343SOL     OW 1927   0.515   6.184   2.747
  343SOL    HW1 1928   0.538   6.278   2.772
  343SOL    HW2 1929   0.434   6.155   2.798
  344SOL     OW 1930   0.709   1.744   1.300
  344SOL    HW1 1931   0.809   1.756   1.299
  344SOL    HW2 1932   0.665   1.833   1.313
  345SOL     OW 1933   6.910   2.291   3.994
  345SOL    HW1 1934   6.965   2.305   4.076
  345SOL    HW2 1935   6.816   2.319   4.012
  346SOL     OW 1936   2.075   6.984   2.676
  346SOL    HW1 1937   2.081   6.966   2.775
  346SOL    HW2 1938   1.978   6.989   2.649
  347SOL     OW 1939   2.100   6.047   0.407
  347SOL    HW1 1940   2.030   6.106   0.448
  347SOL    HW2 1941   2.066   6.011   0.321
  348SOL     OW 1942   4.515   5.033   2.630
  348SOL    HW1 1943   4.437   5.059   2.687
  348SOL    HW2 1944   4.506   5.075   2.540
  349SOL     OW 1945   6.818   4.423   1.584
  349SOL    HW1 1946   6.869   4.498   1.626
  349SOL    HW2 1947   6.872   4.384   1.509
  350SOL     OW 1948   3.131   2.906   0.208
  350SOL    HW1 1949   3.149   2.830   0.272
  350SOL    HW2 1950   3.043   2.947   0.230
  351SOL     OW 1951   2.764   3.878   0.469
  351SOL    HW1 1952   2.678   3.827   0.467
  351SOL    HW2 1953   2.835   3.823   0.512
  352SOL     OW 1954   4.425   6.110   3.658
  352SOL    HW1 1955   4.421   6.022   3.704
  352SOL    HW2 1956   4.437   6.183   3.726
  353SOL     OW 1957   3.241   0.297   6.504
  353SOL    HW1 1958   3.320   0.236   6.507
  353SOL    HW2 1959   3.167   0.254   6.453
  354SOL     OW 1960   5.747   3.114   0.812
  354SOL    HW1 1961   5.717   3.204   0.847
  354SOL    HW2 1962   5.846   3.113   0.805
  355SOL     OW 1963   1.893   2.771   2.643
  355SOL    HW1 1964   1.891   2.859   2.594
  355SOL    HW2 1965   1.815   2.765   2.705
  356SOL     OW 1966   1.574   0.550   4.934
  356SOL    HW1 1967   1.481   0.558   4.970
  356SOL    HW2 1968   1.628   0.494   4.997
  357SOL     OW 1969   0.191   6.181   4.050
  357SOL    HW1 1970   0.151   6.239   3.980
  357SOL    HW2 1971   0.271   6.226   4.089
  358SOL     OW 1972   4.967   6.099   1.040
  358SOL    HW1 1973   5.056   6.125   1.078
  358SOL    HW2 1974   4.900   6.091   1.114
  359SOL     OW 1975   3.480   0.786   1.201
  359SOL    HW1 1976   3.555   0.818   1.258
  359SOL    HW2 1977   3.505   0.698   1.160
  360SOL     OW 1978   1.262   4.400   4.898
  360SOL    HW1 1979   1.339   4.442   4.946
  360SOL    HW2 1980   1.283   4.392   4.801
  361SOL     OW 1981   6.054   6.140   2.621
  361SOL    HW1 1982   5.970   6.122   2.672
  361SOL    HW2 1983   6.107   6.211   2.669
  362SOL     OW 1984   3.723   4.218   0.846
  362SOL    HW1 1985   3.734   4.316   0.825
  362SOL    HW2 1986   3.664   4.208   0.925
  363SOL     OW 1987   6.362   4.650   2.706
  363SOL    HW1 1988   6.293   4.676   2.774
  363SOL    HW2 1989   6.453   4.675   2.740
  364SOL     OW 1990   0.723   5.011   6.601
  364SOL    HW1 1991   0.813   5.054   6.610
  364SOL    HW2 1992   0.722   4.925   6.651
  365SOL     OW 1993   3.357   0.792   1.460
  365SOL    HW1 1994   3.404   0.725   1.517
  365SOL    HW2 1995   3.394   0.789   1.367
  366SOL     OW 1996   5.985   3.404   6.382
  366SOL    HW1 1997   6.062   3.450   6.339
  366SOL    HW2 1998   5.954   3.328   6.324
  367SOL     OW 1999   5.770   2.172   5.862
  367SOL    HW1 2000   5.724   2.242   5.807
  367SOL    HW2 2001   5.869   2.186   5.858
  368SOL     OW 2002   0.180   2.294   5.830
  368SOL    HW1 2003   0.086   2.275   5.860
  368SOL    HW2 2004   0.224   2.356   5.894
  369SOL     OW 2005   5.854   4.129   3.028
  369SOL    HW1 2006   5.862   4.113   3.126
  369SOL    HW2 2007   5.823   4.045   2.983
  370SOL     OW 2008   1.530   2.031   4.487
  370SOL    HW1 2009   1.542   2.097   4.561
  370SOL    HW2 2010   1.562   2.071   4.401
  371SOL     OW 2011   2.020   4.542   0.167
  371SOL    HW1 2012   1.920   4.534   0.176
  371SOL    HW2 2013   2.051   4.624   0.216
  372SOL     OW 2014   1.776   0.416   5.090
  372SOL    HW1 2015   1.834   0.405   5.010
  372SOL    HW2 2016   1.832   0.411   5.173
  373SOL     OW 2017   5.868   6.923   5.432
  373SOL    HW1 2018   5.774   6.957   5.428
  373SOL    HW2 2019   5.916   6.966   5.509
  374SOL     OW 2020   1.970   1.541   2.646
  374SOL    HW1 2021   1.984   1.596   2.565
  374SOL    HW2 2022   2.058   1.513   2.684
  375SOL     OW 2023   0.990   5.253   5.164
  375SOL    HW1 2024   0.951   5.161   5.160
  375SOL    HW2 2025   1.013   5.284   5.072
  376SOL     OW 2026   2.088   1.184   5.224
  376SOL    HW1 2027   2.027   1.106   5.234
  376SOL    HW2 2028   2.034   1.267   5.211
  377SOL     OW 2029   1.818   1.894   0.325
  377SOL    HW1 2030   1.839   1.914   0.230
  377SOL    HW2 2031   1.881   1.944   0.385
  378SOL     OW 2032   3.377   1.184   6.956
  378SOL    HW1 2033   3.444   1.240   6.908
  378SOL    HW2 2034   3.293   1.237   6.970
  379SOL     OW 2035   5.530   2.355   6.942
  379SOL    HW1 2036   5.488   2.384   6.857
  379SOL    HW2 2037   5.500   2.415   7.017
  380SOL     OW 2038   2.999   1.536   1.380
  380SOL    HW1 2039   2.944   1.520   1.298
  380SOL    HW2 2040   2.943   1.522   1.461
  381SOL     OW 2041   1.827   3.487   4.526
  381SOL    HW1 2042   1.848   3.435   4.443
  381SOL    HW2 2043   1.766   3.433   4.584
  382SOL     OW 2044   6.107   0.072   6.851
  382SOL    HW1 2045   6.008   0.061   6.849
  382SOL    HW2 2046   6.142   0.041   6.939
  383SOL     OW 2047   4.689   2.980   0.251
  383SOL    HW1 2048   4.658   2.955   0.342
  383SOL    HW2 2049   4.684   2.901   0.191
  384SOL     OW 2050   0.155   4.219   3.771
  384SOL    HW1 2051   0.121   4.313   3.778
  384SOL    HW2 2052   0.097   4.158   3.824
  385SOL     OW 2053   3.326   5.798   5.605
  385SOL    HW1 2054   3.280   5.738   5.671
  385SOL    HW2 2055   3.260   5.860   5.565
  386SOL     OW 2056   4.300   0.318   4.199
  386SOL    HW1 2057   4.329   0.377   4.274
  386SOL    HW2 2058   4.290   0.224   4.233
  387SOL     OW 2059   1.233   5.746   2.497
  387SOL    HW1 2060   1.237   5.666   2.557
  387SOL    HW2 2061   1.250   5.718   2.403
  388SOL     OW 2062   2.129   2.088   6.266
  388SOL    HW1 2063   2.163   2.065   6.358
  388SOL    HW2 2064   2.074   2.172   6.272
  389SOL     OW 2065   3.993   3.456   2.517
  389SOL    HW1 2066   4.002   3.500   2.607
  389SOL    HW2 2067   4.039   3.511   2.448
  390SOL     OW 2068   3.136   0.755   3.991
  390SOL    HW1 2069   3.131   0.655   3.985
  390SOL    HW2 2070   3.044   0.794   3.985
  391SOL     OW 2071   2.218   3.050   6.482
  391SOL    HW1 2072   2.257   3.141   6.499
  391SOL    HW2 2073   2.260   2.984   6.544
  392SOL     OW 2074   1.979   5.257   0.706
  392SOL    HW1 2075   2.022   5.201   0.777
  392SOL    HW2 2076   1.891   5.291   0.739
  393SOL     OW 2077   6.626   4.342   5.568
  393SOL    HW1 2078   6.694   4.412   5.589
  393SOL    HW2 2079   6.672   4.255   5.551
  394SOL     OW 2080   0.098   6.810   0.122
  394SOL    HW1 2081   0.051   6.860   0.195
  394SOL    HW2 2082   0.110   6.870   0.043
  395SOL     OW 2083   5.194   3.686   2.868
  395SOL    HW1 2084   5.261   3.613   2.882
  395SOL    HW2 2085   5.218   3.738   2.786
  396SOL     OW 2086   3.890   3.946   2.232
  396SOL    HW1 2087   3.962   3.921   2.168
  396SOL    HW2 2088   3.839   4.024   2.196
  397SOL     OW 2089   4.110   2.964   5.560
  397SOL    HW1 2090   4.064   3.034   5.615
  397SOL    HW2 2091   4.083   2.873   5.594
  398SOL     OW 2092   0.463   6.337   1.666
  398SOL    HW1 2093   0.527   6.392   1.613
  398SOL    HW2 2094   0.369   6.360   1.641
  399SOL     OW 2095   5.301   5.904   2.344
  399SOL    HW1 2096   5.247   5.986   2.327
  399SOL    HW2 2097   5.335   5.868   2.256
  400SOL     OW 2098   0.167   0.379   5.801
  400SOL    HW1 2099   0.079   0.367   5.849
  400SOL    HW2 2100   0.167   0.466   5.754
  401SOL     OW 2101   4.862   0.856   6.280
  401SOL    HW1 2102   4.928   0.837   6.207
  401SOL    HW2 2103   4.903   0.832   6.368
  402SOL     OW 2104   5.932   6.649   2.593
  402SOL    HW1 2105   5.945   6.597   2.509
  402SOL    HW2 2106   5.834   6.662   2.609
  403SOL     OW 2107   4.080   2.429   5.963
  403SOL    HW1 2108   3.982   2.426   5.945
  403SOL    HW2 2109   4.120   2.507   5.914
  404SOL     OW 2110   1.481   6.701   3.724
  404SOL    HW1 2111   1.579   6.682   3.720
  404SOL    HW2 2112   1.432   6.633   3.670
  405SOL     OW 2113   1.561   2.977   1.712
  405SOL    HW1 2114   1.557   2.879   1.693
  405SOL    HW2 2115   1.468   3.014   1.716
  406SOL     OW 2116   0.954   2.858   3.763
  406SOL    HW1 2117   0.900   2.877   3.845
  406SOL    HW2 2118   0.964   2.760   3.750
  407SOL     OW 2119   2.109   0.834   4.050
  407SOL    HW1 2120   2.016   0.801   4.036
  407SOL    HW2 2121   2.109   0.906   4.120
  408SOL     OW 2122   1.578   0.836   2.968
  408SOL    HW1 2123   1.597   0.902   2.896
  408SOL    HW2 2124   1.643   0.760   2.962
  409SOL     OW 2125   5.749   3.149   1.739
  409SOL    HW1 2126   5.750   3.051   1.757
  409SOL    HW2 2127   5.717   3.198   1.820
  410SOL     OW 2128   2.370   0.295   6.252
  410SOL    HW1 2129   2.323   0.242   6.323
  410SOL    HW2 2130   2.360   0.393   6.271
  411SOL     OW 2131   6.228   6.849   6.375
  411SOL    HW1 2132   6.232   6.936   6.426
  411SOL    HW2 2133   6.303   6.790   6.406
  412SOL     OW 2134   4.368   6.752   3.614
  412SOL    HW1 2135   4.388   6.827   3.551
  412SOL    HW2 2136   4.451   6.697   3.626
  413SOL     OW 2137   4.867   4.476   1.655
  413SOL    HW1 2138   4.916   4.406   1.602
  413SOL    HW2 2139   4.776   4.490   1.615
  414SOL     OW 2140   3.372   5.012   3.332
  414SOL    HW1 2141   3.286   4.962   3.331
  414SOL    HW2 2142   3.367   5.090   3.270
  415SOL     OW 2143   1.150   5.772   0.632
  415SOL    HW1 2144   1.067   5.794   0.683
  415SOL    HW2 2145   1.215   5.727   0.693
  416SOL     OW 2146   5.064   5.148   5.483
  416SOL    HW1 2147   5.054   5.066   5.426
  416SOL    HW2 2148   5.094   5.224   5.426
  417SOL     OW 2149   2.614   6.349   0.949
  417SOL    HW1 2150   2.616   6.282   1.022
  417SOL    HW2 2151   2.525   6.396   0.948
  418SOL     OW 2152   4.184   6.478   1.217
  418SOL    HW1 2153   4.167   6.447   1.311
  418SOL    HW2 2154   4.141   6.414   1.153
  419SOL     OW 2155   1.106   0.446   1.802
  419SOL    HW1 2156   1.021   0.419   1.846
  419SOL    HW2 2157   1.097   0.539   1.767
  420SOL     OW 2158   6.324   3.223   1.364
  420SOL    HW1 2159   6.301   3.283   1.287
  420SOL    HW2 2160   6.421   3.233   1.387
  421SOL     OW 2161   0.459   5.071   6.275
  421SOL    HW1 2162   0.429   5.008   6.204
  421SOL    HW2 2163   0.395   5.147   6.282
  422SOL     OW 2164   6.142   4.471   0.348
  422SOL    HW1 2165   6.124   4.374   0.329
  422SOL    HW2 2166   6.063   4.525   0.321
  423SOL     OW 2167   0.443   2.724   6.754
  423SOL    HW1 2168   0.395   2.774   6.826
  423SOL    HW2 2169   0.377   2.680   6.693
  424SOL     OW 2170   2.777   3.908   0.897
  424SOL    HW1 2171   2.841   3.982   0.878
  424SOL    HW2 2172   2.732   3.925   0.985
  425SOL     OW 2173   5.573   1.189   2.451
  425SOL    HW1 2174   5.541   1.223   2.363
  425SOL    HW2 2175   5.521   1.108   2.477
  426SOL     OW 2176   5.090   2.059   4.559
  426SOL    HW1 2177   5.161   2.130   4.554
  426SOL    HW2 2178   5.114   1.993   4.630
  427SOL     OW 2179   5.464   4.719   2.339
  427SOL    HW1 2180   5.406   4.655   2.389
  427SOL    HW2 2181   5.516   4.774   2.403
  428SOL     OW 2182   4.246   6.832   4.643
  428SOL    HW1 2183   4.274   6.908   4.583
  428SOL    HW2 2184   4.153   6.805   4.619
  429SOL     OW 2185   2.363   4.441   1.810
  429SOL    HW1 2186   2.443   4.467   1.865
  429SOL    HW2 2187   2.343   4.514   1.744
  430SOL     OW 2188   0.658   0.100   4.642
  430SOL    HW1 2189   0.590   0.157   4.596
  430SOL    HW2 2190   0.614   0.018   4.679
  431SOL     OW 2191   3.532   0.361   0.085
  431SOL    HW1 2192   3.433   0.373   0.086
  431SOL    HW2 2193   3.572   0.419   0.013
  432SOL     OW 2194   6.172   2.541   2.359
  432SOL    HW1 2195   6.137   2.482   2.432
  432SOL    HW2 2196   6.134   2.511   2.271
  433SOL     OW 2197   3.187   6.197   4.306
  433SOL    HW1 2198   3.159   6.212   4.212
  433SOL    HW2 2199   3.241   6.275   4.338
  434SOL     OW 2200   4.584   5.293   1.837
  434SOL    HW1 2201   4.538   5.361   1.894
  434SOL    HW2 2202   4.648   5.240   1.893
  435SOL     OW 2203   3.701   1.874   5.143
  435SOL    HW1 2204   3.636   1.901   5.071
  435SOL    HW2 2205   3.790   1.914   5.124
  436SOL     OW 2206   3.113   6.180   1.249
  436SOL    HW1 2207   3.080   6.246   1.317
  436SOL    HW2 2208   3.204   6.148   1.276
  437SOL     OW 2209   1.086   0.205   6.560
  437SOL    HW1 2210   1.161   0.171   6.503
  437SOL    HW2 2211   1.037   0.128   6.600
  438SOL     OW 2212   1.926   2.857   2.263
  438SOL    HW1 2213   1.943   2.928   2.195
  438SOL    HW2 2214   2.001   2.855   2.329
  439SOL     OW 2215   6.297   4.292   3.508
  439SOL    HW1 2216   6.276   4.384   3.541
  439SOL    HW2 2217   6.377   4.257   3.557
  440SOL     OW 2218   1.160   2.135   4.907
  440SOL    HW1 2219   1.083   2.119   4.969
  440SOL    HW2 2220   1.212   2.215   4.938
  441SOL     OW 2221   0.752   1.531   3.304
  441SOL    HW1 2222   0.761   1.568   3.397
  441SOL    HW2 2223   0.839   1.541   3.256
  442SOL     OW 2224   2.347   4.915   0.013
  442SOL    HW1 2225   2.442   4.913   7.005
  442SOL    HW2 2226   2.341   4.974   0.094
  443SOL     OW 2227   1.075   4.153   4.531
  443SOL    HW1 2228   1.153   4.193   4.579
  443SOL    HW2 2229   1.106   4.075   4.477
  444SOL     OW 2230   5.136   1.882   5.769
  444SOL    HW1 2231   5.072   1.890   5.693
  444SOL    HW2 2232   5.207   1.815   5.747
  445SOL     OW 2233   1.226   5.876   3.462
  445SOL    HW1 2234   1.265   5.792   3.423
  445SOL    HW2 2235   1.271   5.897   3.549
  446SOL     OW 2236   4.019   4.831   3.741
  446SOL    HW1 2237   4.108   4.867   3.715
  446SOL    HW2 2238   4.013   4.734   3.716
  447SOL     OW 2239   0.613   2.913   0.245
  447SOL    HW1 2240   0.632   2.859   0.163
  447SOL    HW2 2241   0.549   2.864   0.304
  448SOL     OW 2242   2.595   0.734   4.679
  448SOL    HW1 2243   2.634   0.771   4.763
  448SOL    HW2 2244   2.556   0.644   4.697
  449SOL     OW 2245   3.747   0.713   5.234
  449SOL    HW1 2246   3.790   0.785   5.179
  449SOL    HW2 2247   3.808   0.688   5.309
  450SOL     OW 2248   1.325   5.767   3.874
  450SOL    HW1 2249   1.392   5.772   3.948
  450SOL    HW2 2250   1.356   5.702   3.805
  451SOL     OW 2251   1.842   2.271   3.543
  451SOL    HW1 2252   1.819   2.270   3.446
  451SOL    HW2 2253   1.897   2.191   3.565
  452SOL     OW 2254   6.425   5.972   1.609
  452SOL    HW1 2255   6.467   5.905   1.670
  452SOL    HW2 2256   6.494   6.008   1.547
  453SOL     OW 2257   2.957   0.569   4.521
  453SOL    HW1 2258   3.046   0.532   4.548
  453SOL    HW2 2259   2.905   0.498   4.473
  454SOL     OW 2260   0.349   5.328   6.204
  454SOL    HW1 2261   0.254   5.296   6.213
  454SOL    HW2 2262   0.353   5.398   6.133
  455SOL     OW 2263   6.988   1.431   3.747
  455SOL    HW1 2264   6.914   1.370   3.775
  455SOL    HW2 2265   0.020   1.386   3.677
  456SOL     OW 2266   5.036   5.402   4.328
  456SOL    HW1 2267   5.135   5.412   4.336
  456SOL    HW2 2268   5.003   5.334   4.393
  457SOL     OW 2269   1.589   3.351   3.236
  457SOL    HW1 2270   1.544   3.394   3.315
  457SOL    HW2 2271   1.615   3.257   3.259
  458SOL     OW 2272   4.864   5.903   3.961
  458SOL    HW1 2273   4.923   5.898   4.041
  458SOL    HW2 2274   4.910   5.864   3.882
  459SOL     OW 2275   1.794   6.566   4.184
  459SOL    HW1 2276   1.816   6.581   4.281
  459SOL    HW2 2277   1.877   6.548   4.133
  460SOL     OW 2278   1.910   0.201   2.967
  460SOL    HW1 2279   1.976   0.233   2.898
  460SOL    HW2 2280   1.848   0.135   2.926
  461SOL     OW 2281   6.170   6.840   4.862
  461SOL    HW1 2282   6.125   6.910   4.917
  461SOL    HW2 2283   6.267   6.864   4.849
  462SOL     OW 2284   4.043   2.705   5.901
  462SOL    HW1 2285   4.054   2.798   5.935
  462SOL    HW2 2286   3.986   2.653   5.964
  463SOL     OW 2287   6.649   5.832   3.587
  463SOL    HW1 2288   6.573   5.767   3.591
  463SOL    HW2 2289   6.615   5.920   3.554
  464SOL     OW 2290   2.583   2.521   6.780
  464SOL    HW1 2291   2.615   2.454   6.847
  464SOL    HW2 2292   2.659   2.547   6.720
  465SOL     OW 2293   1.182   2.697   3.965
  465SOL    HW1 2294   1.105   2.657   3.916
  465SOL    HW2 2295   1.183   2.662   4.059
  466SOL     OW 2296   1.320   4.565   3.082
  466SOL    HW1 2297   1.252   4.548   3.010
  466SOL    HW2 2298   1.280   4.623   3.152
  467SOL     OW 2299   1.156   0.855   6.742
  467SOL    HW1 2300   1.060   0.849   6.771
  467SOL    HW2 2301   1.179   0.950   6.724
  468SOL     OW 2302   3.641   6.278   6.335
  468SOL    HW1 2303   3.566   6.264   6.270
  468SOL    HW2 2304   3.625   6.362   6.387
  469SOL     OW 2305   2.976   4.820   0.764
  469SOL    HW1 2306   2.965   4.748   0.833
  469SOL    HW2 2307   2.920   4.800   0.684
  470SOL     OW 2308   4.057   0.378   2.439
  470SOL    HW1 2309   4.133   0.441   2.428
  470SOL    HW2 2310   4.092   0.286   2.457
  471SOL     OW 2311   1.650   2.526   4.187
  471SOL    HW1 2312   1.695   2.446   4.227
  471SOL    HW2 2313   1.703   2.558   4.108
  472SOL     OW 2314   5.232   4.093   6.462
  472SOL    HW1 2315   5.306   4.130   6.517
  472SOL    HW2 2316   5.163   4.052   6.521
  473SOL     OW 2317   0.457   3.265   2.065
  473SOL    HW1 2318   0.510   3.332   2.116
  473SOL    HW2 2319   0.451   3.180   2.118
  474SOL     OW 2320   5.136   4.507   3.425
  474SOL    HW1 2321   5.175   4.596   3.449
  474SOL    HW2 2322   5.116   4.455   3.508
  475SOL     OW 2323   5.427   0.943   6.150
  475SOL    HW1 2324   5.449   0.974   6.057
  475SOL    HW2 2325   5.426   0.843   6.152
  476SOL     OW 2326   0.046   4.180   2.449
  476SOL    HW1 2327   7.014   4.263   2.439
  476SOL    HW2 2328   0.143   4.206   2.451
  477SOL     OW 2329   1.669   4.124   5.204
  477SOL    HW1 2330   1.617   4.047   5.242
  477SOL    HW2 2331   1.741   4.089   5.144
  478SOL     OW 2332   3.366   0.237   2.385
  478SOL    HW1 2333   3.397   0.155   2.337
  478SOL    HW2 2334   3.437   0.308   2.380
  479SOL     OW 2335   4.309   2.454   0.011
  479SOL    HW1 2336   4.265   2.389   6.973
  479SOL    HW2 2337   4.399   2.480   6.998
  480SOL     OW 2338   2.173   1.452   0.028
  480SOL    HW1 2339   2.208   1.382   0.091
  480SOL    HW2 2340   2.168   1.540   0.076
  481SOL     OW 2341   1.334   0.705   0.260
  481SOL    HW1 2342   1.308   0.635   0.194
  481SOL    HW2 2343   1.419   0.750   0.231
  482SOL     OW 2344   4.719   4.322   2.987
  482SOL    HW1 2345   4.658   4.379   2.932
  482SOL    HW2 2346   4.752   4.375   3.065
  483SOL     OW 2347   6.865   1.928   1.778
  483SOL    HW1 2348   6.921   1.922   1.861
  483SOL    HW2 2349   6.924   1.919   1.698
  484SOL     OW 2350   1.158   3.158   5.158
  484SOL    HW1 2351   1.246   3.111   5.155
  484SOL    HW2 2352   1.139   3.199   5.069
  485SOL     OW 2353   4.077   5.383   2.630
  485SOL    HW1 2354   4.118   5.319   2.565
  485SOL    HW2 2355   4.140   5.459   2.645
  486SOL     OW 2356   6.526   2.019   1.014
  486SOL    HW1 2357   6.535   2.102   0.960
  486SOL    HW2 2358   6.463   2.035   1.091
  487SOL     OW 2359   1.164   2.062   0.733
  487SOL    HW1 2360   1.121   2.028   0.816
  487SOL    HW2 2361   1.245   2.116   0.757
  488SOL     OW 2362   0.599   1.492   1.251
  488SOL    HW1 2363   0.653   1.576   1.243
  488SOL    HW2 2364   0.562   1.485   1.344
  489SOL     OW 2365   3.332   6.232   6.189
  489SOL    HW1 2366   3.247   6.270   6.224
  489SOL    HW2 2367   3.343   6.138   6.222
  490SOL     OW 2368   6.755   5.830   3.138
  490SOL    HW1 2369   6.785   5.735   3.125
  490SOL    HW2 2370   6.677   5.832   3.200
  491SOL     OW 2371   0.392   3.124   2.439
  491SOL    HW1 2372   0.399   3.078   2.351
  491SOL    HW2 2373   0.478   3.115   2.489
  492SOL     OW 2374   2.654   0.007   4.954
  492SOL    HW1 2375   2.556   0.022   4.971
  492SOL    HW2 2376   2.667   7.008   4.858
  493SOL     OW 2377   5.409   6.616   5.593
  493SOL    HW1 2378   5.449   6.604   5.683
  493SOL    HW2 2379   5.402   6.527   5.548
  494SOL     OW 2380   6.931   0.592   6.554
  494SOL    HW1 2381   6.930   0.495   6.577
  494SOL    HW2 2382   7.022   0.629   6.570
  495SOL     OW 2383   4.663   5.692   3.271
  495SOL    HW1 2384   4.694   5.715   3.363
  495SOL    HW2 2385   4.563   5.691   3.269
  496SOL     OW 2386   5.532   3.464   2.147
  496SOL    HW1 2387   5.464   3.404   2.106
  496SOL    HW2 2388   5.506   3.484   2.242
  497SOL     OW 2389   3.544   0.927   5.232
  497SOL    HW1 2390   3.580   0.835   5.222
  497SOL    HW2 2391   3.445   0.926   5.221
  498SOL     OW 2392   2.143   4.444   1.303
  498SOL    HW1 2393   2.117   4.348   1.296
  498SOL    HW2 2394   2.159   4.468   1.399
  499SOL     OW 2395   2.479   0.390   3.833
  499SOL    HW1 2396   2.381   0.376   3.845
  499SOL    HW2 2397   2.529   0.350   3.910
  500SOL     OW 2398   0.719   3.239   3.122
  500SOL    HW1 2399   0.669   3.252   3.207
  500SOL    HW2 2400   0.817   3.240   3.141
  501SOL     OW 2401   3.175   6.323   0.395
  501SOL    HW1 2402   3.167   6.415   0.358
  501SOL    HW2 2403   3.107   6.263   0.352
  502SOL     OW 2404   6.874   4.636   6.956
  502SOL    HW1 2405   6.846   4.664   0.024
  502SOL    HW2 2406   6.805   4.574   6.919
  503SOL     OW 2407   5.668   5.839   5.931
  503SOL    HW1 2408   5.659   5.742   5.909
  503SOL    HW2 2409   5.728   5.850   6.010
  504SOL     OW 2410   1.763   5.424   3.339
  504SOL    HW1 2411   1.824   5.488   3.292
  504SOL    HW2 2412   1.749   5.453   3.433
  505SOL     OW 2413   3.539   6.280   4.787
  505SOL    HW1 2414   3.450   6.309   4.752
  505SOL    HW2 2415   3.526   6.210   4.857
  506SOL     OW 2416   2.283   5.630   4.716
  506SOL    HW1 2417   2.245   5.607   4.626
  506SOL    HW2 2418   2.339   5.713   4.708
  507SOL     OW 2419   3.661   0.726   3.473
  507SOL    HW1 2420   3.672   0.741   3.571
  507SOL    HW2 2421   3.689   0.809   3.424
  508SOL     OW 2422   6.653   3.656   2.266
  508SOL    HW1 2423   6.565   3.682   2.225
  508SOL    HW2 2424   6.683   3.569   2.228
  509SOL     OW 2425   3.238   1.251   1.503
  509SOL    HW1 2426   3.169   1.310   1.547
  509SOL    HW2 2427   3.314   1.306   1.471
  510SOL     OW 2428   6.546   5.145   6.476
  510SOL    HW1 2429   6.619   5.200   6.518
  510SOL    HW2 2430   6.473   5.131   6.542
  511SOL     OW 2431   0.150   1.063   5.940
  511SOL    HW1 2432   0.222   1.105   5.884
  511SOL    HW2 2433   0.068   1.120   5.936
  512SOL     OW 2434   7.016   2.886   6.995
  512SOL    HW1 2435   7.002   2.890   6.897
  512SOL    HW2 2436   0.028   2.796   7.020
  513SOL     OW 2437   5.698   5.851   3.360
  513SOL    HW1 2438   5.629   5.779   3.348
  513SOL    HW2 2439   5.718   5.861   3.457
  514SOL     OW 2440   6.728   2.937   4.094
  514SOL    HW1 2441   6.670   2.943   4.013
  514SOL    HW2 2442   6.723   2.844   4.132
  515SOL     OW 2443   1.908   0.613   6.484
  515SOL    HW1 2444   1.843   0.597   6.559
  515SOL    HW2 2445   2.000   0.619   6.521
  516SOL     OW 2446   2.657   4.516   1.704
  516SOL    HW1 2447   2.584   4.583   1.719
  516SOL    HW2 2448   2.733   4.535   1.766
  517SOL     OW 2449   5.131   5.464   2.053
  517SOL    HW1 2450   5.114   5.459   1.955
  517SOL    HW2 2451   5.159   5.556   2.078
  518SOL     OW 2452   2.243   2.452   2.625
  518SOL    HW1 2453   2.160   2.490   2.664
  518SOL    HW2 2454   2.279   2.514   2.554
  519SOL     OW 2455   1.029   1.056   4.377
  519SOL    HW1 2456   0.979   1.142   4.369
  519SOL    HW2 2457   1.071   1.050   4.467
  520SOL     OW 2458   6.376   4.458   0.012
  520SOL    HW1 2459   6.380   4.538   6.976
  520SOL    HW2 2460   6.375   4.489   0.108
  521SOL     OW 2461   6.835   3.774   6.685
  521SOL    HW1 2462   6.895   3.694   6.682
  521SOL    HW2 2463   6.744   3.748   6.653
  522SOL     OW 2464   3.170   3.707   5.757
  522SOL    HW1 2465   3.261   3.718   5.796
  522SOL    HW2 2466   3.125   3.796   5.752
  523SOL     OW 2467   0.567   4.870   1.758
  523SOL    HW1 2468   0.638   4.933   1.726
  523SOL    HW2 2469   0.479   4.917   1.760
  524SOL     OW 2470   1.274   1.120   7.014
  524SOL    HW1 2471   1.225   1.048   0.039
  524SOL    HW2 2472   1.305   1.189   0.055
  525SOL     OW 2473   2.719   3.866   6.700
  525SOL    HW1 2474   2.721   3.766   6.700
  525SOL    HW2 2475   2.685   3.898   6.789
  526SOL     OW 2476   4.119   0.048   3.965
  526SOL    HW1 2477   4.210   0.066   3.928
  526SOL    HW2 2478   4.090   6.979   3.938
  527SOL     OW 2479   6.467   3.232   6.564
  527SOL    HW1 2480   6.388   3.284   6.595
  527SOL    HW2 2481   6.531   3.219   6.641
  528SOL     OW 2482   1.169   1.455   3.702
  528SOL    HW1 2483   1.144   1.360   3.716
  528SOL    HW2 2484   1.179   1.473   3.604
  529SOL     OW 2485   0.727   6.364   4.420
  529SOL    HW1 2486   0.795   6.361   4.493
  529SOL    HW2 2487   0.641   6.324   4.453
  530SOL     OW 2488   2.971   3.071   5.496
  530SOL    HW1 2489   2.872   3.086   5.495
  530SOL    HW2 2490   3.014   3.136   5.560
  531SOL     OW 2491   0.113   0.471   2.163
  531SOL    HW1 2492   0.035   0.496   2.221
  531SOL    HW2 2493   0.173   0.550   2.152
  532SOL     OW 2494   1.720   1.905   6.650
  532SOL    HW1 2495   1.685   1.814   6.672
  532SOL    HW2 2496   1.653   1.974   6.677
  533SOL     OW 2497   4.315   6.456   3.678
  533SOL    HW1 2498   4.215   6.457   3.674
  533SOL    HW2 2499   4.347   6.526   3.742
  534SOL     OW 2500   5.448   5.147   3.559
  534SOL    HW1 2501   5.462   5.067   3.618
  534SOL    HW2 2502   5.534   5.197   3.551
  535SOL     OW 2503   0.505   3.726   4.462
  535SOL    HW1 2504   0.559   3.653   4.421
  535SOL    HW2 2505   0.422   3.740   4.408
  536SOL     OW 2506   0.199   4.980   2.276
  536SOL    HW1 2507   0.244   4.904   2.229
  536SOL    HW2 2508   0.268   5.045   2.308
  537SOL     OW 2509   1.950   6.394   3.446
  537SOL    HW1 2510   1.971   6.411   3.542
  537SOL    HW2 2511   1.883   6.461   3.414
  538SOL     OW 2512   1.754   3.848   3.197
  538SOL    HW1 2513   1.783   3.920   3.134
  538SOL    HW2 2514   1.654   3.839   3.194
  539SOL     OW 2515   0.892   6.247   0.330
  539SOL    HW1 2516   0.809   6.256   0.276
  539SOL    HW2 2517   0.952   6.179   0.287
  540SOL     OW 2518   0.140   1.175   2.047
  540SOL    HW1 2519   0.222   1.132   2.086
  540SOL    HW2 2520   0.167   1.238   1.975
  541SOL     OW 2521   3.171   5.936   3.617
  541SOL    HW1 2522   3.145   5.873   3.544
  541SOL    HW2 2523   3.263   5.915   3.648
  542SOL     OW 2524   6.201   7.017   0.069
  542SOL    HW1 2525   6.293   0.031   0.078
  542SOL    HW2 2526   6.149   0.012   0.152
  543SOL     OW 2527   1.450   5.283   5.383
  543SOL    HW1 2528   1.539   5.243   5.405
  543SOL    HW2 2529   1.456   5.383   5.391
  544SOL     OW 2530   1.903   4.545   1.231
  544SOL    HW1 2531   1.865   4.569   1.320
  544SOL    HW2 2532   1.988   4.495   1.243
  545SOL     OW 2533   3.371   0.788   3.375
  545SOL    HW1 2534   3.370   0.867   3.314
  545SOL    HW2 2535   3.465   0.765   3.399
  546SOL     OW 2536   1.870   2.962   6.992
  546SOL    HW1 2537   1.945   2.981   6.928
  546SOL    HW2 2538   1.853   2.864   6.996
  547SOL     OW 2539   2.751   1.391   6.908
  547SOL    HW1 2540   2.676   1.432   6.857
  547SOL    HW2 2541   2.787   1.312   6.859
  548SOL     OW 2542   3.803   3.060   2.658
  548SOL    HW1 2543   3.756   3.052   2.570
  548SOL    HW2 2544   3.885   3.116   2.648
  549SOL     OW 2545   4.741   3.398   1.170
  549SOL    HW1 2546   4.667   3.349   1.216
  549SOL    HW2 2547   4.702   3.461   1.102
  550SOL     OW 2548   6.617   4.458   3.527
  550SOL    HW1 2549   6.708   4.492   3.503
  550SOL    HW2 2550   6.599   4.374   3.475
  551SOL     OW 2551   0.690   0.673   1.184
  551SOL    HW1 2552   0.708   0.767   1.214
  551SOL    HW2 2553   0.774   0.620   1.191
  552SOL     OW 2554   4.488   5.456   0.678
  552SOL    HW1 2555   4.455   5.408   0.598
  552SOL    HW2 2556   4.470   5.402   0.760
  553SOL     OW 2557   2.421   6.871   1.857
  553SOL    HW1 2558   2.491   6.860   1.928
  553SOL    HW2 2559   2.446   6.947   1.797
  554SOL     OW 2560   5.672   6.217   5.681
  554SOL    HW1 2561   5.669   6.257   5.590
  554SOL    HW2 2562   5.758   6.243   5.726
  555SOL     OW 2563   2.226   5.184   4.142
  555SOL    HW1 2564   2.248   5.149   4.234
  555SOL    HW2 2565   2.166   5.264   4.150
  556SOL     OW 2566   5.624   2.097   3.738
  556SOL    HW1 2567   5.665   2.173   3.687
  556SOL    HW2 2568   5.526   2.114   3.749
  557SOL     OW 2569   0.810   5.428   0.179
  557SOL    HW1 2570   0.778   5.406   0.271
  557SOL    HW2 2571   0.845   5.522   0.177
  558SOL     OW 2572   3.307   3.970   4.865
  558SOL    HW1 2573   3.277   4.001   4.955
  558SOL    HW2 2574   3.368   4.038   4.824
  559SOL     OW 2575   6.259   6.448   6.594
  559SOL    HW1 2576   6.357   6.428   6.585
  559SOL    HW2 2577   6.220   6.466   6.503
  560SOL     OW 2578   3.698   5.912   0.408
  560SOL    HW1 2579   3.725   5.832   0.463
  560SOL    HW2 2580   3.599   5.920   0.408
  561SOL     OW 2581   6.451   1.120   6.810
  561SOL    HW1 2582   6.474   1.142   6.715
  561SOL    HW2 2583   6.494   1.033   6.835
  562SOL     OW 2584   4.582   0.445   6.064
  562SOL    HW1 2585   4.627   0.534   6.077
  562SOL    HW2 2586   4.536   0.444   5.975
  563SOL     OW 2587   2.493   0.286   3.157
  563SOL    HW1 2588   2.513   0.384   3.150
  563SOL    HW2 2589   2.454   0.267   3.247
  564SOL     OW 2590   2.724   1.745   6.640
  564SOL    HW1 2591   2.700   1.760   6.545
  564SOL    HW2 2592   2.642   1.751   6.697
  565SOL     OW 2593   4.567   3.482   5.751
  565SOL    HW1 2594   4.534   3.390   5.729
  565SOL    HW2 2595   4.667   3.482   5.752
  566SOL     OW 2596   5.890   3.729   3.663
  566SOL    HW1 2597   5.799   3.745   3.627
  566SOL    HW2 2598   5.888   3.733   3.763
  567SOL     OW 2599   2.880   3.548   2.982
  567SOL    HW1 2600   2.927   3.610   2.918
  567SOL    HW2 2601   2.826   3.482   2.930
  568SOL     OW 2602   3.314   2.813   0.748
  568SOL    HW1 2603   3.322   2.824   0.649
  568SOL    HW2 2604   3.283   2.720   0.768
  569SOL     OW 2605   1.851   3.065   0.221
  569SOL    HW1 2606   1.861   3.031   0.128
  569SOL    HW2 2607   1.756   3.056   0.250
  570SOL     OW 2608   1.971   6.554   5.823
  570SOL    HW1 2609   1.881   6.567   5.865
  570SOL    HW2 2610   2.022   6.640   5.827
  571SOL     OW 2611   3.627   0.011   2.564
  571SOL    HW1 2612   3.630   6.970   2.640
  571SOL    HW2 2613   3.651   0.102   2.597
  572SOL     OW 2614   2.678   4.929   5.952
  572SOL    HW1 2615   2.629   4.842   5.949
  572SOL    HW2 2616   2.677   4.971   5.861
  573SOL     OW 2617   4.450   1.578   5.275
  573SOL    HW1 2618   4.526   1.617   5.326
  573SOL    HW2 2619   4.376   1.645   5.269
  574SOL     OW 2620   2.026   2.468   3.447
  574SOL    HW1 2621   1.969   2.393   3.480
  574SOL    HW2 2622   2.072   2.441   3.363
  575SOL     OW 2623   6.303   3.862   5.932
  575SOL    HW1 2624   6.334   3.842   6.025
  575SOL    HW2 2625   6.374   3.914   5.884
  576SOL     OW 2626   1.663   2.004   2.213
  576SOL    HW1 2627   1.706   1.972   2.129
  576SOL    HW2 2628   1.689   1.945   2.289
  577SOL     OW 2629   2.320   0.763   3.081
  577SOL    HW1 2630   2.312   0.752   3.180
  577SOL    HW2 2631   2.270   0.690   3.035
  578SOL     OW 2632   6.548   3.465   3.530
  578SOL    HW1 2633   6.467   3.415   3.501
  578SOL    HW2 2634   6.579   3.524   3.455
  579SOL     OW 2635   3.231   2.035   1.203
  579SOL    HW1 2636   3.304   2.103   1.203
  579SOL    HW2 2637   3.247   1.969   1.130
  580SOL     OW 2638   0.607   4.418   6.887
  580SOL    HW1 2639   0.705   4.399   6.897
  580SOL    HW2 2640   0.589   4.455   6.796
  581SOL     OW 2641   3.311   3.412   3.057
  581SOL    HW1 2642   3.345   3.333   3.107
  581SOL    HW2 2643   3.348   3.411   2.964
  582SOL     OW 2644   5.503   4.863   2.932
  582SOL    HW1 2645   5.537   4.794   2.996
  582SOL    HW2 2646   5.439   4.819   2.868
  583SOL     OW 2647   2.701   5.209   6.920
  583SOL    HW1 2648   2.669   5.269   6.994
  583SOL    HW2 2649   2.689   5.113   6.947
  584SOL     OW 2650   1.162   5.698   5.441
  584SOL    HW1 2651   1.214   5.710   5.356
  584SOL    HW2 2652   1.222   5.660   5.511
  585SOL     OW 2653   6.454   2.962   5.848
  585SOL    HW1 2654   6.449   3.061   5.838
  585SOL    HW2 2655   6.370   2.928   5.889
  586SOL     OW 2656   3.289   0.533   0.068
  586SOL    HW1 2657   3.216   0.576   0.122
  586SOL    HW2 2658   3.280   0.560   6.996
  587SOL     OW 2659   2.412   2.247   5.504
  587SOL    HW1 2660   2.507   2.222   5.518
  587SOL    HW2 2661   2.354   2.199   5.570
  588SOL     OW 2662   3.173   5.509   0.866
  588SOL    HW1 2663   3.244   5.518   0.936
  588SOL    HW2 2664   3.168   5.593   0.812
  589SOL     OW 2665   3.696   5.383   1.732
  589SOL    HW1 2666   3.759   5.336   1.670
  589SOL    HW2 2667   3.723   5.364   1.827
  590SOL     OW 2668   5.960   2.973   1.548
  590SOL    HW1 2669   5.877   3.014   1.510
  590SOL    HW2 2670   5.943   2.944   1.642
  591SOL     OW 2671   4.009   6.349   4.001
  591SOL    HW1 2672   4.064   6.403   3.937
  591SOL    HW2 2673   4.057   6.264   4.023
  592SOL     OW 2674   4.469   7.008   0.907
  592SOL    HW1 2675   4.534   0.052   0.942
  592SOL    HW2 2676   4.517   6.923   0.887
  593SOL     OW 2677   4.217   2.242   3.861
  593SOL    HW1 2678   4.183   2.249   3.767
  593SOL    HW2 2679   4.292   2.176   3.865
  594SOL     OW 2680   4.639   2.478   6.423
  594SOL    HW1 2681   4.551   2.449   6.459
  594SOL    HW2 2682   4.694   2.397   6.400
  595SOL     OW 2683   4.575   6.464   3.590
  595SOL    HW1 2684   4.479   6.443   3.610
  595SOL    HW2 2685   4.633   6.387   3.617
  596SOL     OW 2686   0.854   3.429   1.390
  596SOL    HW1 2687   0.763   3.462   1.366
  596SOL    HW2 2688   0.856   3.329   1.387
  597SOL     OW 2689   4.693   0.602   5.640
  597SOL    HW1 2690   4.737   0.568   5.557
  597SOL    HW2 2691   4.737   0.562   5.720
  598SOL     OW 2692   3.871   4.058   6.937
  598SOL    HW1 2693   3.970   4.051   6.950
  598SOL    HW2 2694   3.826   4.069   0.001
  599SOL     OW 2695   0.968   6.995   2.953
  599SOL    HW1 2696   1.042   6.977   2.888
  599SOL    HW2 2697   0.987   6.949   3.039
  600SOL     OW 2698   1.170   0.394   1.116
  600SOL    HW1 2699   1.118   0.337   1.180
  600SOL    HW2 2700   1.106   0.443   1.056
  601SOL     OW 2701   3.071   5.574   3.917
  601SOL    HW1 2702   3.010   5.586   3.995
  601SOL    HW2 2703   3.134   5.652   3.912
  602SOL     OW 2704   1.088   2.245   0.168
  602SOL    HW1 2705   1.144   2.291   0.100
  602SOL    HW2 2706   1.145   2.183   0.223
  603SOL     OW 2707   4.149   1.862   4.029
  603SOL    HW1 2708   4.121   1.920   3.953
  603SOL    HW2 2709   4.203   1.916   4.094
  604SOL     OW 2710   0.022   3.457   1.334
  604SOL    HW1 2711   0.064   3.520   1.269
  604SOL    HW2 2712   0.047   3.484   1.427
  605SOL     OW 2713   6.460   5.707   2.729
  605SOL    HW1 2714   6.516   5.776   2.682
  605SOL    HW2 2715   6.507   5.618   2.724
  606SOL     OW 2716   5.195   0.565   5.537
  606SOL    HW1 2717   5.236   0.549   5.447
  606SOL    HW2 2718   5.170   0.477   5.577
  607SOL     OW 2719   5.376   0.464   4.933
  607SOL    HW1 2720   5.427   0.380   4.947
  607SOL    HW2 2721   5.393   0.527   5.009
  608SOL     OW 2722   3.534   6.738   0.567
  608SOL    HW1 2723   3.487   6.795   0.635
  608SOL    HW2 2724   3.549   6.647   0.605
  609SOL     OW 2725   3.514   3.303   4.450
  609SOL    HW1 2726   3.573   3.249   4.510
  609SOL    HW2 2727   3.431   3.253   4.430
  610SOL     OW 2728   5.854   2.026   3.565
  610SOL    HW1 2729   5.928   2.002   3.501
  610SOL    HW2 2730   5.771   2.046   3.513
  611SOL     OW 2731   1.051   0.489   6.536
  611SOL    HW1 2732   0.957   0.523   6.530
  611SOL    HW2 2733   1.050   0.395   6.570
  612SOL     OW 2734   3.044   5.777   5.953
  612SOL    HW1 2735   3.131   5.817   5.982
  612SOL    HW2 2736   2.984   5.768   6.032
  613SOL     OW 2737   4.903   0.353   5.708
  613SOL    HW1 2738   4.938   0.272   5.755
  613SOL    HW2 2739   4.903   0.431   5.771
  614SOL     OW 2740   6.094   4.393   0.824
  614SOL    HW1 2741   6.126   4.309   0.866
  614SOL    HW2 2742   6.104   4.469   0.889
  615SOL     OW 2743   1.049   1.221   0.354
  615SOL    HW1 2744   1.050   1.257   0.447
  615SOL    HW2 2745   1.143   1.206   0.323
  616SOL     OW 2746   6.043   1.803   3.890
  616SOL    HW1 2747   5.954   1.849   3.889
  616SOL    HW2 2748   6.107   1.854   3.947
  617SOL     OW 2749   0.202   3.978   6.743
  617SOL    HW1 2750   0.259   4.059   6.743
  617SOL    HW2 2751   0.243   3.907   6.687
  618SOL     OW 2752   5.858   4.079   0.724
  618SOL    HW1 2753   5.831   4.008   0.788
  618SOL    HW2 2754   5.876   4.039   0.634
  619SOL     OW 2755   4.007   0.062   6.568
  619SOL    HW1 2756   4.081   0.120   6.603
  619SOL    HW2 2757   3.922   0.116   6.565
  620SOL     OW 2758   5.491   2.699   1.177
  620SOL    HW1 2759   5.443   2.787   1.182
  620SOL    HW2 2760   5.424   2.626   1.167
  621SOL     OW 2761   2.286   0.338   5.064
  621SOL    HW1 2762   2.375   0.341   5.110
  621SOL    HW2 2763   2.275   0.421   5.009
  622SOL     OW 2764   0.651   2.213   5.087
  622SOL    HW1 2765   0.648   2.242   5.182
  622SOL    HW2 2766   0.560   2.182   5.059
  623SOL     OW 2767   6.827   0.413   4.985
  623SOL    HW1 2768   6.861   0.319   4.976
  623SOL    HW2 2769   6.770   0.436   4.906
  624SOL     OW 2770   6.438   1.324   0.014
  624SOL    HW1 2771   6.423   1.247   6.976
  624SOL    HW2 2772   6.356   1.381   0.017
  625SOL     OW 2773   1.330   1.308   0.182
  625SOL    HW1 2774   1.330   1.226   0.239
  625SOL    HW2 2775   1.344   1.388   0.240
  626SOL     OW 2776   0.732   5.664   2.556
  626SOL    HW1 2777   0.718   5.752   2.511
  626SOL    HW2 2778   0.644   5.619   2.570
  627SOL     OW 2779   6.311   6.221   0.306
  627SOL    HW1 2780   6.268   6.131   0.301
  627SOL    HW2 2781   6.326   6.246   0.402
  628SOL     OW 2782   5.740   3.899   4.667
  628SOL    HW1 2783   5.645   3.866   4.662
  628SOL    HW2 2784   5.741   3.998   4.654
  629SOL     OW 2785   0.059   1.174   0.358
  629SOL    HW1 2786   0.034   1.129   0.444
  629SOL    HW2 2787   7.019   1.249   0.339
  630SOL     OW 2788   6.925   1.885   0.394
  630SOL    HW1 2789   6.915   1.967   0.451
  630SOL    HW2 2790   6.932   1.913   0.298
  631SOL     OW 2791   3.490   1.644   4.142
  631SOL    HW1 2792   3.490   1.576   4.215
  631SOL    HW2 2793   3.581   1.649   4.101
  632SOL     OW 2794   4.229   2.951   0.664
  632SOL    HW1 2795   4.185   2.879   0.610
  632SOL    HW2 2796   4.306   2.913   0.715
  633SOL     OW 2797   2.469   4.411   0.375
  633SOL    HW1 2798   2.558   4.455   0.357
  633SOL    HW2 2799   2.484   4.320   0.412
  634SOL     OW 2800   4.045   3.780   3.452
  634SOL    HW1 2801   4.033   3.754   3.548
  634SOL    HW2 2802   3.970   3.840   3.425
  635SOL     OW 2803   4.753   0.080   6.805
  635SOL    HW1 2804   4.826   0.149   6.804
  635SOL    HW2 2805   4.747   0.036   6.715
  636SOL     OW 2806   3.196   0.592   5.653
  636SOL    HW1 2807   3.262   0.634   5.591
  636SOL    HW2 2808   3.225   0.608   5.748
  637SOL     OW 2809   5.657   1.985   2.627
  637SOL    HW1 2810   5.717   2.018   2.700
  637SOL    HW2 2811   5.699   1.905   2.584
  638SOL     OW 2812   5.841   3.534   3.940
  638SOL    HW1 2813   5.746   3.514   3.963
  638SOL    HW2 2814   5.860   3.631   3.957
  639SOL     OW 2815   5.688   4.273   3.803
  639SOL    HW1 2816   5.699   4.351   3.865
  639SOL    HW2 2817   5.593   4.242   3.804
  640SOL     OW 2818   6.984   4.228   3.482
  640SOL    HW1 2819   6.976   4.133   3.452
  640SOL    HW2 2820   0.049   4.242   3.526
  641SOL     OW 2821   1.357   4.547   5.117
  641SOL    HW1 2822   1.424   4.560   5.190
  641SOL    HW2 2823   1.267   4.528   5.158
  642SOL     OW 2824   1.535   2.977   4.554
  642SOL    HW1 2825   1.600   3.031   4.608
  642SOL    HW2 2826   1.556   2.987   4.457
  643SOL     OW 2827   5.905   0.099   6.460
  643SOL    HW1 2828   5.844   0.176   6.483
  643SOL    HW2 2829   5.899   0.030   6.532
  644SOL     OW 2830   1.588   0.525   4.647
  644SOL    HW1 2831   1.586   0.530   4.746
  644SOL    HW2 2832   1.612   0.615   4.609
  645SOL     OW 2833   3.244   5.390   3.451
  645SOL    HW1 2834   3.250   5.323   3.525
  645SOL    HW2 2835   3.147   5.409   3.431
  646SOL     OW 2836   3.325   0.775   4.621
  646SOL    HW1 2837   3.272   0.761   4.705
  646SOL    HW2 2838   3.270   0.825   4.555
  647SOL     OW 2839   5.657   1.699   4.784
  647SOL    HW1 2840   5.641   1.797   4.777
  647SOL    HW2 2841   5.755   1.680   4.779
  648SOL     OW 2842   6.705   3.251   3.250
  648SOL    HW1 2843   6.794   3.235   3.209
  648SOL    HW2 2844   6.668   3.165   3.286
  649SOL     OW 2845   2.136   4.285   0.787
  649SOL    HW1 2846   2.110   4.195   0.753
  649SOL    HW2 2847   2.233   4.286   0.809
  650SOL     OW 2848   0.029   5.307   0.514
  650SOL    HW1 2849   0.093   5.239   0.549
  650SOL    HW2 2850   7.007   5.271   0.432
  651SOL     OW 2851   1.887   0.408   5.882
  651SOL    HW1 2852   1.899   0.327   5.824
  651SOL    HW2 2853   1.792   0.440   5.874
  652SOL     OW 2854   4.386   6.860   2.037
  652SOL    HW1 2855   4.322   6.790   2.071
  652SOL    HW2 2856   4.431   6.827   1.954
  653SOL     OW 2857   0.523   6.359   0.501
  653SOL    HW1 2858   0.542   6.438   0.560
  653SOL    HW2 2859   0.466   6.293   0.551
  654SOL     OW 2860   6.326   6.665   5.996
  654SOL    HW1 2861   6.357   6.651   6.090
  654SOL    HW2 2862   6.297   6.760   5.985
  655SOL     OW 2863   0.053   5.322   1.717
  655SOL    HW1 2864   0.124   5.257   1.741
  655SOL    HW2 2865   6.988   5.276   1.713
  656SOL     OW 2866   2.373   6.329   0.580
  656SOL    HW1 2867   2.451   6.338   0.643
  656SOL    HW2 2868   2.309   6.261   0.616
  657SOL     OW 2869   2.992   3.549   0.667
  657SOL    HW1 2870   3.044   3.521   0.747
  657SOL    HW2 2871   3.055   3.568   0.591
  658SOL     OW 2872   1.719   4.393   5.906
  658SOL    HW1 2873   1.704   4.482   5.864
  658SOL    HW2 2874   1.642   4.372   5.967
  659SOL     OW 2875   2.929   5.359   4.489
  659SOL    HW1 2876   2.909   5.268   4.452
  659SOL    HW2 2877   2.844   5.409   4.502
  660SOL     OW 2878   4.516   4.727   2.566
  660SOL    HW1 2879   4.560   4.798   2.622
  660SOL    HW2 2880   4.557   4.727   2.475
  661SOL     OW 2881   4.904   3.878   4.340
  661SOL    HW1 2882   5.003   3.884   4.336
  661SOL    HW2 2883   4.866   3.885   4.247
  662SOL     OW 2884   4.322   1.562   6.514
  662SOL    HW1 2885   4.329   1.652   6.558
  662SOL    HW2 2886   4.228   1.547   6.483
  663SOL     OW 2887   0.767   4.787   6.773
  663SOL    HW1 2888   0.743   4.694   6.748
  663SOL    HW2 2889   0.867   4.796   6.779
  664SOL     OW 2890   1.778   5.148   6.908
  664SOL    HW1 2891   1.874   5.171   6.923
  664SOL    HW2 2892   1.751   5.078   6.975
  665SOL     OW 2893   4.095   5.554   1.064
  665SOL    HW1 2894   4.157   5.611   1.119
  665SOL    HW2 2895   4.066   5.475   1.118
  666SOL     OW 2896   3.906   2.451   1.073
  666SOL    HW1 2897   3.972   2.385   1.039
  666SOL    HW2 2898   3.828   2.456   1.009
  667SOL     OW 2899   0.553   3.042   3.900
  667SOL    HW1 2900   0.606   2.959   3.914
  667SOL    HW2 2901   0.465   3.034   3.947
  668SOL     OW 2902   4.750   5.732   0.123
  668SOL    HW1 2903   4.770   5.809   0.063
  668SOL    HW2 2904   4.684   5.760   0.193
  669SOL     OW 2905   2.154   6.374   3.075
  669SOL    HW1 2906   2.072   6.335   3.033
  669SOL    HW2 2907   2.188   6.450   3.019
  670SOL     OW 2908   3.348   3.832   2.541
  670SOL    HW1 2909   3.338   3.923   2.582
  670SOL    HW2 2910   3.291   3.825   2.460
  671SOL     OW 2911   2.465   6.044   6.025
  671SOL    HW1 2912   2.381   6.089   6.054
  671SOL    HW2 2913   2.543   6.101   6.049
  672SOL     OW 2914   1.092   3.410   2.610
  672SOL    HW1 2915   1.107   3.488   2.670
  672SOL    HW2 2916   1.177   3.360   2.596
  673SOL     OW 2917   4.709   6.832   0.809
  673SOL    HW1 2918   4.758   6.787   0.735
  673SOL    HW2 2919   4.726   6.784   0.895
  674SOL     OW 2920   0.345   3.560   4.179
  674SOL    HW1 2921   0.326   3.654   4.205
  674SOL    HW2 2922   0.269   3.502   4.207
  675SOL     OW 2923   0.908   1.415   4.920
  675SOL    HW1 2924   0.872   1.480   4.987
  675SOL    HW2 2925   0.949   1.464   4.843
  676SOL     OW 2926   2.712   5.084   3.776
  676SOL    HW1 2927   2.657   5.166   3.793
  676SOL    HW2 2928   2.773   5.068   3.853
  677SOL     OW 2929   5.780   1.294   6.566
  677SOL    HW1 2930   5.786   1.366   6.636
  677SOL    HW2 2931   5.833   1.214   6.597
  678SOL     OW 2932   2.566   1.546   5.354
  678SOL    HW1 2933   2.601   1.456   5.381
  678SOL    HW2 2934   2.593   1.614   5.421
  679SOL     OW 2935   4.301   0.827   4.667
  679SOL    HW1 2936   4.368   0.878   4.722
  679SOL    HW2 2937   4.210   0.867   4.678
  680SOL     OW 2938   5.934   4.741   5.636
  680SOL    HW1 2939   6.017   4.747   5.691
  680SOL    HW2 2940   5.894   4.650   5.645
  681SOL     OW 2941   6.697   0.216   1.006
  681SOL    HW1 2942   6.761   0.290   1.029
  681SOL    HW2 2943   6.717   0.136   1.062
  682SOL     OW 2944   2.558   6.474   6.358
  682SOL    HW1 2945   2.635   6.440   6.305
  682SOL    HW2 2946   2.579   6.564   6.395
  683SOL     OW 2947   3.155   0.525   6.319
  683SOL    HW1 2948   3.095   0.502   6.242
  683SOL    HW2 2949   3.200   0.441   6.352
  684SOL     OW 2950   6.278   1.799   6.159
  684SOL    HW1 2951   6.369   1.756   6.154
  684SOL    HW2 2952   6.244   1.816   6.067
  685SOL     OW 2953   4.882   0.557   5.882
  685SOL    HW1 2954   4.871   0.504   5.966
  685SOL    HW2 2955   4.832   0.644   5.891
  686SOL     OW 2956   6.103   2.790   3.293
  686SOL    HW1 2957   6.189   2.751   3.325
  686SOL    HW2 2958   6.090   2.766   3.196
  687SOL     OW 2959   6.650   2.678   5.623
  687SOL    HW1 2960   6.738   2.716   5.653
  687SOL    HW2 2961   6.614   2.617   5.694
  688SOL     OW 2962   1.874   3.767   6.630
  688SOL    HW1 2963   1.905   3.811   6.714
  688SOL    HW2 2964   1.937   3.692   6.607
  689SOL     OW 2965   0.553   4.699   5.387
  689SOL    HW1 2966   0.535   4.613   5.435
  689SOL    HW2 2967   0.576   4.679   5.291
  690SOL     OW 2968   0.755   3.501   3.006
  690SOL    HW1 2969   0.694   3.429   3.039
  690SOL    HW2 2970   0.753   3.578   3.070
  691SOL     OW 2971   2.368   1.402   6.583
  691SOL    HW1 2972   2.296   1.413   6.652
  691SOL    HW2 2973   2.405   1.309   6.587
  692SOL     OW 2974   3.479   6.850   3.825
  692SOL    HW1 2975   3.494   6.887   3.733
  692SOL    HW2 2976   3.403   6.784   3.822
  693SOL     OW 2977   6.343   1.535   3.316
  693SOL    HW1 2978   6.421   1.477   3.338
  693SOL    HW2 2979   6.345   1.616   3.374
  694SOL     OW 2980   3.347   5.502   2.461
  694SOL    HW1 2981   3.358   5.581   2.401
  694SOL    HW2 2982   3.276   5.522   2.529
  695SOL     OW 2983   5.323   5.026   5.399
  695SOL    HW1 2984   5.262   5.080   5.340
  695SOL    HW2 2985   5.365   5.086   5.466
  696SOL     OW 2986   3.417   5.156   2.225
  696SOL    HW1 2987   3.395   5.181   2.130
  696SOL    HW2 2988   3.423   5.057   2.232
  697SOL     OW 2989   0.894   3.339   6.052
  697SOL    HW1 2990   0.824   3.357   5.983
  697SOL    HW2 2991   0.979   3.312   6.006
  698SOL     OW 2992   5.819   0.053   4.771
  698SOL    HW1 2993   5.774   7.002   4.819
  698SOL    HW2 2994   5.755   0.096   4.707
  699SOL     OW 2995   1.108   4.152   0.157
  699SOL    HW1 2996   1.182   4.215   0.134
  699SOL    HW2 2997   1.105   4.139   0.257
  700SOL     OW 2998   3.222   1.834   3.558
  700SOL    HW1 2999   3.154   1.785   3.613
  700SOL    HW2 3000   3.180   1.917   3.519
  701SOL     OW 3001   1.104   4.910   6.482
  701SOL    HW1 3002   1.054   4.989   6.518
  701SOL    HW2 3003   1.193   4.940   6.449
  702SOL     OW 3004   5.812   6.262   6.549
  702SOL    HW1 3005   5.829   6.316   6.632
  702SOL    HW2 3006   5.825   6.320   6.468
  703SOL     OW 3007   4.629   3.639   6.699
  703SOL    HW1 3008   4.690   3.602   6.769
  703SOL    HW2 3009   4.675   3.713   6.650
  704SOL     OW 3010   1.960   1.419   6.156
  704SOL    HW1 3011   1.976   1.334   6.107
  704SOL    HW2 3012   1.984   1.496   6.097
  705SOL     OW 3013   5.238   6.436   3.804
  705SOL    HW1 3014   5.178   6.516   3.818
  705SOL    HW2 3015   5.295   6.423   3.885
  706SOL     OW 3016   4.108   1.807   3.577
  706SOL    HW1 3017   4.171   1.734   3.550
  706SOL    HW2 3018   4.039   1.819   3.506
  707SOL     OW 3019   4.900   0.113   2.193
  707SOL    HW1 3020   4.805   0.089   2.214
  707SOL    HW2 3021   4.904   0.204   2.153
  708SOL     OW 3022   4.385   0.299   0.942
  708SOL    HW1 3023   4.401   0.388   0.899
  708SOL    HW2 3024   4.470   0.265   0.981
  709SOL     OW 3025   1.151   5.349   0.924
  709SOL    HW1 3026   1.195   5.418   0.981
  709SOL    HW2 3027   1.193   5.260   0.941
  710SOL     OW 3028   3.564   3.838   2.879
  710SOL    HW1 3029   3.518   3.803   2.961
  710SOL    HW2 3030   3.611   3.763   2.833
  711SOL     OW 3031   0.751   2.273   5.619
  711SOL    HW1 3032   0.772   2.179   5.593
  711SOL    HW2 3033   0.658   2.278   5.654
  712SOL     OW 3034   2.285   4.201   1.099
  712SOL    HW1 3035   2.328   4.197   1.009
  712SOL    HW2 3036   2.186   4.210   1.088
  713SOL     OW 3037   3.134   3.956   0.586
  713SOL    HW1 3038   3.150   3.951   0.685
  713SOL    HW2 3039   3.087   4.042   0.565
  714SOL     OW 3040   5.883   4.453   5.082
  714SOL    HW1 3041   5.891   4.541   5.131
  714SOL    HW2 3042   5.950   4.449   5.009
  715SOL     OW 3043   4.842   6.040   0.312
  715SOL    HW1 3044   4.832   6.116   0.376
  715SOL    HW2 3045   4.784   5.964   0.341
  716SOL     OW 3046   1.141   5.509   1.239
  716SOL    HW1 3047   1.092   5.591   1.209
  716SOL    HW2 3048   1.226   5.501   1.187
  717SOL     OW 3049   6.185   4.948   6.190
  717SOL    HW1 3050   6.132   4.909   6.116
  717SOL    HW2 3051   6.208   5.042   6.168
  718SOL     OW 3052   3.346   1.780   6.161
  718SOL    HW1 3053   3.373   1.845   6.232
  718SOL    HW2 3054   3.346   1.687   6.198
  719SOL     OW 3055   5.840   2.464   1.789
  719SOL    HW1 3056   5.899   2.542   1.807
  719SOL    HW2 3057   5.817   2.461   1.691
  720SOL     OW 3058   2.960   1.219   6.252
  720SOL    HW1 3059   2.914   1.234   6.164
  720SOL    HW2 3060   3.012   1.134   6.249
  721SOL     OW 3061   1.397   0.294   4.905
  721SOL    HW1 3062   1.427   0.341   4.988
  721SOL    HW2 3063   1.316   0.240   4.925
  722SOL     OW 3064   3.713   6.840   5.214
  722SOL    HW1 3065   3.681   6.894   5.292
  722SOL    HW2 3066   3.713   6.896   5.132
  723SOL     OW 3067   2.248   2.868   1.937
  723SOL    HW1 3068   2.248   2.958   1.893
  723SOL    HW2 3069   2.224   2.878   2.033
  724SOL     OW 3070   1.247   1.375   4.631
  724SOL    HW1 3071   1.180   1.415   4.694
  724SOL    HW2 3072   1.236   1.415   4.540
  725SOL     OW 3073   3.126   5.039   1.559
  725SOL    HW1 3074   3.144   5.011   1.654
  725SOL    HW2 3075   3.049   5.103   1.558
  726SOL     OW 3076   3.914   4.574   0.661
  726SOL    HW1 3077   4.013   4.579   0.675
  726SOL    HW2 3078   3.888   4.479   0.642
  727SOL     OW 3079   4.264   5.872   4.408
  727SOL    HW1 3080   4.320   5.819   4.472
  727SOL    HW2 3081   4.252   5.820   4.323
  728SOL     OW 3082   0.822   4.468   5.295
  728SOL    HW1 3083   0.819   4.512   5.384
  728SOL    HW2 3084   0.775   4.525   5.227
  729SOL     OW 3085   2.423   0.388   0.291
  729SOL    HW1 3086   2.340   0.363   0.241
  729SOL    HW2 3087   2.398   0.425   0.380
  730SOL     OW 3088   5.836   0.352   3.605
  730SOL    HW1 3089   5.878   0.320   3.520
  730SOL    HW2 3090   5.907   0.364   3.674
  731SOL     OW 3091   5.652   3.360   6.092
  731SOL    HW1 3092   5.707   3.439   6.064
  731SOL    HW2 3093   5.652   3.353   6.191
  732SOL     OW 3094   0.231   3.610   0.510
  732SOL    HW1 3095   0.238   3.697   0.461
  732SOL    HW2 3096   0.280   3.539   0.460
  733SOL     OW 3097   5.525   4.211   4.646
  733SOL    HW1 3098   5.476   4.256   4.571
  733SOL    HW2 3099   5.621   4.237   4.644
  734SOL     OW 3100   6.632   4.519   2.854
  734SOL    HW1 3101   6.549   4.528   2.909
  734SOL    HW2 3102   6.642   4.425   2.823
  735SOL     OW 3103   3.385   2.272   1.239
  735SOL    HW1 3104   3.427   2.264   1.330
  735SOL    HW2 3105   3.348   2.365   1.228
  736SOL     OW 3106   6.872   6.688   2.465
  736SOL    HW1 3107   6.793   6.731   2.508
  736SOL    HW2 3108   6.846   6.654   2.374
  737SOL     OW 3109   4.653   3.425   0.657
  737SOL    HW1 3110   4.634   3.327   0.669
  737SOL    HW2 3111   4.735   3.436   0.602
  738SOL     OW 3112   1.862   5.008   3.700
  738SOL    HW1 3113   1.844   5.042   3.608
  738SOL    HW2 3114   1.856   4.908   3.701
  739SOL     OW 3115   4.704   6.142   5.181
  739SOL    HW1 3116   4.684   6.215   5.116
  739SOL    HW2 3117   4.632   6.073   5.178
  740SOL     OW 3118   5.408   0.307   0.357
  740SOL    HW1 3119   5.488   0.365   0.347
  740SOL    HW2 3120   5.360   0.301   0.270
  741SOL     OW 3121   2.215   6.397   3.376
  741SOL    HW1 3122   2.145   6.391   3.446
  741SOL    HW2 3123   2.174   6.390   3.286
  742SOL     OW 3124   2.332   6.677   1.649
  742SOL    HW1 3125   2.333   6.704   1.553
  742SOL    HW2 3126   2.355   6.756   1.706
  743SOL     OW 3127   1.552   3.986   4.683
  743SOL    HW1 3128   1.481   3.927   4.721
  743SOL    HW2 3129   1.552   4.074   4.731
  744SOL     OW 3130   6.618   7.015   6.318
  744SOL    HW1 3131   6.564   0.069   6.285
  744SOL    HW2 3132   6.714   0.018   6.325
  745SOL     OW 3133   1.093   5.754   4.352
  745SOL    HW1 3134   1.128   5.843   4.324
  745SOL    HW2 3135   1.052   5.708   4.273
  746SOL     OW 3136   0.611   6.347   4.803
  746SOL    HW1 3137   0.516   6.377   4.792
  746SOL    HW2 3138   0.617   6.248   4.787
  747SOL     OW 3139   4.683   4.843   4.409
  747SOL    HW1 3140   4.661   4.746   4.404
  747SOL    HW2 3141   4.770   4.859   4.361
  748SOL     OW 3142   3.841   5.269   2.853
  748SOL    HW1 3143   3.906   5.194   2.867
  748SOL    HW2 3144   3.771   5.266   2.925
  749SOL     OW 3145   6.541   3.574   4.963
  749SOL    HW1 3146   6.628   3.609   4.999
  749SOL    HW2 3147   6.560   3.518   4.882
  750SOL     OW 3148   1.839   3.177   0.734
  750SOL    HW1 3149   1.917   3.209   0.680
  750SOL    HW2 3150   1.854   3.196   0.830
  751SOL     OW 3151   3.709   1.453   6.299
  751SOL    HW1 3152   3.741   1.526   6.359
  751SOL    HW2 3153   3.727   1.476   6.204
  752SOL     OW 3154   4.336   2.111   1.577
  752SOL    HW1 3155   4.249   2.150   1.606
  752SOL    HW2 3156   4.410   2.176   1.594
  753SOL     OW 3157   1.969   3.029   3.933
  753SOL    HW1 3158   2.010   3.066   4.016
  753SOL    HW2 3159   1.958   2.930   3.943
  754SOL     OW 3160   6.039   3.690   6.144
  754SOL    HW1 3161   6.105   3.615   6.152
  754SOL    HW2 3162   6.049   3.751   6.223
  755SOL     OW 3163   1.166   5.956   7.001
  755SOL    HW1 3164   1.094   5.983   6.936
  755SOL    HW2 3165   1.255   5.985   6.966
  756SOL     OW 3166   5.088   6.427   1.168
  756SOL    HW1 3167   5.119   6.514   1.206
  756SOL    HW2 3168   5.086   6.359   1.241
  757SOL     OW 3169   0.281   6.113   2.920
  757SOL    HW1 3170   0.318   6.021   2.921
  757SOL    HW2 3171   0.184   6.110   2.895
  758SOL     OW 3172   3.916   0.677   1.490
  758SOL    HW1 3173   3.946   0.772   1.494
  758SOL    HW2 3174   3.846   0.667   1.419
  759SOL     OW 3175   0.033   0.901   0.753
  759SOL    HW1 3176   6.986   0.903   0.823
  759SOL    HW2 3177   0.120   0.930   0.793
  760SOL     OW 3178   4.068   0.878   6.483
  760SOL    HW1 3179   4.061   0.778   6.478
  760SOL    HW2 3180   4.154   0.903   6.528
  761SOL     OW 3181   5.573   4.011   5.853
  761SOL    HW1 3182   5.585   3.928   5.906
  761SOL    HW2 3183   5.657   4.031   5.803
  762SOL     OW 3184   2.337   6.655   3.769
  762SOL    HW1 3185   2.312   6.565   3.733
  762SOL    HW2 3186   2.324   6.724   3.698
  763SOL     OW 3187   4.026   5.406   6.257
  763SOL    HW1 3188   4.004   5.481   6.195
  763SOL    HW2 3189   4.125   5.405   6.274
  764SOL     OW 3190   4.757   0.356   4.444
  764SOL    HW1 3191   4.819   0.413   4.498
  764SOL    HW2 3192   4.731   0.404   4.361
  765SOL     OW 3193   1.216   6.209   1.280
  765SOL    HW1 3194   1.190   6.260   1.362
  765SOL    HW2 3195   1.262   6.124   1.308
  766SOL     OW 3196   0.602   1.819   0.584
  766SOL    HW1 3197   0.547   1.761   0.525
  766SOL    HW2 3198   0.682   1.769   0.617
  767SOL     OW 3199   0.151   6.179   2.474
  767SOL    HW1 3200   0.088   6.107   2.502
  767SOL    HW2 3201   0.221   6.141   2.414
  768SOL     OW 3202   2.613   6.994   2.044
  768SOL    HW1 3203   2.612   0.040   2.116
  768SOL    HW2 3204   2.620   0.015   1.954
  769SOL     OW 3205   2.646   6.965   3.672
  769SOL    HW1 3206   2.724   7.008   3.626
  769SOL    HW2 3207   2.607   0.005   3.739
  770SOL     OW 3208   1.717   4.333   2.765
  770SOL    HW1 3209   1.719   4.420   2.716
  770SOL    HW2 3210   1.794   4.277   2.736
  771SOL     OW 3211   1.789   5.136   2.907
  771SOL    HW1 3212   1.877   5.171   2.875
  771SOL    HW2 3213   1.767   5.177   2.995
  772SOL     OW 3214   6.651   4.812   0.745
  772SOL    HW1 3215   6.669   4.896   0.693
  772SOL    HW2 3216   6.558   4.816   0.782
  773SOL     OW 3217   0.288   3.653   3.604
  773SOL    HW1 3218   0.325   3.587   3.539
  773SOL    HW2 3219   0.307   3.623   3.698
  774SOL     OW 3220   1.099   1.773   2.347
  774SOL    HW1 3221   1.048   1.772   2.260
  774SOL    HW2 3222   1.161   1.695   2.349
  775SOL     OW 3223   1.010   1.754   3.376
  775SOL    HW1 3224   1.075   1.829   3.392
  775SOL    HW2 3225   1.050   1.668   3.408
  776SOL     OW 3226   0.087   1.226   5.619
  776SOL    HW1 3227   0.089   1.325   5.633
  776SOL    HW2 3228   0.169   1.185   5.658
  777SOL     OW 3229   3.047   6.553   1.073
  777SOL    HW1 3230   2.982   6.545   1.149
  777SOL    HW2 3231   3.126   6.494   1.089
  778SOL     OW 3232   3.700   1.249   4.109
  778SOL    HW1 3233   3.757   1.312   4.056
  778SOL    HW2 3234   3.679   1.169   4.054
  779SOL     OW 3235   0.520   1.734   2.594
  779SOL    HW1 3236   0.606   1.685   2.589
  779SOL    HW2 3237   0.492   1.742   2.690
  780SOL     OW 3238   6.346   3.867   4.523
  780SOL    HW1 3239   6.398   3.821   4.595
  780SOL    HW2 3240   6.366   3.824   4.435
  781SOL     OW 3241   5.766   0.961   6.345
  781SOL    HW1 3242   5.704   1.006   6.280
  781SOL    HW2 3243   5.798   0.875   6.305
  782SOL     OW 3244   1.238   3.786   0.391
  782SOL    HW1 3245   1.266   3.818   0.300
  782SOL    HW2 3246   1.139   3.797   0.401
  783SOL     OW 3247   3.774   4.501   0.886
  783SOL    HW1 3248   3.824   4.535   0.806
  783SOL    HW2 3249   3.676   4.508   0.868
  784SOL     OW 3250   5.113   6.580   5.613
  784SOL    HW1 3251   5.054   6.650   5.651
  784SOL    HW2 3252   5.209   6.608   5.623
  785SOL     OW 3253   0.258   2.139   3.407
  785SOL    HW1 3254   0.348   2.176   3.384
  785SOL    HW2 3255   0.265   2.040   3.419
  786SOL     OW 3256   1.429   0.871   0.842
  786SOL    HW1 3257   1.507   0.886   0.781
  786SOL    HW2 3258   1.381   0.787   0.816
  787SOL     OW 3259   3.243   1.765   6.712
  787SOL    HW1 3260   3.241   1.692   6.643
  787SOL    HW2 3261   3.197   1.846   6.675
  788SOL     OW 3262   2.431   2.475   4.928
  788SOL    HW1 3263   2.426   2.555   4.987
  788SOL    HW2 3264   2.521   2.433   4.935
  789SOL     OW 3265   5.376   4.344   1.184
  789SOL    HW1 3266   5.379   4.263   1.126
  789SOL    HW2 3267   5.378   4.316   1.280
  790SOL     OW 3268   2.516   1.502   4.457
  790SOL    HW1 3269   2.464   1.417   4.455
  790SOL    HW2 3270   2.487   1.556   4.536
  791SOL     OW 3271   4.065   0.127   3.233
  791SOL    HW1 3272   4.072   0.159   3.139
  791SOL    HW2 3273   3.970   0.104   3.254
  792SOL     OW 3274   0.349   0.259   1.632
  792SOL    HW1 3275   0.261   0.268   1.585
  792SOL    HW2 3276   0.422   0.253   1.563
  793SOL     OW 3277   4.185   6.121   2.374
  793SOL    HW1 3278   4.110   6.104   2.310
  793SOL    HW2 3279   4.146   6.148   2.463
  794SOL     OW 3280   2.717   3.102   5.460
  794SOL    HW1 3281   2.660   3.125   5.381
  794SOL    HW2 3282   2.685   3.154   5.539
  795SOL     OW 3283   2.865   5.299   5.215
  795SOL    HW1 3284   2.847   5.214   5.165
  795SOL    HW2 3285   2.960   5.326   5.204
  796SOL     OW 3286   0.984   2.395   6.425
  796SOL    HW1 3287   0.983   2.467   6.494
  796SOL    HW2 3288   1.039   2.424   6.347
  797SOL     OW 3289   5.286   2.437   2.628
  797SOL    HW1 3290   5.206   2.450   2.686
  797SOL    HW2 3291   5.298   2.340   2.609
  798SOL     OW 3292   5.318   0.547   1.110
  798SOL    HW1 3293   5.248   0.583   1.172
  798SOL    HW2 3294   5.369   0.474   1.156
  799SOL     OW 3295   6.515   1.478   4.107
  799SOL    HW1 3296   6.608   1.443   4.105
  799SOL    HW2 3297   6.503   1.545   4.034
  800SOL     OW 3298   5.897   1.191   2.749
  800SOL    HW1 3299   5.801   1.163   2.747
  800SOL    HW2 3300   5.937   1.181   2.658
  801SOL     OW 3301   1.447   3.623   2.749
  801SOL    HW1 3302   1.478   3.670   2.831
  801SOL    HW2 3303   1.510   3.548   2.728
  802SOL     OW 3304   4.261   0.340   0.430
  802SOL    HW1 3305   4.196   0.396   0.482
  802SOL    HW2 3306   4.354   0.362   0.458
  803SOL     OW 3307   0.015   5.604   4.958
  803SOL    HW1 3308   0.019   5.505   4.945
  803SOL    HW2 3309   0.100   5.636   5.000
  804SOL     OW 3310   5.893   6.607   6.961
  804SOL    HW1 3311   5.904   6.544   6.884
  804SOL    HW2 3312   5.921   6.562   0.021
  805SOL     OW 3313   3.435   2.351   5.609
  805SOL    HW1 3314   3.502   2.277   5.608
  805SOL    HW2 3315   3.437   2.399   5.521
  806SOL     OW 3316   4.445   1.174   4.687
  806SOL    HW1 3317   4.448   1.091   4.742
  806SOL    HW2 3318   4.351   1.205   4.678
  807SOL     OW 3319   0.909   1.292   3.616
  807SOL    HW1 3320   0.851   1.232   3.672
  807SOL    HW2 3321   0.985   1.239   3.578
  808SOL     OW 3322   4.972   3.702   6.366
  808SOL    HW1 3323   4.964   3.781   6.306
  808SOL    HW2 3324   4.948   3.619   6.315
  809SOL     OW 3325   0.887   4.322   1.230
  809SOL    HW1 3326   0.816   4.255   1.207
  809SOL    HW2 3327   0.936   4.348   1.146
  810SOL     OW 3328   3.868   2.982   1.383
  810SOL    HW1 3329   3.844   2.900   1.436
  810SOL    HW2 3330   3.903   2.954   1.294
  811SOL     OW 3331   4.903   5.044   3.739
  811SOL    HW1 3332   4.921   4.953   3.775
  811SOL    HW2 3333   4.826   5.041   3.675
  812SOL     OW 3334   0.292   1.760   1.976
  812SOL    HW1 3335   0.223   1.718   2.035
  812SOL    HW2 3336   0.246   1.813   1.904
  813SOL     OW 3337   3.636   4.919   4.146
  813SOL    HW1 3338   3.618   4.932   4.049
  813SOL    HW2 3339   3.720   4.967   4.171
  814SOL     OW 3340   5.222   6.275   3.305
  814SOL    HW1 3341   5.309   6.296   3.260
  814SOL    HW2 3342   5.211   6.334   3.385
  815SOL     OW 3343   7.016   3.099   2.739
  815SOL    HW1 3344   0.076   3.152   2.747
  815SOL    HW2 3345   7.014   3.028   2.809
  816SOL     OW 3346   6.759   0.054   0.186
  816SOL    HW1 3347   6.778   0.058   0.088
  816SOL    HW2 3348   6.831   0.001   0.232
  817SOL     OW 3349   1.786   3.712   1.990
  817SOL    HW1 3350   1.878   3.685   1.962
  817SOL    HW2 3351   1.718   3.665   1.934
  818SOL     OW 3352   6.606   3.288   0.978
  818SOL    HW1 3353   6.663   3.363   0.946
  818SOL    HW2 3354   6.593   3.294   1.077
  819SOL     OW 3355   6.074   2.910   3.882
  819SOL    HW1 3356   6.083   3.010   3.886
  819SOL    HW2 3357   6.040   2.877   3.971
  820SOL     OW 3358   1.816   2.687   6.251
  820SOL    HW1 3359   1.904   2.700   6.297
  820SOL    HW2 3360   1.753   2.758   6.282
  821SOL     OW 3361   2.529   4.907   0.621
  821SOL    HW1 3362   2.581   4.829   0.586
  821SOL    HW2 3363   2.542   4.985   0.561
  822SOL     OW 3364   1.185   5.216   4.386
  822SOL    HW1 3365   1.183   5.137   4.447
  822SOL    HW2 3366   1.141   5.192   4.299
  823SOL     OW 3367   5.015   4.418   6.620
  823SOL    HW1 3368   4.968   4.482   6.682
  823SOL    HW2 3369   4.966   4.331   6.619
  824SOL     OW 3370   5.536   0.738   5.418
  824SOL    HW1 3371   5.478   0.745   5.499
  824SOL    HW2 3372   5.531   0.822   5.365
  825SOL     OW 3373   1.539   4.214   1.197
  825SOL    HW1 3374   1.506   4.309   1.202
  825SOL    HW2 3375   1.479   4.161   1.138
  826SOL     OW 3376   5.734   3.709   0.573
  826SOL    HW1 3377   5.828   3.675   0.579
  826SOL    HW2 3378   5.718   3.746   0.482
  827SOL     OW 3379   2.795   5.413   6.313
  827SOL    HW1 3380   2.786   5.488   6.248
  827SOL    HW2 3381   2.879   5.424   6.366
  828SOL     OW 3382   6.176   0.194   5.371
  828SOL    HW1 3383   6.179   0.235   5.279
  828SOL    HW2 3384   6.255   0.134   5.383
  829SOL     OW 3385   2.905   3.606   4.444
  829SOL    HW1 3386   2.873   3.583   4.536
  829SOL    HW2 3387   2.936   3.523   4.398
  830SOL     OW 3388   4.743   5.011   5.998
  830SOL    HW1 3389   4.681   5.077   6.040
  830SOL    HW2 3390   4.767   5.043   5.906
  831SOL     OW 3391   0.149   0.330   5.207
  831SOL    HW1 3392   0.094   0.406   5.171
  831SOL    HW2 3393   0.237   0.328   5.161
  832SOL     OW 3394   1.530   0.887   0.173
  832SOL    HW1 3395   1.585   0.961   0.210
  832SOL    HW2 3396   1.495   0.912   0.083
  833SOL     OW 3397   0.365   5.604   6.072
  833SOL    HW1 3398   0.410   5.685   6.109
  833SOL    HW2 3399   0.356   5.614   5.973
  834SOL     OW 3400   3.927   4.243   1.390
  834SOL    HW1 3401   3.946   4.237   1.488
  834SOL    HW2 3402   3.835   4.279   1.376
  835SOL     OW 3403   3.410   6.997   4.057
  835SOL    HW1 3404   3.445   6.962   3.970
  835SOL    HW2 3405   3.314   0.001   4.046
  836SOL     OW 3406   3.363   6.511   6.606
  836SOL    HW1 3407   3.370   6.571   6.686
  836SOL    HW2 3408   3.413   6.427   6.623
  837SOL     OW 3409   5.027   6.121   6.355
  837SOL    HW1 3410   4.946   6.162   6.313
  837SOL    HW2 3411   5.007   6.097   6.450
  838SOL     OW 3412   0.872   0.426   4.693
  838SOL    HW1 3413   0.965   0.463   4.694
  838SOL    HW2 3414   0.823   0.463   4.614
  839SOL     OW 3415   2.952   1.959   2.125
  839SOL    HW1 3416   2.927   2.020   2.050
  839SOL    HW2 3417   3.002   2.010   2.195
  840SOL     OW 3418   6.002   0.178   5.890
  840SOL    HW1 3419   5.942   0.245   5.935
  840SOL    HW2 3420   6.093   0.183   5.931
  841SOL     OW 3421   5.804   4.622   0.420
  841SOL    HW1 3422   5.743   4.556   0.377
  841SOL    HW2 3423   5.773   4.640   0.513
  842SOL     OW 3424   4.372   5.228   4.269
  842SOL    HW1 3425   4.273   5.220   4.265
  842SOL    HW2 3426   4.411   5.145   4.310
  843SOL     OW 3427   4.347   2.423   6.700
  843SOL    HW1 3428   4.422   2.458   6.755
  843SOL    HW2 3429   4.302   2.498   6.652
  844SOL     OW 3430   4.617   6.599   1.029
  844SOL    HW1 3431   4.701   6.641   1.063
  844SOL    HW2 3432   4.639   6.509   0.991
  845SOL     OW 3433   6.332   3.374   4.146
  845SOL    HW1 3434   6.240   3.411   4.155
  845SOL    HW2 3435   6.334   3.307   4.072
  846SOL     OW 3436   5.325   1.699   6.617
  846SOL    HW1 3437   5.344   1.616   6.669
  846SOL    HW2 3438   5.228   1.701   6.592
  847SOL     OW 3439   6.502   3.534   0.425
  847SOL    HW1 3440   6.521   3.445   0.383
  847SOL    HW2 3441   6.452   3.520   0.511
  848SOL     OW 3442   6.320   1.477   6.366
  848SOL    HW1 3443   6.272   1.560   6.394
  848SOL    HW2 3444   6.410   1.474   6.410
  849SOL     OW 3445   0.784   5.678   5.388
  849SOL    HW1 3446   0.795   5.616   5.310
  849SOL    HW2 3447   0.725   5.635   5.457
  850SOL     OW 3448   5.152   0.425   3.109
  850SOL    HW1 3449   5.200   0.337   3.106
  850SOL    HW2 3450   5.219   0.500   3.103
  851SOL     OW 3451   0.162   1.665   1.070
  851SOL    HW1 3452   0.097   1.670   0.994
  851SOL    HW2 3453   0.114   1.639   1.154
  852SOL     OW 3454   2.746   2.366   0.053
  852SOL    HW1 3455   2.816   2.316   0.105
  852SOL    HW2 3456   2.665   2.308   0.041
  853SOL     OW 3457   1.200   4.038   3.257
  853SOL    HW1 3458   1.203   3.982   3.340
  853SOL    HW2 3459   1.201   4.135   3.282
  854SOL     OW 3460   4.927   6.024   2.392
  854SOL    HW1 3461   4.837   6.029   2.348
  854SOL    HW2 3462   4.922   6.065   2.483
  855SOL     OW 3463   6.102   6.915   1.216
  855SOL    HW1 3464   6.011   6.955   1.206
  855SOL    HW2 3465   6.112   6.877   1.308
  856SOL     OW 3466   2.322   1.569   5.283
  856SOL    HW1 3467   2.320   1.560   5.183
  856SOL    HW2 3468   2.416   1.557   5.315
  857SOL     OW 3469   5.876   5.267   1.054
  857SOL    HW1 3470   5.874   5.268   0.954
  857SOL    HW2 3471   5.837   5.353   1.089
  858SOL     OW 3472   2.551   4.654   1.967
  858SOL    HW1 3473   2.521   4.719   2.037
  858SOL    HW2 3474   2.646   4.629   1.982
  859SOL     OW 3475   5.652   5.340   6.835
  859SOL    HW1 3476   5.610   5.333   6.926
  859SOL    HW2 3477   5.585   5.376   6.771
  860SOL     OW 3478   4.242   4.464   0.901
  860SOL    HW1 3479   4.285   4.409   0.973
  860SOL    HW2 3480   4.192   4.403   0.839
  861SOL     OW 3481   1.798   6.932   4.705
  861SOL    HW1 3482   1.791   7.002   4.635
  861SOL    HW2 3483   1.731   6.948   4.777
  862SOL     OW 3484   6.475   3.973   5.405
  862SOL    HW1 3485   6.444   4.067   5.388
  862SOL    HW2 3486   6.406   3.909   5.371
  863SOL     OW 3487   1.272   0.330   0.655
  863SOL    HW1 3488   1.340   0.262   0.630
  863SOL    HW2 3489   1.317   0.405   0.705
  864SOL     OW 3490   5.627   4.551   3.849
  864SOL    HW1 3491   5.603   4.634   3.798
  864SOL    HW2 3492   5.669   4.577   3.936
  865SOL     OW 3493   0.917   6.886   4.852
  865SOL    HW1 3494   0.879   6.922   4.937
  865SOL    HW2 3495   0.855   6.906   4.777
  866SOL     OW 3496   1.910   1.840   1.252
  866SOL    HW1 3497   1.978   1.790   1.198
  866SOL    HW2 3498   1.948   1.929   1.278
  867SOL     OW 3499   3.291   2.538   1.237
  867SOL    HW1 3500   3.192   2.540   1.249
  867SOL    HW2 3501   3.336   2.560   1.323
  868SOL     OW 3502   6.329   6.557   0.934
  868SOL    HW1 3503   6.388   6.596   0.864
  868SOL    HW2 3504   6.377   6.482   0.980
  869SOL     OW 3505   6.682   5.484   2.721
  869SOL    HW1 3506   6.732   5.424   2.658
  869SOL    HW2 3507   6.614   5.430   2.771
  870SOL     OW 3508   6.123   4.167   0.617
  870SOL    HW1 3509   6.066   4.145   0.696
  870SOL    HW2 3510   6.159   4.260   0.625
  871SOL     OW 3511   6.602   2.822   2.277
  871SOL    HW1 3512   6.533   2.802   2.347
  871SOL    HW2 3513   6.564   2.802   2.187
  872SOL     OW 3514   6.288   3.992   4.184
  872SOL    HW1 3515   6.199   4.030   4.158
  872SOL    HW2 3516   6.278   3.895   4.204
  873SOL     OW 3517   4.261   0.165   2.777
  873SOL    HW1 3518   4.344   0.169   2.833
  873SOL    HW2 3519   4.182   0.151   2.836
  874SOL     OW 3520   1.487   3.783   5.485
  874SOL    HW1 3521   1.412   3.799   5.549
  874SOL    HW2 3522   1.536   3.701   5.512
  875SOL     OW 3523   5.037   4.112   0.972
  875SOL    HW1 3524   4.997   4.020   0.961
  875SOL    HW2 3525   4.989   4.176   0.912
  876SOL     OW 3526   6.817   4.492   3.120
  876SOL    HW1 3527   6.740   4.522   3.177
  876SOL    HW2 3528   6.837   4.561   3.051
  877SOL     OW 3529   4.347   4.471   6.765
  877SOL    HW1 3530   4.400   4.387   6.755
  877SOL    HW2 3531   4.296   4.489   6.681
  878SOL     OW 3532   3.746   5.694   6.416
  878SOL    HW1 3533   3.739   5.602   6.376
  878SOL    HW2 3534   3.676   5.704   6.487
  879SOL     OW 3535   4.125   2.172   2.411
  879SOL    HW1 3536   4.059   2.233   2.367
  879SOL    HW2 3537   4.112   2.079   2.377
  880SOL     OW 3538   3.223   4.720   0.006
  880SOL    HW1 3539   3.212   4.789   6.959
  880SOL    HW2 3540   3.317   4.684   0.004
  881SOL     OW 3541   4.270   4.799   5.206
  881SOL    HW1 3542   4.272   4.864   5.130
  881SOL    HW2 3543   4.213   4.836   5.279
  882SOL     OW 3544   1.990   1.273   4.186
  882SOL    HW1 3545   1.928   1.339   4.227
  882SOL    HW2 3546   1.941   1.186   4.172
  883SOL     OW 3547   4.229   5.293   5.127
  883SOL    HW1 3548   4.222   5.260   5.033
  883SOL    HW2 3549   4.158   5.362   5.143
  884SOL     OW 3550   6.901   3.774   2.280
  884SOL    HW1 3551   6.806   3.751   2.257
  884SOL    HW2 3552   6.902   3.841   2.353
  885SOL     OW 3553   5.585   6.308   6.976
  885SOL    HW1 3554   5.546   6.373   6.911
  885SOL    HW2 3555   5.653   6.250   6.930
  886SOL     OW 3556   4.493   0.767   0.471
  886SOL    HW1 3557   4.533   0.724   0.390
  886SOL    HW2 3558   4.394   0.751   0.472
  887SOL     OW 3559   4.145   6.354   5.582
  887SOL    HW1 3560   4.220   6.289   5.568
  887SOL    HW2 3561   4.088   6.357   5.501
  888SOL     OW 3562   6.957   6.440   3.154
  888SOL    HW1 3563   7.019   6.373   3.197
  888SOL    HW2 3564   6.871   6.395   3.131
  889SOL     OW 3565   0.209   6.857   5.836
  889SOL    HW1 3566   0.117   6.837   5.871
  889SOL    HW2 3567   0.273   6.863   5.913
  890SOL     OW 3568   2.812   4.743   2.265
  890SOL    HW1 3569   2.868   4.818   2.229
  890SOL    HW2 3570   2.812   4.668   2.199
  891SOL     OW 3571   6.044   3.562   1.308
  891SOL    HW1 3572   6.079   3.481   1.354
  891SOL    HW2 3573   6.030   3.635   1.374
  892SOL     OW 3574   4.228   3.902   0.492
  892SOL    HW1 3575   4.263   3.980   0.544
  892SOL    HW2 3576   4.130   3.890   0.512
  893SOL     OW 3577   1.968   0.625   1.259
  893SOL    HW1 3578   1.936   0.709   1.303
  893SOL    HW2 3579   1.905   0.599   1.185
  894SOL     OW 3580   2.187   4.026   3.939
  894SOL    HW1 3581   2.198   3.929   3.961
  894SOL    HW2 3582   2.113   4.037   3.873
  895SOL     OW 3583   1.855   7.004   4.208
  895SOL    HW1 3584   1.787   6.973   4.274
  895SOL    HW2 3585   1.820   6.990   4.115
  896SOL     OW 3586   5.916   5.737   3.916
  896SOL    HW1 3587   5.892   5.806   3.847
  896SOL    HW2 3588   6.009   5.705   3.899
  897SOL     OW 3589   4.606   1.366   0.556
  897SOL    HW1 3590   4.622   1.332   0.649
  897SOL    HW2 3591   4.673   1.437   0.535
  898SOL     OW 3592   4.616   6.095   4.096
  898SOL    HW1 3593   4.663   6.044   4.025
  898SOL    HW2 3594   4.538   6.042   4.130
  899SOL     OW 3595   0.404   5.121   0.109
  899SOL    HW1 3596   0.391   5.220   0.119
  899SOL    HW2 3597   0.382   5.095   0.015
  900SOL     OW 3598   5.763   5.921   1.708
  900SOL    HW1 3599   5.687   5.857   1.700
  900SOL    HW2 3600   5.783   5.961   1.618
  901SOL     OW 3601   0.386   1.840   4.689
  901SOL    HW1 3602   0.288   1.826   4.674
  901SOL    HW2 3603   0.430   1.752   4.705
  902SOL     OW 3604   0.236   0.839   6.353
  902SOL    HW1 3605   0.183   0.920   6.326
  902SOL    HW2 3606   0.326   0.842   6.311
  903SOL     OW 3607   6.657   4.467   0.120
  903SOL    HW1 3608   6.708   4.552   0.135
  903SOL    HW2 3609   6.661   4.444   0.023
  904SOL     OW 3610   1.435   1.949   4.100
  904SOL    HW1 3611   1.511   1.941   4.165
  904SOL    HW2 3612   1.351   1.968   4.150
  905SOL     OW 3613   5.334   2.551   6.727
  905SOL    HW1 3614   5.259   2.582   6.669
  905SOL    HW2 3615   5.411   2.614   6.718
  906SOL     OW 3616   0.399   4.196   6.654
  906SOL    HW1 3617   0.457   4.125   6.695
  906SOL    HW2 3618   0.418   4.284   6.698
  907SOL     OW 3619   5.925   2.485   2.984
  907SOL    HW1 3620   5.921   2.492   3.084
  907SOL    HW2 3621   5.927   2.576   2.944
  908SOL     OW 3622   1.217   0.302   3.933
  908SOL    HW1 3623   1.183   0.393   3.956
  908SOL    HW2 3624   1.286   0.274   3.999
  909SOL     OW 3625   2.592   1.012   0.602
  909SOL    HW1 3626   2.666   0.972   0.655
  909SOL    HW2 3627   2.624   1.032   0.509
  910SOL     OW 3628   1.950   0.186   0.883
  910SOL    HW1 3629   2.028   0.129   0.856
  910SOL    HW2 3630   1.921   0.242   0.806
  911SOL     OW 3631   0.317   4.625   1.302
  911SOL    HW1 3632   0.352   4.697   1.243
  911SOL    HW2 3633   0.223   4.646   1.330
  912SOL     OW 3634   0.869   1.806   5.706
  912SOL    HW1 3635   0.835   1.886   5.755
  912SOL    HW2 3636   0.855   1.724   5.762
  913SOL     OW 3637   2.083   0.793   3.338
  913SOL    HW1 3638   2.007   0.756   3.391
  913SOL    HW2 3639   2.134   0.859   3.393
  914SOL     OW 3640   2.409   5.533   4.928
  914SOL    HW1 3641   2.443   5.439   4.916
  914SOL    HW2 3642   2.340   5.552   4.858
  915SOL     OW 3643   0.454   3.483   0.728
  915SOL    HW1 3644   0.442   3.468   0.630
  915SOL    HW2 3645   0.476   3.395   0.772
  916SOL     OW 3646   2.081   2.039   1.579
  916SOL    HW1 3647   2.160   2.012   1.523
  916SOL    HW2 3648   1.997   2.012   1.532
  917SOL     OW 3649   4.024   0.809   1.235
  917SOL    HW1 3650   3.981   0.719   1.228
  917SOL    HW2 3651   4.123   0.798   1.247
  918SOL     OW 3652   3.186   6.195   6.783
  918SOL    HW1 3653   3.100   6.152   6.810
  918SOL    HW2 3654   3.210   6.165   6.691
  919SOL     OW 3655   1.402   6.520   2.084
  919SOL    HW1 3656   1.318   6.540   2.033
  919SOL    HW2 3657   1.434   6.603   2.130
  920SOL     OW 3658   2.296   0.800   2.757
  920SOL    HW1 3659   2.226   0.797   2.686
  920SOL    HW2 3660   2.386   0.808   2.714
  921SOL     OW 3661   5.762   4.461   4.175
  921SOL    HW1 3662   5.760   4.361   4.177
  921SOL    HW2 3663   5.693   4.497   4.238
  922SOL     OW 3664   3.617   3.521   6.650
  922SOL    HW1 3665   3.677   3.552   6.724
  922SOL    HW2 3666   3.641   3.570   6.566
  923SOL     OW 3667   2.611   6.130   0.082
  923SOL    HW1 3668   2.684   6.196   0.098
  923SOL    HW2 3669   2.636   6.071   0.005
  924SOL     OW 3670   5.382   3.196   2.329
  924SOL    HW1 3671   5.448   3.169   2.259
  924SOL    HW2 3672   5.311   3.126   2.337
  925SOL     OW 3673   7.009   1.797   5.766
  925SOL    HW1 3674   0.011   1.787   5.670
  925SOL    HW2 3675   0.060   1.838   5.817
  926SOL     OW 3676   5.785   0.127   0.336
  926SOL    HW1 3677   5.846   0.163   0.407
  926SOL    HW2 3678   5.801   0.029   0.325
  927SOL     OW 3679   4.881   4.343   4.084
  927SOL    HW1 3680   4.820   4.402   4.031
  927SOL    HW2 3681   4.827   4.276   4.135
  928SOL     OW 3682   1.495   0.028   0.834
  928SOL    HW1 3683   1.482   0.073   0.746
  928SOL    HW2 3684   1.548   0.088   0.895
  929SOL     OW 3685   6.814   2.407   2.213
  929SOL    HW1 3686   6.852   2.481   2.158
  929SOL    HW2 3687   6.816   2.433   2.310
  930SOL     OW 3688   6.716   5.252   4.273
  930SOL    HW1 3689   6.663   5.246   4.188
  930SOL    HW2 3690   6.780   5.176   4.277
  931SOL     OW 3691   0.438   3.437   3.043
  931SOL    HW1 3692   0.456   3.440   2.944
  931SOL    HW2 3693   0.401   3.348   3.068
  932SOL     OW 3694   3.525   6.174   1.985
  932SOL    HW1 3695   3.463   6.142   1.914
  932SOL    HW2 3696   3.612   6.123   1.979
  933SOL     OW 3697   1.006   4.457   3.389
  933SOL    HW1 3698   0.942   4.481   3.462
  933SOL    HW2 3699   0.960   4.469   3.300
  934SOL     OW 3700   2.738   1.584   4.704
  934SOL    HW1 3701   2.805   1.644   4.747
  934SOL    HW2 3702   2.783   1.525   4.637
  935SOL     OW 3703   4.704   4.079   5.861
  935SOL    HW1 3704   4.682   4.106   5.768
  935SOL    HW2 3705   4.799   4.103   5.881
  936SOL     OW 3706   0.251   6.608   0.567
  936SOL    HW1 3707   0.269   6.629   0.663
  936SOL    HW2 3708   0.324   6.644   0.510
  937SOL     OW 3709   4.497   1.893   4.720
  937SOL    HW1 3710   4.404   1.867   4.744
  937SOL    HW2 3711   4.506   1.992   4.724
  938SOL     OW 3712   0.233   4.335   6.450
  938SOL    HW1 3713   0.278   4.290   6.527
  938SOL    HW2 3714   0.222   4.433   6.471
  939SOL     OW 3715   5.220   1.211   6.078
  939SOL    HW1 3716   5.267   1.154   6.146
  939SOL    HW2 3717   5.184   1.152   6.005
  940SOL     OW 3718   6.880   1.701   2.872
  940SOL    HW1 3719   6.947   1.755   2.923
  940SOL    HW2 3720   6.817   1.658   2.936
  941SOL     OW 3721   6.065   1.034   3.646
  941SOL    HW1 3722   6.165   1.026   3.645
  941SOL    HW2 3723   6.028   0.977   3.720
  942SOL     OW 3724   4.874   0.208   5.054
  942SOL    HW1 3725   4.785   0.243   5.024
  942SOL    HW2 3726   4.923   0.170   4.975
  943SOL     OW 3727   0.194   3.351   2.111
  943SOL    HW1 3728   0.165   3.384   2.201
  943SOL    HW2 3729   0.283   3.306   2.119
  944SOL     OW 3730   6.374   3.311   5.070
  944SOL    HW1 3731   6.435   3.386   5.050
  944SOL    HW2 3732   6.301   3.342   5.132
  945SOL     OW 3733   5.146   4.728   4.608
  945SOL    HW1 3734   5.155   4.628   4.607
  945SOL    HW2 3735   5.115   4.758   4.699
  946SOL     OW 3736   5.929   2.808   6.240
  946SOL    HW1 3737   5.865   2.805   6.163
  946SOL    HW2 3738   5.981   2.893   6.236
  947SOL     OW 3739   2.982   3.573   5.893
  947SOL    HW1 3740   3.044   3.618   5.829
  947SOL    HW2 3741   2.928   3.641   5.941
  948SOL     OW 3742   4.216   1.002   0.632
  948SOL    HW1 3743   4.246   1.015   0.727
  948SOL    HW2 3744   4.271   1.060   0.572
  949SOL     OW 3745   6.695   6.207   6.090
  949SOL    HW1 3746   6.688   6.107   6.092
  949SOL    HW2 3747   6.673   6.239   5.997
  950SOL     OW 3748   3.925   5.109   2.432
  950SOL    HW1 3749   4.004   5.170   2.420
  950SOL    HW2 3750   3.957   5.015   2.440
  951SOL     OW 3751   1.144   0.246   2.065
  951SOL    HW1 3752   1.195   0.243   2.151
  951SOL    HW2 3753   1.046   0.255   2.085
  952SOL     OW 3754   5.436   1.834   2.688
  952SOL    HW1 3755   5.358   1.884   2.650
  952SOL    HW2 3756   5.520   1.884   2.670
  953SOL     OW 3757   4.256   5.683   5.885
  953SOL    HW1 3758   4.355   5.696   5.881
  953SOL    HW2 3759   4.236   5.591   5.918
  954SOL     OW 3760   6.033   0.377   0.893
  954SOL    HW1 3761   6.086   0.300   0.929
  954SOL    HW2 3762   6.043   0.380   0.793
  955SOL     OW 3763   0.816   5.092   3.927
  955SOL    HW1 3764   0.872   5.172   3.952
  955SOL    HW2 3765   0.787   5.100   3.832
  956SOL     OW 3766   1.058   1.498   1.100
  956SOL    HW1 3767   1.097   1.526   1.012
  956SOL    HW2 3768   0.995   1.422   1.086
  957SOL     OW 3769   1.599   4.616   5.260
  957SOL    HW1 3770   1.639   4.534   5.301
  957SOL    HW2 3771   1.626   4.696   5.313
  958SOL     OW 3772   5.165   1.835   1.027
  958SOL    HW1 3773   5.218   1.768   1.079
  958SOL    HW2 3774   5.187   1.927   1.060
  959SOL     OW 3775   2.783   4.738   3.033
  959SOL    HW1 3776   2.691   4.730   2.995
  959SOL    HW2 3777   2.782   4.714   3.130
  960SOL     OW 3778   1.107   5.715   4.031
  960SOL    HW1 3779   1.151   5.643   4.085
  960SOL    HW2 3780   1.168   5.744   3.957
  961SOL     OW 3781   4.260   6.713   2.357
  961SOL    HW1 3782   4.359   6.703   2.341
  961SOL    HW2 3783   4.239   6.686   2.451
  962SOL     OW 3784   1.564   1.259   3.602
  962SOL    HW1 3785   1.548   1.265   3.700
  962SOL    HW2 3786   1.659   1.282   3.582
  963SOL     OW 3787   6.039   0.308   0.617
  963SOL    HW1 3788   6.113   0.286   0.554
  963SOL    HW2 3789   5.954   0.319   0.566
  964SOL     OW 3790   5.408   3.228   0.939
  964SOL    HW1 3791   5.501   3.263   0.953
  964SOL    HW2 3792   5.412   3.129   0.923
  965SOL     OW 3793   6.054   1.959   0.663
  965SOL    HW1 3794   6.038   2.013   0.746
  965SOL    HW2 3795   6.152   1.948   0.648
  966SOL     OW 3796   5.868   1.569   2.675
  966SOL    HW1 3797   5.801   1.561   2.749
  966SOL    HW2 3798   5.850   1.500   2.606
  967SOL     OW 3799   1.656   5.350   0.680
  967SOL    HW1 3800   1.683   5.442   0.651
  967SOL    HW2 3801   1.597   5.309   0.610
  968SOL     OW 3802   4.471   2.472   2.354
  968SOL    HW1 3803   4.525   2.536   2.299
  968SOL    HW2 3804   4.476   2.498   2.450
  969SOL     OW 3805   3.220   5.808   5.124
  969SOL    HW1 3806   3.161   5.813   5.204
  969SOL    HW2 3807   3.176   5.753   5.053
  970SOL     OW 3808   5.082   1.520   5.188
  970SOL    HW1 3809   5.118   1.460   5.259
  970SOL    HW2 3810   4.984   1.501   5.176
  971SOL     OW 3811   0.072   1.327   2.546
  971SOL    HW1 3812   0.041   1.377   2.627
  971SOL    HW2 3813   0.118   1.243   2.575
  972SOL     OW 3814   5.632   4.525   0.870
  972SOL    HW1 3815   5.716   4.476   0.894
  972SOL    HW2 3816   5.653   4.622   0.856
  973SOL     OW 3817   0.472   5.116   6.567
  973SOL    HW1 3818   0.421   5.050   6.511
  973SOL    HW2 3819   0.567   5.085   6.576
  974SOL     OW 3820   3.940   0.942   2.168
  974SOL    HW1 3821   3.956   0.864   2.230
  974SOL    HW2 3822   3.869   0.918   2.102
  975SOL     OW 3823   2.809   6.371   6.587
  975SOL    HW1 3824   2.746   6.438   6.546
  975SOL    HW2 3825   2.817   6.389   6.685
  976SOL     OW 3826   6.689   2.501   2.502
  976SOL    HW1 3827   6.667   2.405   2.516
  976SOL    HW2 3828   6.605   2.551   2.481
  977SOL     OW 3829   2.156   1.437   4.407
  977SOL    HW1 3830   2.098   1.482   4.475
  977SOL    HW2 3831   2.104   1.366   4.361
  978SOL     OW 3832   5.205   4.059   4.567
  978SOL    HW1 3833   5.126   4.112   4.596
  978SOL    HW2 3834   5.267   4.046   4.645
  979SOL     OW 3835   6.210   1.214   3.045
  979SOL    HW1 3836   6.217   1.177   2.952
  979SOL    HW2 3837   6.295   1.195   3.095
  980SOL     OW 3838   5.287   1.854   3.638
  980SOL    HW1 3839   5.313   1.944   3.673
  980SOL    HW2 3840   5.283   1.788   3.713
  981SOL     OW 3841   1.627   2.072   4.912
  981SOL    HW1 3842   1.667   1.991   4.955
  981SOL    HW2 3843   1.618   2.145   4.979
  982SOL     OW 3844   1.911   2.489   2.745
  982SOL    HW1 3845   1.900   2.587   2.726
  982SOL    HW2 3846   1.842   2.461   2.812
  983SOL     OW 3847   5.960   2.657   3.762
  983SOL    HW1 3848   5.988   2.587   3.828
  983SOL    HW2 3849   6.003   2.744   3.785
  984SOL     OW 3850   3.196   0.476   5.086
  984SOL    HW1 3851   3.156   0.406   5.146
  984SOL    HW2 3852   3.212   0.437   4.996
  985SOL     OW 3853   4.811   4.669   6.527
  985SOL    HW1 3854   4.903   4.682   6.489
  985SOL    HW2 3855   4.817   4.617   6.612
  986SOL     OW 3856   5.546   5.593   0.030
  986SOL    HW1 3857   5.619   5.592   0.099
  986SOL    HW2 3858   5.477   5.524   0.053
  987SOL     OW 3859   4.207   6.958   0.970
  987SOL    HW1 3860   4.302   6.963   0.938
  987SOL    HW2 3861   4.191   6.870   1.014
  988SOL     OW 3862   4.160   2.712   1.324
  988SOL    HW1 3863   4.166   2.735   1.421
  988SOL    HW2 3864   4.245   2.668   1.295
  989SOL     OW 3865   0.376   0.874   5.966
  989SOL    HW1 3866   0.299   0.937   5.968
  989SOL    HW2 3867   0.404   0.858   5.871
  990SOL     OW 3868   5.259   6.783   3.782
  990SOL    HW1 3869   5.343   6.742   3.746
  990SOL    HW2 3870   5.278   6.877   3.813
  991SOL     OW 3871   1.678   1.796   5.000
  991SOL    HW1 3872   1.642   1.828   5.087
  991SOL    HW2 3873   1.704   1.699   5.008
  992SOL     OW 3874   0.534   3.045   0.597
  992SOL    HW1 3875   0.476   3.068   0.519
  992SOL    HW2 3876   0.611   2.990   0.567
  993SOL     OW 3877   2.051   5.172   2.582
  993SOL    HW1 3878   1.956   5.164   2.613
  993SOL    HW2 3879   2.067   5.264   2.548
  994SOL     OW 3880   3.450   3.761   3.120
  994SOL    HW1 3881   3.534   3.788   3.167
  994SOL    HW2 3882   3.426   3.668   3.147
  995SOL     OW 3883   2.527   2.739   6.371
  995SOL    HW1 3884   2.502   2.829   6.408
  995SOL    HW2 3885   2.445   2.695   6.332
  996SOL     OW 3886   1.761   3.673   3.858
  996SOL    HW1 3887   1.766   3.574   3.871
  996SOL    HW2 3888   1.780   3.719   3.945
  997SOL     OW 3889   0.156   0.106   1.455
  997SOL    HW1 3890   0.105   0.182   1.494
  997SOL    HW2 3891   0.135   0.022   1.506
  998SOL     OW 3892   4.786   6.994   3.644
  998SOL    HW1 3893   4.802   0.012   3.554
  998SOL    HW2 3894   4.751   6.901   3.631
  999SOL     OW 3895   5.385   5.486   1.476
  999SOL    HW1 3896   5.338   5.451   1.557
  999SOL    HW2 3897   5.367   5.426   1.398
 1000SOL     OW 3898   0.743   1.124   2.602
 1000SOL    HW1 3899   0.737   1.139   2.701
 1000SOL    HW2 3900   0.789   1.038   2.585
 1001SOL     OW 3901   4.449   7.012   6.564
 1001SOL    HW1 3902   4.443   6.941   6.635
 1001SOL    HW2 3903   4.378   6.996   6.495
 1002SOL     OW 3904   5.432   1.926   6.507
 1002SOL    HW1 3905   5.510   1.903   6.449
 1002SOL    HW2 3906   5.406   1.846   6.561
 1003SOL     OW 3907   2.808   7.024   1.637
 1003SOL    HW1 3908   2.870   0.030   1.564
 1003SOL    HW2 3909   2.861   6.979   1.709
 1004SOL     OW 3910   6.705   0.718   0.254
 1004SOL    HW1 3911   6.652   0.742   0.173
 1004SOL    HW2 3912   6.772   0.790   0.273
 1005SOL     OW 3913   6.622   0.965   2.963
 1005SOL    HW1 3914   6.644   0.964   2.865
 1005SOL    HW2 3915   6.678   1.034   3.009
 1006SOL     OW 3916   2.386   6.009   1.427
 1006SOL    HW1 3917   2.357   5.919   1.395
 1006SOL    HW2 3918   2.330   6.037   1.505
 1007SOL     OW 3919   6.163   0.068   3.553
 1007SOL    HW1 3920   6.141   0.061   3.650
 1007SOL    HW2 3921   6.262   0.074   3.542
 1008SOL     OW 3922   1.236   3.004   4.263
 1008SOL    HW1 3923   1.189   3.054   4.336
 1008SOL    HW2 3924   1.305   2.944   4.302
 1009SOL     OW 3925   6.808   5.576   3.675
 1009SOL    HW1 3926   6.842   5.664   3.708
 1009SOL    HW2 3927   6.730   5.591   3.614
 1010SOL     OW 3928   3.999   2.663   0.250
 1010SOL    HW1 3929   3.985   2.743   0.192
 1010SOL    HW2 3930   4.012   2.582   0.192
 1011SOL     OW 3931   2.664   5.354   3.115
 1011SOL    HW1 3932   2.566   5.362   3.096
 1011SOL    HW2 3933   2.712   5.328   3.031
 1012SOL     OW 3934   6.654   5.258   0.191
 1012SOL    HW1 3935   6.612   5.311   0.264
 1012SOL    HW2 3936   6.585   5.197   0.150
 1013SOL     OW 3937   0.465   1.439   6.512
 1013SOL    HW1 3938   0.523   1.427   6.592
 1013SOL    HW2 3939   0.492   1.523   6.464
 1014SOL     OW 3940   5.161   5.832   0.159
 1014SOL    HW1 3941   5.154   5.817   0.060
 1014SOL    HW2 3942   5.115   5.758   0.207
 1015SOL     OW 3943   3.106   6.669   5.248
 1015SOL    HW1 3944   3.016   6.697   5.281
 1015SOL    HW2 3945   3.130   6.721   5.166
 1016SOL     OW 3946   2.454   2.963   0.852
 1016SOL    HW1 3947   2.367   2.966   0.900
 1016SOL    HW2 3948   2.471   3.052   0.808
 1017SOL     OW 3949   4.649   2.911   0.518
 1017SOL    HW1 3950   4.621   2.980   0.586
 1017SOL    HW2 3951   4.716   2.850   0.559
 1018SOL     OW 3952   1.768   3.440   3.956
 1018SOL    HW1 3953   1.764   3.342   3.937
 1018SOL    HW2 3954   1.803   3.454   4.049
 1019SOL     OW 3955   0.478   0.790   0.305
 1019SOL    HW1 3956   0.426   0.757   0.227
 1019SOL    HW2 3957   0.576   0.782   0.286
 1020SOL     OW 3958   1.371   6.957   1.160
 1020SOL    HW1 3959   1.346   0.028   1.176
 1020SOL    HW2 3960   1.447   6.932   1.220
 1021SOL     OW 3961   6.181   1.073   0.697
 1021SOL    HW1 3962   6.147   1.107   0.785
 1021SOL    HW2 3963   6.110   1.020   0.652
 1022SOL     OW 3964   4.165   4.973   6.125
 1022SOL    HW1 3965   4.115   5.027   6.193
 1022SOL    HW2 3966   4.263   4.976   6.146
 1023SOL     OW 3967   6.680   6.816   2.636
 1023SOL    HW1 3968   6.593   6.820   2.685
 1023SOL    HW2 3969   6.747   6.874   2.681
 1024SOL     OW 3970   6.586   2.851   4.484
 1024SOL    HW1 3971   6.542   2.938   4.465
 1024SOL    HW2 3972   6.571   2.826   4.580
 1025SOL     OW 3973   3.862   4.321   0.539
 1025SOL    HW1 3974   3.817   4.233   0.549
 1025SOL    HW2 3975   3.952   4.309   0.496
 1026SOL     OW 3976   1.147   1.602   0.577
 1026SOL    HW1 3977   1.126   1.688   0.529
 1026SOL    HW2 3978   1.240   1.574   0.556
 1027SOL     OW 3979   3.046   5.881   1.350
 1027SOL    HW1 3980   3.129   5.935   1.356
 1027SOL    HW2 3981   3.044   5.814   1.424
 1028SOL     OW 3982   3.090   6.015   0.066
 1028SOL    HW1 3983   3.124   5.991   0.157
 1028SOL    HW2 3984   3.031   5.942   0.032
 1029SOL     OW 3985   1.846   0.656   0.469
 1029SOL    HW1 3986   1.814   0.740   0.424
 1029SOL    HW2 3987   1.946   0.653   0.467
 1030SOL     OW 3988   3.727   3.229   3.089
 1030SOL    HW1 3989   3.757   3.324   3.078
 1030SOL    HW2 3990   3.791   3.169   3.041
 1031SOL     OW 3991   4.592   4.975   0.919
 1031SOL    HW1 3992   4.590   4.880   0.950
 1031SOL    HW2 3993   4.504   4.998   0.877
 1032SOL     OW 3994   1.386   1.946   4.839
 1032SOL    HW1 3995   1.306   1.986   4.883
 1032SOL    HW2 3996   1.455   2.017   4.825
 1033SOL     OW 3997   1.429   6.902   1.629
 1033SOL    HW1 3998   1.453   6.999   1.629
 1033SOL    HW2 3999   1.479   6.855   1.556
 1034SOL     OW 4000   1.699   6.431   4.550
 1034SOL    HW1 4001   1.647   6.512   4.579
 1034SOL    HW2 4002   1.663   6.398   4.463
 1035SOL     OW 4003   2.679   1.849   3.349
 1035SOL    HW1 4004   2.677   1.945   3.377
 1035SOL    HW2 4005   2.686   1.843   3.249
 1036SOL     OW 4006   3.684   0.388   1.232
 1036SOL    HW1 4007   3.746   0.330   1.178
 1036SOL    HW2 4008   3.624   0.330   1.286
 1037SOL     OW 4009   1.210   1.191   0.947
 1037SOL    HW1 4010   1.113   1.214   0.938
 1037SOL    HW2 4011   1.266   1.268   0.917
 1038SOL     OW 4012   1.226   0.950   5.745
 1038SOL    HW1 4013   1.317   0.909   5.752
 1038SOL    HW2 4014   1.169   0.895   5.683
 1039SOL     OW 4015   4.356   2.527   5.548
 1039SOL    HW1 4016   4.337   2.602   5.485
 1039SOL    HW2 4017   4.351   2.560   5.642
 1040SOL     OW 4018   5.357   3.072   2.970
 1040SOL    HW1 4019   5.388   3.119   3.053
 1040SOL    HW2 4020   5.333   3.140   2.900
 1041SOL     OW 4021   6.631   6.948   4.033
 1041SOL    HW1 4022   6.698   7.016   4.004
 1041SOL    HW2 4023   6.608   6.888   3.956
 1042SOL     OW 4024   3.595   4.871   2.668
 1042SOL    HW1 4025   3.500   4.860   2.639
 1042SOL    HW2 4026   3.597   4.897   2.765
 1043SOL     OW 4027   4.200   1.255   5.835
 1043SOL    HW1 4028   4.151   1.169   5.853
 1043SOL    HW2 4029   4.152   1.331   5.879
 1044SOL     OW 4030   4.397   2.522   1.710
 1044SOL    HW1 4031   4.445   2.443   1.671
 1044SOL    HW2 4032   4.443   2.550   1.794
 1045SOL     OW 4033   2.764   6.999   1.279
 1045SOL    HW1 4034   2.819   6.940   1.220
 1045SOL    HW2 4035   2.815   7.017   1.364
 1046SOL     OW 4036   2.336   6.950   6.412
 1046SOL    HW1 4037   2.414   6.932   6.471
 1046SOL    HW2 4038   2.277   6.869   6.410
 1047SOL     OW 4039   1.473   5.313   2.988
 1047SOL    HW1 4040   1.401   5.382   2.987
 1047SOL    HW2 4041   1.432   5.222   2.985
 1048SOL     OW 4042   4.370   5.578   5.114
 1048SOL    HW1 4043   4.365   5.488   5.156
 1048SOL    HW2 4044   4.278   5.608   5.086
 1049SOL     OW 4045   0.557   4.345   4.700
 1049SOL    HW1 4046   0.574   4.349   4.799
 1049SOL    HW2 4047   0.572   4.252   4.668
 1050SOL     OW 4048   2.411   5.604   0.957
 1050SOL    HW1 4049   2.425   5.596   0.858
 1050SOL    HW2 4050   2.499   5.591   1.003
 1051SOL     OW 4051   3.817   4.791   0.519
 1051SOL    HW1 4052   3.876   4.728   0.568
 1051SOL    HW2 4053   3.869   4.836   0.446
 1052SOL     OW 4054   4.498   7.021   4.190
 1052SOL    HW1 4055   4.405   0.029   4.175
 1052SOL    HW2 4056   4.526   0.017   4.284
 1053SOL     OW 4057   5.588   5.665   3.595
 1053SOL    HW1 4058   5.574   5.639   3.691
 1053SOL    HW2 4059   5.652   5.742   3.590
 1054SOL     OW 4060   2.479   4.797   5.478
 1054SOL    HW1 4061   2.575   4.769   5.478
 1054SOL    HW2 4062   2.421   4.718   5.455
 1055SOL     OW 4063   5.487   6.318   4.590
 1055SOL    HW1 4064   5.488   6.271   4.678
 1055SOL    HW2 4065   5.581   6.338   4.562
 1056SOL     OW 4066   1.498   6.615   5.543
 1056SOL    HW1 4067   1.488   6.670   5.626
 1056SOL    HW2 4068   1.594   6.598   5.525
 1057SOL     OW 4069   3.044   3.865   3.199
 1057SOL    HW1 4070   3.015   3.849   3.294
 1057SOL    HW2 4071   3.037   3.780   3.147
 1058SOL     OW 4072   4.575   1.404   2.560
 1058SOL    HW1 4073   4.477   1.409   2.543
 1058SOL    HW2 4074   4.624   1.458   2.491
 1059SOL     OW 4075   2.873   0.660   1.766
 1059SOL    HW1 4076   2.965   0.638   1.732
 1059SOL    HW2 4077   2.877   0.748   1.814
 1060SOL     OW 4078   0.180   3.912   5.593
 1060SOL    HW1 4079   0.126   3.983   5.638
 1060SOL    HW2 4080   0.255   3.954   5.542
 1061SOL     OW 4081   4.389   4.544   1.226
 1061SOL    HW1 4082   4.408   4.461   1.173
 1061SOL    HW2 4083   4.347   4.519   1.314
 1062SOL     OW 4084   0.004   6.001   5.970
 1062SOL    HW1 4085   0.009   6.063   6.048
 1062SOL    HW2 4086   6.934   5.996   5.937
 1063SOL     OW 4087   1.176   3.982   1.263
 1063SOL    HW1 4088   1.219   3.964   1.174
 1063SOL    HW2 4089   1.096   3.923   1.274
 1064SOL     OW 4090   0.936   3.662   2.505
 1064SOL    HW1 4091   0.924   3.569   2.539
 1064SOL    HW2 4092   1.020   3.667   2.450
 1065SOL     OW 4093   4.571   0.692   5.270
 1065SOL    HW1 4094   4.626   0.616   5.234
 1065SOL    HW2 4095   4.607   0.720   5.359
 1066SOL     OW 4096   5.045   0.340   4.273
 1066SOL    HW1 4097   5.023   0.248   4.243
 1066SOL    HW2 4098   5.020   0.351   4.369
 1067SOL     OW 4099   1.182   3.070   0.721
 1067SOL    HW1 4100   1.269   3.114   0.744
 1067SOL    HW2 4101   1.164   2.995   0.785
 1068SOL     OW 4102   5.762   3.500   1.839
 1068SOL    HW1 4103   5.728   3.578   1.787
 1068SOL    HW2 4104   5.804   3.434   1.777
 1069SOL     OW 4105   4.683   4.859   1.308
 1069SOL    HW1 4106   4.716   4.953   1.317
 1069SOL    HW2 4107   4.723   4.817   1.226
 1070SOL     OW 4108   0.865   1.061   6.463
 1070SOL    HW1 4109   0.861   1.019   6.553
 1070SOL    HW2 4110   0.909   1.151   6.470
 1071SOL     OW 4111   4.107   0.562   3.524
 1071SOL    HW1 4112   4.093   0.647   3.472
 1071SOL    HW2 4113   4.037   0.554   3.594
 1072SOL     OW 4114   1.934   6.064   2.325
 1072SOL    HW1 4115   1.887   6.134   2.378
 1072SOL    HW2 4116   1.870   5.992   2.300
 1073SOL     OW 4117   3.479   5.754   2.308
 1073SOL    HW1 4118   3.466   5.823   2.379
 1073SOL    HW2 4119   3.413   5.770   2.235
 1074SOL     OW 4120   1.851   5.772   1.904
 1074SOL    HW1 4121   1.903   5.820   1.975
 1074SOL    HW2 4122   1.760   5.750   1.939
 1075SOL     OW 4123   4.940   5.029   3.315
 1075SOL    HW1 4124   4.998   5.110   3.329
 1075SOL    HW2 4125   4.921   5.019   3.217
 1076SOL     OW 4126   0.704   4.711   5.131
 1076SOL    HW1 4127   0.796   4.707   5.092
 1076SOL    HW2 4128   0.638   4.675   5.065
 1077SOL     OW 4129   5.879   6.896   0.329
 1077SOL    HW1 4130   5.974   6.923   0.344
 1077SOL    HW2 4131   5.865   6.803   0.363
 1078SOL     OW 4132   1.593   1.221   1.897
 1078SOL    HW1 4133   1.658   1.295   1.880
 1078SOL    HW2 4134   1.583   1.207   1.996
 1079SOL     OW 4135   1.767   5.126   3.432
 1079SOL    HW1 4136   1.797   5.220   3.448
 1079SOL    HW2 4137   1.827   5.083   3.364
 1080SOL     OW 4138   2.109   4.389   3.368
 1080SOL    HW1 4139   2.034   4.452   3.388
 1080SOL    HW2 4140   2.072   4.302   3.336
 1081SOL     OW 4141   0.021   1.480   5.662
 1081SOL    HW1 4142   6.986   1.560   5.653
 1081SOL    HW2 4143   0.087   1.495   5.736
 1082SOL     OW 4144   1.472   0.420   5.992
 1082SOL    HW1 4145   1.385   0.371   6.004
 1082SOL    HW2 4146   1.540   0.383   6.054
 1083SOL     OW 4147   3.753   4.116   2.054
 1083SOL    HW1 4148   3.826   4.088   1.992
 1083SOL    HW2 4149   3.683   4.166   2.002
 1084SOL     OW 4150   6.585   5.273   0.654
 1084SOL    HW1 4151   6.539   5.318   0.577
 1084SOL    HW2 4152   6.629   5.342   0.712
 1085SOL     OW 4153   2.020   3.747   3.724
 1085SOL    HW1 4154   1.924   3.732   3.747
 1085SOL    HW2 4155   2.027   3.778   3.630
 1086SOL     OW 4156   6.096   5.426   3.261
 1086SOL    HW1 4157   6.027   5.491   3.230
 1086SOL    HW2 4158   6.069   5.333   3.235
 1087SOL     OW 4159   5.282   3.123   5.765
 1087SOL    HW1 4160   5.228   3.204   5.738
 1087SOL    HW2 4161   5.374   3.131   5.726
 1088SOL     OW 4162   6.228   4.634   3.334
 1088SOL    HW1 4163   6.199   4.729   3.340
 1088SOL    HW2 4164   6.328   4.631   3.323
 1089SOL     OW 4165   0.717   0.604   4.503
 1089SOL    HW1 4166   0.633   0.621   4.451
 1089SOL    HW2 4167   0.796   0.610   4.443
 1090SOL     OW 4168   2.776   1.344   4.206
 1090SOL    HW1 4169   2.691   1.338   4.154
 1090SOL    HW2 4170   2.792   1.439   4.233
 1091SOL     OW 4171   1.851   2.102   4.011
 1091SOL    HW1 4172   1.918   2.030   3.993
 1091SOL    HW2 4173   1.760   2.069   3.986
 1092SOL     OW 4174   2.104   3.897   1.595
 1092SOL    HW1 4175   2.198   3.909   1.563
 1092SOL    HW2 4176   2.044   3.881   1.517
 1093SOL     OW 4177   2.006   1.557   2.971
 1093SOL    HW1 4178   1.955   1.540   2.887
 1093SOL    HW2 4179   2.018   1.470   3.021
 1094SOL     OW 4180   7.015   6.480   2.885
 1094SOL    HW1 4181   0.081   6.451   2.849
 1094SOL    HW2 4182   7.016   6.472   2.985
 1095SOL     OW 4183   6.229   2.252   5.979
 1095SOL    HW1 4184   6.250   2.316   6.053
 1095SOL    HW2 4185   6.301   2.255   5.910
 1096SOL     OW 4186   3.424   5.021   1.628
 1096SOL    HW1 4187   3.472   5.048   1.545
 1096SOL    HW2 4188   3.325   5.029   1.614
 1097SOL     OW 4189   0.996   4.686   4.823
 1097SOL    HW1 4190   1.056   4.705   4.900
 1097SOL    HW2 4191   0.986   4.768   4.767
 1098SOL     OW 4192   5.303   2.574   0.923
 1098SOL    HW1 4193   5.370   2.629   0.873
 1098SOL    HW2 4194   5.243   2.529   0.857
 1099SOL     OW 4195   4.094   1.520   4.786
 1099SOL    HW1 4196   4.163   1.588   4.760
 1099SOL    HW2 4197   4.117   1.481   4.875
 1100SOL     OW 4198   1.601   1.736   6.329
 1100SOL    HW1 4199   1.552   1.810   6.375
 1100SOL    HW2 4200   1.588   1.745   6.230
 1101SOL     OW 4201   5.366   3.099   1.317
 1101SOL    HW1 4202   5.315   3.183   1.331
 1101SOL    HW2 4203   5.376   3.083   1.218
 1102SOL     OW 4204   1.256   5.011   3.849
 1102SOL    HW1 4205   1.289   4.917   3.843
 1102SOL    HW2 4206   1.229   5.042   3.758
 1103SOL     OW 4207   2.425   0.640   1.476
 1103SOL    HW1 4208   2.411   0.737   1.460
 1103SOL    HW2 4209   2.344   0.589   1.448
 1104SOL     OW 4210   1.976   4.338   6.297
 1104SOL    HW1 4211   1.968   4.428   6.254
 1104SOL    HW2 4212   1.998   4.269   6.227
 1105SOL     OW 4213   4.490   4.210   6.206
 1105SOL    HW1 4214   4.513   4.253   6.293
 1105SOL    HW2 4215   4.468   4.113   6.221
 1106SOL     OW 4216   1.243   1.820   6.670
 1106SOL    HW1 4217   1.192   1.748   6.717
 1106SOL    HW2 4218   1.338   1.819   6.700
 1107SOL     OW 4219   0.570   0.386   6.533
 1107SOL    HW1 4220   0.548   0.290   6.519
 1107SOL    HW2 4221   0.486   0.438   6.550
 1108SOL     OW 4222   2.695   0.469   5.671
 1108SOL    HW1 4223   2.673   0.501   5.579
 1108SOL    HW2 4224   2.633   0.510   5.737
 1109SOL     OW 4225   4.098   5.154   4.480
 1109SOL    HW1 4226   4.093   5.212   4.561
 1109SOL    HW2 4227   4.087   5.211   4.398
 1110SOL     OW 4228   3.530   1.919   1.843
 1110SOL    HW1 4229   3.484   1.830   1.835
 1110SOL    HW2 4230   3.513   1.958   1.934
 1111SOL     OW 4231   5.387   6.165   0.047
 1111SOL    HW1 4232   5.376   6.147   0.145
 1111SOL    HW2 4233   5.452   6.240   0.034
 1112SOL     OW 4234   5.941   1.079   2.509
 1112SOL    HW1 4235   5.931   1.067   2.410
 1112SOL    HW2 4236   5.933   0.990   2.554
 1113SOL     OW 4237   6.099   3.087   2.404
 1113SOL    HW1 4238   6.179   3.097   2.344
 1113SOL    HW2 4239   6.101   2.996   2.446
 1114SOL     OW 4240   4.685   1.291   6.495
 1114SOL    HW1 4241   4.609   1.328   6.549
 1114SOL    HW2 4242   4.761   1.266   6.556
 1115SOL     OW 4243   4.361   2.881   0.193
 1115SOL    HW1 4244   4.340   2.978   0.203
 1115SOL    HW2 4245   4.296   2.827   0.246
 1116SOL     OW 4246   5.304   5.368   4.039
 1116SOL    HW1 4247   5.396   5.362   4.078
 1116SOL    HW2 4248   5.262   5.454   4.066
 1117SOL     OW 4249   2.832   2.640   1.387
 1117SOL    HW1 4250   2.854   2.646   1.484
 1117SOL    HW2 4251   2.733   2.629   1.375
 1118SOL     OW 4252   0.900   4.919   2.542
 1118SOL    HW1 4253   0.951   4.941   2.625
 1118SOL    HW2 4254   0.862   5.002   2.503
 1119SOL     OW 4255   3.480   3.859   1.148
 1119SOL    HW1 4256   3.419   3.828   1.221
 1119SOL    HW2 4257   3.563   3.803   1.149
 1120SOL     OW 4258   5.285   6.766   5.948
 1120SOL    HW1 4259   5.213   6.698   5.958
 1120SOL    HW2 4260   5.262   6.830   5.874
 1121SOL     OW 4261   5.152   3.052   2.330
 1121SOL    HW1 4262   5.133   3.078   2.235
 1121SOL    HW2 4263   5.081   3.089   2.390
 1122SOL     OW 4264   4.796   2.597   6.137
 1122SOL    HW1 4265   4.860   2.525   6.109
 1122SOL    HW2 4266   4.839   2.686   6.126
 1123SOL     OW 4267   4.394   1.509   2.131
 1123SOL    HW1 4268   4.343   1.551   2.056
 1123SOL    HW2 4269   4.359   1.544   2.218
 1124SOL     OW 4270   0.263   3.953   4.826
 1124SOL    HW1 4271   0.216   3.894   4.891
 1124SOL    HW2 4272   0.291   4.037   4.872
 1125SOL     OW 4273   2.767   2.080   5.112
 1125SOL    HW1 4274   2.718   2.166   5.128
 1125SOL    HW2 4275   2.702   2.007   5.091
 1126SOL     OW 4276   5.175   6.677   6.654
 1126SOL    HW1 4277   5.123   6.761   6.643
 1126SOL    HW2 4278   5.184   6.655   6.751
 1127SOL     OW 4279   3.392   4.635   5.762
 1127SOL    HW1 4280   3.388   4.598   5.669
 1127SOL    HW2 4281   3.488   4.637   5.793
 1128SOL     OW 4282   4.296   2.062   4.224
 1128SOL    HW1 4283   4.376   2.027   4.176
 1128SOL    HW2 4284   4.269   1.999   4.296
 1129SOL     OW 4285   3.751   6.958   0.080
 1129SOL    HW1 4286   3.834   7.014   0.072
 1129SOL    HW2 4287   3.707   6.978   0.168
 1130SOL     OW 4288   1.633   4.150   0.442
 1130SOL    HW1 4289   1.663   4.140   0.537
 1130SOL    HW2 4290   1.700   4.205   0.392
 1131SOL     OW 4291   0.581   6.492   5.866
 1131SOL    HW1 4292   0.565   6.393   5.859
 1131SOL    HW2 4293   0.678   6.509   5.883
 1132SOL     OW 4294   4.815   0.503   6.858
 1132SOL    HW1 4295   4.886   0.453   6.907
 1132SOL    HW2 4296   4.772   0.444   6.791
 1133SOL     OW 4297   6.809   2.118   1.421
 1133SOL    HW1 4298   6.871   2.107   1.499
 1133SOL    HW2 4299   6.859   2.158   1.344
 1134SOL     OW 4300   5.740   1.831   6.962
 1134SOL    HW1 4301   5.680   1.907   6.937
 1134SOL    HW2 4302   5.685   1.750   6.982
 1135SOL     OW 4303   3.186   1.903   2.802
 1135SOL    HW1 4304   3.226   1.995   2.803
 1135SOL    HW2 4305   3.088   1.910   2.786
 1136SOL     OW 4306   2.946   4.840   4.323
 1136SOL    HW1 4307   2.948   4.844   4.423
 1136SOL    HW2 4308   3.039   4.851   4.288
 1137SOL     OW 4309   1.124   2.662   0.044
 1137SOL    HW1 4310   1.035   2.690   0.008
 1137SOL    HW2 4311   1.118   2.650   0.143
 1138SOL     OW 4312   1.795   2.504   5.811
 1138SOL    HW1 4313   1.704   2.514   5.771
 1138SOL    HW2 4314   1.823   2.409   5.807
 1139SOL     OW 4315   2.180   6.603   2.838
 1139SOL    HW1 4316   2.213   6.511   2.816
 1139SOL    HW2 4317   2.085   6.597   2.868
 1140SOL     OW 4318   4.053   2.228   2.683
 1140SOL    HW1 4319   4.104   2.278   2.753
 1140SOL    HW2 4320   4.102   2.234   2.596
 1141SOL     OW 4321   5.915   5.662   6.045
 1141SOL    HW1 4322   5.895   5.672   5.947
 1141SOL    HW2 4323   5.872   5.737   6.095
 1142SOL     OW 4324   5.071   0.369   4.859
 1142SOL    HW1 4325   5.145   0.428   4.891
 1142SOL    HW2 4326   5.082   0.351   4.761
 1143SOL     OW 4327   3.832   2.062   2.664
 1143SOL    HW1 4328   3.903   2.132   2.675
 1143SOL    HW2 4329   3.824   2.038   2.567
 1144SOL     OW 4330   0.168   4.288   4.438
 1144SOL    HW1 4331   0.206   4.380   4.433
 1144SOL    HW2 4332   0.206   4.240   4.517
 1145SOL     OW 4333   0.051   5.204   3.311
 1145SOL    HW1 4334   0.104   5.124   3.283
 1145SOL    HW2 4335   0.113   5.270   3.355
 1146SOL     OW 4336   5.499   1.417   1.127
 1146SOL    HW1 4337   5.497   1.320   1.103
 1146SOL    HW2 4338   5.407   1.448   1.150
 1147SOL     OW 4339   1.650   3.876   0.929
 1147SOL    HW1 4340   1.686   3.842   1.016
 1147SOL    HW2 4341   1.721   3.869   0.859
 1148SOL     OW 4342   2.793   5.836   6.740
 1148SOL    HW1 4343   2.855   5.768   6.779
 1148SOL    HW2 4344   2.747   5.798   6.660
 1149SOL     OW 4345   5.524   3.165   3.210
 1149SOL    HW1 4346   5.477   3.186   3.295
 1149SOL    HW2 4347   5.618   3.136   3.229
 1150SOL     OW 4348   2.245   4.535   1.538
 1150SOL    HW1 4349   2.290   4.623   1.552
 1150SOL    HW2 4350   2.303   4.462   1.577
 1151SOL     OW 4351   5.567   5.793   6.564
 1151SOL    HW1 4352   5.548   5.764   6.657
 1151SOL    HW2 4353   5.608   5.884   6.565
 1152SOL     OW 4354   1.088   0.042   4.565
 1152SOL    HW1 4355   1.005   0.087   4.596
 1152SOL    HW2 4356   1.108   6.988   4.624
 1153SOL     OW 4357   2.394   6.612   2.599
 1153SOL    HW1 4358   2.304   6.608   2.641
 1153SOL    HW2 4359   2.456   6.550   2.647
 1154SOL     OW 4360   0.196   3.207   1.595
 1154SOL    HW1 4361   0.171   3.232   1.501
 1154SOL    HW2 4362   0.255   3.279   1.633
 1155SOL     OW 4363   3.327   5.534   0.115
 1155SOL    HW1 4364   3.388   5.493   0.183
 1155SOL    HW2 4365   3.355   5.506   0.023
 1156SOL     OW 4366   1.946   0.514   3.822
 1156SOL    HW1 4367   2.025   0.518   3.762
 1156SOL    HW2 4368   1.878   0.582   3.793
 1157SOL     OW 4369   6.833   2.527   4.356
 1157SOL    HW1 4370   6.916   2.484   4.320
 1157SOL    HW2 4371   6.762   2.458   4.366
 1158SOL     OW 4372   5.904   5.411   5.360
 1158SOL    HW1 4373   5.980   5.424   5.296
 1158SOL    HW2 4374   5.878   5.314   5.361
 1159SOL     OW 4375   4.541   0.467   2.957
 1159SOL    HW1 4376   4.530   0.554   3.005
 1159SOL    HW2 4377   4.571   0.396   3.021
 1160SOL     OW 4378   3.577   3.759   1.474
 1160SOL    HW1 4379   3.624   3.729   1.391
 1160SOL    HW2 4380   3.479   3.767   1.455
 1161SOL     OW 4381   5.159   0.013   5.232
 1161SOL    HW1 4382   5.175   0.044   5.138
 1161SOL    HW2 4383   5.109   0.083   5.282
 1162SOL     OW 4384   3.804   3.041   0.928
 1162SOL    HW1 4385   3.874   3.097   0.885
 1162SOL    HW2 4386   3.847   2.972   0.986
 1163SOL     OW 4387   5.307   2.235   2.325
 1163SOL    HW1 4388   5.280   2.328   2.297
 1163SOL    HW2 4389   5.366   2.241   2.406
 1164SOL     OW 4390   5.263   2.539   3.764
 1164SOL    HW1 4391   5.163   2.528   3.768
 1164SOL    HW2 4392   5.288   2.627   3.805
 1165SOL     OW 4393   1.697   3.692   3.592
 1165SOL    HW1 4394   1.602   3.723   3.579
 1165SOL    HW2 4395   1.720   3.697   3.689
 1166SOL     OW 4396   3.747   1.184   0.040
 1166SOL    HW1 4397   3.727   1.218   0.132
 1166SOL    HW2 4398   3.823   1.118   0.044
 1167SOL     OW 4399   2.969   0.096   5.572
 1167SOL    HW1 4400   2.976   0.109   5.473
 1167SOL    HW2 4401   2.928   0.007   5.591
 1168SOL     OW 4402   6.044   0.023   2.472
 1168SOL    HW1 4403   6.025   6.998   2.386
 1168SOL    HW2 4404   6.110   0.095   2.454
 1169SOL     OW 4405   0.040   2.986   0.354
 1169SOL    HW1 4406   0.002   2.898   0.330
 1169SOL    HW2 4407   0.130   2.973   0.397
 1170SOL     OW 4408   4.097   0.625   1.947
 1170SOL    HW1 4409   4.161   0.701   1.965
 1170SOL    HW2 4410   4.106   0.598   1.851
 1171SOL     OW 4411   2.883   5.846   0.620
 1171SOL    HW1 4412   2.851   5.918   0.558
 1171SOL    HW2 4413   2.847   5.863   0.712
 1172SOL     OW 4414   3.013   3.804   3.943
 1172SOL    HW1 4415   2.965   3.760   3.867
 1172SOL    HW2 4416   3.112   3.789   3.933
 1173SOL     OW 4417   3.604   0.218   5.729
 1173SOL    HW1 4418   3.700   0.236   5.710
 1173SOL    HW2 4419   3.595   0.130   5.775
 1174SOL     OW 4420   2.263   5.943   1.056
 1174SOL    HW1 4421   2.276   5.909   0.962
 1174SOL    HW2 4422   2.336   6.007   1.079
 1175SOL     OW 4423   5.223   4.113   6.917
 1175SOL    HW1 4424   5.269   4.192   6.876
 1175SOL    HW2 4425   5.163   4.144   6.991
 1176SOL     OW 4426   6.067   4.841   0.543
 1176SOL    HW1 4427   6.044   4.770   0.610
 1176SOL    HW2 4428   6.157   4.822   0.504
 1177SOL     OW 4429   0.348   2.297   5.112
 1177SOL    HW1 4430   0.328   2.377   5.169
 1177SOL    HW2 4431   0.374   2.327   5.020
 1178SOL     OW 4432   4.656   4.028   1.740
 1178SOL    HW1 4433   4.572   4.065   1.780
 1178SOL    HW2 4434   4.657   4.048   1.642
 1179SOL     OW 4435   2.388   4.293   0.851
 1179SOL    HW1 4436   2.410   4.357   0.778
 1179SOL    HW2 4437   2.449   4.308   0.929
 1180SOL     OW 4438   2.750   1.086   3.565
 1180SOL    HW1 4439   2.839   1.056   3.599
 1180SOL    HW2 4440   2.755   1.182   3.536
 1181SOL     OW 4441   1.049   3.644   4.459
 1181SOL    HW1 4442   0.968   3.672   4.407
 1181SOL    HW2 4443   1.114   3.599   4.398
 1182SOL     OW 4444   1.791   4.534   2.947
 1182SOL    HW1 4445   1.775   4.439   2.921
 1182SOL    HW2 4446   1.704   4.582   2.956
 1183SOL     OW 4447   4.478   5.575   2.553
 1183SOL    HW1 4448   4.563   5.621   2.529
 1183SOL    HW2 4449   4.499   5.491   2.604
 1184SOL     OW 4450   3.561   2.609   5.764
 1184SOL    HW1 4451   3.569   2.607   5.864
 1184SOL    HW2 4452   3.469   2.580   5.738
 1185SOL     OW 4453   2.108   0.396   0.292
 1185SOL    HW1 4454   2.060   0.480   0.316
 1185SOL    HW2 4455   2.070   0.358   0.208
 1186SOL     OW 4456   6.035   6.960   5.762
 1186SOL    HW1 4457   6.004   0.024   5.799
 1186SOL    HW2 4458   5.956   6.901   5.746
 1187SOL     OW 4459   5.161   6.465   5.222
 1187SOL    HW1 4460   5.103   6.396   5.265
 1187SOL    HW2 4461   5.120   6.555   5.233
 1188SOL     OW 4462   2.898   6.680   6.690
 1188SOL    HW1 4463   2.894   6.684   6.790
 1188SOL    HW2 4464   2.965   6.611   6.662
 1189SOL     OW 4465   4.847   1.234   2.408
 1189SOL    HW1 4466   4.828   1.332   2.411
 1189SOL    HW2 4467   4.765   1.185   2.377
 1190SOL     OW 4468   4.359   4.685   4.219
 1190SOL    HW1 4469   4.328   4.697   4.313
 1190SOL    HW2 4470   4.310   4.748   4.159
 1191SOL     OW 4471   3.646   5.033   5.830
 1191SOL    HW1 4472   3.547   5.049   5.826
 1191SOL    HW2 4473   3.668   4.980   5.912
 1192SOL     OW 4474   5.486   4.549   2.822
 1192SOL    HW1 4475   5.448   4.461   2.851
 1192SOL    HW2 4476   5.413   4.608   2.788
 1193SOL     OW 4477   6.640   6.850   4.312
 1193SOL    HW1 4478   6.647   6.832   4.214
 1193SOL    HW2 4479   6.651   6.948   4.329
 1194SOL     OW 4480   0.178   1.259   0.671
 1194SOL    HW1 4481   0.105   1.247   0.604
 1194SOL    HW2 4482   0.185   1.356   0.696
 1195SOL     OW 4483   6.277   1.917   0.374
 1195SOL    HW1 4484   6.339   1.856   0.325
 1195SOL    HW2 4485   6.288   1.904   0.472
 1196SOL     OW 4486   0.129   4.980   1.795
 1196SOL    HW1 4487   0.041   4.968   1.751
 1196SOL    HW2 4488   0.177   4.892   1.800
 1197SOL     OW 4489   3.718   5.798   5.769
 1197SOL    HW1 4490   3.638   5.831   5.820
 1197SOL    HW2 4491   3.743   5.865   5.700
 1198SOL     OW 4492   2.331   2.760   2.280
 1198SOL    HW1 4493   2.354   2.692   2.210
 1198SOL    HW2 4494   2.370   2.731   2.368
 1199SOL     OW 4495   4.054   3.637   3.047
 1199SOL    HW1 4496   4.031   3.735   3.051
 1199SOL    HW2 4497   4.105   3.612   3.128
 1200SOL     OW 4498   4.318   3.728   5.251
 1200SOL    HW1 4499   4.273   3.815   5.272
 1200SOL    HW2 4500   4.417   3.738   5.262
 1201SOL     OW 4501   0.845   1.267   4.618
 1201SOL    HW1 4502   0.823   1.239   4.712
 1201SOL    HW2 4503   0.760   1.284   4.568
 1202SOL     OW 4504   6.136   0.766   6.311
 1202SOL    HW1 4505   6.151   0.801   6.403
 1202SOL    HW2 4506   6.138   0.667   6.312
 1203SOL     OW 4507   5.293   7.021   0.986
 1203SOL    HW1 4508   5.300   6.927   1.021
 1203SOL    HW2 4509   5.385   0.029   0.961
 1204SOL     OW 4510   4.134   1.489   0.684
 1204SOL    HW1 4511   4.089   1.416   0.632
 1204SOL    HW2 4512   4.171   1.451   0.769
 1205SOL     OW 4513   5.399   3.310   6.769
 1205SOL    HW1 4514   5.430   3.354   6.854
 1205SOL    HW2 4515   5.398   3.211   6.780
 1206SOL     OW 4516   1.893   1.373   5.205
 1206SOL    HW1 4517   1.797   1.383   5.229
 1206SOL    HW2 4518   1.922   1.451   5.149
 1207SOL     OW 4519   6.503   6.622   1.244
 1207SOL    HW1 4520   6.583   6.600   1.300
 1207SOL    HW2 4521   6.450   6.694   1.289
 1208SOL     OW 4522   3.732   4.067   2.572
 1208SOL    HW1 4523   3.660   4.035   2.512
 1208SOL    HW2 4524   3.698   4.143   2.628
 1209SOL     OW 4525   5.795   6.148   5.360
 1209SOL    HW1 4526   5.830   6.191   5.277
 1209SOL    HW2 4527   5.724   6.207   5.400
 1210SOL     OW 4528   4.052   0.093   2.928
 1210SOL    HW1 4529   3.977   0.026   2.933
 1210SOL    HW2 4530   4.017   0.184   2.951
 1211SOL     OW 4531   1.719   3.417   3.548
 1211SOL    HW1 4532   1.631   3.371   3.534
 1211SOL    HW2 4533   1.705   3.502   3.598
 1212SOL     OW 4534   0.470   3.321   5.350
 1212SOL    HW1 4535   0.568   3.342   5.342
 1212SOL    HW2 4536   0.430   3.376   5.422
 1213SOL     OW 4537   6.086   2.727   4.973
 1213SOL    HW1 4538   6.154   2.709   4.902
 1213SOL    HW2 4539   6.098   2.663   5.049
 1214SOL     OW 4540   1.488   3.076   3.996
 1214SOL    HW1 4541   1.515   3.157   4.048
 1214SOL    HW2 4542   1.400   3.043   4.030
 1215SOL     OW 4543   2.143   3.971   2.162
 1215SOL    HW1 4544   2.059   4.024   2.170
 1215SOL    HW2 4545   2.216   4.031   2.128
 1216SOL     OW 4546   0.364   6.936   1.465
 1216SOL    HW1 4547   0.311   6.857   1.433
 1216SOL    HW2 4548   0.313   7.020   1.445
 1217SOL     OW 4549   1.192   6.560   0.929
 1217SOL    HW1 4550   1.220   6.465   0.916
 1217SOL    HW2 4551   1.204   6.586   1.025
 1218SOL     OW 4552   1.224   2.867   4.658
 1218SOL    HW1 4553   1.259   2.961   4.663
 1218SOL    HW2 4554   1.232   2.824   4.748
 1219SOL     OW 4555   4.330   4.998   0.840
 1219SOL    HW1 4556   4.295   5.024   0.750
 1219SOL    HW2 4557   4.292   4.910   0.866
 1220SOL     OW 4558   5.246   3.704   2.359
 1220SOL    HW1 4559   5.308   3.780   2.339
 1220SOL    HW2 4560   5.224   3.656   2.274
 1221SOL     OW 4561   6.042   3.671   6.734
 1221SOL    HW1 4562   6.083   3.756   6.700
 1221SOL    HW2 4563   6.073   3.654   6.828
 1222SOL     OW 4564   6.911   0.073   0.500
 1222SOL    HW1 4565   6.981   0.083   0.571
 1222SOL    HW2 4566   6.839   0.140   0.514
 1223SOL     OW 4567   5.572   0.739   0.482
 1223SOL    HW1 4568   5.610   0.718   0.573
 1223SOL    HW2 4569   5.483   0.783   0.493
 1224SOL     OW 4570   3.714   6.459   6.719
 1224SOL    HW1 4571   3.634   6.402   6.702
 1224SOL    HW2 4572   3.796   6.402   6.721
 1225SOL     OW 4573   3.938   2.044   1.188
 1225SOL    HW1 4574   3.862   2.057   1.251
 1225SOL    HW2 4575   3.999   2.123   1.194
 1226SOL     OW 4576   5.604   6.790   0.779
 1226SOL    HW1 4577   5.614   6.693   0.759
 1226SOL    HW2 4578   5.677   6.820   0.840
 1227SOL     OW 4579   6.184   5.153   5.624
 1227SOL    HW1 4580   6.239   5.162   5.707
 1227SOL    HW2 4581   6.087   5.161   5.649
 1228SOL     OW 4582   4.084   3.062   1.840
 1228SOL    HW1 4583   4.081   3.132   1.911
 1228SOL    HW2 4584   4.170   3.010   1.848
 1229SOL     OW 4585   1.300   6.947   2.345
 1229SOL    HW1 4586   1.344   6.995   2.269
 1229SOL    HW2 4587   1.201   6.952   2.334
 1230SOL     OW 4588   5.427   5.521   2.932
 1230SOL    HW1 4589   5.394   5.547   2.841
 1230SOL    HW2 4590   5.371   5.568   3.001
 1231SOL     OW 4591   1.640   2.914   6.251
 1231SOL    HW1 4592   1.572   2.943   6.319
 1231SOL    HW2 4593   1.727   2.960   6.270
 1232SOL     OW 4594   4.438   1.091   5.257
 1232SOL    HW1 4595   4.457   1.153   5.332
 1232SOL    HW2 4596   4.412   1.143   5.176
 1233SOL     OW 4597   0.680   5.113   3.462
 1233SOL    HW1 4598   0.585   5.136   3.439
 1233SOL    HW2 4599   0.735   5.196   3.462
 1234SOL     OW 4600   6.897   2.945   6.731
 1234SOL    HW1 4601   6.946   3.032   6.737
 1234SOL    HW2 4602   6.799   2.961   6.728
 1235SOL     OW 4603   6.279   5.217   6.575
 1235SOL    HW1 4604   6.248   5.311   6.555
 1235SOL    HW2 4605   6.214   5.152   6.536
 1236SOL     OW 4606   3.370   1.727   0.587
 1236SOL    HW1 4607   3.330   1.692   0.502
 1236SOL    HW2 4608   3.438   1.797   0.565
 1237SOL     OW 4609   1.622   6.877   4.924
 1237SOL    HW1 4610   1.669   6.796   4.958
 1237SOL    HW2 4611   1.562   6.852   4.848
 1238SOL     OW 4612   0.564   6.501   3.343
 1238SOL    HW1 4613   0.554   6.406   3.311
 1238SOL    HW2 4614   0.601   6.557   3.270
 1239SOL     OW 4615   6.784   5.376   4.607
 1239SOL    HW1 4616   6.776   5.475   4.602
 1239SOL    HW2 4617   6.820   5.341   4.520
 1240SOL     OW 4618   5.954   5.561   2.259
 1240SOL    HW1 4619   6.017   5.533   2.187
 1240SOL    HW2 4620   5.896   5.484   2.284
 1241SOL     OW 4621   0.050   4.727   4.584
 1241SOL    HW1 4622   0.084   4.669   4.510
 1241SOL    HW2 4623   6.973   4.727   4.582
 1242SOL     OW 4624   2.148   4.157   6.857
 1242SOL    HW1 4625   2.229   4.117   6.814
 1242SOL    HW2 4626   2.072   4.156   6.792
 1243SOL     OW 4627   6.956   2.445   5.246
 1243SOL    HW1 4628   6.988   2.388   5.322
 1243SOL    HW2 4629   0.007   2.505   5.216
 1244SOL     OW 4630   5.326   6.771   5.385
 1244SOL    HW1 4631   5.358   6.725   5.467
 1244SOL    HW2 4632   5.347   6.869   5.390
 1245SOL     OW 4633   5.433   5.582   1.076
 1245SOL    HW1 4634   5.473   5.625   1.157
 1245SOL    HW2 4635   5.394   5.653   1.017
 1246SOL     OW 4636   4.516   1.283   1.543
 1246SOL    HW1 4637   4.454   1.311   1.617
 1246SOL    HW2 4638   4.561   1.197   1.568
 1247SOL     OW 4639   6.438   6.416   4.548
 1247SOL    HW1 4640   6.373   6.490   4.564
 1247SOL    HW2 4641   6.400   6.351   4.483
 1248SOL     OW 4642   0.543   6.195   4.547
 1248SOL    HW1 4643   0.597   6.110   4.555
 1248SOL    HW2 4644   0.454   6.174   4.507
 1249SOL     OW 4645   6.853   4.030   1.363
 1249SOL    HW1 4646   6.888   3.964   1.429
 1249SOL    HW2 4647   6.889   4.008   1.272
 1250SOL     OW 4648   6.151   3.460   5.226
 1250SOL    HW1 4649   6.080   3.529   5.243
 1250SOL    HW2 4650   6.225   3.501   5.173
 1251SOL     OW 4651   2.043   1.181   2.498
 1251SOL    HW1 4652   2.047   1.165   2.597
 1251SOL    HW2 4653   2.033   1.094   2.450
 1252SOL     OW 4654   3.369   5.432   6.845
 1252SOL    HW1 4655   3.366   5.334   6.866
 1252SOL    HW2 4656   3.464   5.461   6.832
 1253SOL     OW 4657   3.049   0.632   1.358
 1253SOL    HW1 4658   3.075   0.640   1.454
 1253SOL    HW2 4659   3.127   0.599   1.304
 1254SOL     OW 4660   6.067   1.507   3.359
 1254SOL    HW1 4661   6.054   1.423   3.410
 1254SOL    HW2 4662   6.163   1.518   3.336
 1255SOL     OW 4663   5.518   2.669   5.097
 1255SOL    HW1 4664   5.617   2.659   5.104
 1255SOL    HW2 4665   5.492   2.761   5.126
 1256SOL     OW 4666   6.779   6.139   3.167
 1256SOL    HW1 4667   6.807   6.043   3.174
 1256SOL    HW2 4668   6.690   6.145   3.122
 1257SOL     OW 4669   0.092   4.574   4.326
 1257SOL    HW1 4670   0.134   4.600   4.239
 1257SOL    HW2 4671   0.044   4.487   4.314
 1258SOL     OW 4672   1.944   6.137   3.286
 1258SOL    HW1 4673   1.920   6.204   3.355
 1258SOL    HW2 4674   1.983   6.183   3.206
 1259SOL     OW 4675   3.916   6.845   4.879
 1259SOL    HW1 4676   3.945   6.752   4.904
 1259SOL    HW2 4677   3.970   6.912   4.929
 1260SOL     OW 4678   3.141   1.041   2.008
 1260SOL    HW1 4679   3.062   1.007   1.958
 1260SOL    HW2 4680   3.118   1.051   2.105
 1261SOL     OW 4681   6.984   3.545   0.252
 1261SOL    HW1 4682   6.944   3.544   0.344
 1261SOL    HW2 4683   6.970   3.455   0.209
 1262SOL     OW 4684   4.413   4.822   1.282
 1262SOL    HW1 4685   4.398   4.726   1.257
 1262SOL    HW2 4686   4.509   4.836   1.304
 1263SOL     OW 4687   6.205   2.341   1.537
 1263SOL    HW1 4688   6.237   2.253   1.502
 1263SOL    HW2 4689   6.178   2.399   1.460
 1264SOL     OW 4690   0.307   4.142   3.108
 1264SOL    HW1 4691   0.208   4.134   3.114
 1264SOL    HW2 4692   0.343   4.074   3.044
 1265SOL     OW 4693   6.967   4.378   4.071
 1265SOL    HW1 4694   6.928   4.376   3.979
 1265SOL    HW2 4695   0.038   4.348   4.068
 1266SOL     OW 4696   2.713   1.853   4.524
 1266SOL    HW1 4697   2.669   1.836   4.612
 1266SOL    HW2 4698   2.644   1.880   4.457
 1267SOL     OW 4699   6.096   5.756   2.061
 1267SOL    HW1 4700   6.017   5.816   2.053
 1267SOL    HW2 4701   6.075   5.682   2.125
 1268SOL     OW 4702   5.384   2.423   0.294
 1268SOL    HW1 4703   5.307   2.465   0.343
 1268SOL    HW2 4704   5.446   2.494   0.263
 1269SOL     OW 4705   6.799   6.686   5.333
 1269SOL    HW1 4706   6.757   6.597   5.351
 1269SOL    HW2 4707   6.731   6.759   5.345
 1270SOL     OW 4708   2.124   3.969   4.384
 1270SOL    HW1 4709   2.099   3.984   4.480
 1270SOL    HW2 4710   2.042   3.950   4.331
 1271SOL     OW 4711   3.558   1.839   2.985
 1271SOL    HW1 4712   3.503   1.772   3.034
 1271SOL    HW2 4713   3.535   1.931   3.016
 1272SOL     OW 4714   0.340   5.923   1.109
 1272SOL    HW1 4715   0.388   5.963   1.187
 1272SOL    HW2 4716   0.403   5.866   1.057
 1273SOL     OW 4717   2.270   3.706   0.044
 1273SOL    HW1 4718   2.274   3.696   6.969
 1273SOL    HW2 4719   2.294   3.619   0.087
 1274SOL     OW 4720   0.185   2.972   1.750
 1274SOL    HW1 4721   0.150   3.021   1.830
 1274SOL    HW2 4722   0.200   3.036   1.675
 1275SOL     OW 4723   4.597   0.386   3.646
 1275SOL    HW1 4724   4.575   0.289   3.654
 1275SOL    HW2 4725   4.516   0.441   3.666
 1276SOL     OW 4726   6.794   0.397   3.706
 1276SOL    HW1 4727   6.780   0.496   3.702
 1276SOL    HW2 4728   6.886   0.377   3.739
 1277SOL     OW 4729   0.816   0.708   4.186
 1277SOL    HW1 4730   0.718   0.688   4.196
 1277SOL    HW2 4731   0.868   0.655   4.254
 1278SOL     OW 4732   1.925   1.858   5.127
 1278SOL    HW1 4733   1.941   1.951   5.160
 1278SOL    HW2 4734   1.846   1.857   5.066
 1279SOL     OW 4735   2.161   6.775   0.724
 1279SOL    HW1 4736   2.261   6.764   0.718
 1279SOL    HW2 4737   2.135   6.792   0.819
 1280SOL     OW 4738   2.570   6.582   3.483
 1280SOL    HW1 4739   2.658   6.579   3.532
 1280SOL    HW2 4740   2.541   6.489   3.462
 1281SOL     OW 4741   0.980   5.635   2.978
 1281SOL    HW1 4742   1.073   5.671   2.968
 1281SOL    HW2 4743   0.915   5.711   2.982
 1282SOL     OW 4744   0.657   0.744   0.641
 1282SOL    HW1 4745   0.640   0.791   0.728
 1282SOL    HW2 4746   0.571   0.739   0.589
 1283SOL     OW 4747   5.335   3.532   5.258
 1283SOL    HW1 4748   5.345   3.436   5.284
 1283SOL    HW2 4749   5.418   3.564   5.213
 1284SOL     OW 4750   3.068   2.906   1.783
 1284SOL    HW1 4751   3.141   2.966   1.752
 1284SOL    HW2 4752   3.106   2.822   1.822
 1285SOL     OW 4753   5.694   3.678   6.232
 1285SOL    HW1 4754   5.625   3.699   6.302
 1285SOL    HW2 4755   5.785   3.680   6.273
 1286SOL     OW 4756   4.234   4.702   2.471
 1286SOL    HW1 4757   4.312   4.674   2.526
 1286SOL    HW2 4758   4.264   4.721   2.377
 1287SOL     OW 4759   5.656   4.520   6.656
 1287SOL    HW1 4760   5.695   4.560   6.574
 1287SOL    HW2 4761   5.579   4.460   6.631
 1288SOL     OW 4762   6.956   3.057   1.244
 1288SOL    HW1 4763   7.004   2.970   1.231
 1288SOL    HW2 4764   6.912   3.083   1.158
 1289SOL     OW 4765   0.562   6.104   1.587
 1289SOL    HW1 4766   0.526   6.197   1.588
 1289SOL    HW2 4767   0.505   6.045   1.643
 1290SOL     OW 4768   0.351   0.966   0.482
 1290SOL    HW1 4769   0.307   1.038   0.429
 1290SOL    HW2 4770   0.374   0.890   0.421
 1291SOL     OW 4771   1.618   5.041   6.222
 1291SOL    HW1 4772   1.605   4.958   6.275
 1291SOL    HW2 4773   1.680   5.023   6.145
 1292SOL     OW 4774   6.654   4.748   2.136
 1292SOL    HW1 4775   6.562   4.788   2.138
 1292SOL    HW2 4776   6.719   4.813   2.175
 1293SOL     OW 4777   3.012   1.506   6.377
 1293SOL    HW1 4778   2.995   1.604   6.367
 1293SOL    HW2 4779   3.006   1.463   6.287
 1294SOL     OW 4780   0.510   3.210   0.850
 1294SOL    HW1 4781   0.552   3.167   0.770
 1294SOL    HW2 4782   0.559   3.183   0.932
 1295SOL     OW 4783   6.399   3.830   2.681
 1295SOL    HW1 4784   6.473   3.770   2.653
 1295SOL    HW2 4785   6.437   3.911   2.727
 1296SOL     OW 4786   4.386   1.520   5.976
 1296SOL    HW1 4787   4.316   1.475   6.031
 1296SOL    HW2 4788   4.474   1.475   5.992
 1297SOL     OW 4789   5.395   0.768   6.590
 1297SOL    HW1 4790   5.444   0.776   6.677
 1297SOL    HW2 4791   5.422   0.683   6.545
 1298SOL     OW 4792   6.140   3.302   3.077
 1298SOL    HW1 4793   6.121   3.366   3.152
 1298SOL    HW2 4794   6.229   3.260   3.090
 1299SOL     OW 4795   1.499   4.226   2.913
 1299SOL    HW1 4796   1.472   4.132   2.891
 1299SOL    HW2 4797   1.586   4.247   2.869
 1300SOL     OW 4798   3.823   3.512   2.056
 1300SOL    HW1 4799   3.771   3.430   2.030
 1300SOL    HW2 4800   3.919   3.500   2.030
 1301SOL     OW 4801   1.223   6.038   2.676
 1301SOL    HW1 4802   1.143   5.979   2.688
 1301SOL    HW2 4803   1.196   6.123   2.631
 1302SOL     OW 4804   3.051   6.716   4.722
 1302SOL    HW1 4805   2.962   6.698   4.764
 1302SOL    HW2 4806   3.122   6.667   4.773
 1303SOL     OW 4807   4.272   1.696   0.524
 1303SOL    HW1 4808   4.370   1.715   0.530
 1303SOL    HW2 4809   4.251   1.613   0.576
 1304SOL     OW 4810   2.101   1.480   6.434
 1304SOL    HW1 4811   2.072   1.537   6.511
 1304SOL    HW2 4812   2.035   1.489   6.359
 1305SOL     OW 4813   6.041   5.982   6.732
 1305SOL    HW1 4814   6.111   6.004   6.800
 1305SOL    HW2 4815   6.053   6.040   6.652
 1306SOL     OW 4816   0.679   4.931   5.514
 1306SOL    HW1 4817   0.708   4.917   5.609
 1306SOL    HW2 4818   0.641   4.846   5.478
 1307SOL     OW 4819   1.723   3.178   3.917
 1307SOL    HW1 4820   1.647   3.120   3.948
 1307SOL    HW2 4821   1.805   3.122   3.906
 1308SOL     OW 4822   3.913   6.024   4.728
 1308SOL    HW1 4823   3.902   6.019   4.827
 1308SOL    HW2 4824   3.984   5.960   4.699
 1309SOL     OW 4825   5.687   3.098   5.099
 1309SOL    HW1 4826   5.711   3.094   5.196
 1309SOL    HW2 4827   5.635   3.181   5.081
 1310SOL     OW 4828   5.795   3.634   4.746
 1310SOL    HW1 4829   5.795   3.726   4.707
 1310SOL    HW2 4830   5.703   3.612   4.778
 1311SOL     OW 4831   6.592   6.391   4.115
 1311SOL    HW1 4832   6.618   6.298   4.139
 1311SOL    HW2 4833   6.656   6.455   4.159
 1312SOL     OW 4834   0.770   0.602   6.547
 1312SOL    HW1 4835   0.729   0.658   6.620
 1312SOL    HW2 4836   0.707   0.528   6.523
 1313SOL     OW 4837   2.283   5.602   5.739
 1313SOL    HW1 4838   2.203   5.650   5.702
 1313SOL    HW2 4839   2.329   5.660   5.806
 1314SOL     OW 4840   1.980   1.588   5.758
 1314SOL    HW1 4841   1.957   1.527   5.683
 1314SOL    HW2 4842   1.914   1.576   5.832
 1315SOL     OW 4843   0.603   1.109   0.470
 1315SOL    HW1 4844   0.562   1.200   0.482
 1315SOL    HW2 4845   0.533   1.039   0.481
 1316SOL     OW 4846   2.585   0.110   2.827
 1316SOL    HW1 4847   2.651   0.135   2.898
 1316SOL    HW2 4848   2.501   0.077   2.870
 1317SOL     OW 4849   1.302   4.244   4.639
 1317SOL    HW1 4850   1.372   4.180   4.671
 1317SOL    HW2 4851   1.338   4.337   4.643
 1318SOL     OW 4852   0.095   0.696   0.571
 1318SOL    HW1 4853   0.003   0.661   0.551
 1318SOL    HW2 4854   0.094   0.746   0.658
 1319SOL     OW 4855   6.927   1.915   0.117
 1319SOL    HW1 4856   6.858   1.843   0.117
 1319SOL    HW2 4857   6.955   1.935   0.023
 1320SOL     OW 4858   5.912   4.358   0.137
 1320SOL    HW1 4859   5.995   4.323   0.093
 1320SOL    HW2 4860   5.917   4.342   0.235
 1321SOL     OW 4861   3.827   2.593   6.909
 1321SOL    HW1 4862   3.790   2.523   6.849
 1321SOL    HW2 4863   3.911   2.632   6.869
 1322SOL     OW 4864   5.486   1.117   3.570
 1322SOL    HW1 4865   5.407   1.174   3.545
 1322SOL    HW2 4866   5.454   1.035   3.617
 1323SOL     OW 4867   5.182   2.026   5.425
 1323SOL    HW1 4868   5.228   2.085   5.491
 1323SOL    HW2 4869   5.235   1.943   5.411
 1324SOL     OW 4870   1.422   2.027   1.993
 1324SOL    HW1 4871   1.407   1.943   1.941
 1324SOL    HW2 4872   1.414   2.007   2.091
 1325SOL     OW 4873   2.997   6.979   2.437
 1325SOL    HW1 4874   3.028   6.885   2.451
 1325SOL    HW2 4875   3.013   7.005   2.342
 1326SOL     OW 4876   4.663   2.686   4.729
 1326SOL    HW1 4877   4.744   2.629   4.724
 1326SOL    HW2 4878   4.583   2.630   4.750
 1327SOL     OW 4879   2.978   5.468   2.945
 1327SOL    HW1 4880   2.956   5.372   2.926
 1327SOL    HW2 4881   3.050   5.499   2.882
 1328SOL     OW 4882   0.762   2.923   0.539
 1328SOL    HW1 4883   0.846   2.978   0.538
 1328SOL    HW2 4884   0.779   2.836   0.493
 1329SOL     OW 4885   6.754   1.671   0.477
 1329SOL    HW1 4886   6.677   1.703   0.531
 1329SOL    HW2 4887   6.808   1.749   0.444
 1330SOL     OW 4888   6.741   0.129   1.302
 1330SOL    HW1 4889   6.745   0.221   1.340
 1330SOL    HW2 4890   6.833   0.089   1.300
 1331SOL     OW 4891   4.844   2.241   3.310
 1331SOL    HW1 4892   4.857   2.339   3.296
 1331SOL    HW2 4893   4.832   2.196   3.221
 1332SOL     OW 4894   3.657   0.166   0.634
 1332SOL    HW1 4895   3.755   0.178   0.645
 1332SOL    HW2 4896   3.613   0.255   0.627
 1333SOL     OW 4897   3.941   4.133   5.682
 1333SOL    HW1 4898   3.916   4.188   5.603
 1333SOL    HW2 4899   3.963   4.193   5.760
 1334SOL     OW 4900   0.593   3.141   4.393
 1334SOL    HW1 4901   0.562   3.147   4.488
 1334SOL    HW2 4902   0.682   3.096   4.390
 1335SOL     OW 4903   2.793   6.439   2.525
 1335SOL    HW1 4904   2.742   6.525   2.527
 1335SOL    HW2 4905   2.883   6.455   2.486
 1336SOL     OW 4906   1.838   1.074   5.945
 1336SOL    HW1 4907   1.788   1.083   6.031
 1336SOL    HW2 4908   1.872   0.980   5.936
 1337SOL     OW 4909   1.058   2.535   5.036
 1337SOL    HW1 4910   0.995   2.603   5.073
 1337SOL    HW2 4911   1.030   2.509   4.943
 1338SOL     OW 4912   4.499   3.885   6.012
 1338SOL    HW1 4913   4.497   3.964   5.951
 1338SOL    HW2 4914   4.440   3.813   5.975
 1339SOL     OW 4915   0.128   6.178   0.223
 1339SOL    HW1 4916   0.146   6.087   0.262
 1339SOL    HW2 4917   0.051   6.220   0.270
 1340SOL     OW 4918   1.201   1.429   1.317
 1340SOL    HW1 4919   1.170   1.457   1.226
 1340SOL    HW2 4920   1.125   1.436   1.381
 1341SOL     OW 4921   3.716   0.399   5.314
 1341SOL    HW1 4922   3.629   0.377   5.270
 1341SOL    HW2 4923   3.726   0.498   5.320
 1342SOL     OW 4924   1.271   5.626   6.355
 1342SOL    HW1 4925   1.199   5.695   6.357
 1342SOL    HW2 4926   1.242   5.546   6.407
 1343SOL     OW 4927   3.700   6.639   2.411
 1343SOL    HW1 4928   3.728   6.718   2.466
 1343SOL    HW2 4929   3.750   6.640   2.324
 1344SOL     OW 4930   0.007   3.216   3.253
 1344SOL    HW1 4931   7.005   3.285   3.184
 1344SOL    HW2 4932   0.022   3.261   3.341
 1345SOL     OW 4933   0.562   1.151   3.484
 1345SOL    HW1 4934   0.548   1.066   3.433
 1345SOL    HW2 4935   0.590   1.130   3.577
 1346SOL     OW 4936   1.829   0.316   2.651
 1346SOL    HW1 4937   1.755   0.339   2.715
 1346SOL    HW2 4938   1.821   0.372   2.569
 1347SOL     OW 4939   6.435   6.471   3.609
 1347SOL    HW1 4940   6.347   6.509   3.581
 1347SOL    HW2 4941   6.442   6.473   3.709
 1348SOL     OW 4942   5.903   4.808   3.382
 1348SOL    HW1 4943   5.867   4.883   3.438
 1348SOL    HW2 4944   6.003   4.805   3.391
 1349SOL     OW 4945   5.031   2.910   6.627
 1349SOL    HW1 4946   4.972   2.944   6.553
 1349SOL    HW2 4947   4.974   2.869   6.698
 1350SOL     OW 4948   4.073   5.241   6.937
 1350SOL    HW1 4949   4.138   5.166   6.923
 1350SOL    HW2 4950   4.089   5.312   6.867
 1351SOL     OW 4951   0.929   0.893   3.191
 1351SOL    HW1 4952   0.897   0.891   3.096
 1351SOL    HW2 4953   0.930   0.988   3.223
 1352SOL     OW 4954   0.377   0.046   3.247
 1352SOL    HW1 4955   0.316   0.107   3.196
 1352SOL    HW2 4956   0.415   7.000   3.186
 1353SOL     OW 4957   6.997   4.354   6.196
 1353SOL    HW1 4958   0.064   4.352   6.153
 1353SOL    HW2 4959   6.930   4.315   6.133
 1354SOL     OW 4960   6.756   2.056   0.581
 1354SOL    HW1 4961   6.761   2.101   0.492
 1354SOL    HW2 4962   6.748   2.125   0.653
 1355SOL     OW 4963   5.311   3.478   6.354
 1355SOL    HW1 4964   5.254   3.494   6.273
 1355SOL    HW2 4965   5.349   3.386   6.349
 1356SOL     OW 4966   3.540   3.808   4.376
 1356SOL    HW1 4967   3.582   3.898   4.364
 1356SOL    HW2 4968   3.474   3.812   4.450
 1357SOL     OW 4969   2.774   3.375   5.912
 1357SOL    HW1 4970   2.697   3.416   5.961
 1357SOL    HW2 4971   2.846   3.443   5.900
 1358SOL     OW 4972   2.827   2.098   6.107
 1358SOL    HW1 4973   2.763   2.101   6.031
 1358SOL    HW2 4974   2.919   2.083   6.073
 1359SOL     OW 4975   6.445   4.088   1.487
 1359SOL    HW1 4976   6.372   4.019   1.490
 1359SOL    HW2 4977   6.490   4.084   1.398
 1360SOL     OW 4978   4.067   3.783   2.434
 1360SOL    HW1 4979   4.113   3.859   2.388
 1360SOL    HW2 4980   4.060   3.706   2.371
 1361SOL     OW 4981   6.892   0.029   6.314
 1361SOL    HW1 4982   6.898   0.126   6.337
 1361SOL    HW2 4983   6.984   7.012   6.315
 1362SOL     OW 4984   2.955   3.638   5.303
 1362SOL    HW1 4985   2.912   3.655   5.215
 1362SOL    HW2 4986   2.921   3.551   5.340
 1363SOL     OW 4987   6.716   6.149   4.274
 1363SOL    HW1 4988   6.703   6.131   4.372
 1363SOL    HW2 4989   6.783   6.221   4.262
 1364SOL     OW 4990   0.188   2.458   6.812
 1364SOL    HW1 4991   0.231   2.368   6.805
 1364SOL    HW2 4992   0.102   2.457   6.761
 1365SOL     OW 4993   1.018   3.516   5.564
 1365SOL    HW1 4994   0.987   3.541   5.473
 1365SOL    HW2 4995   1.091   3.447   5.557
 1366SOL     OW 4996   0.109   3.898   1.075
 1366SOL    HW1 4997   0.150   3.918   0.986
 1366SOL    HW2 4998   0.180   3.898   1.146
 1367SOL     OW 4999   1.110   4.944   3.075
 1367SOL    HW1 5000   1.011   4.939   3.067
 1367SOL    HW2 5001   1.141   4.878   3.144
 1368SOL     OW 5002   6.646   0.514   4.277
 1368SOL    HW1 5003   6.714   0.444   4.259
 1368SOL    HW2 5004   6.686   0.605   4.263
 1369SOL     OW 5005   2.321   6.020   1.929
 1369SOL    HW1 5006   2.353   6.099   1.982
 1369SOL    HW2 5007   2.353   5.936   1.973
 1370SOL     OW 5008   6.977   2.021   3.979
 1370SOL    HW1 5009   6.942   2.114   3.966
 1370SOL    HW2 5010   6.900   1.957   3.983
 1371SOL     OW 5011   4.996   1.248   4.646
 1371SOL    HW1 5012   5.032   1.290   4.730
 1371SOL    HW2 5013   4.936   1.313   4.600
 1372SOL     OW 5014   6.284   2.494   1.138
 1372SOL    HW1 5015   6.333   2.581   1.132
 1372SOL    HW2 5016   6.347   2.419   1.121
 1373SOL     OW 5017   5.408   1.868   0.883
 1373SOL    HW1 5018   5.354   1.906   0.958
 1373SOL    HW2 5019   5.386   1.917   0.798
 1374SOL     OW 5020   5.326   4.317   6.797
 1374SOL    HW1 5021   5.281   4.401   6.766
 1374SOL    HW2 5022   5.407   4.300   6.740
 1375SOL     OW 5023   7.009   6.865   6.506
 1375SOL    HW1 5024   6.919   6.823   6.510
 1375SOL    HW2 5025   0.037   6.840   6.588
 1376SOL     OW 5026   3.195   4.839   6.101
 1376SOL    HW1 5027   3.263   4.771   6.128
 1376SOL    HW2 5028   3.105   4.809   6.133
 1377SOL     OW 5029   1.041   2.574   3.767
 1377SOL    HW1 5030   1.068   2.543   3.675
 1377SOL    HW2 5031   0.959   2.526   3.796
 1378SOL     OW 5032   4.907   2.529   4.776
 1378SOL    HW1 5033   4.979   2.593   4.750
 1378SOL    HW2 5034   4.922   2.499   4.871
 1379SOL     OW 5035   4.902   5.609   2.940
 1379SOL    HW1 5036   4.948   5.677   2.997
 1379SOL    HW2 5037   4.804   5.627   2.939
 1380SOL     OW 5038   6.654   6.148   2.546
 1380SOL    HW1 5039   6.614   6.237   2.526
 1380SOL    HW2 5040   6.741   6.138   2.497
 1381SOL     OW 5041   5.875   1.496   6.748
 1381SOL    HW1 5042   5.883   1.588   6.708
 1381SOL    HW2 5043   5.808   1.499   6.823
 1382SOL     OW 5044   4.932   2.810   1.401
 1382SOL    HW1 5045   4.863   2.882   1.408
 1382SOL    HW2 5046   5.023   2.850   1.397
 1383SOL     OW 5047   0.582   6.791   1.293
 1383SOL    HW1 5048   0.514   6.813   1.362
 1383SOL    HW2 5049   0.673   6.795   1.335
 1384SOL     OW 5050   4.460   6.858   1.249
 1384SOL    HW1 5051   4.447   6.815   1.159
 1384SOL    HW2 5052   4.555   6.847   1.278
 1385SOL     OW 5053   2.035   4.287   3.669
 1385SOL    HW1 5054   2.134   4.277   3.675
 1385SOL    HW2 5055   2.012   4.345   3.591
 1386SOL     OW 5056   3.497   0.303   3.301
 1386SOL    HW1 5057   3.500   0.210   3.265
 1386SOL    HW2 5058   3.437   0.306   3.381
 1387SOL     OW 5059   2.921   5.557   2.373
 1387SOL    HW1 5060   3.007   5.600   2.401
 1387SOL    HW2 5061   2.844   5.606   2.414
 1388SOL     OW 5062   6.845   6.964   2.083
 1388SOL    HW1 5063   6.752   6.988   2.110
 1388SOL    HW2 5064   6.908   0.012   2.114
 1389SOL     OW 5065   5.750   2.185   4.026
 1389SOL    HW1 5066   5.726   2.264   3.969
 1389SOL    HW2 5067   5.773   2.107   3.967
 1390SOL     OW 5068   0.140   3.879   6.994
 1390SOL    HW1 5069   0.232   3.887   0.009
 1390SOL    HW2 5070   0.138   3.920   6.903
 1391SOL     OW 5071   6.396   6.959   4.521
 1391SOL    HW1 5072   6.472   7.016   4.490
 1391SOL    HW2 5073   6.311   6.994   4.483
 1392SOL     OW 5074   5.783   5.877   6.174
 1392SOL    HW1 5075   5.836   5.962   6.176
 1392SOL    HW2 5076   5.757   5.853   6.267
 1393SOL     OW 5077   6.275   4.884   5.531
 1393SOL    HW1 5078   6.225   4.830   5.463
 1393SOL    HW2 5079   6.236   4.976   5.537
 1394SOL     OW 5080   2.753   5.530   5.283
 1394SOL    HW1 5081   2.654   5.518   5.272
 1394SOL    HW2 5082   2.798   5.441   5.279
 1395SOL     OW 5083   2.309   4.092   5.657
 1395SOL    HW1 5084   2.317   4.018   5.590
 1395SOL    HW2 5085   2.376   4.163   5.636
 1396SOL     OW 5086   1.661   1.353   4.925
 1396SOL    HW1 5087   1.630   1.398   5.009
 1396SOL    HW2 5088   1.656   1.418   4.849
 1397SOL     OW 5089   0.398   0.359   3.421
 1397SOL    HW1 5090   0.460   0.280   3.419
 1397SOL    HW2 5091   0.431   0.429   3.358
 1398SOL     OW 5092   2.956   0.484   6.092
 1398SOL    HW1 5093   2.981   0.579   6.107
 1398SOL    HW2 5094   2.971   0.460   5.996
 1399SOL     OW 5095   3.437   5.959   0.484
 1399SOL    HW1 5096   3.439   6.032   0.415
 1399SOL    HW2 5097   3.346   5.917   0.485
 1400SOL     OW 5098   6.962   0.995   2.759
 1400SOL    HW1 5099   7.019   0.974   2.838
 1400SOL    HW2 5100   7.019   1.028   2.684
 1401SOL     OW 5101   6.653   2.320   4.641
 1401SOL    HW1 5102   6.579   2.358   4.696
 1401SOL    HW2 5103   6.633   2.336   4.544
 1402SOL     OW 5104   0.341   3.470   0.028
 1402SOL    HW1 5105   0.395   3.399   7.006
 1402SOL    HW2 5106   0.256   3.484   7.002
 1403SOL     OW 5107   2.167   2.496   1.674
 1403SOL    HW1 5108   2.226   2.528   1.749
 1403SOL    HW2 5109   2.119   2.414   1.703
 1404SOL     OW 5110   5.238   6.861   0.204
 1404SOL    HW1 5111   5.293   6.794   0.253
 1404SOL    HW2 5112   5.286   6.949   0.203
 1405SOL     OW 5113   2.001   4.069   1.136
 1405SOL    HW1 5114   1.982   4.159   1.097
 1405SOL    HW2 5115   2.054   4.015   1.071
 1406SOL     OW 5116   1.129   5.140   1.381
 1406SOL    HW1 5117   1.069   5.176   1.310
 1406SOL    HW2 5118   1.224   5.165   1.359
 1407SOL     OW 5119   0.287   1.933   2.420
 1407SOL    HW1 5120   0.291   1.985   2.505
 1407SOL    HW2 5121   0.361   1.866   2.417
 1408SOL     OW 5122   5.691   1.139   5.688
 1408SOL    HW1 5123   5.668   1.094   5.774
 1408SOL    HW2 5124   5.775   1.192   5.699
 1409SOL     OW 5125   1.011   1.005   4.833
 1409SOL    HW1 5126   1.111   1.014   4.827
 1409SOL    HW2 5127   0.977   0.966   4.748
 1410SOL     OW 5128   1.808   3.059   6.540
 1410SOL    HW1 5129   1.739   2.995   6.576
 1410SOL    HW2 5130   1.765   3.120   6.473
 1411SOL     OW 5131   2.907   6.712   1.762
 1411SOL    HW1 5132   2.829   6.682   1.816
 1411SOL    HW2 5133   2.929   6.806   1.785
 1412SOL     OW 5134   6.921   2.306   1.031
 1412SOL    HW1 5135   7.008   2.344   1.062
 1412SOL    HW2 5136   6.913   2.211   1.062
 1413SOL     OW 5137   1.514   1.462   5.420
 1413SOL    HW1 5138   1.592   1.406   5.394
 1413SOL    HW2 5139   1.466   1.420   5.497
 1414SOL     OW 5140   2.527   1.383   1.851
 1414SOL    HW1 5141   2.502   1.475   1.822
 1414SOL    HW2 5142   2.615   1.358   1.810
 1415SOL     OW 5143   2.200   0.583   4.628
 1415SOL    HW1 5144   2.111   0.627   4.641
 1415SOL    HW2 5145   2.271   0.643   4.664
 1416SOL     OW 5146   4.929   4.986   4.229
 1416SOL    HW1 5147   5.014   5.038   4.217
 1416SOL    HW2 5148   4.851   5.047   4.214
 1417SOL     OW 5149   2.615   2.149   0.291
 1417SOL    HW1 5150   2.666   2.081   0.239
 1417SOL    HW2 5151   2.542   2.105   0.343
 1418SOL     OW 5152   2.909   3.423   3.943
 1418SOL    HW1 5153   2.909   3.459   4.036
 1418SOL    HW2 5154   2.899   3.498   3.878
 1419SOL     OW 5155   2.330   6.238   5.239
 1419SOL    HW1 5156   2.293   6.248   5.147
 1419SOL    HW2 5157   2.262   6.269   5.306
 1420SOL     OW 5158   2.386   0.047   1.259
 1420SOL    HW1 5159   2.309   0.044   1.322
 1420SOL    HW2 5160   2.428   6.980   1.254
 1421SOL     OW 5161   1.874   3.679   3.356
 1421SOL    HW1 5162   1.821   3.738   3.296
 1421SOL    HW2 5163   1.826   3.669   3.444
 1422SOL     OW 5164   1.763   3.833   1.202
 1422SOL    HW1 5165   1.841   3.771   1.193
 1422SOL    HW2 5166   1.788   3.909   1.263
 1423SOL     OW 5167   5.550   6.265   3.090
 1423SOL    HW1 5168   5.617   6.206   3.136
 1423SOL    HW2 5169   5.542   6.351   3.139
 1424SOL     OW 5170   6.393   5.184   5.886
 1424SOL    HW1 5171   6.484   5.224   5.879
 1424SOL    HW2 5172   6.397   5.088   5.859
 1425SOL     OW 5173   0.960   6.434   5.091
 1425SOL    HW1 5174   1.044   6.419   5.143
 1425SOL    HW2 5175   0.965   6.523   5.045
 1426SOL     OW 5176   1.939   3.018   6.271
 1426SOL    HW1 5177   2.038   3.011   6.254
 1426SOL    HW2 5178   1.922   3.018   6.369
 1427SOL     OW 5179   0.351   6.779   3.778
 1427SOL    HW1 5180   0.369   6.847   3.707
 1427SOL    HW2 5181   0.367   6.687   3.742
 1428SOL     OW 5182   6.012   2.968   0.534
 1428SOL    HW1 5183   6.100   2.933   0.500
 1428SOL    HW2 5184   5.993   3.055   0.490
 1429SOL     OW 5185   5.139   1.980   0.259
 1429SOL    HW1 5186   5.113   2.045   0.188
 1429SOL    HW2 5187   5.211   1.919   0.224
 1430SOL     OW 5188   1.545   4.115   3.879
 1430SOL    HW1 5189   1.629   4.122   3.932
 1430SOL    HW2 5190   1.475   4.173   3.919
 1431SOL     OW 5191   2.193   2.250   1.085
 1431SOL    HW1 5192   2.271   2.220   1.139
 1431SOL    HW2 5193   2.223   2.315   1.015
 1432SOL     OW 5194   3.181   1.246   2.426
 1432SOL    HW1 5195   3.142   1.336   2.407
 1432SOL    HW2 5196   3.189   1.234   2.525
 1433SOL     OW 5197   4.097   1.009   5.483
 1433SOL    HW1 5198   4.197   1.002   5.490
 1433SOL    HW2 5199   4.072   1.033   5.389
 1434SOL     OW 5200   6.859   0.336   5.564
 1434SOL    HW1 5201   6.853   0.245   5.606
 1434SOL    HW2 5202   6.933   0.387   5.607
 1435SOL     OW 5203   6.341   0.335   3.264
 1435SOL    HW1 5204   6.318   0.344   3.361
 1435SOL    HW2 5205   6.278   0.390   3.209
 1436SOL     OW 5206   5.573   3.730   0.114
 1436SOL    HW1 5207   5.554   3.652   0.174
 1436SOL    HW2 5208   5.560   3.703   0.019
 1437SOL     OW 5209   2.980   2.233   3.561
 1437SOL    HW1 5210   2.888   2.264   3.585
 1437SOL    HW2 5211   3.032   2.310   3.524
 1438SOL     OW 5212   3.296   6.030   1.404
 1438SOL    HW1 5213   3.360   6.107   1.401
 1438SOL    HW2 5214   3.346   5.946   1.423
 1439SOL     OW 5215   6.937   5.662   1.292
 1439SOL    HW1 5216   7.004   5.597   1.257
 1439SOL    HW2 5217   6.865   5.676   1.224
 1440SOL     OW 5218   3.252   3.504   7.000
 1440SOL    HW1 5219   3.317   3.567   6.958
 1440SOL    HW2 5220   3.301   3.444   0.040
 1441SOL     OW 5221   6.115   0.674   4.023
 1441SOL    HW1 5222   6.064   0.740   3.969
 1441SOL    HW2 5223   6.210   0.705   4.032
 1442SOL     OW 5224   6.869   6.227   0.036
 1442SOL    HW1 5225   6.858   6.129   0.052
 1442SOL    HW2 5226   6.899   6.271   0.121
 1443SOL     OW 5227   0.964   2.902   3.249
 1443SOL    HW1 5228   0.962   2.866   3.155
 1443SOL    HW2 5229   0.871   2.900   3.287
 1444SOL     OW 5230   5.084   5.927   1.307
 1444SOL    HW1 5231   5.142   5.990   1.256
 1444SOL    HW2 5232   5.083   5.838   1.262
 1445SOL     OW 5233   0.935   2.772   2.968
 1445SOL    HW1 5234   0.853   2.745   3.018
 1445SOL    HW2 5235   0.978   2.690   2.928
 1446SOL     OW 5236   6.040   1.488   0.201
 1446SOL    HW1 5237   5.958   1.491   0.258
 1446SOL    HW2 5238   6.013   1.480   0.105
 1447SOL     OW 5239   6.122   6.327   4.222
 1447SOL    HW1 5240   6.115   6.235   4.182
 1447SOL    HW2 5241   6.101   6.395   4.153
 1448SOL     OW 5242   6.365   3.152   5.342
 1448SOL    HW1 5243   6.290   3.119   5.284
 1448SOL    HW2 5244   6.327   3.193   5.426
 1449SOL     OW 5245   1.520   3.270   5.943
 1449SOL    HW1 5246   1.603   3.215   5.948
 1449SOL    HW2 5247   1.544   3.366   5.932
 1450SOL     OW 5248   1.143   2.234   6.823
 1450SOL    HW1 5249   1.195   2.302   6.875
 1450SOL    HW2 5250   1.187   2.144   6.834
 1451SOL     OW 5251   0.938   6.051   2.334
 1451SOL    HW1 5252   0.946   5.974   2.397
 1451SOL    HW2 5253   0.860   6.108   2.361
 1452SOL     OW 5254   4.212   2.291   5.473
 1452SOL    HW1 5255   4.251   2.378   5.503
 1452SOL    HW2 5256   4.138   2.264   5.535
 1453SOL     OW 5257   0.571   4.334   5.953
 1453SOL    HW1 5258   0.641   4.361   5.887
 1453SOL    HW2 5259   0.593   4.244   5.991
 1454SOL     OW 5260   0.841   2.485   1.992
 1454SOL    HW1 5261   0.885   2.419   2.053
 1454SOL    HW2 5262   0.899   2.566   1.984
 1455SOL     OW 5263   1.566   6.764   2.130
 1455SOL    HW1 5264   1.643   6.715   2.171
 1455SOL    HW2 5265   1.588   6.786   2.035
 1456SOL     OW 5266   6.312   0.169   6.199
 1456SOL    HW1 5267   6.370   0.131   6.127
 1456SOL    HW2 5268   6.347   0.259   6.226
 1457SOL     OW 5269   0.684   5.969   0.758
 1457SOL    HW1 5270   0.665   6.064   0.735
 1457SOL    HW2 5271   0.625   5.941   0.834
 1458SOL     OW 5272   6.506   4.865   4.961
 1458SOL    HW1 5273   6.520   4.909   4.872
 1458SOL    HW2 5274   6.423   4.899   5.003
 1459SOL     OW 5275   3.889   0.077   5.605
 1459SOL    HW1 5276   3.989   0.081   5.613
 1459SOL    HW2 5277   3.852   0.027   5.683
 1460SOL     OW 5278   0.875   0.081   5.120
 1460SOL    HW1 5279   0.794   0.110   5.068
 1460SOL    HW2 5280   0.936   0.158   5.133
 1461SOL     OW 5281   6.901   3.950   2.467
 1461SOL    HW1 5282   6.806   3.982   2.463
 1461SOL    HW2 5283   6.962   4.023   2.436
 1462SOL     OW 5284   1.584   1.391   6.614
 1462SOL    HW1 5285   1.552   1.303   6.648
 1462SOL    HW2 5286   1.681   1.384   6.589
 1463SOL     OW 5287   0.742   5.484   5.808
 1463SOL    HW1 5288   0.705   5.564   5.761
 1463SOL    HW2 5289   0.831   5.506   5.846
 1464SOL     OW 5290   7.005   6.149   2.065
 1464SOL    HW1 5291   0.038   6.231   2.071
 1464SOL    HW2 5292   6.981   6.118   2.158
 1465SOL     OW 5293   1.584   1.034   3.948
 1465SOL    HW1 5294   1.510   0.971   3.925
 1465SOL    HW2 5295   1.554   1.128   3.931
 1466SOL     OW 5296   2.750   1.474   2.409
 1466SOL    HW1 5297   2.795   1.411   2.346
 1466SOL    HW2 5298   2.670   1.513   2.365
 1467SOL     OW 5299   1.754   1.368   3.847
 1467SOL    HW1 5300   1.833   1.344   3.904
 1467SOL    HW2 5301   1.773   1.345   3.752
 1468SOL     OW 5302   2.257   5.455   2.397
 1468SOL    HW1 5303   2.304   5.465   2.485
 1468SOL    HW2 5304   2.214   5.542   2.372
 1469SOL     OW 5305   6.606   0.569   3.065
 1469SOL    HW1 5306   6.592   0.475   3.094
 1469SOL    HW2 5307   6.528   0.625   3.093
 1470SOL     OW 5308   1.076   1.517   1.939
 1470SOL    HW1 5309   1.118   1.581   1.874
 1470SOL    HW2 5310   1.147   1.461   1.981
 1471SOL     OW 5311   0.721   0.180   0.647
 1471SOL    HW1 5312   0.762   0.178   0.556
 1471SOL    HW2 5313   0.792   0.202   0.714
 1472SOL     OW 5314   2.309   5.933   6.312
 1472SOL    HW1 5315   2.259   5.888   6.386
 1472SOL    HW2 5316   2.380   5.872   6.277
 1473SOL     OW 5317   3.339   5.304   5.671
 1473SOL    HW1 5318   3.294   5.251   5.598
 1473SOL    HW2 5319   3.354   5.397   5.640
 1474SOL     OW 5320   4.651   4.534   1.482
 1474SOL    HW1 5321   4.621   4.452   1.531
 1474SOL    HW2 5322   4.636   4.521   1.384
 1475SOL     OW 5323   5.560   0.874   0.779
 1475SOL    HW1 5324   5.625   0.940   0.740
 1475SOL    HW2 5325   5.487   0.923   0.825
 1476SOL     OW 5326   2.801   1.011   1.323
 1476SOL    HW1 5327   2.891   0.994   1.282
 1476SOL    HW2 5328   2.755   1.083   1.272
 1477SOL     OW 5329   3.741   6.541   6.192
 1477SOL    HW1 5330   3.658   6.503   6.151
 1477SOL    HW2 5331   3.727   6.550   6.291
 1478SOL     OW 5332   6.007   5.783   5.408
 1478SOL    HW1 5333   6.063   5.708   5.442
 1478SOL    HW2 5334   5.917   5.747   5.380
 1479SOL     OW 5335   2.506   3.261   1.175
 1479SOL    HW1 5336   2.418   3.287   1.134
 1479SOL    HW2 5337   2.580   3.307   1.127
 1480SOL     OW 5338   2.900   0.176   4.548
 1480SOL    HW1 5339   2.998   0.168   4.530
 1480SOL    HW2 5340   2.860   0.243   4.487
 1481SOL     OW 5341   6.262   3.173   6.112
 1481SOL    HW1 5342   6.315   3.155   6.195
 1481SOL    HW2 5343   6.324   3.182   6.034
 1482SOL     OW 5344   4.594   0.944   2.017
 1482SOL    HW1 5345   4.693   0.938   2.029
 1482SOL    HW2 5346   4.549   0.877   2.077
 1483SOL     OW 5347   5.145   2.359   5.477
 1483SOL    HW1 5348   5.054   2.386   5.447
 1483SOL    HW2 5349   5.212   2.428   5.449
 1484SOL     OW 5350   4.982   4.816   3.845
 1484SOL    HW1 5351   5.024   4.810   3.936
 1484SOL    HW2 5352   5.052   4.836   3.777
 1485SOL     OW 5353   4.995   0.422   4.559
 1485SOL    HW1 5354   5.093   0.413   4.577
 1485SOL    HW2 5355   4.969   0.518   4.562
 1486SOL     OW 5356   5.390   0.747   3.430
 1486SOL    HW1 5357   5.388   0.800   3.345
 1486SOL    HW2 5358   5.484   0.734   3.459
 1487SOL     OW 5359   0.359   2.219   6.843
 1487SOL    HW1 5360   0.355   2.149   6.772
 1487SOL    HW2 5361   0.338   2.179   6.932
 1488SOL     OW 5362   5.024   6.639   3.839
 1488SOL    HW1 5363   5.072   6.727   3.840
 1488SOL    HW2 5364   4.974   6.629   3.752
 1489SOL     OW 5365   3.607   5.498   6.795
 1489SOL    HW1 5366   3.682   5.475   6.732
 1489SOL    HW2 5367   3.645   5.519   6.885
 1490SOL     OW 5368   0.082   3.614   1.075
 1490SOL    HW1 5369   0.115   3.709   1.077
 1490SOL    HW2 5370   0.137   3.562   1.010
 1491SOL     OW 5371   6.625   4.257   2.545
 1491SOL    HW1 5372   6.546   4.311   2.516
 1491SOL    HW2 5373   6.709   4.312   2.533
 1492SOL     OW 5374   5.862   0.259   2.296
 1492SOL    HW1 5375   5.949   0.267   2.344
 1492SOL    HW2 5376   5.836   0.348   2.259
 1493SOL     OW 5377   3.801   0.122   6.191
 1493SOL    HW1 5378   3.851   0.140   6.107
 1493SOL    HW2 5379   3.853   0.157   6.269
 1494SOL     OW 5380   5.137   2.612   6.553
 1494SOL    HW1 5381   5.119   2.589   6.457
 1494SOL    HW2 5382   5.051   2.635   6.599
 1495SOL     OW 5383   0.579   4.043   5.214
 1495SOL    HW1 5384   0.497   4.050   5.270
 1495SOL    HW2 5385   0.647   4.110   5.246
 1496SOL     OW 5386   1.598   1.386   0.450
 1496SOL    HW1 5387   1.672   1.416   0.511
 1496SOL    HW2 5388   1.541   1.319   0.497
 1497SOL     OW 5389   5.364   2.784   2.098
 1497SOL    HW1 5390   5.372   2.717   2.024
 1497SOL    HW2 5391   5.401   2.745   2.182
 1498SOL     OW 5392   2.597   4.362   6.960
 1498SOL    HW1 5393   2.554   4.274   6.978
 1498SOL    HW2 5394   2.551   4.433   7.014
 1499SOL     OW 5395   0.314   2.615   5.624
 1499SOL    HW1 5396   0.286   2.620   5.528
 1499SOL    HW2 5397   0.399   2.666   5.636
 1500SOL     OW 5398   0.564   0.134   6.999
 1500SOL    HW1 5399   0.612   0.220   6.980
 1500SOL    HW2 5400   0.623   0.072   0.025
 1501SOL     OW 5401   5.838   2.344   6.481
 1501SOL    HW1 5402   5.769   2.282   6.518
 1501SOL    HW2 5403   5.794   2.427   6.447
 1502SOL     OW 5404   4.837   0.773   6.975
 1502SOL    HW1 5405   4.749   0.817   6.995
 1502SOL    HW2 5406   4.840   0.683   7.018
 1503SOL     OW 5407   1.569   3.015   2.575
 1503SOL    HW1 5408   1.622   3.002   2.658
 1503SOL    HW2 5409   1.578   3.110   2.544
 1504SOL     OW 5410   0.552   0.605   4.243
 1504SOL    HW1 5411   0.501   0.613   4.157
 1504SOL    HW2 5412   0.554   0.510   4.272
 1505SOL     OW 5413   4.444   0.469   5.535
 1505SOL    HW1 5414   4.520   0.515   5.581
 1505SOL    HW2 5415   4.480   0.402   5.470
 1506SOL     OW 5416   0.776   6.633   0.149
 1506SOL    HW1 5417   0.798   6.605   0.242
 1506SOL    HW2 5418   0.839   6.705   0.120
 1507SOL     OW 5419   0.364   2.028   6.065
 1507SOL    HW1 5420   0.387   1.931   6.071
 1507SOL    HW2 5421   0.319   2.047   5.977
 1508SOL     OW 5422   6.260   1.486   1.022
 1508SOL    HW1 5423   6.297   1.474   0.930
 1508SOL    HW2 5424   6.214   1.575   1.027
 1509SOL     OW 5425   4.499   2.135   4.839
 1509SOL    HW1 5426   4.403   2.154   4.862
 1509SOL    HW2 5427   4.544   2.221   4.814
 1510SOL     OW 5428   4.914   6.983   4.877
 1510SOL    HW1 5429   4.970   6.985   4.794
 1510SOL    HW2 5430   4.873   6.893   4.889
 1511SOL     OW 5431   4.152   3.427   4.207
 1511SOL    HW1 5432   4.247   3.409   4.229
 1511SOL    HW2 5433   4.093   3.367   4.262
 1512SOL     OW 5434   6.417   5.713   0.983
 1512SOL    HW1 5435   6.438   5.648   1.057
 1512SOL    HW2 5436   6.450   5.804   1.009
 1513SOL     OW 5437   4.037   0.709   4.602
 1513SOL    HW1 5438   4.133   0.725   4.622
 1513SOL    HW2 5439   3.990   0.797   4.592
 1514SOL     OW 5440   3.834   2.931   5.216
 1514SOL    HW1 5441   3.865   2.878   5.295
 1514SOL    HW2 5442   3.891   3.012   5.205
 1515SOL     OW 5443   5.304   1.952   2.345
 1515SOL    HW1 5444   5.316   2.051   2.338
 1515SOL    HW2 5445   5.279   1.927   2.438
 1516SOL     OW 5446   6.125   5.500   5.719
 1516SOL    HW1 5447   6.125   5.494   5.619
 1516SOL    HW2 5448   6.110   5.595   5.746
 1517SOL     OW 5449   4.605   6.034   2.684
 1517SOL    HW1 5450   4.546   5.998   2.611
 1517SOL    HW2 5451   4.629   5.960   2.747
 1518SOL     OW 5452   0.103   2.193   0.449
 1518SOL    HW1 5453   0.005   2.189   0.469
 1518SOL    HW2 5454   0.155   2.174   0.532
 1519SOL     OW 5455   6.535   4.556   1.389
 1519SOL    HW1 5456   6.442   4.581   1.416
 1519SOL    HW2 5457   6.536   4.463   1.352
 1520SOL     OW 5458   0.358   4.453   2.019
 1520SOL    HW1 5459   0.447   4.470   2.060
 1520SOL    HW2 5460   0.366   4.379   1.952
 1521SOL     OW 5461   2.653   4.674   6.250
 1521SOL    HW1 5462   2.612   4.587   6.224
 1521SOL    HW2 5463   2.688   4.668   6.344
 1522SOL     OW 5464   5.779   5.930   4.935
 1522SOL    HW1 5465   5.757   5.841   4.974
 1522SOL    HW2 5466   5.846   5.976   4.993
 1523SOL     OW 5467   4.056   6.632   0.011
 1523SOL    HW1 5468   4.013   6.554   0.054
 1523SOL    HW2 5469   3.993   6.675   6.970
 1524SOL     OW 5470   2.031   1.692   1.998
 1524SOL    HW1 5471   1.939   1.660   2.018
 1524SOL    HW2 5472   2.090   1.676   2.077
 1525SOL     OW 5473   6.308   3.138   0.280
 1525SOL    HW1 5474   6.370   3.217   0.283
 1525SOL    HW2 5475   6.349   3.061   0.329
 1526SOL     OW 5476   0.012   1.111   6.444
 1526SOL    HW1 5477   0.094   1.111   6.501
 1526SOL    HW2 5478   7.008   1.017   6.426
 1527SOL     OW 5479   3.573   1.447   4.322
 1527SOL    HW1 5480   3.598   1.378   4.253
 1527SOL    HW2 5481   3.584   1.408   4.413
 1528SOL     OW 5482   4.165   4.780   2.988
 1528SOL    HW1 5483   4.146   4.689   3.026
 1528SOL    HW2 5484   4.176   4.773   2.889
 1529SOL     OW 5485   4.204   0.258   0.172
 1529SOL    HW1 5486   4.283   0.244   0.112
 1529SOL    HW2 5487   4.236   0.262   0.267
 1530SOL     OW 5488   3.878   1.823   2.182
 1530SOL    HW1 5489   3.780   1.804   2.192
 1530SOL    HW2 5490   3.895   1.864   2.093
 1531SOL     OW 5491   4.810   0.441   5.456
 1531SOL    HW1 5492   4.866   0.409   5.533
 1531SOL    HW2 5493   4.779   0.362   5.403
 1532SOL     OW 5494   3.636   4.349   5.845
 1532SOL    HW1 5495   3.656   4.446   5.852
 1532SOL    HW2 5496   3.668   4.302   5.928
 1533SOL     OW 5497   6.495   5.121   0.037
 1533SOL    HW1 5498   6.474   5.024   0.028
 1533SOL    HW2 5499   6.437   5.174   6.999
 1534SOL     OW 5500   2.937   6.086   6.764
 1534SOL    HW1 5501   2.888   6.000   6.772
 1534SOL    HW2 5502   2.879   6.161   6.795
 1535SOL     OW 5503   5.320   5.904   4.230
 1535SOL    HW1 5504   5.299   5.973   4.161
 1535SOL    HW2 5505   5.310   5.943   4.322
 1536SOL     OW 5506   3.717   5.134   6.197
 1536SOL    HW1 5507   3.629   5.126   6.244
 1536SOL    HW2 5508   3.723   5.223   6.152
 1537SOL     OW 5509   4.359   5.743   3.943
 1537SOL    HW1 5510   4.305   5.780   4.019
 1537SOL    HW2 5511   4.456   5.752   3.965
 1538SOL     OW 5512   3.097   0.091   6.788
 1538SOL    HW1 5513   3.057   0.172   6.746
 1538SOL    HW2 5514   3.113   0.108   6.886
 1539SOL     OW 5515   4.933   3.423   1.650
 1539SOL    HW1 5516   4.851   3.416   1.594
 1539SOL    HW2 5517   4.997   3.350   1.625
 1540SOL     OW 5518   0.062   6.481   5.097
 1540SOL    HW1 5519   0.033   6.574   5.122
 1540SOL    HW2 5520   0.081   6.429   5.180
 1541SOL     OW 5521   3.048   3.404   4.612
 1541SOL    HW1 5522   3.010   3.465   4.682
 1541SOL    HW2 5523   3.105   3.334   4.656
 1542SOL     OW 5524   6.285   0.867   2.499
 1542SOL    HW1 5525   6.368   0.923   2.498
 1542SOL    HW2 5526   6.228   0.893   2.577
 1543SOL     OW 5527   3.284   4.807   5.216
 1543SOL    HW1 5528   3.298   4.815   5.117
 1543SOL    HW2 5529   3.331   4.882   5.262
 1544SOL     OW 5530   2.934   3.428   3.533
 1544SOL    HW1 5531   3.017   3.475   3.505
 1544SOL    HW2 5532   2.957   3.352   3.594
 1545SOL     OW 5533   4.978   0.499   2.913
 1545SOL    HW1 5534   5.042   0.510   2.837
 1545SOL    HW2 5535   5.029   0.471   2.995
 1546SOL     OW 5536   4.256   6.596   5.684
 1546SOL    HW1 5537   4.195   6.523   5.656
 1546SOL    HW2 5538   4.283   6.650   5.604
 1547SOL     OW 5539   1.781   4.102   1.332
 1547SOL    HW1 5540   1.841   4.112   1.254
 1547SOL    HW2 5541   1.688   4.132   1.307
 1548SOL     OW 5542   5.521   4.046   6.517
 1548SOL    HW1 5543   5.536   4.013   6.610
 1548SOL    HW2 5544   5.545   3.973   6.452
 1549SOL     OW 5545   4.189   1.749   1.585
 1549SOL    HW1 5546   4.168   1.834   1.537
 1549SOL    HW2 5547   4.133   1.744   1.668
 1550SOL     OW 5548   2.543   3.728   0.391
 1550SOL    HW1 5549   2.460   3.783   0.383
 1550SOL    HW2 5550   2.543   3.657   0.320
 1551SOL     OW 5551   1.700   4.223   6.303
 1551SOL    HW1 5552   1.793   4.257   6.312
 1551SOL    HW2 5553   1.701   4.137   6.252
 1552SOL     OW 5554   2.195   5.400   0.643
 1552SOL    HW1 5555   2.107   5.358   0.664
 1552SOL    HW2 5556   2.265   5.362   0.703
 1553SOL     OW 5557   6.784   1.718   6.928
 1553SOL    HW1 5558   6.705   1.688   6.874
 1553SOL    HW2 5559   6.855   1.751   6.866
 1554SOL     OW 5560   3.394   1.972   3.272
 1554SOL    HW1 5561   3.423   1.891   3.322
 1554SOL    HW2 5562   3.310   2.008   3.313
 1555SOL     OW 5563   5.607   3.164   0.323
 1555SOL    HW1 5564   5.534   3.168   0.390
 1555SOL    HW2 5565   5.570   3.134   0.235
 1556SOL     OW 5566   3.122   2.419   0.194
 1556SOL    HW1 5567   3.127   2.444   0.097
 1556SOL    HW2 5568   3.112   2.320   0.203
 1557SOL     OW 5569   1.876   2.256   5.088
 1557SOL    HW1 5570   1.923   2.336   5.127
 1557SOL    HW2 5571   1.807   2.287   5.023
 1558SOL     OW 5572   6.029   0.738   4.746
 1558SOL    HW1 5573   5.978   0.679   4.684
 1558SOL    HW2 5574   5.974   0.757   4.827
 1559SOL     OW 5575   2.161   2.669   6.711
 1559SOL    HW1 5576   2.062   2.684   6.718
 1559SOL    HW2 5577   2.205   2.754   6.683
 1560SOL     OW 5578   0.034   0.858   5.749
 1560SOL    HW1 5579   0.094   0.930   5.785
 1560SOL    HW2 5580   0.010   0.879   5.654
 1561SOL     OW 5581   5.920   6.516   3.685
 1561SOL    HW1 5582   5.881   6.608   3.687
 1561SOL    HW2 5583   5.910   6.473   3.774
 1562SOL     OW 5584   5.139   5.818   2.772
 1562SOL    HW1 5585   5.236   5.812   2.747
 1562SOL    HW2 5586   5.098   5.726   2.770
 1563SOL     OW 5587   2.011   0.274   5.193
 1563SOL    HW1 5588   2.091   0.295   5.137
 1563SOL    HW2 5589   1.955   0.205   5.147
 1564SOL     OW 5590   1.396   1.794   3.606
 1564SOL    HW1 5591   1.454   1.873   3.584
 1564SOL    HW2 5592   1.302   1.824   3.615
 1565SOL     OW 5593   4.470   4.521   3.699
 1565SOL    HW1 5594   4.516   4.511   3.787
 1565SOL    HW2 5595   4.419   4.607   3.697
 1566SOL     OW 5596   6.209   4.744   2.909
 1566SOL    HW1 5597   6.143   4.814   2.882
 1566SOL    HW2 5598   6.161   4.665   2.946
 1567SOL     OW 5599   6.298   6.234   0.827
 1567SOL    HW1 5600   6.379   6.250   0.883
 1567SOL    HW2 5601   6.217   6.263   0.878
 1568SOL     OW 5602   1.371   6.607   6.786
 1568SOL    HW1 5603   1.403   6.516   6.759
 1568SOL    HW2 5604   1.284   6.599   6.834
 1569SOL     OW 5605   4.724   6.263   3.282
 1569SOL    HW1 5606   4.743   6.201   3.205
 1569SOL    HW2 5607   4.694   6.209   3.361
 1570SOL     OW 5608   1.592   0.234   1.387
 1570SOL    HW1 5609   1.673   0.286   1.361
 1570SOL    HW2 5610   1.524   0.240   1.313
 1571SOL     OW 5611   5.452   2.318   0.769
 1571SOL    HW1 5612   5.364   2.362   0.755
 1571SOL    HW2 5613   5.517   2.383   0.808
 1572SOL     OW 5614   0.230   6.726   1.342
 1572SOL    HW1 5615   0.290   6.649   1.321
 1572SOL    HW2 5616   0.151   6.724   1.282
 1573SOL     OW 5617   5.337   2.286   2.859
 1573SOL    HW1 5618   5.387   2.323   2.937
 1573SOL    HW2 5619   5.356   2.342   2.778
 1574SOL     OW 5620   6.315   0.719   1.845
 1574SOL    HW1 5621   6.346   0.814   1.856
 1574SOL    HW2 5622   6.292   0.682   1.935
 1575SOL     OW 5623   3.019   1.303   0.526
 1575SOL    HW1 5624   2.995   1.226   0.468
 1575SOL    HW2 5625   3.116   1.297   0.552
 1576SOL     OW 5626   0.723   6.833   3.814
 1576SOL    HW1 5627   0.680   6.887   3.887
 1576SOL    HW2 5628   0.704   6.875   3.726
 1577SOL     OW 5629   3.346   1.934   4.507
 1577SOL    HW1 5630   3.253   1.900   4.522
 1577SOL    HW2 5631   3.373   1.991   4.584
 1578SOL     OW 5632   6.031   3.699   5.537
 1578SOL    HW1 5633   5.989   3.616   5.499
 1578SOL    HW2 5634   6.114   3.675   5.586
 1579SOL     OW 5635   0.005   1.901   3.018
 1579SOL    HW1 5636   0.010   1.978   2.954
 1579SOL    HW2 5637   0.086   1.902   3.077
 1580SOL     OW 5638   2.549   3.634   5.353
 1580SOL    HW1 5639   2.582   3.571   5.423
 1580SOL    HW2 5640   2.609   3.713   5.349
 1581SOL     OW 5641   0.410   4.419   5.115
 1581SOL    HW1 5642   0.346   4.348   5.082
 1581SOL    HW2 5643   0.476   4.440   5.043
 1582SOL     OW 5644   1.359   6.633   4.292
 1582SOL    HW1 5645   1.338   6.724   4.328
 1582SOL    HW2 5646   1.312   6.564   4.346
 1583SOL     OW 5647   0.751   4.031   3.672
 1583SOL    HW1 5648   0.839   3.990   3.694
 1583SOL    HW2 5649   0.681   3.996   3.734
 1584SOL     OW 5650   1.123   6.822   4.699
 1584SOL    HW1 5651   1.116   6.724   4.683
 1584SOL    HW2 5652   1.039   6.856   4.741
 1585SOL     OW 5653   5.872   1.347   3.879
 1585SOL    HW1 5654   5.886   1.429   3.823
 1585SOL    HW2 5655   5.811   1.284   3.831
 1586SOL     OW 5656   3.175   3.979   0.855
 1586SOL    HW1 5657   3.180   3.886   0.892
 1586SOL    HW2 5658   3.261   4.027   0.872
 1587SOL     OW 5659   2.538   5.304   0.106
 1587SOL    HW1 5660   2.604   5.239   0.143
 1587SOL    HW2 5661   2.525   5.379   0.171
 1588SOL     OW 5662   5.190   1.262   2.841
 1588SOL    HW1 5663   5.157   1.238   2.750
 1588SOL    HW2 5664   5.183   1.182   2.901
 1589SOL     OW 5665   6.545   4.023   2.835
 1589SOL    HW1 5666   6.506   4.016   2.927
 1589SOL    HW2 5667   6.512   4.107   2.791
 1590SOL     OW 5668   2.608   6.567   6.067
 1590SOL    HW1 5669   2.516   6.533   6.086
 1590SOL    HW2 5670   2.672   6.527   6.132
 1591SOL     OW 5671   0.736   4.927   2.945
 1591SOL    HW1 5672   0.664   4.874   2.990
 1591SOL    HW2 5673   0.700   4.969   2.862
 1592SOL     OW 5674   2.630   4.531   1.445
 1592SOL    HW1 5675   2.584   4.443   1.436
 1592SOL    HW2 5676   2.633   4.557   1.542
 1593SOL     OW 5677   0.849   6.174   3.835
 1593SOL    HW1 5678   0.884   6.237   3.904
 1593SOL    HW2 5679   0.756   6.145   3.860
 1594SOL     OW 5680   6.821   5.720   2.709
 1594SOL    HW1 5681   6.761   5.789   2.668
 1594SOL    HW2 5682   6.778   5.630   2.701
 1595SOL     OW 5683   1.192   5.072   6.843
 1595SOL    HW1 5684   1.242   5.062   6.757
 1595SOL    HW2 5685   1.127   5.148   6.835
 1596SOL     OW 5686   0.587   2.988   4.929
 1596SOL    HW1 5687   0.610   3.074   4.975
 1596SOL    HW2 5688   0.655   2.918   4.953
 1597SOL     OW 5689   2.346   5.752   0.051
 1597SOL    HW1 5690   2.412   5.687   0.012
 1597SOL    HW2 5691   2.288   5.788   7.002
 1598SOL     OW 5692   0.810   3.602   0.099
 1598SOL    HW1 5693   0.847   3.676   0.154
 1598SOL    HW2 5694   0.882   3.563   0.042
 1599SOL     OW 5695   5.130   4.189   5.653
 1599SOL    HW1 5696   5.202   4.250   5.686
 1599SOL    HW2 5697   5.129   4.106   5.709
 1600SOL     OW 5698   5.232   1.835   5.116
 1600SOL    HW1 5699   5.204   1.769   5.046
 1600SOL    HW2 5700   5.210   1.798   5.207
 1601SOL     OW 5701   0.430   5.110   4.469
 1601SOL    HW1 5702   0.461   5.170   4.396
 1601SOL    HW2 5703   0.410   5.164   4.551
 1602SOL     OW 5704   2.094   5.516   4.110
 1602SOL    HW1 5705   2.183   5.526   4.067
 1602SOL    HW2 5706   2.040   5.448   4.061
 1603SOL     OW 5707   0.458   5.911   2.061
 1603SOL    HW1 5708   0.497   5.840   2.120
 1603SOL    HW2 5709   0.388   5.961   2.111
 1604SOL     OW 5710   6.085   4.742   6.829
 1604SOL    HW1 5711   6.046   4.750   6.921
 1604SOL    HW2 5712   6.139   4.823   6.808
 1605SOL     OW 5713   6.289   6.417   2.426
 1605SOL    HW1 5714   6.341   6.365   2.494
 1605SOL    HW2 5715   6.220   6.358   2.385
 1606SOL     OW 5716   3.167   0.416   4.814
 1606SOL    HW1 5717   3.133   0.322   4.804
 1606SOL    HW2 5718   3.210   0.446   4.729
 1607SOL     OW 5719   4.542   2.641   0.531
 1607SOL    HW1 5720   4.570   2.737   0.522
 1607SOL    HW2 5721   4.457   2.626   0.481
 1608SOL     OW 5722   1.449   0.784   5.416
 1608SOL    HW1 5723   1.454   0.817   5.322
 1608SOL    HW2 5724   1.372   0.721   5.424
 1609SOL     OW 5725   4.215   0.806   0.204
 1609SOL    HW1 5726   4.315   0.815   0.202
 1609SOL    HW2 5727   4.189   0.719   0.162
 1610SOL     OW 5728   6.168   4.035   5.268
 1610SOL    HW1 5729   6.167   3.995   5.176
 1610SOL    HW2 5730   6.230   4.113   5.270
 1611SOL     OW 5731   3.477   3.494   1.609
 1611SOL    HW1 5732   3.561   3.545   1.629
 1611SOL    HW2 5733   3.487   3.399   1.640
 1612SOL     OW 5734   3.145   1.354   5.402
 1612SOL    HW1 5735   3.158   1.363   5.501
 1612SOL    HW2 5736   3.232   1.373   5.355
 1613SOL     OW 5737   1.780   6.037   1.981
 1613SOL    HW1 5738   1.750   6.123   1.939
 1613SOL    HW2 5739   1.745   5.960   1.928
 1614SOL     OW 5740   6.364   3.712   0.235
 1614SOL    HW1 5741   6.264   3.718   0.230
 1614SOL    HW2 5742   6.391   3.656   0.314
 1615SOL     OW 5743   6.140   4.568   0.608
 1615SOL    HW1 5744   6.134   4.499   0.680
 1615SOL    HW2 5745   6.143   4.523   0.519
 1616SOL     OW 5746   4.040   2.159   5.677
 1616SOL    HW1 5747   4.086   2.183   5.762
 1616SOL    HW2 5748   3.942   2.178   5.686
 1617SOL     OW 5749   6.563   6.966   1.568
 1617SOL    HW1 5750   6.543   6.903   1.643
 1617SOL    HW2 5751   6.507   6.943   1.489
 1618SOL     OW 5752   0.834   3.658   0.604
 1618SOL    HW1 5753   0.788   3.671   0.692
 1618SOL    HW2 5754   0.768   3.670   0.530
 1619SOL     OW 5755   1.227   1.796   3.920
 1619SOL    HW1 5756   1.290   1.873   3.912
 1619SOL    HW2 5757   1.272   1.712   3.891
 1620SOL     OW 5758   1.967   6.035   0.816
 1620SOL    HW1 5759   1.947   6.126   0.780
 1620SOL    HW2 5760   2.006   5.978   0.743
 1621SOL     OW 5761   0.469   1.351   0.453
 1621SOL    HW1 5762   0.431   1.287   0.386
 1621SOL    HW2 5763   0.417   1.436   0.451
 1622SOL     OW 5764   1.177   2.526   4.441
 1622SOL    HW1 5765   1.188   2.513   4.539
 1622SOL    HW2 5766   1.248   2.474   4.392
 1623SOL     OW 5767   2.620   3.241   5.706
 1623SOL    HW1 5768   2.581   3.155   5.740
 1623SOL    HW2 5769   2.681   3.279   5.776
 1624SOL     OW 5770   3.562   1.136   5.976
 1624SOL    HW1 5771   3.536   1.101   5.886
 1624SOL    HW2 5772   3.563   1.236   5.974
 1625SOL     OW 5773   1.244   5.737   2.175
 1625SOL    HW1 5774   1.199   5.666   2.120
 1625SOL    HW2 5775   1.197   5.824   2.161
 1626SOL     OW 5776   3.092   2.036   6.651
 1626SOL    HW1 5777   3.050   2.053   6.562
 1626SOL    HW2 5778   3.024   1.996   6.713
 1627SOL     OW 5779   6.414   2.300   4.204
 1627SOL    HW1 5780   6.473   2.222   4.222
 1627SOL    HW2 5781   6.333   2.295   4.262
 1628SOL     OW 5782   4.371   4.750   6.804
 1628SOL    HW1 5783   4.391   4.807   6.725
 1628SOL    HW2 5784   4.373   4.654   6.777
 1629SOL     OW 5785   3.004   1.931   4.477
 1629SOL    HW1 5786   3.024   2.026   4.453
 1629SOL    HW2 5787   2.910   1.924   4.510
 1630SOL     OW 5788   1.355   6.370   5.506
 1630SOL    HW1 5789   1.407   6.453   5.525
 1630SOL    HW2 5790   1.259   6.393   5.493
 1631SOL     OW 5791   0.339   1.247   6.087
 1631SOL    HW1 5792   0.289   1.334   6.086
 1631SOL    HW2 5793   0.276   1.172   6.070
 1632SOL     OW 5794   0.415   1.860   0.104
 1632SOL    HW1 5795   0.324   1.839   0.139
 1632SOL    HW2 5796   0.427   1.817   0.014
 1633SOL     OW 5797   5.013   2.036   3.753
 1633SOL    HW1 5798   5.048   2.105   3.690
 1633SOL    HW2 5799   5.003   1.949   3.705
 1634SOL     OW 5800   4.231   5.340   5.578
 1634SOL    HW1 5801   4.203   5.373   5.668
 1634SOL    HW2 5802   4.321   5.378   5.555
 1635SOL     OW 5803   6.188   5.581   5.438
 1635SOL    HW1 5804   6.229   5.490   5.442
 1635SOL    HW2 5805   6.199   5.619   5.346
 1636SOL     OW 5806   2.153   4.197   1.395
 1636SOL    HW1 5807   2.122   4.102   1.405
 1636SOL    HW2 5808   2.236   4.200   1.341
 1637SOL     OW 5809   6.807   0.615   2.845
 1637SOL    HW1 5810   6.874   0.678   2.884
 1637SOL    HW2 5811   6.728   0.609   2.906
 1638SOL     OW 5812   0.777   4.195   4.102
 1638SOL    HW1 5813   0.741   4.287   4.084
 1638SOL    HW2 5814   0.703   4.128   4.091
 1639SOL     OW 5815   4.880   0.150   2.720
 1639SOL    HW1 5816   4.803   0.104   2.676
 1639SOL    HW2 5817   4.856   0.173   2.814
 1640SOL     OW 5818   5.805   1.773   1.039
 1640SOL    HW1 5819   5.789   1.737   0.947
 1640SOL    HW2 5820   5.761   1.714   1.106
 1641SOL     OW 5821   5.401   3.048   4.018
 1641SOL    HW1 5822   5.423   3.121   3.954
 1641SOL    HW2 5823   5.469   2.975   4.009
 1642SOL     OW 5824   6.492   3.570   0.056
 1642SOL    HW1 5825   6.459   3.645   0.115
 1642SOL    HW2 5826   6.591   3.578   0.045
 1643SOL     OW 5827   2.854   5.550   4.115
 1643SOL    HW1 5828   2.854   5.463   4.165
 1643SOL    HW2 5829   2.769   5.558   4.063
 1644SOL     OW 5830   1.365   2.453   1.109
 1644SOL    HW1 5831   1.417   2.387   1.054
 1644SOL    HW2 5832   1.360   2.540   1.059
 1645SOL     OW 5833   3.195   6.544   4.866
 1645SOL    HW1 5834   3.115   6.494   4.897
 1645SOL    HW2 5835   3.278   6.496   4.895
 1646SOL     OW 5836   2.642   6.129   1.403
 1646SOL    HW1 5837   2.569   6.078   1.449
 1646SOL    HW2 5838   2.628   6.227   1.418
 1647SOL     OW 5839   5.311   2.276   4.240
 1647SOL    HW1 5840   5.323   2.281   4.339
 1647SOL    HW2 5841   5.220   2.310   4.216
 1648SOL     OW 5842   6.182   5.975   1.218
 1648SOL    HW1 5843   6.180   5.926   1.131
 1648SOL    HW2 5844   6.241   6.056   1.210
 1649SOL     OW 5845   3.626   0.438   3.708
 1649SOL    HW1 5846   3.722   0.461   3.725
 1649SOL    HW2 5847   3.615   0.339   3.708
 1650SOL     OW 5848   2.453   6.618   4.136
 1650SOL    HW1 5849   2.383   6.681   4.170
 1650SOL    HW2 5850   2.511   6.665   4.070
 1651SOL     OW 5851   0.997   1.048   1.235
 1651SOL    HW1 5852   1.003   1.118   1.307
 1651SOL    HW2 5853   1.011   1.091   1.146
 1652SOL     OW 5854   1.316   2.650   2.022
 1652SOL    HW1 5855   1.302   2.621   1.927
 1652SOL    HW2 5856   1.413   2.645   2.044
 1653SOL     OW 5857   0.300   6.653   1.704
 1653SOL    HW1 5858   0.258   6.569   1.668
 1653SOL    HW2 5859   0.393   6.661   1.669
 1654SOL     OW 5860   6.721   2.516   1.894
 1654SOL    HW1 5861   6.774   2.440   1.855
 1654SOL    HW2 5862   6.775   2.561   1.964
 1655SOL     OW 5863   5.733   3.673   5.442
 1655SOL    HW1 5864   5.817   3.726   5.449
 1655SOL    HW2 5865   5.755   3.575   5.443
 1656SOL     OW 5866   1.743   4.451   3.240
 1656SOL    HW1 5867   1.760   4.506   3.159
 1656SOL    HW2 5868   1.648   4.418   3.239
 1657SOL     OW 5869   0.082   1.275   4.183
 1657SOL    HW1 5870   0.156   1.335   4.154
 1657SOL    HW2 5871   0.100   1.242   4.275
 1658SOL     OW 5872   0.561   0.357   3.067
 1658SOL    HW1 5873   0.475   0.331   3.111
 1658SOL    HW2 5874   0.546   0.369   2.969
 1659SOL     OW 5875   3.783   1.511   6.053
 1659SOL    HW1 5876   3.873   1.555   6.063
 1659SOL    HW2 5877   3.793   1.429   5.996
 1660SOL     OW 5878   1.485   4.906   3.997
 1660SOL    HW1 5879   1.534   4.855   4.068
 1660SOL    HW2 5880   1.506   5.004   4.007
 1661SOL     OW 5881   3.192   1.536   1.591
 1661SOL    HW1 5882   3.285   1.573   1.585
 1661SOL    HW2 5883   3.148   1.543   1.501
 1662SOL     OW 5884   6.518   1.279   3.830
 1662SOL    HW1 5885   6.475   1.346   3.769
 1662SOL    HW2 5886   6.449   1.216   3.865
 1663SOL     OW 5887   2.832   1.613   3.341
 1663SOL    HW1 5888   2.843   1.556   3.260
 1663SOL    HW2 5889   2.755   1.675   3.329
 1664SOL     OW 5890   1.663   0.218   3.773
 1664SOL    HW1 5891   1.620   0.224   3.683
 1664SOL    HW2 5892   1.638   0.298   3.827
 1665SOL     OW 5893   6.720   1.544   2.608
 1665SOL    HW1 5894   6.791   1.597   2.561
 1665SOL    HW2 5895   6.643   1.603   2.630
 1666SOL     OW 5896   6.024   3.736   0.589
 1666SOL    HW1 5897   6.108   3.771   0.547
 1666SOL    HW2 5898   5.950   3.801   0.573
 1667SOL     OW 5899   5.338   6.744   1.060
 1667SOL    HW1 5900   5.420   6.736   1.117
 1667SOL    HW2 5901   5.352   6.696   0.973
 1668SOL     OW 5902   5.167   6.003   5.961
 1668SOL    HW1 5903   5.086   5.971   6.010
 1668SOL    HW2 5904   5.249   5.979   6.014
 1669SOL     OW 5905   6.243   6.940   0.737
 1669SOL    HW1 5906   6.231   6.904   0.829
 1669SOL    HW2 5907   6.156   6.978   0.704
 1670SOL     OW 5908   0.177   5.663   6.364
 1670SOL    HW1 5909   0.227   5.737   6.319
 1670SOL    HW2 5910   0.132   5.606   6.296
 1671SOL     OW 5911   4.543   2.429   0.709
 1671SOL    HW1 5912   4.536   2.494   0.633
 1671SOL    HW2 5913   4.479   2.456   0.781
 1672SOL     OW 5914   2.098   4.040   2.424
 1672SOL    HW1 5915   2.064   4.134   2.418
 1672SOL    HW2 5916   2.130   4.010   2.335
 1673SOL     OW 5917   0.645   2.551   4.451
 1673SOL    HW1 5918   0.665   2.539   4.354
 1673SOL    HW2 5919   0.653   2.464   4.498
 1674SOL     OW 5920   0.744   3.896   1.534
 1674SOL    HW1 5921   0.668   3.918   1.473
 1674SOL    HW2 5922   0.776   3.980   1.579
 1675SOL     OW 5923   4.178   0.017   6.130
 1675SOL    HW1 5924   4.215   0.098   6.083
 1675SOL    HW2 5925   4.227   6.959   6.099
 1676SOL     OW 5926   3.511   1.065   2.089
 1676SOL    HW1 5927   3.596   1.116   2.107
 1676SOL    HW2 5928   3.461   1.109   2.014
 1677SOL     OW 5929   4.315   2.848   5.728
 1677SOL    HW1 5930   4.287   2.759   5.766
 1677SOL    HW2 5931   4.237   2.889   5.680
 1678SOL     OW 5932   5.070   4.709   4.270
 1678SOL    HW1 5933   4.999   4.679   4.333
 1678SOL    HW2 5934   5.045   4.799   4.232
 1679SOL     OW 5935   2.170   3.376   5.087
 1679SOL    HW1 5936   2.244   3.427   5.132
 1679SOL    HW2 5937   2.158   3.410   4.994
 1680SOL     OW 5938   0.955   1.739   4.003
 1680SOL    HW1 5939   0.906   1.826   3.997
 1680SOL    HW2 5940   1.052   1.754   3.984
 1681SOL     OW 5941   6.513   5.931   1.131
 1681SOL    HW1 5942   6.438   5.988   1.164
 1681SOL    HW2 5943   6.589   5.990   1.104
 1682SOL     OW 5944   0.030   2.809   4.528
 1682SOL    HW1 5945   0.012   2.825   4.431
 1682SOL    HW2 5946   0.105   2.744   4.539
 1683SOL     OW 5947   3.792   5.780   1.193
 1683SOL    HW1 5948   3.755   5.689   1.215
 1683SOL    HW2 5949   3.876   5.795   1.246
 1684SOL     OW 5950   1.405   5.956   2.855
 1684SOL    HW1 5951   1.370   5.919   2.941
 1684SOL    HW2 5952   1.330   5.969   2.791
 1685SOL     OW 5953   3.086   1.239   6.515
 1685SOL    HW1 5954   3.087   1.326   6.467
 1685SOL    HW2 5955   3.103   1.165   6.450
 1686SOL     OW 5956   1.921   5.078   5.491
 1686SOL    HW1 5957   1.958   4.988   5.513
 1686SOL    HW2 5958   1.951   5.104   5.399
 1687SOL     OW 5959   2.112   3.456   1.432
 1687SOL    HW1 5960   2.039   3.439   1.366
 1687SOL    HW2 5961   2.169   3.374   1.440
 1688SOL     OW 5962   1.360   2.483   3.631
 1688SOL    HW1 5963   1.437   2.486   3.694
 1688SOL    HW2 5964   1.283   2.533   3.669
 1689SOL     OW 5965   3.877   0.960   1.475
 1689SOL    HW1 5966   3.845   1.055   1.485
 1689SOL    HW2 5967   3.851   0.925   1.386
 1690SOL     OW 5968   1.367   2.631   3.395
 1690SOL    HW1 5969   1.275   2.641   3.432
 1690SOL    HW2 5970   1.428   2.598   3.467
 1691SOL     OW 5971   4.868   3.837   3.165
 1691SOL    HW1 5972   4.768   3.835   3.172
 1691SOL    HW2 5973   4.904   3.744   3.162
 1692SOL     OW 5974   6.852   6.838   1.488
 1692SOL    HW1 5975   6.846   6.850   1.389
 1692SOL    HW2 5976   6.850   6.927   1.534
 1693SOL     OW 5977   0.955   2.259   2.099
 1693SOL    HW1 5978   0.901   2.253   2.183
 1693SOL    HW2 5979   1.049   2.283   2.121
 1694SOL     OW 5980   4.688   6.555   4.377
 1694SOL    HW1 5981   4.642   6.642   4.396
 1694SOL    HW2 5982   4.677   6.493   4.454
 1695SOL     OW 5983   2.621   1.271   5.443
 1695SOL    HW1 5984   2.590   1.286   5.536
 1695SOL    HW2 5985   2.599   1.177   5.416
 1696SOL     OW 5986   5.576   5.251   0.485
 1696SOL    HW1 5987   5.521   5.262   0.568
 1696SOL    HW2 5988   5.641   5.327   0.478
 1697SOL     OW 5989   6.485   6.503   2.239
 1697SOL    HW1 5990   6.489   6.601   2.219
 1697SOL    HW2 5991   6.425   6.488   2.318
 1698SOL     OW 5992   4.366   1.201   0.539
 1698SOL    HW1 5993   4.386   1.289   0.497
 1698SOL    HW2 5994   4.388   1.205   0.637
 1699SOL     OW 5995   2.974   1.069   2.302
 1699SOL    HW1 5996   3.037   1.140   2.335
 1699SOL    HW2 5997   3.016   0.979   2.315
 1700SOL     OW 5998   6.188   1.975   3.690
 1700SOL    HW1 5999   6.142   1.986   3.778
 1700SOL    HW2 6000   6.287   1.981   3.703
 1701SOL     OW 6001   4.984   3.293   5.385
 1701SOL    HW1 6002   5.025   3.224   5.326
 1701SOL    HW2 6003   5.050   3.320   5.456
 1702SOL     OW 6004   7.013   3.564   0.646
 1702SOL    HW1 6005   6.972   3.504   0.577
 1702SOL    HW2 6006   0.087   3.577   0.625
 1703SOL     OW 6007   3.406   4.188   3.199
 1703SOL    HW1 6008   3.340   4.132   3.249
 1703SOL    HW2 6009   3.445   4.256   3.261
 1704SOL     OW 6010   0.783   1.255   1.180
 1704SOL    HW1 6011   0.720   1.177   1.174
 1704SOL    HW2 6012   0.765   1.306   1.264
 1705SOL     OW 6013   3.583   2.078   2.142
 1705SOL    HW1 6014   3.489   2.107   2.125
 1705SOL    HW2 6015   3.645   2.134   2.087
 1706SOL     OW 6016   4.177   6.747   1.383
 1706SOL    HW1 6017   4.272   6.776   1.369
 1706SOL    HW2 6018   4.156   6.673   1.320
 1707SOL     OW 6019   4.275   1.398   2.743
 1707SOL    HW1 6020   4.303   1.414   2.648
 1707SOL    HW2 6021   4.259   1.486   2.788
 1708SOL     OW 6022   5.203   5.733   2.010
 1708SOL    HW1 6023   5.118   5.777   2.040
 1708SOL    HW2 6024   5.281   5.780   2.050
 1709SOL     OW 6025   2.681   6.066   1.786
 1709SOL    HW1 6026   2.762   6.123   1.770
 1709SOL    HW2 6027   2.652   6.025   1.700
 1710SOL     OW 6028   5.925   4.526   3.963
 1710SOL    HW1 6029   5.856   4.525   4.036
 1710SOL    HW2 6030   6.015   4.546   4.003
 1711SOL     OW 6031   1.525   4.320   5.040
 1711SOL    HW1 6032   1.568   4.257   5.105
 1711SOL    HW2 6033   1.442   4.358   5.081
 1712SOL     OW 6034   1.142   3.055   6.675
 1712SOL    HW1 6035   1.118   3.044   6.772
 1712SOL    HW2 6036   1.189   3.142   6.662
 1713SOL     OW 6037   3.265   1.850   0.986
 1713SOL    HW1 6038   3.257   1.752   0.969
 1713SOL    HW2 6039   3.354   1.883   0.953
 1714SOL     OW 6040   4.366   1.811   6.073
 1714SOL    HW1 6041   4.375   1.714   6.054
 1714SOL    HW2 6042   4.280   1.828   6.121
 1715SOL     OW 6043   6.605   3.727   2.557
 1715SOL    HW1 6044   6.639   3.821   2.558
 1715SOL    HW2 6045   6.599   3.694   2.463
 1716SOL     OW 6046   4.966   0.004   1.573
 1716SOL    HW1 6047   4.968   0.068   1.650
 1716SOL    HW2 6048   4.879   0.013   1.524
 1717SOL     OW 6049   1.964   6.261   6.442
 1717SOL    HW1 6050   1.990   6.165   6.450
 1717SOL    HW2 6051   1.865   6.269   6.445
 1718SOL     OW 6052   1.910   1.549   0.918
 1718SOL    HW1 6053   2.001   1.554   0.959
 1718SOL    HW2 6054   1.912   1.590   0.827
 1719SOL     OW 6055   2.401   4.370   1.336
 1719SOL    HW1 6056   2.318   4.422   1.357
 1719SOL    HW2 6057   2.405   4.353   1.238
 1720SOL     OW 6058   0.034   1.304   1.603
 1720SOL    HW1 6059   7.021   1.287   1.511
 1720SOL    HW2 6060   0.120   1.355   1.595
 1721SOL     OW 6061   1.225   6.436   2.771
 1721SOL    HW1 6062   1.210   6.386   2.686
 1721SOL    HW2 6063   1.184   6.385   2.847
 1722SOL     OW 6064   5.131   1.297   3.922
 1722SOL    HW1 6065   5.213   1.304   3.865
 1722SOL    HW2 6066   5.067   1.233   3.879
 1723SOL     OW 6067   6.771   2.841   3.137
 1723SOL    HW1 6068   6.748   2.827   3.041
 1723SOL    HW2 6069   6.799   2.754   3.178
 1724SOL     OW 6070   5.665   1.682   0.813
 1724SOL    HW1 6071   5.665   1.582   0.815
 1724SOL    HW2 6072   5.572   1.716   0.832
 1725SOL     OW 6073   2.922   5.063   0.446
 1725SOL    HW1 6074   2.979   5.090   0.523
 1725SOL    HW2 6075   2.979   5.012   0.380
 1726SOL     OW 6076   7.007   4.384   5.628
 1726SOL    HW1 6077   6.962   4.469   5.605
 1726SOL    HW2 6078   0.082   4.393   5.612
 1727SOL     OW 6079   3.521   2.899   4.474
 1727SOL    HW1 6080   3.501   2.810   4.432
 1727SOL    HW2 6081   3.493   2.899   4.569
 1728SOL     OW 6082   5.577   5.479   4.829
 1728SOL    HW1 6083   5.605   5.446   4.919
 1728SOL    HW2 6084   5.481   5.509   4.832
 1729SOL     OW 6085   2.198   3.750   3.910
 1729SOL    HW1 6086   2.284   3.718   3.869
 1729SOL    HW2 6087   2.124   3.739   3.844
 1730SOL     OW 6088   6.713   0.631   4.520
 1730SOL    HW1 6089   6.625   0.680   4.519
 1730SOL    HW2 6090   6.713   0.562   4.447
 1731SOL     OW 6091   0.872   5.453   2.285
 1731SOL    HW1 6092   0.920   5.511   2.351
 1731SOL    HW2 6093   0.773   5.468   2.293
 1732SOL     OW 6094   2.328   4.428   6.335
 1732SOL    HW1 6095   2.396   4.432   6.408
 1732SOL    HW2 6096   2.270   4.347   6.347
 1733SOL     OW 6097   1.438   3.732   2.491
 1733SOL    HW1 6098   1.434   3.727   2.591
 1733SOL    HW2 6099   1.512   3.673   2.458
 1734SOL     OW 6100   4.912   3.107   1.792
 1734SOL    HW1 6101   4.848   3.137   1.722
 1734SOL    HW2 6102   4.862   3.076   1.873
 1735SOL     OW 6103   5.759   5.504   0.966
 1735SOL    HW1 6104   5.828   5.485   0.895
 1735SOL    HW2 6105   5.668   5.504   0.924
 1736SOL     OW 6106   4.847   1.866   0.603
 1736SOL    HW1 6107   4.864   1.806   0.682
 1736SOL    HW2 6108   4.908   1.841   0.529
 1737SOL     OW 6109   2.817   0.657   4.175
 1737SOL    HW1 6110   2.862   0.736   4.218
 1737SOL    HW2 6111   2.816   0.669   4.076
 1738SOL     OW 6112   1.955   2.343   4.074
 1738SOL    HW1 6113   2.053   2.322   4.084
 1738SOL    HW2 6114   1.907   2.260   4.043
 1739SOL     OW 6115   4.888   2.947   5.217
 1739SOL    HW1 6116   4.802   2.976   5.260
 1739SOL    HW2 6117   4.872   2.933   5.119
 1740SOL     OW 6118   0.292   1.848   6.879
 1740SOL    HW1 6119   0.314   1.751   6.871
 1740SOL    HW2 6120   0.302   1.892   6.789
 1741SOL     OW 6121   2.537   0.945   3.209
 1741SOL    HW1 6122   2.495   0.874   3.266
 1741SOL    HW2 6123   2.537   0.915   3.114
 1742SOL     OW 6124   4.202   5.984   5.797
 1742SOL    HW1 6125   4.239   6.067   5.839
 1742SOL    HW2 6126   4.225   5.905   5.854
 1743SOL     OW 6127   2.079   1.352   1.935
 1743SOL    HW1 6128   2.164   1.312   1.968
 1743SOL    HW2 6129   2.098   1.437   1.887
 1744SOL     OW 6130   0.601   6.902   1.794
 1744SOL    HW1 6131   0.674   6.893   1.862
 1744SOL    HW2 6132   0.513   6.884   1.838
 1745SOL     OW 6133   0.026   0.832   4.165
 1745SOL    HW1 6134   0.063   0.793   4.080
 1745SOL    HW2 6135   0.101   0.872   4.218
 1746SOL     OW 6136   2.002   5.160   5.221
 1746SOL    HW1 6137   2.093   5.177   5.258
 1746SOL    HW2 6138   1.954   5.247   5.209
 1747SOL     OW 6139   5.269   6.893   2.498
 1747SOL    HW1 6140   5.186   6.887   2.443
 1747SOL    HW2 6141   5.244   6.889   2.595
 1748SOL     OW 6142   7.011   0.612   3.391
 1748SOL    HW1 6143   0.039   0.527   3.399
 1748SOL    HW2 6144   6.927   0.605   3.445
 1749SOL     OW 6145   2.974   6.442   5.051
 1749SOL    HW1 6146   2.898   6.378   5.054
 1749SOL    HW2 6147   2.949   6.527   5.098
 1750SOL     OW 6148   5.998   0.795   3.802
 1750SOL    HW1 6149   6.008   0.728   3.729
 1750SOL    HW2 6150   5.902   0.800   3.830
 1751SOL     OW 6151   3.505   5.520   4.421
 1751SOL    HW1 6152   3.470   5.539   4.329
 1751SOL    HW2 6153   3.449   5.449   4.464
 1752SOL     OW 6154   6.630   2.075   2.360
 1752SOL    HW1 6155   6.587   2.159   2.326
 1752SOL    HW2 6156   6.640   2.081   2.459
 1753SOL     OW 6157   0.098   2.000   0.807
 1753SOL    HW1 6158   0.140   2.073   0.754
 1753SOL    HW2 6159   0.026   2.038   0.864
 1754SOL     OW 6160   3.268   3.450   1.798
 1754SOL    HW1 6161   3.190   3.404   1.755
 1754SOL    HW2 6162   3.333   3.480   1.728
 1755SOL     OW 6163   5.710   5.210   1.916
 1755SOL    HW1 6164   5.664   5.293   1.948
 1755SOL    HW2 6165   5.643   5.151   1.870
 1756SOL     OW 6166   4.202   4.505   6.506
 1756SOL    HW1 6167   4.121   4.475   6.456
 1756SOL    HW2 6168   4.176   4.574   6.573
 1757SOL     OW 6169   2.622   5.855   4.642
 1757SOL    HW1 6170   2.661   5.832   4.553
 1757SOL    HW2 6171   2.522   5.845   4.639
 1758SOL     OW 6172   2.072   0.483   3.500
 1758SOL    HW1 6173   2.091   0.492   3.403
 1758SOL    HW2 6174   2.156   0.495   3.552
 1759SOL     OW 6175   0.918   4.837   5.962
 1759SOL    HW1 6176   0.988   4.851   6.032
 1759SOL    HW2 6177   0.952   4.773   5.892
 1760SOL     OW 6178   6.860   1.332   1.810
 1760SOL    HW1 6179   6.937   1.288   1.764
 1760SOL    HW2 6180   6.893   1.402   1.874
 1761SOL     OW 6181   0.097   0.325   6.980
 1761SOL    HW1 6182   0.166   0.395   7.000
 1761SOL    HW2 6183   0.023   0.331   0.023
 1762SOL     OW 6184   6.128   1.541   5.316
 1762SOL    HW1 6185   6.164   1.492   5.237
 1762SOL    HW2 6186   6.204   1.568   5.375
 1763SOL     OW 6187   1.990   3.651   4.679
 1763SOL    HW1 6188   1.932   3.595   4.621
 1763SOL    HW2 6189   2.016   3.734   4.630
 1764SOL     OW 6190   1.344   4.089   2.551
 1764SOL    HW1 6191   1.324   4.010   2.608
 1764SOL    HW2 6192   1.443   4.100   2.542
 1765SOL     OW 6193   3.723   2.377   6.738
 1765SOL    HW1 6194   3.627   2.405   6.745
 1765SOL    HW2 6195   3.747   2.364   6.642
 1766SOL     OW 6196   4.951   3.365   3.954
 1766SOL    HW1 6197   4.903   3.453   3.956
 1766SOL    HW2 6198   4.970   3.339   3.859
 1767SOL     OW 6199   5.802   3.703   2.785
 1767SOL    HW1 6200   5.777   3.623   2.840
 1767SOL    HW2 6201   5.900   3.719   2.792
 1768SOL     OW 6202   3.632   1.490   4.591
 1768SOL    HW1 6203   3.731   1.500   4.576
 1768SOL    HW2 6204   3.585   1.574   4.564
 1769SOL     OW 6205   4.230   2.203   4.868
 1769SOL    HW1 6206   4.221   2.210   4.769
 1769SOL    HW2 6207   4.240   2.295   4.907
 1770SOL     OW 6208   0.766   5.386   4.556
 1770SOL    HW1 6209   0.833   5.460   4.554
 1770SOL    HW2 6210   0.677   5.422   4.583
 1771SOL     OW 6211   2.797   5.377   0.327
 1771SOL    HW1 6212   2.698   5.387   0.323
 1771SOL    HW2 6213   2.831   5.413   0.414
 1772SOL     OW 6214   3.200   0.007   3.511
 1772SOL    HW1 6215   3.142   6.949   3.519
 1772SOL    HW2 6216   3.175   0.058   3.428
 1773SOL     OW 6217   2.705   4.972   6.264
 1773SOL    HW1 6218   2.670   4.893   6.213
 1773SOL    HW2 6219   2.721   5.048   6.201
 1774SOL     OW 6220   4.337   6.467   1.665
 1774SOL    HW1 6221   4.378   6.377   1.677
 1774SOL    HW2 6222   4.262   6.479   1.730
 1775SOL     OW 6223   1.044   4.898   4.277
 1775SOL    HW1 6224   1.008   4.853   4.359
 1775SOL    HW2 6225   1.126   4.850   4.246
 1776SOL     OW 6226   3.109   0.283   3.765
 1776SOL    HW1 6227   3.195   0.259   3.811
 1776SOL    HW2 6228   3.047   0.205   3.767
 1777SOL     OW 6229   3.021   5.147   5.703
 1777SOL    HW1 6230   2.982   5.237   5.684
 1777SOL    HW2 6231   3.098   5.130   5.641
 1778SOL     OW 6232   4.563   3.203   5.670
 1778SOL    HW1 6233   4.554   3.129   5.736
 1778SOL    HW2 6234   4.637   3.182   5.605
 1779SOL     OW 6235   4.103   1.040   4.671
 1779SOL    HW1 6236   4.118   1.129   4.627
 1779SOL    HW2 6237   4.009   1.010   4.652
 1780SOL     OW 6238   3.377   3.492   6.168
 1780SOL    HW1 6239   3.454   3.556   6.170
 1780SOL    HW2 6240   3.356   3.469   6.073
 1781SOL     OW 6241   4.673   5.710   3.586
 1781SOL    HW1 6242   4.700   5.636   3.648
 1781SOL    HW2 6243   4.750   5.773   3.575
 1782SOL     OW 6244   3.622   1.549   2.467
 1782SOL    HW1 6245   3.721   1.562   2.468
 1782SOL    HW2 6246   3.577   1.638   2.457
 1783SOL     OW 6247   1.528   4.835   6.350
 1783SOL    HW1 6248   1.589   4.775   6.299
 1783SOL    HW2 6249   1.512   4.797   6.442
 1784SOL     OW 6250   3.842   1.281   5.913
 1784SOL    HW1 6251   3.876   1.201   5.963
 1784SOL    HW2 6252   3.779   1.251   5.841
 1785SOL     OW 6253   6.294   4.997   3.587
 1785SOL    HW1 6254   6.244   5.037   3.664
 1785SOL    HW2 6255   6.326   5.070   3.526
 1786SOL     OW 6256   1.189   2.264   1.163
 1786SOL    HW1 6257   1.251   2.332   1.122
 1786SOL    HW2 6258   1.098   2.274   1.123
 1787SOL     OW 6259   2.496   0.994   5.001
 1787SOL    HW1 6260   2.407   0.960   5.031
 1787SOL    HW2 6261   2.520   1.075   5.055
 1788SOL     OW 6262   3.548   3.111   0.130
 1788SOL    HW1 6263   3.510   3.181   0.190
 1788SOL    HW2 6264   3.561   3.026   0.182
 1789SOL     OW 6265   6.436   2.272   3.470
 1789SOL    HW1 6266   6.350   2.271   3.522
 1789SOL    HW2 6267   6.444   2.359   3.421
 1790SOL     OW 6268   4.001   5.899   4.098
 1790SOL    HW1 6269   3.957   5.899   4.008
 1790SOL    HW2 6270   4.013   5.993   4.129
 1791SOL     OW 6271   6.872   0.841   3.735
 1791SOL    HW1 6272   6.963   0.867   3.703
 1791SOL    HW2 6273   6.826   0.922   3.773
 1792SOL     OW 6274   0.142   3.158   4.416
 1792SOL    HW1 6275   0.045   3.140   4.433
 1792SOL    HW2 6276   0.153   3.189   4.321
 1793SOL     OW 6277   6.725   6.727   3.666
 1793SOL    HW1 6278   6.677   6.697   3.748
 1793SOL    HW2 6279   6.777   6.651   3.627
 1794SOL     OW 6280   5.846   6.127   6.096
 1794SOL    HW1 6281   5.866   6.111   5.999
 1794SOL    HW2 6282   5.750   6.152   6.106
 1795SOL     OW 6283   1.186   2.715   1.228
 1795SOL    HW1 6284   1.253   2.726   1.156
 1795SOL    HW2 6285   1.134   2.630   1.214
 1796SOL     OW 6286   2.336   0.521   4.247
 1796SOL    HW1 6287   2.296   0.545   4.159
 1796SOL    HW2 6288   2.430   0.555   4.251
 1797SOL     OW 6289   1.447   0.464   6.890
 1797SOL    HW1 6290   1.372   0.510   6.843
 1797SOL    HW2 6291   1.497   0.408   6.824
 1798SOL     OW 6292   5.224   1.895   4.271
 1798SOL    HW1 6293   5.289   1.966   4.298
 1798SOL    HW2 6294   5.173   1.925   4.191
 1799SOL     OW 6295   6.332   1.867   5.876
 1799SOL    HW1 6296   6.308   1.957   5.839
 1799SOL    HW2 6297   6.432   1.860   5.882
 1800SOL     OW 6298   3.949   4.812   2.381
 1800SOL    HW1 6299   4.030   4.756   2.371
 1800SOL    HW2 6300   3.907   4.827   2.291
 1801SOL     OW 6301   0.151   0.748   2.125
 1801SOL    HW1 6302   0.089   0.793   2.189
 1801SOL    HW2 6303   0.167   0.808   2.047
 1802SOL     OW 6304   5.623   5.326   2.834
 1802SOL    HW1 6305   5.602   5.238   2.877
 1802SOL    HW2 6306   5.570   5.398   2.879
 1803SOL     OW 6307   0.416   6.418   6.534
 1803SOL    HW1 6308   0.444   6.494   6.592
 1803SOL    HW2 6309   0.472   6.416   6.452
 1804SOL     OW 6310   2.169   3.837   5.359
 1804SOL    HW1 6311   2.251   3.894   5.366
 1804SOL    HW2 6312   2.129   3.825   5.449
 1805SOL     OW 6313   6.352   4.301   5.549
 1805SOL    HW1 6314   6.440   4.345   5.570
 1805SOL    HW2 6315   6.326   4.241   5.625
 1806SOL     OW 6316   0.937   0.656   0.494
 1806SOL    HW1 6317   0.895   0.607   0.571
 1806SOL    HW2 6318   1.031   0.624   0.481
 1807SOL     OW 6319   4.955   2.533   5.424
 1807SOL    HW1 6320   4.858   2.522   5.400
 1807SOL    HW2 6321   5.000   2.590   5.356
 1808SOL     OW 6322   0.593   4.077   6.022
 1808SOL    HW1 6323   0.561   3.993   5.977
 1808SOL    HW2 6324   0.691   4.070   6.038
 1809SOL     OW 6325   2.213   2.492   4.487
 1809SOL    HW1 6326   2.304   2.518   4.519
 1809SOL    HW2 6327   2.149   2.567   4.505
 1810SOL     OW 6328   2.870   0.081   3.569
 1810SOL    HW1 6329   2.903   0.171   3.540
 1810SOL    HW2 6330   2.910   0.010   3.510
 1811SOL     OW 6331   5.246   4.595   3.741
 1811SOL    HW1 6332   5.197   4.516   3.706
 1811SOL    HW2 6333   5.319   4.564   3.802
 1812SOL     OW 6334   4.294   6.078   5.062
 1812SOL    HW1 6335   4.281   6.042   4.969
 1812SOL    HW2 6336   4.280   6.177   5.061
 1813SOL     OW 6337   6.495   5.097   0.848
 1813SOL    HW1 6338   6.547   5.128   0.768
 1813SOL    HW2 6339   6.468   5.176   0.903
 1814SOL     OW 6340   6.423   1.687   0.342
 1814SOL    HW1 6341   6.437   1.633   0.426
 1814SOL    HW2 6342   6.500   1.672   0.280
 1815SOL     OW 6343   5.882   1.921   2.258
 1815SOL    HW1 6344   5.823   1.996   2.287
 1815SOL    HW2 6345   5.905   1.931   2.161
 1816SOL     OW 6346   2.489   3.687   0.964
 1816SOL    HW1 6347   2.490   3.754   1.037
 1816SOL    HW2 6348   2.577   3.689   0.915
 1817SOL     OW 6349   3.750   0.257   2.887
 1817SOL    HW1 6350   3.705   0.321   2.825
 1817SOL    HW2 6351   3.843   0.288   2.906
 1818SOL     OW 6352   1.965   6.241   2.947
 1818SOL    HW1 6353   1.916   6.154   2.956
 1818SOL    HW2 6354   2.036   6.232   2.877
 1819SOL     OW 6355   0.701   5.109   1.642
 1819SOL    HW1 6356   0.685   5.072   1.550
 1819SOL    HW2 6357   0.711   5.208   1.637
 1820SOL     OW 6358   5.126   0.898   1.951
 1820SOL    HW1 6359   5.041   0.907   2.003
 1820SOL    HW2 6360   5.108   0.849   1.866
 1821SOL     OW 6361   1.142   0.750   2.096
 1821SOL    HW1 6362   1.231   0.796   2.106
 1821SOL    HW2 6363   1.148   0.658   2.134
 1822SOL     OW 6364   2.421   2.809   1.508
 1822SOL    HW1 6365   2.351   2.873   1.475
 1822SOL    HW2 6366   2.405   2.789   1.604
 1823SOL     OW 6367   3.085   5.969   3.078
 1823SOL    HW1 6368   3.175   5.933   3.103
 1823SOL    HW2 6369   3.038   6.000   3.160
 1824SOL     OW 6370   3.078   2.617   1.744
 1824SOL    HW1 6371   3.046   2.579   1.831
 1824SOL    HW2 6372   3.082   2.545   1.675
 1825SOL     OW 6373   1.397   1.375   3.402
 1825SOL    HW1 6374   1.454   1.366   3.320
 1825SOL    HW2 6375   1.442   1.329   3.479
 1826SOL     OW 6376   3.105   0.018   1.182
 1826SOL    HW1 6377   3.066   0.027   1.090
 1826SOL    HW2 6378   3.151   6.953   1.189
 1827SOL     OW 6379   6.603   5.994   1.868
 1827SOL    HW1 6380   6.672   6.028   1.805
 1827SOL    HW2 6381   6.566   5.907   1.835
 1828SOL     OW 6382   1.314   2.323   0.687
 1828SOL    HW1 6383   1.360   2.333   0.775
 1828SOL    HW2 6384   1.308   2.412   0.642
 1829SOL     OW 6385   3.760   0.251   3.354
 1829SOL    HW1 6386   3.678   0.302   3.328
 1829SOL    HW2 6387   3.745   0.154   3.336
 1830SOL     OW 6388   6.182   5.675   3.874
 1830SOL    HW1 6389   6.249   5.623   3.926
 1830SOL    HW2 6390   6.225   5.759   3.840
 1831SOL     OW 6391   6.162   0.170   1.821
 1831SOL    HW1 6392   6.078   0.208   1.783
 1831SOL    HW2 6393   6.220   0.244   1.855
 1832SOL     OW 6394   5.420   1.137   1.087
 1832SOL    HW1 6395   5.425   1.037   1.087
 1832SOL    HW2 6396   5.343   1.167   1.144
 1833SOL     OW 6397   5.395   0.397   5.710
 1833SOL    HW1 6398   5.441   0.381   5.623
 1833SOL    HW2 6399   5.406   0.492   5.737
 1834SOL     OW 6400   2.536   4.176   0.479
 1834SOL    HW1 6401   2.636   4.185   0.478
 1834SOL    HW2 6402   2.507   4.137   0.566
 1835SOL     OW 6403   1.445   3.988   1.367
 1835SOL    HW1 6404   1.489   4.044   1.297
 1835SOL    HW2 6405   1.346   3.995   1.358
 1836SOL     OW 6406   5.249   1.606   1.165
 1836SOL    HW1 6407   5.234   1.568   1.074
 1836SOL    HW2 6408   5.163   1.605   1.216
 1837SOL     OW 6409   0.926   2.327   4.375
 1837SOL    HW1 6410   0.937   2.424   4.396
 1837SOL    HW2 6411   1.010   2.278   4.397
 1838SOL     OW 6412   0.065   1.907   4.322
 1838SOL    HW1 6413   7.024   1.904   4.398
 1838SOL    HW2 6414   0.055   1.824   4.267
 1839SOL     OW 6415   5.195   2.788   5.041
 1839SOL    HW1 6416   5.167   2.704   5.088
 1839SOL    HW2 6417   5.284   2.774   4.998
 1840SOL     OW 6418   3.452   5.799   1.387
 1840SOL    HW1 6419   3.525   5.776   1.452
 1840SOL    HW2 6420   3.395   5.718   1.371
 1841SOL     OW 6421   2.431   1.710   4.280
 1841SOL    HW1 6422   2.454   1.621   4.320
 1841SOL    HW2 6423   2.332   1.722   4.281
 1842SOL     OW 6424   0.753   5.509   0.498
 1842SOL    HW1 6425   0.851   5.491   0.498
 1842SOL    HW2 6426   0.720   5.515   0.593
 1843SOL     OW 6427   0.120   2.151   4.180
 1843SOL    HW1 6428   0.107   2.088   4.257
 1843SOL    HW2 6429   0.062   2.121   4.103
 1844SOL     OW 6430   3.942   0.334   5.475
 1844SOL    HW1 6431   3.873   0.383   5.422
 1844SOL    HW2 6432   3.899   0.254   5.519
 1845SOL     OW 6433   1.985   6.764   4.714
 1845SOL    HW1 6434   1.917   6.837   4.716
 1845SOL    HW2 6435   1.950   6.684   4.763
 1846SOL     OW 6436   4.045   2.422   0.107
 1846SOL    HW1 6437   4.134   2.459   0.081
 1846SOL    HW2 6438   4.000   2.385   0.026
 1847SOL     OW 6439   1.124   0.553   5.900
 1847SOL    HW1 6440   1.103   0.503   5.984
 1847SOL    HW2 6441   1.155   0.645   5.923
 1848SOL     OW 6442   0.585   6.707   2.711
 1848SOL    HW1 6443   0.549   6.799   2.693
 1848SOL    HW2 6444   0.674   6.698   2.668
 1849SOL     OW 6445   3.522   1.979   0.956
 1849SOL    HW1 6446   3.615   1.986   0.922
 1849SOL    HW2 6447   3.463   2.042   0.906
 1850SOL     OW 6448   0.278   3.385   2.514
 1850SOL    HW1 6449   0.184   3.370   2.485
 1850SOL    HW2 6450   0.330   3.300   2.501
 1851SOL     OW 6451   0.561   2.238   1.412
 1851SOL    HW1 6452   0.611   2.157   1.382
 1851SOL    HW2 6453   0.535   2.228   1.508
 1852SOL     OW 6454   5.919   3.842   1.883
 1852SOL    HW1 6455   5.837   3.804   1.840
 1852SOL    HW2 6456   5.946   3.925   1.835
 1853SOL     OW 6457   0.298   3.170   3.136
 1853SOL    HW1 6458   0.308   3.074   3.110
 1853SOL    HW2 6459   0.244   3.176   3.220
 1854SOL     OW 6460   2.477   6.329   3.395
 1854SOL    HW1 6461   2.388   6.369   3.371
 1854SOL    HW2 6462   2.463   6.245   3.447
 1855SOL     OW 6463   5.088   4.025   6.690
 1855SOL    HW1 6464   5.055   3.935   6.719
 1855SOL    HW2 6465   5.148   4.063   6.762
 1856SOL     OW 6466   6.579   3.748   5.281
 1856SOL    HW1 6467   6.532   3.745   5.193
 1856SOL    HW2 6468   6.541   3.822   5.337
 1857SOL     OW 6469   4.070   1.031   5.894
 1857SOL    HW1 6470   4.032   0.997   5.980
 1857SOL    HW2 6471   4.018   0.993   5.818
 1858SOL     OW 6472   6.045   3.208   3.520
 1858SOL    HW1 6473   5.968   3.270   3.503
 1858SOL    HW2 6474   6.066   3.158   3.436
 1859SOL     OW 6475   4.269   1.631   3.464
 1859SOL    HW1 6476   4.273   1.532   3.474
 1859SOL    HW2 6477   4.256   1.655   3.367
 1860SOL     OW 6478   6.699   0.671   3.966
 1860SOL    HW1 6479   6.723   0.694   4.060
 1860SOL    HW2 6480   6.642   0.589   3.965
 1861SOL     OW 6481   5.460   0.290   2.347
 1861SOL    HW1 6482   5.382   0.231   2.368
 1861SOL    HW2 6483   5.544   0.248   2.383
 1862SOL     OW 6484   2.661   0.625   6.417
 1862SOL    HW1 6485   2.665   0.568   6.335
 1862SOL    HW2 6486   2.688   0.719   6.394
 1863SOL     OW 6487   1.866   1.262   0.914
 1863SOL    HW1 6488   1.879   1.361   0.911
 1863SOL    HW2 6489   1.924   1.219   0.845
 1864SOL     OW 6490   0.906   6.591   5.962
 1864SOL    HW1 6491   0.873   6.543   6.044
 1864SOL    HW2 6492   0.948   6.677   5.989
 1865SOL     OW 6493   3.519   0.215   6.094
 1865SOL    HW1 6494   3.512   0.309   6.060
 1865SOL    HW2 6495   3.601   0.207   6.151
 1866SOL     OW 6496   3.965   4.848   3.279
 1866SOL    HW1 6497   3.991   4.757   3.312
 1866SOL    HW2 6498   3.956   4.910   3.356
 1867SOL     OW 6499   0.436   3.726   6.843
 1867SOL    HW1 6500   0.337   3.717   6.850
 1867SOL    HW2 6501   0.472   3.768   6.927
 1868SOL     OW 6502   4.590   4.475   0.003
 1868SOL    HW1 6503   4.545   4.484   0.091
 1868SOL    HW2 6504   4.528   4.433   6.961
 1869SOL     OW 6505   6.121   2.515   5.472
 1869SOL    HW1 6506   6.072   2.428   5.483
 1869SOL    HW2 6507   6.152   2.546   5.561
 1870SOL     OW 6508   2.160   2.905   5.735
 1870SOL    HW1 6509   2.202   2.834   5.792
 1870SOL    HW2 6510   2.095   2.958   5.790
 1871SOL     OW 6511   0.301   0.870   6.950
 1871SOL    HW1 6512   0.251   0.802   7.004
 1871SOL    HW2 6513   0.297   0.958   6.995
 1872SOL     OW 6514   3.527   2.566   6.853
 1872SOL    HW1 6515   3.572   2.584   6.940
 1872SOL    HW2 6516   3.448   2.626   6.844
 1873SOL     OW 6517   4.815   1.853   6.028
 1873SOL    HW1 6518   4.778   1.840   5.936
 1873SOL    HW2 6519   4.915   1.854   6.023
 1874SOL     OW 6520   3.687   1.193   1.110
 1874SOL    HW1 6521   3.755   1.266   1.107
 1874SOL    HW2 6522   3.642   1.192   1.199
 1875SOL     OW 6523   0.313   1.179   0.283
 1875SOL    HW1 6524   0.301   1.178   0.184
 1875SOL    HW2 6525   0.224   1.174   0.327
 1876SOL     OW 6526   3.982   6.906   6.006
 1876SOL    HW1 6527   3.976   6.810   6.033
 1876SOL    HW2 6528   4.026   6.958   6.079
 1877SOL     OW 6529   0.437   0.081   2.607
 1877SOL    HW1 6530   0.421   0.179   2.609
 1877SOL    HW2 6531   0.357   0.033   2.643
 1878SOL     OW 6532   6.937   2.029   3.621
 1878SOL    HW1 6533   6.884   2.079   3.553
 1878SOL    HW2 6534   6.896   1.938   3.634
 1879SOL     OW 6535   1.475   4.462   4.102
 1879SOL    HW1 6536   1.541   4.391   4.128
 1879SOL    HW2 6537   1.516   4.552   4.119
 1880SOL     OW 6538   6.927   1.904   4.547
 1880SOL    HW1 6539   6.855   1.860   4.600
 1880SOL    HW2 6540   6.895   1.992   4.513
 1881SOL     OW 6541   5.703   1.827   3.339
 1881SOL    HW1 6542   5.651   1.869   3.414
 1881SOL    HW2 6543   5.772   1.765   3.377
 1882SOL     OW 6544   1.389   3.986   6.251
 1882SOL    HW1 6545   1.438   4.012   6.335
 1882SOL    HW2 6546   1.455   3.969   6.178
 1883SOL     OW 6547   0.157   1.856   3.465
 1883SOL    HW1 6548   0.138   1.806   3.549
 1883SOL    HW2 6549   0.215   1.801   3.406
 1884SOL     OW 6550   0.170   2.480   0.844
 1884SOL    HW1 6551   0.129   2.564   0.807
 1884SOL    HW2 6552   0.149   2.473   0.941
 1885SOL     OW 6553   1.871   2.336   6.467
 1885SOL    HW1 6554   1.860   2.238   6.453
 1885SOL    HW2 6555   1.952   2.368   6.418
 1886SOL     OW 6556   1.656   0.962   1.583
 1886SOL    HW1 6557   1.729   1.011   1.630
 1886SOL    HW2 6558   1.680   0.865   1.576
 1887SOL     OW 6559   1.225   6.160   4.948
 1887SOL    HW1 6560   1.144   6.113   4.981
 1887SOL    HW2 6561   1.303   6.137   5.007
 1888SOL     OW 6562   3.188   2.132   0.105
 1888SOL    HW1 6563   3.287   2.119   0.107
 1888SOL    HW2 6564   3.144   2.064   0.164
 1889SOL     OW 6565   0.099   2.818   5.942
 1889SOL    HW1 6566   0.145   2.884   5.882
 1889SOL    HW2 6567   0.025   2.864   5.991
 1890SOL     OW 6568   1.760   6.114   4.167
 1890SOL    HW1 6569   1.715   6.152   4.248
 1890SOL    HW2 6570   1.693   6.102   4.094
 1891SOL     OW 6571   5.625   2.634   2.049
 1891SOL    HW1 6572   5.666   2.725   2.039
 1891SOL    HW2 6573   5.568   2.613   1.970
 1892SOL     OW 6574   2.118   0.563   2.472
 1892SOL    HW1 6575   2.182   0.622   2.522
 1892SOL    HW2 6576   2.164   0.478   2.445
 1893SOL     OW 6577   3.184   3.764   1.001
 1893SOL    HW1 6578   3.274   3.777   1.044
 1893SOL    HW2 6579   3.130   3.700   1.055
 1894SOL     OW 6580   3.344   4.079   3.862
 1894SOL    HW1 6581   3.424   4.132   3.834
 1894SOL    HW2 6582   3.339   4.078   3.962
 1895SOL     OW 6583   4.628   0.534   1.683
 1895SOL    HW1 6584   4.599   0.614   1.630
 1895SOL    HW2 6585   4.573   0.527   1.766
 1896SOL     OW 6586   5.288   1.169   1.472
 1896SOL    HW1 6587   5.376   1.213   1.486
 1896SOL    HW2 6588   5.221   1.208   1.535
 1897SOL     OW 6589   2.031   5.640   1.383
 1897SOL    HW1 6590   2.011   5.639   1.481
 1897SOL    HW2 6591   1.958   5.594   1.333
 1898SOL     OW 6592   2.459   5.618   3.705
 1898SOL    HW1 6593   2.470   5.527   3.746
 1898SOL    HW2 6594   2.487   5.616   3.609
 1899SOL     OW 6595   0.360   1.805   1.595
 1899SOL    HW1 6596   0.412   1.720   1.588
 1899SOL    HW2 6597   0.374   1.860   1.513
 1900SOL     OW 6598   2.085   0.292   7.020
 1900SOL    HW1 6599   2.109   0.389   7.018
 1900SOL    HW2 6600   2.169   0.238   7.021
 1901SOL     OW 6601   1.927   1.902   0.769
 1901SOL    HW1 6602   1.974   1.863   0.690
 1901SOL    HW2 6603   1.973   1.985   0.799
 1902SOL     OW 6604   1.925   0.917   5.249
 1902SOL    HW1 6605   1.963   0.825   5.261
 1902SOL    HW2 6606   1.851   0.931   5.316
 1903SOL     OW 6607   0.464   3.682   2.703
 1903SOL    HW1 6608   0.541   3.680   2.767
 1903SOL    HW2 6609   0.420   3.771   2.707
 1904SOL     OW 6610   5.677   5.308   3.470
 1904SOL    HW1 6611   5.596   5.368   3.463
 1904SOL    HW2 6612   5.757   5.364   3.490
 1905SOL     OW 6613   1.036   0.143   3.477
 1905SOL    HW1 6614   1.135   0.133   3.462
 1905SOL    HW2 6615   0.995   0.188   3.398
 1906SOL     OW 6616   1.816   0.135   4.550
 1906SOL    HW1 6617   1.753   0.185   4.608
 1906SOL    HW2 6618   1.774   0.120   4.460
 1907SOL     OW 6619   3.802   1.604   1.824
 1907SOL    HW1 6620   3.755   1.552   1.753
 1907SOL    HW2 6621   3.745   1.609   1.906
 1908SOL     OW 6622   3.679   6.641   5.723
 1908SOL    HW1 6623   3.773   6.656   5.693
 1908SOL    HW2 6624   3.664   6.686   5.812
 1909SOL     OW 6625   1.003   3.582   2.960
 1909SOL    HW1 6626   1.028   3.667   2.915
 1909SOL    HW2 6627   0.906   3.562   2.943
 1910SOL     OW 6628   0.094   5.582   6.122
 1910SOL    HW1 6629   0.025   5.608   6.055
 1910SOL    HW2 6630   0.175   5.640   6.110
 1911SOL     OW 6631   0.164   3.755   4.998
 1911SOL    HW1 6632   0.249   3.750   5.052
 1911SOL    HW2 6633   0.087   3.772   5.059
 1912SOL     OW 6634   3.229   5.802   1.131
 1912SOL    HW1 6635   3.253   5.860   1.053
 1912SOL    HW2 6636   3.150   5.841   1.179
 1913SOL     OW 6637   2.338   0.259   4.715
 1913SOL    HW1 6638   2.350   0.216   4.625
 1913SOL    HW2 6639   2.369   0.354   4.711
 1914SOL     OW 6640   4.206   3.186   6.467
 1914SOL    HW1 6641   4.170   3.098   6.436
 1914SOL    HW2 6642   4.184   3.256   6.399
 1915SOL     OW 6643   3.712   2.444   5.559
 1915SOL    HW1 6644   3.753   2.524   5.515
 1915SOL    HW2 6645   3.624   2.470   5.599
 1916SOL     OW 6646   3.996   5.668   1.528
 1916SOL    HW1 6647   4.058   5.741   1.499
 1916SOL    HW2 6648   4.004   5.591   1.465
 1917SOL     OW 6649   2.314   2.932   6.693
 1917SOL    HW1 6650   2.369   2.873   6.754
 1917SOL    HW2 6651   2.331   3.028   6.716
 1918SOL     OW 6652   1.402   1.711   4.666
 1918SOL    HW1 6653   1.463   1.643   4.706
 1918SOL    HW2 6654   1.381   1.781   4.734
 1919SOL     OW 6655   1.492   1.586   1.959
 1919SOL    HW1 6656   1.454   1.670   1.920
 1919SOL    HW2 6657   1.591   1.585   1.948
 1920SOL     OW 6658   0.426   3.980   2.934
 1920SOL    HW1 6659   0.481   3.914   2.987
 1920SOL    HW2 6660   0.357   3.931   2.881
 1921SOL     OW 6661   1.817   3.573   6.874
 1921SOL    HW1 6662   1.888   3.561   6.805
 1921SOL    HW2 6663   1.849   3.636   6.945
 1922SOL     OW 6664   2.972   3.666   1.572
 1922SOL    HW1 6665   3.064   3.705   1.576
 1922SOL    HW2 6666   2.936   3.655   1.665
 1923SOL     OW 6667   4.134   1.840   6.258
 1923SOL    HW1 6668   4.141   1.913   6.326
 1923SOL    HW2 6669   4.100   1.757   6.302
 1924SOL     OW 6670   4.437   6.395   0.091
 1924SOL    HW1 6671   4.392   6.322   0.040
 1924SOL    HW2 6672   4.440   6.478   0.035
 1925SOL     OW 6673   1.042   4.606   0.879
 1925SOL    HW1 6674   1.139   4.592   0.861
 1925SOL    HW2 6675   0.988   4.574   0.800
 1926SOL     OW 6676   3.144   6.527   2.805
 1926SOL    HW1 6677   3.062   6.572   2.770
 1926SOL    HW2 6678   3.134   6.428   2.799
 1927SOL     OW 6679   2.408   4.815   0.320
 1927SOL    HW1 6680   2.389   4.913   0.325
 1927SOL    HW2 6681   2.486   4.799   0.260
 1928SOL     OW 6682   6.145   4.245   4.795
 1928SOL    HW1 6683   6.223   4.204   4.841
 1928SOL    HW2 6684   6.083   4.173   4.763
 1929SOL     OW 6685   2.820   0.287   1.426
 1929SOL    HW1 6686   2.751   0.341   1.379
 1929SOL    HW2 6687   2.784   0.195   1.444
 1930SOL     OW 6688   5.584   3.682   6.639
 1930SOL    HW1 6689   5.532   3.685   6.554
 1930SOL    HW2 6690   5.575   3.769   6.687
 1931SOL     OW 6691   0.904   2.392   0.697
 1931SOL    HW1 6692   0.881   2.296   0.708
 1931SOL    HW2 6693   0.915   2.413   0.599
 1932SOL     OW 6694   4.836   2.694   3.465
 1932SOL    HW1 6695   4.802   2.787   3.482
 1932SOL    HW2 6696   4.812   2.636   3.543
 1933SOL     OW 6697   1.405   3.220   0.724
 1933SOL    HW1 6698   1.363   3.230   0.633
 1933SOL    HW2 6699   1.405   3.308   0.770
 1934SOL     OW 6700   0.037   1.631   4.956
 1934SOL    HW1 6701   0.127   1.635   4.999
 1934SOL    HW2 6702   7.021   1.723   4.953
 1935SOL     OW 6703   4.959   4.756   3.388
 1935SOL    HW1 6704   4.942   4.855   3.380
 1935SOL    HW2 6705   4.877   4.711   3.423
 1936SOL     OW 6706   4.898   4.050   3.838
 1936SOL    HW1 6707   4.944   4.056   3.749
 1936SOL    HW2 6708   4.801   4.075   3.826
 1937SOL     OW 6709   3.798   6.261   6.993
 1937SOL    HW1 6710   3.792   6.341   0.029
 1937SOL    HW2 6711   3.894   6.241   6.974
 1938SOL     OW 6712   1.742   2.085   1.068
 1938SOL    HW1 6713   1.664   2.028   1.093
 1938SOL    HW2 6714   1.813   2.029   1.027
 1939SOL     OW 6715   6.595   6.691   4.810
 1939SOL    HW1 6716   6.531   6.625   4.847
 1939SOL    HW2 6717   6.611   6.672   4.714
 1940SOL     OW 6718   6.072   4.563   1.448
 1940SOL    HW1 6719   6.163   4.598   1.472
 1940SOL    HW2 6720   6.082   4.476   1.398
 1941SOL     OW 6721   1.627   2.803   3.959
 1941SOL    HW1 6722   1.577   2.837   4.039
 1941SOL    HW2 6723   1.725   2.816   3.974
 1942SOL     OW 6724   5.463   2.937   2.578
 1942SOL    HW1 6725   5.459   2.985   2.491
 1942SOL    HW2 6726   5.517   2.990   2.643
 1943SOL     OW 6727   1.660   0.344   3.000
 1943SOL    HW1 6728   1.613   0.281   3.062
 1943SOL    HW2 6729   1.742   0.300   2.964
 1944SOL     OW 6730   5.934   3.965   0.484
 1944SOL    HW1 6731   5.864   3.992   0.418
 1944SOL    HW2 6732   6.014   4.024   0.474
 1945SOL     OW 6733   3.786   5.811   7.005
 1945SOL    HW1 6734   3.736   5.878   0.037
 1945SOL    HW2 6735   3.739   5.723   7.010
 1946SOL     OW 6736   5.760   0.383   0.981
 1946SOL    HW1 6737   5.697   0.423   0.914
 1946SOL    HW2 6738   5.846   0.361   0.936
 1947SOL     OW 6739   5.573   5.919   3.843
 1947SOL    HW1 6740   5.651   5.951   3.789
 1947SOL    HW2 6741   5.602   5.907   3.938
 1948SOL     OW 6742   6.143   5.238   2.792
 1948SOL    HW1 6743   6.160   5.182   2.711
 1948SOL    HW2 6744   6.093   5.320   2.766
 1949SOL     OW 6745   4.034   3.243   0.007
 1949SOL    HW1 6746   4.091   3.183   6.976
 1949SOL    HW2 6747   3.974   3.296   6.971
 1950SOL     OW 6748   3.611   2.998   2.848
 1950SOL    HW1 6749   3.570   3.089   2.853
 1950SOL    HW2 6750   3.673   2.993   2.770
 1951SOL     OW 6751   0.022   4.618   6.244
 1951SOL    HW1 6752   6.983   4.631   6.321
 1951SOL    HW2 6753   0.019   4.522   6.216
 1952SOL     OW 6754   5.646   4.710   1.158
 1952SOL    HW1 6755   5.656   4.745   1.065
 1952SOL    HW2 6756   5.559   4.662   1.167
 1953SOL     OW 6757   6.885   1.697   6.108
 1953SOL    HW1 6758   6.938   1.614   6.124
 1953SOL    HW2 6759   6.948   1.773   6.089
 1954SOL     OW 6760   6.119   0.317   1.282
 1954SOL    HW1 6761   6.094   0.285   1.373
 1954SOL    HW2 6762   6.062   0.395   1.257
 1955SOL     OW 6763   0.439   0.808   2.308
 1955SOL    HW1 6764   0.509   0.862   2.355
 1955SOL    HW2 6765   0.473   0.781   2.218
 1956SOL     OW 6766   4.538   0.185   1.886
 1956SOL    HW1 6767   4.624   0.135   1.891
 1956SOL    HW2 6768   4.465   0.129   1.924
 1957SOL     OW 6769   5.392   4.477   3.952
 1957SOL    HW1 6770   5.477   4.514   3.916
 1957SOL    HW2 6771   5.381   4.503   4.047
 1958SOL     OW 6772   4.705   1.312   1.760
 1958SOL    HW1 6773   4.729   1.315   1.857
 1958SOL    HW2 6774   4.672   1.221   1.736
 1959SOL     OW 6775   0.528   7.008   3.919
 1959SOL    HW1 6776   0.576   0.071   3.931
 1959SOL    HW2 6777   0.461   7.017   3.845
 1960SOL     OW 6778   0.229   3.785   2.220
 1960SOL    HW1 6779   0.209   3.738   2.306
 1960SOL    HW2 6780   0.328   3.785   2.205
 1961SOL     OW 6781   5.799   4.190   4.642
 1961SOL    HW1 6782   5.841   4.275   4.608
 1961SOL    HW2 6783   5.870   4.132   4.681
 1962SOL     OW 6784   1.703   6.321   2.705
 1962SOL    HW1 6785   1.667   6.280   2.789
 1962SOL    HW2 6786   1.668   6.414   2.696
 1963SOL     OW 6787   1.452   1.853   1.401
 1963SOL    HW1 6788   1.454   1.952   1.410
 1963SOL    HW2 6789   1.545   1.819   1.388
 1964SOL     OW 6790   3.929   4.957   1.461
 1964SOL    HW1 6791   4.016   4.908   1.455
 1964SOL    HW2 6792   3.895   4.976   1.369
 1965SOL     OW 6793   1.767   2.540   4.481
 1965SOL    HW1 6794   1.760   2.477   4.404
 1965SOL    HW2 6795   1.825   2.500   4.552
 1966SOL     OW 6796   1.454   5.652   1.296
 1966SOL    HW1 6797   1.408   5.570   1.260
 1966SOL    HW2 6798   1.411   5.733   1.257
 1967SOL     OW 6799   6.418   2.767   4.098
 1967SOL    HW1 6800   6.501   2.716   4.123
 1967SOL    HW2 6801   6.427   2.862   4.128
 1968SOL     OW 6802   2.601   0.888   5.596
 1968SOL    HW1 6803   2.646   0.817   5.541
 1968SOL    HW2 6804   2.524   0.925   5.543
 1969SOL     OW 6805   3.049   0.951   1.116
 1969SOL    HW1 6806   3.005   0.863   1.135
 1969SOL    HW2 6807   3.097   0.946   1.029
 1970SOL     OW 6808   0.402   0.416   5.092
 1970SOL    HW1 6809   0.485   0.401   5.146
 1970SOL    HW2 6810   0.399   0.351   5.016
 1971SOL     OW 6811   0.323   1.124   5.747
 1971SOL    HW1 6812   0.407   1.154   5.793
 1971SOL    HW2 6813   0.348   1.078   5.661
 1972SOL     OW 6814   5.765   2.711   1.159
 1972SOL    HW1 6815   5.666   2.698   1.171
 1972SOL    HW2 6816   5.806   2.625   1.127
 1973SOL     OW 6817   2.741   4.221   1.654
 1973SOL    HW1 6818   2.699   4.312   1.661
 1973SOL    HW2 6819   2.669   4.152   1.653
 1974SOL     OW 6820   4.688   6.707   4.694
 1974SOL    HW1 6821   4.761   6.703   4.763
 1974SOL    HW2 6822   4.658   6.614   4.672
 1975SOL     OW 6823   2.163   2.007   4.165
 1975SOL    HW1 6824   2.112   1.942   4.109
 1975SOL    HW2 6825   2.167   1.973   4.260
 1976SOL     OW 6826   5.448   5.953   0.579
 1976SOL    HW1 6827   5.421   5.948   0.483
 1976SOL    HW2 6828   5.372   5.924   0.637
 1977SOL     OW 6829   1.799   3.341   5.325
 1977SOL    HW1 6830   1.804   3.438   5.351
 1977SOL    HW2 6831   1.885   3.296   5.348
 1978SOL     OW 6832   1.811   5.679   3.047
 1978SOL    HW1 6833   1.883   5.610   3.039
 1978SOL    HW2 6834   1.833   5.743   3.122
 1979SOL     OW 6835   5.146   5.136   0.029
 1979SOL    HW1 6836   5.177   5.180   6.968
 1979SOL    HW2 6837   5.058   5.175   0.056
 1980SOL     OW 6838   4.307   0.378   3.143
 1980SOL    HW1 6839   4.207   0.382   3.152
 1980SOL    HW2 6840   4.340   0.463   3.102
 1981SOL     OW 6841   5.617   2.702   2.666
 1981SOL    HW1 6842   5.615   2.724   2.764
 1981SOL    HW2 6843   5.564   2.770   2.616
 1982SOL     OW 6844   6.693   3.693   3.807
 1982SOL    HW1 6845   6.661   3.739   3.890
 1982SOL    HW2 6846   6.784   3.654   3.824
 1983SOL     OW 6847   1.488   0.578   1.515
 1983SOL    HW1 6848   1.563   0.526   1.555
 1983SOL    HW2 6849   1.456   0.533   1.431
 1984SOL     OW 6850   4.483   2.535   5.100
 1984SOL    HW1 6851   4.385   2.552   5.108
 1984SOL    HW2 6852   4.533   2.612   5.140
 1985SOL     OW 6853   6.990   5.903   1.909
 1985SOL    HW1 6854   6.979   5.987   1.963
 1985SOL    HW2 6855   6.963   5.922   1.814
 1986SOL     OW 6856   3.207   1.009   6.292
 1986SOL    HW1 6857   3.265   0.946   6.239
 1986SOL    HW2 6858   3.140   0.957   6.344
 1987SOL     OW 6859   2.434   1.800   4.022
 1987SOL    HW1 6860   2.525   1.760   4.032
 1987SOL    HW2 6861   2.386   1.796   4.109
 1988SOL     OW 6862   0.611   1.775   0.911
 1988SOL    HW1 6863   0.596   1.676   0.920
 1988SOL    HW2 6864   0.539   1.815   0.854
 1989SOL     OW 6865   1.915   5.722   4.015
 1989SOL    HW1 6866   1.904   5.787   4.090
 1989SOL    HW2 6867   1.992   5.661   4.035
 1990SOL     OW 6868   3.689   6.305   0.335
 1990SOL    HW1 6869   3.688   6.393   0.287
 1990SOL    HW2 6870   3.598   6.263   0.331
 1991SOL     OW 6871   1.938   5.618   0.148
 1991SOL    HW1 6872   1.892   5.705   0.132
 1991SOL    HW2 6873   1.907   5.552   0.079
 1992SOL     OW 6874   6.851   0.486   0.394
 1992SOL    HW1 6875   6.931   0.436   0.361
 1992SOL    HW2 6876   6.842   0.572   0.343
 1993SOL     OW 6877   3.383   1.760   5.321
 1993SOL    HW1 6878   3.315   1.828   5.347
 1993SOL    HW2 6879   3.354   1.714   5.238
 1994SOL     OW 6880   5.405   2.267   1.682
 1994SOL    HW1 6881   5.418   2.251   1.780
 1994SOL    HW2 6882   5.491   2.248   1.634
 1995SOL     OW 6883   5.467   2.810   3.634
 1995SOL    HW1 6884   5.458   2.726   3.581
 1995SOL    HW2 6885   5.540   2.799   3.701
 1996SOL     OW 6886   2.614   1.949   1.392
 1996SOL    HW1 6887   2.639   1.904   1.478
 1996SOL    HW2 6888   2.677   2.023   1.372
 1997SOL     OW 6889   3.424   1.720   3.724
 1997SOL    HW1 6890   3.353   1.771   3.674
 1997SOL    HW2 6891   3.410   1.622   3.711
 1998SOL     OW 6892   1.374   3.601   0.548
 1998SOL    HW1 6893   1.397   3.628   0.641
 1998SOL    HW2 6894   1.331   3.679   0.501
 1999SOL     OW 6895   1.013   0.306   5.167
 1999SOL    HW1 6896   1.105   0.338   5.191
 1999SOL    HW2 6897   0.965   0.377   5.115
 2000SOL     OW 6898   4.033   3.136   5.740
 2000SOL    HW1 6899   4.121   3.163   5.780
 2000SOL    HW2 6900   3.962   3.139   5.810
 2001SOL     OW 6901   2.116   1.216   0.260
 2001SOL    HW1 6902   2.052   1.189   0.187
 2001SOL    HW2 6903   2.069   1.214   0.348
 2002SOL     OW 6904   0.404   5.218   1.038
 2002SOL    HW1 6905   0.459   5.161   0.977
 2002SOL    HW2 6906   0.310   5.221   1.003
 2003SOL     OW 6907   6.889   4.948   1.661
 2003SOL    HW1 6908   6.808   4.975   1.610
 2003SOL    HW2 6909   6.887   4.849   1.678
 2004SOL     OW 6910   4.334   0.545   5.173
 2004SOL    HW1 6911   4.412   0.578   5.226
 2004SOL    HW2 6912   4.331   0.446   5.178
 2005SOL     OW 6913   0.112   5.045   6.934
 2005SOL    HW1 6914   0.077   5.123   6.882
 2005SOL    HW2 6915   0.192   5.007   6.889
 2006SOL     OW 6916   5.788   6.347   4.180
 2006SOL    HW1 6917   5.821   6.442   4.185
 2006SOL    HW2 6918   5.728   6.329   4.259
 2007SOL     OW 6919   5.329   4.178   1.411
 2007SOL    HW1 6920   5.253   4.142   1.357
 2007SOL    HW2 6921   5.339   4.124   1.495
 2008SOL     OW 6922   2.163   3.320   3.396
 2008SOL    HW1 6923   2.218   3.372   3.461
 2008SOL    HW2 6924   2.151   3.373   3.312
 2009SOL     OW 6925   5.590   6.224   2.767
 2009SOL    HW1 6926   5.503   6.253   2.726
 2009SOL    HW2 6927   5.599   6.263   2.858
 2010SOL     OW 6928   1.905   1.262   1.514
 2010SOL    HW1 6929   1.816   1.241   1.472
 2010SOL    HW2 6930   1.915   1.361   1.522
 2011SOL     OW 6931   0.402   1.337   4.875
 2011SOL    HW1 6932   0.451   1.414   4.916
 2011SOL    HW2 6933   0.444   1.314   4.787
 2012SOL     OW 6934   1.801   3.442   2.261
 2012SOL    HW1 6935   1.832   3.387   2.183
 2012SOL    HW2 6936   1.870   3.438   2.333
 2013SOL     OW 6937   6.824   3.287   3.525
 2013SOL    HW1 6938   6.883   3.355   3.480
 2013SOL    HW2 6939   6.734   3.287   3.480
 2014SOL     OW 6940   3.335   0.039   2.772
 2014SOL    HW1 6941   3.294   0.075   2.688
 2014SOL    HW2 6942   3.325   6.964   2.775
 2015SOL     OW 6943   3.602   6.545   0.203
 2015SOL    HW1 6944   3.590   6.633   0.250
 2015SOL    HW2 6945   3.577   6.556   0.107
 2016SOL     OW 6946   1.548   5.604   5.319
 2016SOL    HW1 6947   1.628   5.659   5.344
 2016SOL    HW2 6948   1.475   5.664   5.286
 2017SOL     OW 6949   4.581   0.222   3.300
 2017SOL    HW1 6950   4.634   0.178   3.372
 2017SOL    HW2 6951   4.510   0.280   3.340
 2018SOL     OW 6952   6.802   3.184   3.773
 2018SOL    HW1 6953   6.735   3.230   3.831
 2018SOL    HW2 6954   6.817   3.238   3.690
 2019SOL     OW 6955   6.065   4.233   6.207
 2019SOL    HW1 6956   5.980   4.186   6.229
 2019SOL    HW2 6957   6.102   4.197   6.122
 2020SOL     OW 6958   1.746   6.281   5.787
 2020SOL    HW1 6959   1.667   6.226   5.759
 2020SOL    HW2 6960   1.722   6.378   5.783
 2021SOL     OW 6961   6.439   6.605   4.128
 2021SOL    HW1 6962   6.483   6.515   4.121
 2021SOL    HW2 6963   6.428   6.628   4.224
 2022SOL     OW 6964   1.797   4.579   4.519
 2022SOL    HW1 6965   1.851   4.658   4.491
 2022SOL    HW2 6966   1.757   4.595   4.609
 2023SOL     OW 6967   0.619   0.364   6.821
 2023SOL    HW1 6968   0.628   0.359   6.722
 2023SOL    HW2 6969   0.697   0.320   6.865
 2024SOL     OW 6970   6.884   5.801   3.801
 2024SOL    HW1 6971   6.907   5.878   3.741
 2024SOL    HW2 6972   6.785   5.801   3.818
 2025SOL     OW 6973   3.171   0.479   3.944
 2025SOL    HW1 6974   3.237   0.500   3.872
 2025SOL    HW2 6975   3.090   0.437   3.904
 2026SOL     OW 6976   6.649   1.923   6.546
 2026SOL    HW1 6977   6.618   1.980   6.622
 2026SOL    HW2 6978   6.578   1.918   6.477
 2027SOL     OW 6979   0.671   6.353   1.485
 2027SOL    HW1 6980   0.684   6.261   1.521
 2027SOL    HW2 6981   0.758   6.390   1.455
 2028SOL     OW 6982   3.694   5.417   3.173
 2028SOL    HW1 6983   3.772   5.478   3.157
 2028SOL    HW2 6984   3.639   5.451   3.249
 2029SOL     OW 6985   6.577   2.592   6.802
 2029SOL    HW1 6986   6.603   2.508   6.850
 2029SOL    HW2 6987   6.479   2.608   6.814
 2030SOL     OW 6988   3.534   0.454   2.368
 2030SOL    HW1 6989   3.632   0.446   2.351
 2030SOL    HW2 6990   3.497   0.530   2.314
 2031SOL     OW 6991   0.065   6.452   2.392
 2031SOL    HW1 6992   7.003   6.484   2.433
 2031SOL    HW2 6993   0.069   6.352   2.396
 2032SOL     OW 6994   3.516   1.505   1.101
 2032SOL    HW1 6995   3.470   1.570   1.161
 2032SOL    HW2 6996   3.607   1.485   1.138
 2033SOL     OW 6997   2.106   0.528   0.989
 2033SOL    HW1 6998   2.177   0.584   1.031
 2033SOL    HW2 6999   2.107   0.543   0.890
 2034SOL     OW 7000   1.471   5.141   5.732
 2034SOL    HW1 7001   1.533   5.065   5.711
 2034SOL    HW2 7002   1.408   5.155   5.655
 2035SOL     OW 7003   6.460   6.779   2.242
 2035SOL    HW1 7004   6.468   6.851   2.173
 2035SOL    HW2 7005   6.400   6.811   2.316
 2036SOL     OW 7006   1.497   3.879   3.528
 2036SOL    HW1 7007   1.558   3.958   3.524
 2036SOL    HW2 7008   1.402   3.909   3.536
 2037SOL     OW 7009   6.480   2.826   6.192
 2037SOL    HW1 7010   6.382   2.817   6.171
 2037SOL    HW2 7011   6.509   2.748   6.248
 2038SOL     OW 7012   2.359   0.941   0.446
 2038SOL    HW1 7013   2.429   0.935   0.517
 2038SOL    HW2 7014   2.287   1.005   0.475
 2039SOL     OW 7015   0.335   6.531   3.014
 2039SOL    HW1 7016   0.319   6.437   3.044
 2039SOL    HW2 7017   0.317   6.538   2.916
 2040SOL     OW 7018   2.122   1.689   0.316
 2040SOL    HW1 7019   2.168   1.617   0.368
 2040SOL    HW2 7020   2.027   1.663   0.299
 2041SOL     OW 7021   0.960   0.364   5.479
 2041SOL    HW1 7022   0.868   0.405   5.473
 2041SOL    HW2 7023   0.992   0.341   5.388
 2042SOL     OW 7024   4.879   0.343   6.083
 2042SOL    HW1 7025   4.821   0.262   6.087
 2042SOL    HW2 7026   4.943   0.342   6.159
 2043SOL     OW 7027   6.379   2.290   2.583
 2043SOL    HW1 7028   6.296   2.345   2.589
 2043SOL    HW2 7029   6.416   2.296   2.490
 2044SOL     OW 7030   6.095   0.836   1.260
 2044SOL    HW1 7031   5.998   0.826   1.282
 2044SOL    HW2 7032   6.105   0.844   1.161
 2045SOL     OW 7033   1.262   5.521   4.609
 2045SOL    HW1 7034   1.303   5.525   4.700
 2045SOL    HW2 7035   1.229   5.428   4.591
 2046SOL     OW 7036   6.495   2.444   5.442
 2046SOL    HW1 7037   6.579   2.443   5.496
 2046SOL    HW2 7038   6.445   2.359   5.456
 2047SOL     OW 7039   6.116   2.659   0.974
 2047SOL    HW1 7040   6.095   2.732   1.039
 2047SOL    HW2 7041   6.124   2.572   1.023
 2048SOL     OW 7042   0.292   1.004   4.776
 2048SOL    HW1 7043   0.240   1.026   4.858
 2048SOL    HW2 7044   0.229   0.986   4.700
 2049SOL     OW 7045   5.259   1.396   4.402
 2049SOL    HW1 7046   5.331   1.332   4.375
 2049SOL    HW2 7047   5.194   1.408   4.327
 2050SOL     OW 7048   0.250   2.632   4.568
 2050SOL    HW1 7049   0.284   2.565   4.634
 2050SOL    HW2 7050   0.327   2.680   4.527
 2051SOL     OW 7051   1.756   6.198   6.861
 2051SOL    HW1 7052   1.834   6.183   6.801
 2051SOL    HW2 7053   1.745   6.296   6.878
 2052SOL     OW 7054   1.532   3.022   0.865
 2052SOL    HW1 7055   1.605   2.970   0.822
 2052SOL    HW2 7056   1.503   3.096   0.803
 2053SOL     OW 7057   1.276   5.445   4.918
 2053SOL    HW1 7058   1.345   5.517   4.929
 2053SOL    HW2 7059   1.309   5.361   4.961
 2054SOL     OW 7060   3.480   3.154   3.136
 2054SOL    HW1 7061   3.434   3.085   3.080
 2054SOL    HW2 7062   3.567   3.179   3.093
 2055SOL     OW 7063   6.921   2.449   4.743
 2055SOL    HW1 7064   6.844   2.386   4.733
 2055SOL    HW2 7065   6.893   2.541   4.713
 2056SOL     OW 7066   4.222   4.684   1.642
 2056SOL    HW1 7067   4.269   4.724   1.720
 2056SOL    HW2 7068   4.232   4.744   1.562
 2057SOL     OW 7069   5.062   3.305   4.951
 2057SOL    HW1 7070   5.033   3.267   5.039
 2057SOL    HW2 7071   5.087   3.230   4.890
 2058SOL     OW 7072   0.676   6.470   2.418
 2058SOL    HW1 7073   0.746   6.401   2.434
 2058SOL    HW2 7074   0.655   6.517   2.503
 2059SOL     OW 7075   2.748   0.209   5.766
 2059SOL    HW1 7076   2.723   0.292   5.816
 2059SOL    HW2 7077   2.784   0.233   5.676
 2060SOL     OW 7078   0.540   3.127   1.590
 2060SOL    HW1 7079   0.603   3.087   1.524
 2060SOL    HW2 7080   0.449   3.133   1.549
 2061SOL     OW 7081   2.155   2.298   2.203
 2061SOL    HW1 7082   2.113   2.353   2.131
 2061SOL    HW2 7083   2.105   2.311   2.289
 2062SOL     OW 7084   6.412   5.861   5.342
 2062SOL    HW1 7085   6.372   5.933   5.399
 2062SOL    HW2 7086   6.483   5.813   5.394
 2063SOL     OW 7087   1.309   6.890   4.426
 2063SOL    HW1 7088   1.320   6.953   4.502
 2063SOL    HW2 7089   1.364   6.921   4.348
 2064SOL     OW 7090   0.807   2.980   4.387
 2064SOL    HW1 7091   0.851   3.039   4.320
 2064SOL    HW2 7092   0.869   2.966   4.464
 2065SOL     OW 7093   5.456   3.458   5.868
 2065SOL    HW1 7094   5.386   3.508   5.919
 2065SOL    HW2 7095   5.503   3.395   5.929
 2066SOL     OW 7096   6.737   4.081   5.246
 2066SOL    HW1 7097   6.709   3.985   5.250
 2066SOL    HW2 7098   6.759   4.113   5.338
 2067SOL     OW 7099   6.099   4.946   1.343
 2067SOL    HW1 7100   6.029   4.892   1.390
 2067SOL    HW2 7101   6.071   4.962   1.248
 2068SOL     OW 7102   4.013   1.287   4.412
 2068SOL    HW1 7103   4.067   1.352   4.358
 2068SOL    HW2 7104   4.061   1.199   4.413
 2069SOL     OW 7105   0.472   2.289   3.946
 2069SOL    HW1 7106   0.403   2.349   3.985
 2069SOL    HW2 7107   0.470   2.201   3.993
 2070SOL     OW 7108   1.499   2.982   1.132
 2070SOL    HW1 7109   1.583   2.932   1.150
 2070SOL    HW2 7110   1.482   2.985   1.034
 2071SOL     OW 7111   5.967   1.911   6.286
 2071SOL    HW1 7112   5.988   1.979   6.216
 2071SOL    HW2 7113   6.014   1.825   6.265
 2072SOL     OW 7114   4.017   5.056   5.183
 2072SOL    HW1 7115   3.962   5.137   5.162
 2072SOL    HW2 7116   4.070   5.072   5.267
 2073SOL     OW 7117   3.520   6.176   5.742
 2073SOL    HW1 7118   3.563   6.230   5.814
 2073SOL    HW2 7119   3.459   6.108   5.783
 2074SOL     OW 7120   1.719   2.313   6.706
 2074SOL    HW1 7121   1.766   2.325   6.619
 2074SOL    HW2 7122   1.652   2.239   6.697
 2075SOL     OW 7123   6.582   1.791   3.300
 2075SOL    HW1 7124   6.507   1.792   3.367
 2075SOL    HW2 7125   6.616   1.885   3.289
 2076SOL     OW 7126   6.449   0.526   5.378
 2076SOL    HW1 7127   6.505   0.474   5.443
 2076SOL    HW2 7128   6.443   0.621   5.407
 2077SOL     OW 7129   6.000   2.031   1.895
 2077SOL    HW1 7130   6.019   2.116   1.845
 2077SOL    HW2 7131   5.910   1.996   1.867
 2078SOL     OW 7132   1.313   5.155   5.964
 2078SOL    HW1 7133   1.382   5.161   5.892
 2078SOL    HW2 7134   1.223   5.174   5.924
 2079SOL     OW 7135   5.675   0.909   2.146
 2079SOL    HW1 7136   5.688   0.899   2.244
 2079SOL    HW2 7137   5.764   0.911   2.100
 2080SOL     OW 7138   3.631   1.503   4.878
 2080SOL    HW1 7139   3.655   1.494   4.781
 2080SOL    HW2 7140   3.536   1.534   4.886
 2081SOL     OW 7141   0.990   6.488   3.980
 2081SOL    HW1 7142   1.080   6.493   4.024
 2081SOL    HW2 7143   0.934   6.419   4.027
 2082SOL     OW 7144   0.818   6.233   3.234
 2082SOL    HW1 7145   0.846   6.137   3.241
 2082SOL    HW2 7146   0.899   6.291   3.229
 2083SOL     OW 7147   0.403   5.778   4.099
 2083SOL    HW1 7148   0.320   5.773   4.043
 2083SOL    HW2 7149   0.481   5.804   4.041
 2084SOL     OW 7150   1.165   2.471   1.671
 2084SOL    HW1 7151   1.158   2.414   1.590
 2084SOL    HW2 7152   1.091   2.449   1.735
 2085SOL     OW 7153   4.930   6.253   0.824
 2085SOL    HW1 7154   4.971   6.201   0.899
 2085SOL    HW2 7155   4.947   6.351   0.837
 2086SOL     OW 7156   3.399   6.270   6.919
 2086SOL    HW1 7157   3.386   6.368   6.936
 2086SOL    HW2 7158   3.322   6.234   6.867
 2087SOL     OW 7159   4.184   2.172   0.234
 2087SOL    HW1 7160   4.170   2.271   0.226
 2087SOL    HW2 7161   4.120   2.134   0.300
 2088SOL     OW 7162   1.055   6.045   5.350
 2088SOL    HW1 7163   1.020   5.974   5.410
 2088SOL    HW2 7164   1.023   6.134   5.382
 2089SOL     OW 7165   3.963   2.164   5.244
 2089SOL    HW1 7166   3.872   2.135   5.271
 2089SOL    HW2 7167   4.027   2.087   5.250
 2090SOL     OW 7168   5.030   2.949   5.431
 2090SOL    HW1 7169   4.982   2.952   5.344
 2090SOL    HW2 7170   4.964   2.950   5.506
 2091SOL     OW 7171   6.703   6.131   1.082
 2091SOL    HW1 7172   6.745   6.191   1.015
 2091SOL    HW2 7173   6.732   6.158   1.174
 2092SOL     OW 7174   5.460   3.758   0.650
 2092SOL    HW1 7175   5.540   3.763   0.590
 2092SOL    HW2 7176   5.485   3.710   0.735
 2093SOL     OW 7177   3.848   2.046   2.392
 2093SOL    HW1 7178   3.818   2.131   2.349
 2093SOL    HW2 7179   3.927   2.010   2.342
 2094SOL     OW 7180   5.612   2.255   0.550
 2094SOL    HW1 7181   5.553   2.274   0.629
 2094SOL    HW2 7182   5.707   2.274   0.575
 2095SOL     OW 7183   6.157   5.974   3.456
 2095SOL    HW1 7184   6.121   5.949   3.545
 2095SOL    HW2 7185   6.096   5.940   3.384
 2096SOL     OW 7186   4.548   6.014   3.172
 2096SOL    HW1 7187   4.641   6.012   3.135
 2096SOL    HW2 7188   4.550   5.989   3.269
 2097SOL     OW 7189   2.984   3.934   6.692
 2097SOL    HW1 7190   2.886   3.918   6.703
 2097SOL    HW2 7191   3.016   3.886   6.610
 2098SOL     OW 7192   4.307   6.425   3.047
 2098SOL    HW1 7193   4.325   6.338   3.093
 2098SOL    HW2 7194   4.319   6.500   3.112
 2099SOL     OW 7195   4.577   1.822   0.202
 2099SOL    HW1 7196   4.619   1.903   0.162
 2099SOL    HW2 7197   4.506   1.849   0.267
 2100SOL     OW 7198   5.345   1.005   0.641
 2100SOL    HW1 7199   5.366   1.094   0.682
 2100SOL    HW2 7200   5.291   0.951   0.705
 2101SOL     OW 7201   6.877   6.387   1.050
 2101SOL    HW1 7202   6.918   6.341   0.971
 2101SOL    HW2 7203   6.825   6.467   1.019
 2102SOL     OW 7204   4.517   3.827   1.178
 2102SOL    HW1 7205   4.463   3.743   1.189
 2102SOL    HW2 7206   4.559   3.827   1.087
 2103SOL     OW 7207   3.002   3.636   0.245
 2103SOL    HW1 7208   2.972   3.710   0.185
 2103SOL    HW2 7209   2.939   3.559   0.237
 2104SOL     OW 7210   1.460   4.920   2.271
 2104SOL    HW1 7211   1.546   4.964   2.246
 2104SOL    HW2 7212   1.414   4.974   2.341
 2105SOL     OW 7213   3.998   4.340   0.066
 2105SOL    HW1 7214   3.900   4.318   0.066
 2105SOL    HW2 7215   4.012   4.430   0.024
 2106SOL     OW 7216   5.203   3.748   1.156
 2106SOL    HW1 7217   5.270   3.682   1.191
 2106SOL    HW2 7218   5.235   3.841   1.174
 2107SOL     OW 7219   5.820   3.096   5.643
 2107SOL    HW1 7220   5.826   3.018   5.707
 2107SOL    HW2 7221   5.843   3.180   5.692
 2108SOL     OW 7222   5.465   6.309   5.912
 2108SOL    HW1 7223   5.443   6.234   5.850
 2108SOL    HW2 7224   5.472   6.394   5.860
 2109SOL     OW 7225   3.005   5.354   2.171
 2109SOL    HW1 7226   2.961   5.437   2.206
 2109SOL    HW2 7227   3.081   5.329   2.230
 2110SOL     OW 7228   4.354   0.502   5.889
 2110SOL    HW1 7229   4.289   0.526   5.816
 2110SOL    HW2 7230   4.342   0.566   5.966
 2111SOL     OW 7231   1.150   2.429   5.710
 2111SOL    HW1 7232   1.207   2.472   5.779
 2111SOL    HW2 7233   1.062   2.476   5.705
 2112SOL     OW 7234   5.698   1.951   6.335
 2112SOL    HW1 7235   5.794   1.936   6.311
 2112SOL    HW2 7236   5.691   2.019   6.408
 2113SOL     OW 7237   2.148   6.877   4.452
 2113SOL    HW1 7238   2.117   6.972   4.447
 2113SOL    HW2 7239   2.140   6.844   4.546
 2114SOL     OW 7240   2.236   2.864   0.138
 2114SOL    HW1 7241   2.320   2.914   0.154
 2114SOL    HW2 7242   2.257   2.766   0.128
 2115SOL     OW 7243   1.200   4.729   1.922
 2115SOL    HW1 7244   1.222   4.691   1.832
 2115SOL    HW2 7245   1.120   4.682   1.960
 2116SOL     OW 7246   0.554   2.776   0.864
 2116SOL    HW1 7247   0.529   2.846   0.931
 2116SOL    HW2 7248   0.551   2.686   0.907
 2117SOL     OW 7249   5.187   2.871   1.411
 2117SOL    HW1 7250   5.215   2.776   1.393
 2117SOL    HW2 7251   5.268   2.929   1.413
 2118SOL     OW 7252   6.049   3.559   1.885
 2118SOL    HW1 7253   6.060   3.545   1.983
 2118SOL    HW2 7254   5.953   3.576   1.864
 2119SOL     OW 7255   1.550   1.096   6.962
 2119SOL    HW1 7256   1.460   1.088   7.006
 2119SOL    HW2 7257   1.563   1.019   6.900
 2120SOL     OW 7258   6.334   1.937   2.799
 2120SOL    HW1 7259   6.315   1.986   2.884
 2120SOL    HW2 7260   6.290   1.847   2.801
 2121SOL     OW 7261   2.414   2.169   6.042
 2121SOL    HW1 7262   2.334   2.116   6.013
 2121SOL    HW2 7263   2.413   2.258   5.995
 2122SOL     OW 7264   5.916   6.552   6.091
 2122SOL    HW1 7265   5.939   6.640   6.133
 2122SOL    HW2 7266   5.986   6.528   6.023
 2123SOL     OW 7267   6.667   6.355   2.353
 2123SOL    HW1 7268   6.592   6.398   2.302
 2123SOL    HW2 7269   6.675   6.398   2.443
 2124SOL     OW 7270   2.994   2.144   5.629
 2124SOL    HW1 7271   3.038   2.232   5.609
 2124SOL    HW2 7272   2.954   2.108   5.544
 2125SOL     OW 7273   1.867   5.986   2.996
 2125SOL    HW1 7274   1.821   5.978   3.084
 2125SOL    HW2 7275   1.953   5.935   2.998
 2126SOL     OW 7276   4.001   3.138   0.267
 2126SOL    HW1 7277   4.004   3.203   0.191
 2126SOL    HW2 7278   4.048   3.177   0.346
 2127SOL     OW 7279   0.101   2.019   5.383
 2127SOL    HW1 7280   0.173   2.063   5.436
 2127SOL    HW2 7281   0.128   2.015   5.287
 2128SOL     OW 7282   5.710   3.903   0.884
 2128SOL    HW1 7283   5.615   3.910   0.915
 2128SOL    HW2 7284   5.740   3.808   0.892
 2129SOL     OW 7285   5.128   4.005   3.985
 2129SOL    HW1 7286   5.161   4.098   4.002
 2129SOL    HW2 7287   5.038   4.009   3.941
 2130SOL     OW 7288   2.586   1.563   1.361
 2130SOL    HW1 7289   2.640   1.569   1.278
 2130SOL    HW2 7290   2.646   1.567   1.441
 2131SOL     OW 7291   5.492   2.173   0.294
 2131SOL    HW1 7292   5.529   2.149   0.384
 2131SOL    HW2 7293   5.465   2.269   0.294
 2132SOL     OW 7294   3.245   1.366   0.285
 2132SOL    HW1 7295   3.258   1.463   0.307
 2132SOL    HW2 7296   3.240   1.313   0.370
 2133SOL     OW 7297   2.527   2.400   1.518
 2133SOL    HW1 7298   2.435   2.376   1.486
 2133SOL    HW2 7299   2.561   2.478   1.467
 2134SOL     OW 7300   0.989   0.613   4.387
 2134SOL    HW1 7301   1.041   0.529   4.399
 2134SOL    HW2 7302   1.014   0.678   4.459
 2135SOL     OW 7303   0.472   2.054   4.108
 2135SOL    HW1 7304   0.460   1.976   4.170
 2135SOL    HW2 7305   0.427   2.134   4.146
 2136SOL     OW 7306   0.968   3.690   4.992
 2136SOL    HW1 7307   0.946   3.667   4.897
 2136SOL    HW2 7308   0.901   3.754   5.028
 2137SOL     OW 7309   0.805   6.723   5.156
 2137SOL    HW1 7310   0.891   6.771   5.170
 2137SOL    HW2 7311   0.763   6.702   5.244
 2138SOL     OW 7312   6.017   2.249   1.730
 2138SOL    HW1 7313   5.958   2.328   1.750
 2138SOL    HW2 7314   6.071   2.267   1.648
 2139SOL     OW 7315   3.496   0.631   4.026
 2139SOL    HW1 7316   3.507   0.727   4.053
 2139SOL    HW2 7317   3.438   0.626   3.945
 2140SOL     OW 7318   2.804   6.258   3.210
 2140SOL    HW1 7319   2.850   6.346   3.216
 2140SOL    HW2 7320   2.831   6.200   3.286
 2141SOL     OW 7321   6.582   2.539   1.665
 2141SOL    HW1 7322   6.629   2.501   1.745
 2141SOL    HW2 7323   6.596   2.479   1.586
 2142SOL     OW 7324   1.613   2.006   3.405
 2142SOL    HW1 7325   1.581   2.068   3.333
 2142SOL    HW2 7326   1.616   1.913   3.370
 2143SOL     OW 7327   3.845   6.072   1.314
 2143SOL    HW1 7328   3.804   6.045   1.226
 2143SOL    HW2 7329   3.942   6.094   1.300
 2144SOL     OW 7330   1.899   0.836   3.143
 2144SOL    HW1 7331   1.975   0.819   3.205
 2144SOL    HW2 7332   1.918   0.795   3.054
 2145SOL     OW 7333   3.486   5.735   3.534
 2145SOL    HW1 7334   3.480   5.808   3.601
 2145SOL    HW2 7335   3.449   5.765   3.447
 2146SOL     OW 7336   3.333   4.064   2.288
 2146SOL    HW1 7337   3.245   4.018   2.276
 2146SOL    HW2 7338   3.331   4.116   2.373
 2147SOL     OW 7339   0.129   1.616   0.004
 2147SOL    HW1 7340   0.214   1.666   7.013
 2147SOL    HW2 7341   0.108   1.615   0.102
 2148SOL     OW 7342   4.953   3.633   3.899
 2148SOL    HW1 7343   5.039   3.642   3.950
 2148SOL    HW2 7344   4.951   3.701   3.826
 2149SOL     OW 7345   3.511   0.715   1.746
 2149SOL    HW1 7346   3.603   0.676   1.749
 2149SOL    HW2 7347   3.516   0.814   1.755
 2150SOL     OW 7348   3.483   2.070   2.614
 2150SOL    HW1 7349   3.573   2.107   2.595
 2150SOL    HW2 7350   3.492   1.979   2.654
 2151SOL     OW 7351   3.696   2.169   5.292
 2151SOL    HW1 7352   3.610   2.119   5.282
 2151SOL    HW2 7353   3.694   2.224   5.375
 2152SOL     OW 7354   5.493   6.133   2.017
 2152SOL    HW1 7355   5.405   6.147   2.060
 2152SOL    HW2 7356   5.538   6.221   2.001
 2153SOL     OW 7357   4.403   1.270   4.063
 2153SOL    HW1 7358   4.426   1.201   4.132
 2153SOL    HW2 7359   4.319   1.317   4.089
 2154SOL     OW 7360   3.389   5.994   4.579
 2154SOL    HW1 7361   3.370   5.945   4.664
 2154SOL    HW2 7362   3.450   5.940   4.522
 2155SOL     OW 7363   1.549   5.172   0.153
 2155SOL    HW1 7364   1.459   5.202   0.122
 2155SOL    HW2 7365   1.566   5.079   0.120
 2156SOL     OW 7366   1.990   0.210   1.589
 2156SOL    HW1 7367   2.062   0.262   1.634
 2156SOL    HW2 7368   1.994   0.114   1.618
 2157SOL     OW 7369   6.571   0.948   4.678
 2157SOL    HW1 7370   6.534   0.995   4.758
 2157SOL    HW2 7371   6.649   1.000   4.642
 2158SOL     OW 7372   3.571   6.794   0.285
 2158SOL    HW1 7373   3.542   6.780   0.380
 2158SOL    HW2 7374   3.515   6.866   0.243
 2159SOL     OW 7375   1.724   6.628   4.994
 2159SOL    HW1 7376   1.756   6.635   5.088
 2159SOL    HW2 7377   1.632   6.590   4.992
 2160SOL     OW 7378   4.082   4.224   1.630
 2160SOL    HW1 7379   4.145   4.276   1.687
 2160SOL    HW2 7380   4.133   4.161   1.572
 2161SOL     OW 7381   4.986   3.610   3.270
 2161SOL    HW1 7382   4.964   3.568   3.358
 2161SOL    HW2 7383   5.025   3.542   3.209
 2162SOL     OW 7384   1.561   0.695   6.972
 2162SOL    HW1 7385   1.546   0.601   6.942
 2162SOL    HW2 7386   1.631   0.696   0.020
 2163SOL     OW 7387   1.238   6.586   6.384
 2163SOL    HW1 7388   1.143   6.607   6.408
 2163SOL    HW2 7389   1.280   6.666   6.340
 2164SOL     OW 7390   2.231   1.027   5.895
 2164SOL    HW1 7391   2.151   0.967   5.903
 2164SOL    HW2 7392   2.268   1.020   5.802
 2165SOL     OW 7393   1.509   1.024   2.323
 2165SOL    HW1 7394   1.573   1.085   2.277
 2165SOL    HW2 7395   1.437   0.996   2.259
 2166SOL     OW 7396   1.529   2.750   5.318
 2166SOL    HW1 7397   1.602   2.714   5.259
 2166SOL    HW2 7398   1.562   2.830   5.367
 2167SOL     OW 7399   3.051   0.486   2.217
 2167SOL    HW1 7400   3.066   0.437   2.303
 2167SOL    HW2 7401   3.128   0.469   2.155
 2168SOL     OW 7402   6.310   2.846   5.154
 2168SOL    HW1 7403   6.219   2.883   5.173
 2168SOL    HW2 7404   6.304   2.747   5.142
 2169SOL     OW 7405   5.435   2.324   6.251
 2169SOL    HW1 7406   5.493   2.395   6.289
 2169SOL    HW2 7407   5.491   2.245   6.225
 2170SOL     OW 7408   5.095   4.871   5.124
 2170SOL    HW1 7409   5.020   4.825   5.171
 2170SOL    HW2 7410   5.180   4.820   5.138
 2171SOL     OW 7411   6.579   2.828   6.943
 2171SOL    HW1 7412   6.512   2.808   7.014
 2171SOL    HW2 7413   6.603   2.744   6.895
 2172SOL     OW 7414   2.959   1.008   0.379
 2172SOL    HW1 7415   2.865   1.042   0.377
 2172SOL    HW2 7416   2.992   0.996   0.285
 2173SOL     OW 7417   4.042   0.334   5.739
 2173SOL    HW1 7418   4.041   0.334   5.639
 2173SOL    HW2 7419   4.015   0.425   5.772
 2174SOL     OW 7420   6.540   4.367   5.883
 2174SOL    HW1 7421   6.598   4.328   5.812
 2174SOL    HW2 7422   6.591   4.371   5.970
 2175SOL     OW 7423   3.257   0.796   3.756
 2175SOL    HW1 7424   3.218   0.787   3.848
 2175SOL    HW2 7425   3.183   0.791   3.688
 2176SOL     OW 7426   1.744   1.880   1.690
 2176SOL    HW1 7427   1.694   1.796   1.665
 2176SOL    HW2 7428   1.784   1.920   1.607
 2177SOL     OW 7429   6.482   1.357   2.144
 2177SOL    HW1 7430   6.446   1.402   2.225
 2177SOL    HW2 7431   6.541   1.420   2.093
 2178SOL     OW 7432   0.942   4.318   0.591
 2178SOL    HW1 7433   1.004   4.304   0.514
 2178SOL    HW2 7434   0.921   4.230   0.634
 2179SOL     OW 7435   1.727   5.585   3.881
 2179SOL    HW1 7436   1.760   5.607   3.789
 2179SOL    HW2 7437   1.801   5.595   3.947
 2180SOL     OW 7438   3.065   3.588   3.164
 2180SOL    HW1 7439   2.969   3.570   3.142
 2180SOL    HW2 7440   3.123   3.543   3.097
 2181SOL     OW 7441   4.518   4.921   5.836
 2181SOL    HW1 7442   4.449   4.993   5.842
 2181SOL    HW2 7443   4.584   4.933   5.911
 2182SOL     OW 7444   6.986   3.515   6.628
 2182SOL    HW1 7445   6.939   3.500   6.541
 2182SOL    HW2 7446   6.978   3.434   6.685
 2183SOL     OW 7447   2.874   3.070   0.730
 2183SOL    HW1 7448   2.966   3.108   0.743
 2183SOL    HW2 7449   2.848   3.080   0.634
 2184SOL     OW 7450   4.026   0.600   6.533
 2184SOL    HW1 7451   3.939   0.619   6.487
 2184SOL    HW2 7452   4.010   0.537   6.608
 2185SOL     OW 7453   1.713   1.616   0.568
 2185SOL    HW1 7454   1.679   1.658   0.653
 2185SOL    HW2 7455   1.810   1.598   0.577
 2186SOL     OW 7456   0.073   4.855   2.485
 2186SOL    HW1 7457   0.078   4.758   2.461
 2186SOL    HW2 7458   0.124   4.908   2.417
 2187SOL     OW 7459   0.268   1.471   1.411
 2187SOL    HW1 7460   0.303   1.378   1.400
 2187SOL    HW2 7461   0.340   1.530   1.447
 2188SOL     OW 7462   4.868   5.927   3.559
 2188SOL    HW1 7463   4.929   5.944   3.482
 2188SOL    HW2 7464   4.915   5.951   3.645
 2189SOL     OW 7465   1.753   6.844   5.960
 2189SOL    HW1 7466   1.818   6.797   6.019
 2189SOL    HW2 7467   1.668   6.861   6.011
 2190SOL     OW 7468   6.110   2.604   1.854
 2190SOL    HW1 7469   6.094   2.701   1.839
 2190SOL    HW2 7470   6.196   2.577   1.811
 2191SOL     OW 7471   3.384   2.555   6.189
 2191SOL    HW1 7472   3.339   2.642   6.210
 2191SOL    HW2 7473   3.336   2.480   6.235
 2192SOL     OW 7474   4.404   6.086   5.354
 2192SOL    HW1 7475   4.450   6.174   5.365
 2192SOL    HW2 7476   4.422   6.050   5.262
 2193SOL     OW 7477   0.035   5.353   5.820
 2193SOL    HW1 7478   0.119   5.357   5.765
 2193SOL    HW2 7479   0.057   5.320   5.912
 2194SOL     OW 7480   1.737   5.922   0.434
 2194SOL    HW1 7481   1.715   5.892   0.527
 2194SOL    HW2 7482   1.769   6.016   0.436
 2195SOL     OW 7483   0.732   6.358   1.822
 2195SOL    HW1 7484   0.649   6.321   1.780
 2195SOL    HW2 7485   0.708   6.432   1.886
 2196SOL     OW 7486   3.248   0.886   5.472
 2196SOL    HW1 7487   3.152   0.888   5.497
 2196SOL    HW2 7488   3.263   0.813   5.405
 2197SOL     OW 7489   4.616   4.491   1.831
 2197SOL    HW1 7490   4.582   4.465   1.740
 2197SOL    HW2 7491   4.583   4.425   1.898
 2198SOL     OW 7492   6.725   3.564   6.958
 2198SOL    HW1 7493   6.711   3.565   6.859
 2198SOL    HW2 7494   6.806   3.618   6.980
 2199SOL     OW 7495   4.868   6.676   0.683
 2199SOL    HW1 7496   4.939   6.619   0.726
 2199SOL    HW2 7497   4.872   6.665   0.584
 2200SOL     OW 7498   3.884   0.939   4.568
 2200SOL    HW1 7499   3.867   0.997   4.488
 2200SOL    HW2 7500   3.802   0.886   4.588
 2201SOL     OW 7501   6.153   3.879   2.013
 2201SOL    HW1 7502   6.112   3.888   2.103
 2201SOL    HW2 7503   6.084   3.852   1.947
 2202SOL     OW 7504   3.742   4.904   4.506
 2202SOL    HW1 7505   3.755   4.908   4.406
 2202SOL    HW2 7506   3.827   4.872   4.548
 2203SOL     OW 7507   3.504   2.137   3.046
 2203SOL    HW1 7508   3.588   2.185   3.072
 2203SOL    HW2 7509   3.457   2.105   3.129
 2204SOL     OW 7510   3.434   1.130   0.201
 2204SOL    HW1 7511   3.427   1.140   0.102
 2204SOL    HW2 7512   3.369   1.192   0.245
 2205SOL     OW 7513   1.342   0.371   6.480
 2205SOL    HW1 7514   1.369   0.304   6.548
 2205SOL    HW2 7515   1.244   0.390   6.489
 2206SOL     OW 7516   2.827   3.712   6.323
 2206SOL    HW1 7517   2.737   3.745   6.353
 2206SOL    HW2 7518   2.835   3.615   6.346
 2207SOL     OW 7519   1.048   4.192   6.369
 2207SOL    HW1 7520   1.080   4.195   6.464
 2207SOL    HW2 7521   0.989   4.113   6.356
 2208SOL     OW 7522   0.689   3.620   1.688
 2208SOL    HW1 7523   0.654   3.656   1.602
 2208SOL    HW2 7524   0.686   3.520   1.686
 2209SOL     OW 7525   1.796   5.903   6.618
 2209SOL    HW1 7526   1.704   5.940   6.603
 2209SOL    HW2 7527   1.820   5.911   6.714
 2210SOL     OW 7528   0.578   4.771   3.252
 2210SOL    HW1 7529   0.600   4.712   3.175
 2210SOL    HW2 7530   0.651   4.839   3.264
 2211SOL     OW 7531   5.917   1.440   5.470
 2211SOL    HW1 7532   5.842   1.504   5.459
 2211SOL    HW2 7533   6.001   1.481   5.435
 2212SOL     OW 7534   0.213   6.642   6.108
 2212SOL    HW1 7535   0.157   6.641   6.191
 2212SOL    HW2 7536   0.154   6.658   6.029
 2213SOL     OW 7537   4.124   2.271   4.309
 2213SOL    HW1 7538   4.198   2.225   4.261
 2213SOL    HW2 7539   4.149   2.282   4.405
 2214SOL     OW 7540   5.440   0.393   5.365
 2214SOL    HW1 7541   5.507   0.461   5.396
 2214SOL    HW2 7542   5.363   0.439   5.322
 2215SOL     OW 7543   6.771   1.651   5.592
 2215SOL    HW1 7544   6.762   1.596   5.674
 2215SOL    HW2 7545   6.767   1.748   5.616
 2216SOL     OW 7546   1.223   6.823   1.352
 2216SOL    HW1 7547   1.285   6.827   1.430
 2216SOL    HW2 7548   1.263   6.873   1.275
 2217SOL     OW 7549   4.184   0.258   0.752
 2217SOL    HW1 7550   4.270   0.242   0.799
 2217SOL    HW2 7551   4.181   0.351   0.717
 2218SOL     OW 7552   1.106   6.142   6.608
 2218SOL    HW1 7553   1.176   6.213   6.598
 2218SOL    HW2 7554   1.066   6.146   6.699
 2219SOL     OW 7555   1.423   3.954   2.796
 2219SOL    HW1 7556   1.363   3.960   2.876
 2219SOL    HW2 7557   1.506   3.903   2.820
 2220SOL     OW 7558   0.505   2.006   4.884
 2220SOL    HW1 7559   0.586   1.963   4.925
 2220SOL    HW2 7560   0.475   1.953   4.805
 2221SOL     OW 7561   6.565   1.995   1.358
 2221SOL    HW1 7562   6.654   2.036   1.378
 2221SOL    HW2 7563   6.505   2.063   1.318
 2222SOL     OW 7564   4.035   0.379   1.728
 2222SOL    HW1 7565   4.069   0.467   1.694
 2222SOL    HW2 7566   3.999   0.325   1.651
 2223SOL     OW 7567   6.392   5.189   3.394
 2223SOL    HW1 7568   6.479   5.238   3.400
 2223SOL    HW2 7569   6.376   5.162   3.299
 2224SOL     OW 7570   1.856   4.608   1.478
 2224SOL    HW1 7571   1.829   4.532   1.538
 2224SOL    HW2 7572   1.879   4.687   1.534
 2225SOL     OW 7573   6.004   4.679   2.550
 2225SOL    HW1 7574   6.010   4.747   2.477
 2225SOL    HW2 7575   5.973   4.723   2.634
 2226SOL     OW 7576   4.052   3.121   1.548
 2226SOL    HW1 7577   4.013   3.158   1.633
 2226SOL    HW2 7578   3.979   3.089   1.489
 2227SOL     OW 7579   6.804   4.093   5.910
 2227SOL    HW1 7580   6.711   4.070   5.941
 2227SOL    HW2 7581   6.869   4.029   5.952
 2228SOL     OW 7582   3.009   4.609   0.441
 2228SOL    HW1 7583   3.082   4.616   0.509
 2228SOL    HW2 7584   3.049   4.603   0.350
 2229SOL     OW 7585   4.602   1.471   4.146
 2229SOL    HW1 7586   4.611   1.434   4.238
 2229SOL    HW2 7587   4.546   1.410   4.090
 2230SOL     OW 7588   1.529   5.459   4.049
 2230SOL    HW1 7589   1.595   5.487   3.980
 2230SOL    HW2 7590   1.572   5.462   4.139
 2231SOL     OW 7591   1.882   1.179   2.116
 2231SOL    HW1 7592   1.917   1.164   2.024
 2231SOL    HW2 7593   1.934   1.252   2.160
 2232SOL     OW 7594   0.641   3.040   2.930
 2232SOL    HW1 7595   0.676   3.084   3.012
 2232SOL    HW2 7596   0.664   3.095   2.850
 2233SOL     OW 7597   3.482   5.231   0.518
 2233SOL    HW1 7598   3.512   5.240   0.613
 2233SOL    HW2 7599   3.438   5.316   0.488
 2234SOL     OW 7600   3.790   2.008   0.916
 2234SOL    HW1 7601   3.826   2.033   1.006
 2234SOL    HW2 7602   3.814   1.913   0.896
 2235SOL     OW 7603   1.209   0.105   6.361
 2235SOL    HW1 7604   1.243   0.011   6.364
 2235SOL    HW2 7605   1.274   0.162   6.312
 2236SOL     OW 7606   0.673   4.272   0.839
 2236SOL    HW1 7607   0.741   4.330   0.795
 2236SOL    HW2 7608   0.694   4.176   0.822
 2237SOL     OW 7609   6.802   3.523   4.612
 2237SOL    HW1 7610   6.730   3.547   4.547
 2237SOL    HW2 7611   6.807   3.592   4.683
 2238SOL     OW 7612   0.034   5.349   2.076
 2238SOL    HW1 7613   0.077   5.393   1.997
 2238SOL    HW2 7614   0.018   5.253   2.056
 2239SOL     OW 7615   4.288   4.742   3.643
 2239SOL    HW1 7616   4.270   4.714   3.549
 2239SOL    HW2 7617   4.346   4.824   3.643
 2240SOL     OW 7618   6.636   5.514   3.478
 2240SOL    HW1 7619   6.565   5.497   3.546
 2240SOL    HW2 7620   6.657   5.429   3.430
 2241SOL     OW 7621   0.124   6.384   2.109
 2241SOL    HW1 7622   0.216   6.346   2.100
 2241SOL    HW2 7623   0.111   6.417   2.203
 2242SOL     OW 7624   5.202   2.050   3.075
 2242SOL    HW1 7625   5.192   2.102   2.991
 2242SOL    HW2 7626   5.115   2.008   3.100
 2243SOL     OW 7627   2.706   6.173   4.384
 2243SOL    HW1 7628   2.790   6.221   4.408
 2243SOL    HW2 7629   2.719   6.074   4.396
 2244SOL     OW 7630   3.538   1.045   4.317
 2244SOL    HW1 7631   3.477   1.003   4.384
 2244SOL    HW2 7632   3.616   1.087   4.364
 2245SOL     OW 7633   6.832   2.198   2.072
 2245SOL    HW1 7634   6.833   2.281   2.127
 2245SOL    HW2 7635   6.926   2.169   2.054
 2246SOL     OW 7636   1.429   3.112   5.158
 2246SOL    HW1 7637   1.529   3.109   5.159
 2246SOL    HW2 7638   1.399   3.208   5.158
 2247SOL     OW 7639   2.034   2.082   5.540
 2247SOL    HW1 7640   2.111   2.039   5.587
 2247SOL    HW2 7641   2.047   2.181   5.537
 2248SOL     OW 7642   5.047   4.314   5.295
 2248SOL    HW1 7643   4.994   4.285   5.215
 2248SOL    HW2 7644   5.088   4.234   5.338
 2249SOL     OW 7645   5.399   5.784   2.724
 2249SOL    HW1 7646   5.420   5.862   2.666
 2249SOL    HW2 7647   5.483   5.749   2.766
 2250SOL     OW 7648   5.432   3.911   1.273
 2250SOL    HW1 7649   5.351   3.958   1.309
 2250SOL    HW2 7650   5.483   3.870   1.349
 2251SOL     OW 7651   6.241   1.697   6.943
 2251SOL    HW1 7652   6.227   1.636   7.021
 2251SOL    HW2 7653   6.276   1.644   6.865
 2252SOL     OW 7654   5.629   2.878   5.427
 2252SOL    HW1 7655   5.538   2.882   5.385
 2252SOL    HW2 7656   5.676   2.965   5.410
 2253SOL     OW 7657   2.425   3.169   6.767
 2253SOL    HW1 7658   2.455   3.169   6.862
 2253SOL    HW2 7659   2.404   3.263   6.739
 2254SOL     OW 7660   1.918   3.418   5.897
 2254SOL    HW1 7661   1.929   3.349   5.969
 2254SOL    HW2 7662   1.849   3.388   5.832
 2255SOL     OW 7663   6.030   2.945   2.062
 2255SOL    HW1 7664   6.028   3.043   2.083
 2255SOL    HW2 7665   6.058   2.894   2.144
 2256SOL     OW 7666   3.212   4.834   2.215
 2256SOL    HW1 7667   3.219   4.752   2.271
 2256SOL    HW2 7668   3.302   4.877   2.208
 2257SOL     OW 7669   1.235   3.413   4.403
 2257SOL    HW1 7670   1.179   3.359   4.466
 2257SOL    HW2 7671   1.331   3.387   4.413
 2258SOL     OW 7672   1.861   4.813   5.263
 2258SOL    HW1 7673   1.910   4.736   5.222
 2258SOL    HW2 7674   1.882   4.818   5.360
 2259SOL     OW 7675   5.837   4.102   6.361
 2259SOL    HW1 7676   5.866   4.109   6.456
 2259SOL    HW2 7677   5.742   4.132   6.353
 2260SOL     OW 7678   3.954   5.019   2.873
 2260SOL    HW1 7679   4.036   4.972   2.905
 2260SOL    HW2 7680   3.916   4.970   2.795
 2261SOL     OW 7681   5.557   6.577   0.985
 2261SOL    HW1 7682   5.535   6.562   0.889
 2261SOL    HW2 7683   5.647   6.537   1.005
 2262SOL     OW 7684   5.469   2.065   4.340
 2262SOL    HW1 7685   5.413   2.132   4.292
 2262SOL    HW2 7686   5.565   2.084   4.322
 2263SOL     OW 7687   1.783   5.471   5.661
 2263SOL    HW1 7688   1.800   5.396   5.725
 2263SOL    HW2 7689   1.747   5.549   5.711
 2264SOL     OW 7690   3.044   3.056   2.714
 2264SOL    HW1 7691   3.141   3.034   2.729
 2264SOL    HW2 7692   3.009   3.105   2.794
 2265SOL     OW 7693   6.950   1.314   2.185
 2265SOL    HW1 7694   6.960   1.291   2.282
 2265SOL    HW2 7695   7.013   1.259   2.130
 2266SOL     OW 7696   6.350   0.867   0.730
 2266SOL    HW1 7697   6.332   0.815   0.813
 2266SOL    HW2 7698   6.285   0.943   0.723
 2267SOL     OW 7699   5.736   2.509   4.869
 2267SOL    HW1 7700   5.776   2.489   4.958
 2267SOL    HW2 7701   5.660   2.446   4.852
 2268SOL     OW 7702   6.685   6.266   0.791
 2268SOL    HW1 7703   6.709   6.355   0.752
 2268SOL    HW2 7704   6.592   6.269   0.828
 2269SOL     OW 7705   6.212   6.123   5.782
 2269SOL    HW1 7706   6.219   6.071   5.697
 2269SOL    HW2 7707   6.304   6.134   5.821
 2270SOL     OW 7708   3.118   3.564   1.974
 2270SOL    HW1 7709   3.195   3.545   1.913
 2270SOL    HW2 7710   3.063   3.481   1.985
 2271SOL     OW 7711   5.848   4.319   1.419
 2271SOL    HW1 7712   5.840   4.382   1.342
 2271SOL    HW2 7713   5.939   4.325   1.459
 2272SOL     OW 7714   5.092   2.277   5.219
 2272SOL    HW1 7715   5.097   2.185   5.181
 2272SOL    HW2 7716   5.124   2.276   5.313
 2273SOL     OW 7717   0.187   0.232   3.142
 2273SOL    HW1 7718   0.216   0.321   3.105
 2273SOL    HW2 7719   0.100   0.206   3.099
 2274SOL     OW 7720   1.724   3.408   4.893
 2274SOL    HW1 7721   1.791   3.361   4.951
 2274SOL    HW2 7722   1.731   3.507   4.907
 2275SOL     OW 7723   4.933   5.962   4.710
 2275SOL    HW1 7724   4.993   5.960   4.790
 2275SOL    HW2 7725   4.963   5.894   4.644
 2276SOL     OW 7726   3.984   4.282   0.819
 2276SOL    HW1 7727   4.031   4.226   0.887
 2276SOL    HW2 7728   3.885   4.269   0.828
 2277SOL     OW 7729   3.164   3.510   5.557
 2277SOL    HW1 7730   3.187   3.575   5.630
 2277SOL    HW2 7731   3.239   3.505   5.492
 2278SOL     OW 7732   5.321   6.194   2.297
 2278SOL    HW1 7733   5.300   6.191   2.395
 2278SOL    HW2 7734   5.368   6.280   2.277
 2279SOL     OW 7735   5.385   3.445   4.518
 2279SOL    HW1 7736   5.430   3.441   4.429
 2279SOL    HW2 7737   5.292   3.481   4.506
 2280SOL     OW 7738   6.378   6.131   5.437
 2280SOL    HW1 7739   6.446   6.193   5.476
 2280SOL    HW2 7740   6.381   6.136   5.338
 2281SOL     OW 7741   3.742   2.063   1.785
 2281SOL    HW1 7742   3.730   2.132   1.857
 2281SOL    HW2 7743   3.674   1.991   1.797
 2282SOL     OW 7744   4.750   5.350   4.419
 2282SOL    HW1 7745   4.717   5.428   4.472
 2282SOL    HW2 7746   4.806   5.291   4.477
 2283SOL     OW 7747   6.727   3.972   3.092
 2283SOL    HW1 7748   6.777   3.932   3.014
 2283SOL    HW2 7749   6.629   3.972   3.073
 2284SOL     OW 7750   2.434   2.533   2.134
 2284SOL    HW1 7751   2.500   2.462   2.111
 2284SOL    HW2 7752   2.417   2.533   2.233
 2285SOL     OW 7753   1.747   3.776   0.506
 2285SOL    HW1 7754   1.742   3.811   0.412
 2285SOL    HW2 7755   1.690   3.693   0.512
 2286SOL     OW 7756   6.926   5.847   4.887
 2286SOL    HW1 7757   6.976   5.760   4.883
 2286SOL    HW2 7758   6.853   5.846   4.818
 2287SOL     OW 7759   2.134   2.625   0.989
 2287SOL    HW1 7760   2.063   2.686   0.952
 2287SOL    HW2 7761   2.119   2.613   1.087
 2288SOL     OW 7762   0.716   6.549   3.802
 2288SOL    HW1 7763   0.809   6.540   3.765
 2288SOL    HW2 7764   0.718   6.608   3.882
 2289SOL     OW 7765   5.296   2.056   2.093
 2289SOL    HW1 7766   5.267   2.128   2.157
 2289SOL    HW2 7767   5.315   1.972   2.144
 2290SOL     OW 7768   2.917   3.652   3.692
 2290SOL    HW1 7769   2.914   3.565   3.643
 2290SOL    HW2 7770   2.864   3.721   3.642
 2291SOL     OW 7771   2.130   1.674   1.086
 2291SOL    HW1 7772   2.225   1.705   1.089
 2291SOL    HW2 7773   2.119   1.592   1.142
 2292SOL     OW 7774   4.817   2.199   3.926
 2292SOL    HW1 7775   4.899   2.142   3.931
 2292SOL    HW2 7776   4.785   2.220   4.019
 2293SOL     OW 7777   5.608   1.388   0.793
 2293SOL    HW1 7778   5.673   1.327   0.839
 2293SOL    HW2 7779   5.515   1.366   0.822
 2294SOL     OW 7780   2.082   2.361   5.503
 2294SOL    HW1 7781   2.157   2.407   5.551
 2294SOL    HW2 7782   1.997   2.411   5.517
 2295SOL     OW 7783   6.641   0.327   1.450
 2295SOL    HW1 7784   6.640   0.341   1.549
 2295SOL    HW2 7785   6.547   0.322   1.416
 2296SOL     OW 7786   2.346   4.957   3.723
 2296SOL    HW1 7787   2.319   4.956   3.819
 2296SOL    HW2 7788   2.285   4.897   3.670
 2297SOL     OW 7789   5.282   4.782   5.499
 2297SOL    HW1 7790   5.185   4.772   5.480
 2297SOL    HW2 7791   5.315   4.868   5.460
 2298SOL     OW 7792   3.999   3.165   4.711
 2298SOL    HW1 7793   3.971   3.069   4.720
 2298SOL    HW2 7794   4.018   3.202   4.802
 2299SOL     OW 7795   5.388   3.344   4.828
 2299SOL    HW1 7796   5.415   3.279   4.757
 2299SOL    HW2 7797   5.289   3.342   4.839
 2300SOL     OW 7798   3.452   6.807   3.398
 2300SOL    HW1 7799   3.464   6.892   3.449
 2300SOL    HW2 7800   3.478   6.729   3.455
 2301SOL     OW 7801   3.319   3.114   4.396
 2301SOL    HW1 7802   3.227   3.095   4.363
 2301SOL    HW2 7803   3.367   3.028   4.415
 2302SOL     OW 7804   3.953   1.593   0.530
 2302SOL    HW1 7805   4.026   1.567   0.593
 2302SOL    HW2 7806   3.987   1.666   0.469
 2303SOL     OW 7807   2.632   2.989   1.171
 2303SOL    HW1 7808   2.561   3.059   1.168
 2303SOL    HW2 7809   2.717   3.027   1.133
 2304SOL     OW 7810   6.407   5.693   3.555
 2304SOL    HW1 7811   6.312   5.722   3.547
 2304SOL    HW2 7812   6.452   5.703   3.466
 2305SOL     OW 7813   1.487   1.269   3.884
 2305SOL    HW1 7814   1.414   1.290   3.949
 2305SOL    HW2 7815   1.561   1.336   3.894
 2306SOL     OW 7816   1.910   4.556   3.456
 2306SOL    HW1 7817   1.908   4.656   3.446
 2306SOL    HW2 7818   1.846   4.515   3.392
 2307SOL     OW 7819   1.183   3.253   5.577
 2307SOL    HW1 7820   1.231   3.167   5.595
 2307SOL    HW2 7821   1.240   3.311   5.519
 2308SOL     OW 7822   2.180   4.867   1.750
 2308SOL    HW1 7823   2.213   4.822   1.833
 2308SOL    HW2 7824   2.189   4.966   1.761
 2309SOL     OW 7825   1.492   0.187   4.043
 2309SOL    HW1 7826   1.468   0.126   3.967
 2309SOL    HW2 7827   1.530   0.272   4.008
 2310SOL     OW 7828   4.636   6.872   1.755
 2310SOL    HW1 7829   4.676   6.912   1.837
 2310SOL    HW2 7830   4.586   6.788   1.780
 2311SOL     OW 7831   2.567   6.034   0.356
 2311SOL    HW1 7832   2.558   6.074   0.265
 2311SOL    HW2 7833   2.477   6.034   0.401
 2312SOL     OW 7834   3.674   5.871   2.618
 2312SOL    HW1 7835   3.676   5.774   2.641
 2312SOL    HW2 7836   3.709   5.885   2.525
 2313SOL     OW 7837   5.203   5.060   2.743
 2313SOL    HW1 7838   5.259   4.979   2.757
 2313SOL    HW2 7839   5.128   5.039   2.681
 2314SOL     OW 7840   3.411   5.610   2.901
 2314SOL    HW1 7841   3.353   5.528   2.901
 2314SOL    HW2 7842   3.451   5.622   2.992
 2315SOL     OW 7843   4.838   3.139   6.114
 2315SOL    HW1 7844   4.773   3.182   6.051
 2315SOL    HW2 7845   4.836   3.188   6.201
 2316SOL     OW 7846   5.434   2.813   3.093
 2316SOL    HW1 7847   5.421   2.907   3.059
 2316SOL    HW2 7848   5.356   2.757   3.066
 2317SOL     OW 7849   1.227   4.758   2.361
 2317SOL    HW1 7850   1.140   4.808   2.363
 2317SOL    HW2 7851   1.301   4.822   2.340
 2318SOL     OW 7852   0.547   1.645   3.132
 2318SOL    HW1 7853   0.634   1.601   3.157
 2318SOL    HW2 7854   0.510   1.603   3.050
 2319SOL     OW 7855   1.940   3.994   4.174
 2319SOL    HW1 7856   1.981   4.084   4.169
 2319SOL    HW2 7857   1.842   4.001   4.156
 2320SOL     OW 7858   0.021   2.566   4.038
 2320SOL    HW1 7859   6.949   2.556   4.011
 2320SOL    HW2 7860   0.074   2.600   3.960
 2321SOL     OW 7861   2.903   6.905   5.076
 2321SOL    HW1 7862   2.848   6.926   4.995
 2321SOL    HW2 7863   2.997   6.886   5.048
 2322SOL     OW 7864   1.299   1.596   5.637
 2322SOL    HW1 7865   1.340   1.650   5.563
 2322SOL    HW2 7866   1.218   1.643   5.672
 2323SOL     OW 7867   4.389   5.618   3.262
 2323SOL    HW1 7868   4.367   5.687   3.331
 2323SOL    HW2 7869   4.356   5.529   3.292
 2324SOL     OW 7870   0.877   6.170   2.822
 2324SOL    HW1 7871   0.786   6.189   2.861
 2324SOL    HW2 7872   0.885   6.072   2.804
 2325SOL     OW 7873   0.962   3.762   0.942
 2325SOL    HW1 7874   1.044   3.791   0.991
 2325SOL    HW2 7875   0.987   3.696   0.872
 2326SOL     OW 7876   1.666   5.029   6.583
 2326SOL    HW1 7877   1.649   4.941   6.540
 2326SOL    HW2 7878   1.710   5.015   6.672
 2327SOL     OW 7879   4.918   2.543   4.013
 2327SOL    HW1 7880   4.838   2.600   3.996
 2327SOL    HW2 7881   4.993   2.601   4.046
 2328SOL     OW 7882   4.791   1.309   3.030
 2328SOL    HW1 7883   4.838   1.221   3.040
 2328SOL    HW2 7884   4.765   1.322   2.935
 2329SOL     OW 7885   1.278   5.533   4.177
 2329SOL    HW1 7886   1.337   5.599   4.223
 2329SOL    HW2 7887   1.334   5.472   4.121
 2330SOL     OW 7888   0.686   4.418   2.038
 2330SOL    HW1 7889   0.717   4.427   1.943
 2330SOL    HW2 7890   0.766   4.410   2.098
 2331SOL     OW 7891   0.340   4.006   5.394
 2331SOL    HW1 7892   0.395   4.077   5.436
 2331SOL    HW2 7893   0.397   3.925   5.378
 2332SOL     OW 7894   4.997   2.895   6.312
 2332SOL    HW1 7895   4.952   2.875   6.225
 2332SOL    HW2 7896   5.071   2.961   6.297
 2333SOL     OW 7897   1.149   5.223   3.445
 2333SOL    HW1 7898   1.140   5.131   3.482
 2333SOL    HW2 7899   1.136   5.221   3.346
 2334SOL     OW 7900   3.221   6.745   0.149
 2334SOL    HW1 7901   3.283   6.668   0.131
 2334SOL    HW2 7902   3.270   6.831   0.133
 2335SOL     OW 7903   5.269   0.043   3.536
 2335SOL    HW1 7904   5.250   0.130   3.490
 2335SOL    HW2 7905   5.211   0.035   3.617
 2336SOL     OW 7906   4.855   1.046   5.999
 2336SOL    HW1 7907   4.802   1.030   6.082
 2336SOL    HW2 7908   4.810   1.116   5.944
 2337SOL     OW 7909   5.419   0.459   3.280
 2337SOL    HW1 7910   5.357   0.402   3.334
 2337SOL    HW2 7911   5.504   0.472   3.330
 2338SOL     OW 7912   6.974   6.833   6.873
 2338SOL    HW1 7913   6.885   6.809   6.836
 2338SOL    HW2 7914   0.002   6.750   6.895
 2339SOL     OW 7915   3.631   4.620   6.873
 2339SOL    HW1 7916   3.536   4.613   6.901
 2339SOL    HW2 7917   3.675   4.531   6.882
 2340SOL     OW 7918   3.348   5.916   4.913
 2340SOL    HW1 7919   3.385   6.007   4.933
 2340SOL    HW2 7920   3.305   5.879   4.995
 2341SOL     OW 7921   5.632   5.074   0.743
 2341SOL    HW1 7922   5.594   5.083   0.835
 2341SOL    HW2 7923   5.558   5.074   0.676
 2342SOL     OW 7924   6.991   0.521   5.155
 2342SOL    HW1 7925   6.933   0.536   5.075
 2342SOL    HW2 7926   6.933   0.510   5.236
 2343SOL     OW 7927   1.158   5.963   0.967
 2343SOL    HW1 7928   1.076   5.920   0.929
 2343SOL    HW2 7929   1.203   6.017   0.897
 2344SOL     OW 7930   2.334   1.617   2.506
 2344SOL    HW1 7931   2.299   1.525   2.488
 2344SOL    HW2 7932   2.417   1.632   2.452
 2345SOL     OW 7933   1.274   0.871   4.750
 2345SOL    HW1 7934   1.264   0.846   4.846
 2345SOL    HW2 7935   1.371   0.882   4.729
 2346SOL     OW 7936   5.023   3.718   5.748
 2346SOL    HW1 7937   4.945   3.697   5.689
 2346SOL    HW2 7938   5.101   3.662   5.721
 2347SOL     OW 7939   1.552   3.278   2.038
 2347SOL    HW1 7940   1.553   3.374   2.067
 2347SOL    HW2 7941   1.645   3.248   2.020
 2348SOL     OW 7942   2.948   6.623   3.646
 2348SOL    HW1 7943   3.040   6.597   3.672
 2348SOL    HW2 7944   2.941   6.626   3.546
 2349SOL     OW 7945   7.008   6.808   5.990
 2349SOL    HW1 7946   6.971   6.715   5.980
 2349SOL    HW2 7947   6.932   6.873   6.000
 2350SOL     OW 7948   2.882   0.502   5.303
 2350SOL    HW1 7949   2.884   0.506   5.403
 2350SOL    HW2 7950   2.929   0.582   5.265
 2351SOL     OW 7951   2.565   4.969   3.557
 2351SOL    HW1 7952   2.624   5.015   3.624
 2351SOL    HW2 7953   2.474   4.955   3.597
 2352SOL     OW 7954   0.009   4.215   2.802
 2352SOL    HW1 7955   7.021   4.137   2.741
 2352SOL    HW2 7956   6.964   4.211   2.875
 2353SOL     OW 7957   2.613   4.120   5.796
 2353SOL    HW1 7958   2.563   4.036   5.819
 2353SOL    HW2 7959   2.646   4.114   5.702
 2354SOL     OW 7960   3.705   2.546   0.858
 2354SOL    HW1 7961   3.654   2.483   0.916
 2354SOL    HW2 7962   3.679   2.640   0.879
 2355SOL     OW 7963   0.607   6.579   0.622
 2355SOL    HW1 7964   0.689   6.566   0.678
 2355SOL    HW2 7965   0.540   6.634   0.671
 2356SOL     OW 7966   2.258   4.973   2.754
 2356SOL    HW1 7967   2.181   4.965   2.690
 2356SOL    HW2 7968   2.279   5.070   2.768
 2357SOL     OW 7969   5.434   4.378   2.444
 2357SOL    HW1 7970   5.424   4.296   2.387
 2357SOL    HW2 7971   5.351   4.389   2.500
 2358SOL     OW 7972   3.444   0.437   5.256
 2358SOL    HW1 7973   3.366   0.466   5.201
 2358SOL    HW2 7974   3.467   0.510   5.321
 2359SOL     OW 7975   2.913   1.729   5.653
 2359SOL    HW1 7976   2.854   1.801   5.689
 2359SOL    HW2 7977   2.875   1.694   5.568
 2360SOL     OW 7978   3.656   4.865   0.748
 2360SOL    HW1 7979   3.700   4.811   0.676
 2360SOL    HW2 7980   3.693   4.839   0.837
 2361SOL     OW 7981   3.424   6.495   2.870
 2361SOL    HW1 7982   3.495   6.488   2.800
 2361SOL    HW2 7983   3.337   6.516   2.826
 2362SOL     OW 7984   4.491   5.946   4.687
 2362SOL    HW1 7985   4.417   6.009   4.710
 2362SOL    HW2 7986   4.565   5.996   4.643
 2363SOL     OW 7987   3.670   3.211   6.932
 2363SOL    HW1 7988   3.633   3.165   6.851
 2363SOL    HW2 7989   3.625   3.176   7.014
 2364SOL     OW 7990   4.912   1.488   2.104
 2364SOL    HW1 7991   4.866   1.554   2.045
 2364SOL    HW2 7992   4.888   1.395   2.075
 2365SOL     OW 7993   4.900   3.441   4.745
 2365SOL    HW1 7994   4.945   3.413   4.829
 2365SOL    HW2 7995   4.879   3.539   4.749
 2366SOL     OW 7996   1.897   4.068   5.743
 2366SOL    HW1 7997   1.877   4.165   5.731
 2366SOL    HW2 7998   1.952   4.035   5.666
 2367SOL     OW 7999   0.723   3.658   6.367
 2367SOL    HW1 8000   0.752   3.753   6.381
 2367SOL    HW2 8001   0.798   3.606   6.328
 2368SOL     OW 8002   5.290   0.251   4.378
 2368SOL    HW1 8003   5.204   0.282   4.338
 2368SOL    HW2 8004   5.303   0.295   4.467
 2369SOL     OW 8005   3.476   1.415   3.601
 2369SOL    HW1 8006   3.542   1.399   3.674
 2369SOL    HW2 8007   3.515   1.478   3.534
 2370SOL     OW 8008   4.703   2.584   0.953
 2370SOL    HW1 8009   4.657   2.671   0.940
 2370SOL    HW2 8010   4.667   2.539   1.035
 2371SOL     OW 8011   0.862   6.605   2.719
 2371SOL    HW1 8012   0.875   6.703   2.702
 2371SOL    HW2 8013   0.857   6.589   2.817
 2372SOL     OW 8014   6.373   1.296   5.732
 2372SOL    HW1 8015   6.463   1.335   5.748
 2372SOL    HW2 8016   6.305   1.369   5.729
 2373SOL     OW 8017   6.348   0.397   6.364
 2373SOL    HW1 8018   6.299   0.448   6.434
 2373SOL    HW2 8019   6.444   0.424   6.364
 2374SOL     OW 8020   6.018   5.835   3.261
 2374SOL    HW1 8021   5.920   5.813   3.267
 2374SOL    HW2 8022   6.039   5.870   3.170
 2375SOL     OW 8023   0.608   0.538   3.772
 2375SOL    HW1 8024   0.536   0.501   3.831
 2375SOL    HW2 8025   0.644   0.465   3.714
 2376SOL     OW 8026   6.705   2.019   3.239
 2376SOL    HW1 8027   6.788   1.964   3.251
 2376SOL    HW2 8028   6.722   2.112   3.270
 2377SOL     OW 8029   3.428   4.685   6.139
 2377SOL    HW1 8030   3.476   4.767   6.107
 2377SOL    HW2 8031   3.471   4.604   6.101
 2378SOL     OW 8032   6.085   2.461   0.624
 2378SOL    HW1 8033   6.165   2.509   0.659
 2378SOL    HW2 8034   6.102   2.434   0.529
 2379SOL     OW 8035   0.254   5.137   0.569
 2379SOL    HW1 8036   0.278   5.061   0.629
 2379SOL    HW2 8037   0.261   5.223   0.620
 2380SOL     OW 8038   5.914   3.317   5.253
 2380SOL    HW1 8039   5.842   3.385   5.242
 2380SOL    HW2 8040   5.994   3.344   5.201
 2381SOL     OW 8041   2.241   4.620   5.111
 2381SOL    HW1 8042   2.143   4.637   5.102
 2381SOL    HW2 8043   2.271   4.639   5.204
 2382SOL     OW 8044   2.035   5.882   2.651
 2382SOL    HW1 8045   1.941   5.849   2.654
 2382SOL    HW2 8046   2.072   5.886   2.744
 2383SOL     OW 8047   5.145   6.008   5.486
 2383SOL    HW1 8048   5.117   5.925   5.535
 2383SOL    HW2 8049   5.088   6.019   5.405
 2384SOL     OW 8050   0.674   2.482   1.415
 2384SOL    HW1 8051   0.614   2.409   1.382
 2384SOL    HW2 8052   0.719   2.453   1.500
 2385SOL     OW 8053   0.655   2.084   0.546
 2385SOL    HW1 8054   0.682   2.100   0.451
 2385SOL    HW2 8055   0.629   1.988   0.558
 2386SOL     OW 8056   3.033   5.180   4.198
 2386SOL    HW1 8057   3.066   5.261   4.246
 2386SOL    HW2 8058   3.096   5.104   4.211
 2387SOL     OW 8059   0.649   2.682   3.739
 2387SOL    HW1 8060   0.559   2.643   3.756
 2387SOL    HW2 8061   0.696   2.627   3.669
 2388SOL     OW 8062   0.070   2.066   6.310
 2388SOL    HW1 8063   0.162   2.104   6.321
 2388SOL    HW2 8064   0.072   1.991   6.244
 2389SOL     OW 8065   5.669   5.071   4.394
 2389SOL    HW1 8066   5.747   5.109   4.345
 2389SOL    HW2 8067   5.648   5.128   4.474
 2390SOL     OW 8068   4.519   3.620   6.423
 2390SOL    HW1 8069   4.428   3.661   6.410
 2390SOL    HW2 8070   4.542   3.622   6.520
 2391SOL     OW 8071   3.614   3.697   6.436
 2391SOL    HW1 8072   3.605   3.764   6.363
 2391SOL    HW2 8073   3.527   3.686   6.483
 2392SOL     OW 8074   3.334   5.152   5.884
 2392SOL    HW1 8075   3.326   5.223   5.815
 2392SOL    HW2 8076   3.268   5.079   5.864
 2393SOL     OW 8077   4.076   5.477   1.956
 2393SOL    HW1 8078   4.129   5.418   1.896
 2393SOL    HW2 8079   4.032   5.550   1.902
 2394SOL     OW 8080   0.013   3.630   3.496
 2394SOL    HW1 8081   0.093   3.642   3.556
 2394SOL    HW2 8082   0.031   3.675   3.409
 2395SOL     OW 8083   0.345   3.287   6.734
 2395SOL    HW1 8084   0.439   3.310   6.762
 2395SOL    HW2 8085   0.314   3.351   6.664
 2396SOL     OW 8086   5.663   0.535   5.479
 2396SOL    HW1 8087   5.757   0.545   5.513
 2396SOL    HW2 8088   5.622   0.626   5.469
 2397SOL     OW 8089   0.491   5.044   5.854
 2397SOL    HW1 8090   0.576   4.997   5.830
 2397SOL    HW2 8091   0.505   5.143   5.848
 2398SOL     OW 8092   2.499   5.595   3.436
 2398SOL    HW1 8093   2.591   5.595   3.397
 2398SOL    HW2 8094   2.445   5.667   3.393
 2399SOL     OW 8095   2.706   2.245   3.640
 2399SOL    HW1 8096   2.630   2.199   3.594
 2399SOL    HW2 8097   2.673   2.329   3.684
 2400SOL     OW 8098   2.285   3.842   0.275
 2400SOL    HW1 8099   2.195   3.880   0.299
 2400SOL    HW2 8100   2.279   3.788   0.192
 2401SOL     OW 8101   3.169   0.119   4.061
 2401SOL    HW1 8102   3.254   0.161   4.028
 2401SOL    HW2 8103   3.142   0.162   4.147
 2402SOL     OW 8104   1.166   1.982   3.075
 2402SOL    HW1 8105   1.140   1.943   3.163
 2402SOL    HW2 8106   1.265   1.988   3.069
 2403SOL     OW 8107   3.559   3.487   0.888
 2403SOL    HW1 8108   3.562   3.428   0.969
 2403SOL    HW2 8109   3.467   3.525   0.876
 2404SOL     OW 8110   6.325   1.511   1.414
 2404SOL    HW1 8111   6.349   1.585   1.478
 2404SOL    HW2 8112   6.243   1.537   1.363
 2405SOL     OW 8113   2.750   4.668   6.511
 2405SOL    HW1 8114   2.849   4.650   6.517
 2405SOL    HW2 8115   2.703   4.620   6.585
 2406SOL     OW 8116   1.352   0.559   3.549
 2406SOL    HW1 8117   1.434   0.600   3.590
 2406SOL    HW2 8118   1.350   0.462   3.571
 2407SOL     OW 8119   4.436   2.102   3.218
 2407SOL    HW1 8120   4.379   2.182   3.230
 2407SOL    HW2 8121   4.489   2.086   3.302
 2408SOL     OW 8122   2.497   5.829   3.227
 2408SOL    HW1 8123   2.525   5.779   3.145
 2408SOL    HW2 8124   2.489   5.926   3.205
 2409SOL     OW 8125   2.537   2.757   0.998
 2409SOL    HW1 8126   2.530   2.831   0.931
 2409SOL    HW2 8127   2.596   2.787   1.073
 2410SOL     OW 8128   6.166   3.507   5.707
 2410SOL    HW1 8129   6.102   3.552   5.768
 2410SOL    HW2 8130   6.260   3.524   5.738
 2411SOL     OW 8131   2.815   4.331   6.502
 2411SOL    HW1 8132   2.873   4.408   6.476
 2411SOL    HW2 8133   2.861   4.278   6.574
 2412SOL     OW 8134   2.900   2.988   6.811
 2412SOL    HW1 8135   2.835   2.916   6.786
 2412SOL    HW2 8136   2.926   3.039   6.729
 2413SOL     OW 8137   6.503   3.227   5.961
 2413SOL    HW1 8138   6.584   3.216   6.019
 2413SOL    HW2 8139   6.475   3.323   5.960
 2414SOL     OW 8140   5.699   2.415   3.882
 2414SOL    HW1 8141   5.641   2.402   3.801
 2414SOL    HW2 8142   5.657   2.484   3.942
 2415SOL     OW 8143   2.536   6.617   0.450
 2415SOL    HW1 8144   2.484   6.638   0.367
 2415SOL    HW2 8145   2.608   6.551   0.429
 2416SOL     OW 8146   0.710   3.196   2.721
 2416SOL    HW1 8147   0.702   3.163   2.627
 2416SOL    HW2 8148   0.766   3.279   2.722
 2417SOL     OW 8149   4.551   2.481   6.908
 2417SOL    HW1 8150   4.646   2.459   6.928
 2417SOL    HW2 8151   4.534   2.578   6.925
 2418SOL     OW 8152   4.078   4.202   5.255
 2418SOL    HW1 8153   4.095   4.300   5.245
 2418SOL    HW2 8154   3.990   4.179   5.213
 2419SOL     OW 8155   2.278   6.858   4.181
 2419SOL    HW1 8156   2.185   6.851   4.217
 2419SOL    HW2 8157   2.343   6.859   4.256
 2420SOL     OW 8158   3.459   5.928   1.757
 2420SOL    HW1 8159   3.360   5.921   1.765
 2420SOL    HW2 8160   3.495   5.845   1.714
 2421SOL     OW 8161   4.030   6.465   3.656
 2421SOL    HW1 8162   3.943   6.444   3.700
 2421SOL    HW2 8163   4.013   6.495   3.562
 2422SOL     OW 8164   3.889   6.830   1.424
 2422SOL    HW1 8165   3.979   6.788   1.417
 2422SOL    HW2 8166   3.841   6.795   1.505
 2423SOL     OW 8167   1.995   5.705   1.670
 2423SOL    HW1 8168   1.943   5.740   1.748
 2423SOL    HW2 8169   2.044   5.622   1.698
 2424SOL     OW 8170   5.410   6.454   6.790
 2424SOL    HW1 8171   5.362   6.428   6.706
 2424SOL    HW2 8172   5.346   6.498   6.853
 2425SOL     OW 8173   4.715   5.627   5.760
 2425SOL    HW1 8174   4.739   5.531   5.774
 2425SOL    HW2 8175   4.766   5.684   5.825
 2426SOL     OW 8176   1.527   5.935   4.745
 2426SOL    HW1 8177   1.436   5.971   4.724
 2426SOL    HW2 8178   1.519   5.838   4.768
 2427SOL     OW 8179   4.553   6.256   6.486
 2427SOL    HW1 8180   4.588   6.205   6.407
 2427SOL    HW2 8181   4.528   6.192   6.558
 2428SOL     OW 8182   0.263   1.359   3.143
 2428SOL    HW1 8183   0.189   1.406   3.191
 2428SOL    HW2 8184   0.349   1.408   3.158
 2429SOL     OW 8185   5.035   5.057   2.361
 2429SOL    HW1 8186   5.098   4.987   2.326
 2429SOL    HW2 8187   5.061   5.146   2.325
 2430SOL     OW 8188   5.899   2.225   0.607
 2430SOL    HW1 8189   5.924   2.144   0.554
 2430SOL    HW2 8190   5.978   2.287   0.613
 2431SOL     OW 8191   5.883   1.604   2.186
 2431SOL    HW1 8192   5.892   1.672   2.259
 2431SOL    HW2 8193   5.971   1.591   2.141
 2432SOL     OW 8194   3.075   5.300   1.741
 2432SOL    HW1 8195   3.087   5.213   1.787
 2432SOL    HW2 8196   2.985   5.304   1.698
 2433SOL     OW 8197   0.427   5.760   0.380
 2433SOL    HW1 8198   0.377   5.716   0.454
 2433SOL    HW2 8199   0.506   5.809   0.417
 2434SOL     OW 8200   4.356   2.339   2.107
 2434SOL    HW1 8201   4.373   2.416   2.169
 2434SOL    HW2 8202   4.271   2.293   2.133
 2435SOL     OW 8203   5.425   5.922   0.295
 2435SOL    HW1 8204   5.520   5.917   0.263
 2435SOL    HW2 8205   5.367   5.867   0.235
 2436SOL     OW 8206   1.645   1.196   1.396
 2436SOL    HW1 8207   1.620   1.269   1.461
 2436SOL    HW2 8208   1.596   1.112   1.421
 2437SOL     OW 8209   5.614   5.635   2.071
 2437SOL    HW1 8210   5.577   5.605   2.159
 2437SOL    HW2 8211   5.622   5.555   2.010
 2438SOL     OW 8212   3.715   2.070   4.789
 2438SOL    HW1 8213   3.704   1.975   4.762
 2438SOL    HW2 8214   3.657   2.089   4.869
 2439SOL     OW 8215   0.126   5.788   6.621
 2439SOL    HW1 8216   0.120   5.795   6.522
 2439SOL    HW2 8217   0.220   5.768   6.648
 2440SOL     OW 8218   4.330   0.519   4.761
 2440SOL    HW1 8219   4.334   0.618   4.775
 2440SOL    HW2 8220   4.267   0.479   4.827
 2441SOL     OW 8221   5.222   0.667   6.912
 2441SOL    HW1 8222   5.162   0.671   6.992
 2441SOL    HW2 8223   5.278   0.584   6.917
 2442SOL     OW 8224   5.795   3.620   2.483
 2442SOL    HW1 8225   5.760   3.684   2.552
 2442SOL    HW2 8226   5.718   3.570   2.443
 2443SOL     OW 8227   2.225   0.908   6.475
 2443SOL    HW1 8228   2.227   0.849   6.394
 2443SOL    HW2 8229   2.136   0.898   6.521
 2444SOL     OW 8230   3.912   4.953   0.311
 2444SOL    HW1 8231   3.955   5.021   0.370
 2444SOL    HW2 8232   3.900   4.991   0.219
 2445SOL     OW 8233   6.153   1.569   2.049
 2445SOL    HW1 8234   6.149   1.669   2.047
 2445SOL    HW2 8235   6.202   1.536   1.968
 2446SOL     OW 8236   0.822   2.319   2.337
 2446SOL    HW1 8237   0.822   2.247   2.407
 2446SOL    HW2 8238   0.888   2.390   2.361
 2447SOL     OW 8239   2.097   0.571   0.717
 2447SOL    HW1 8240   2.177   0.513   0.704
 2447SOL    HW2 8241   2.124   0.667   0.715
 2448SOL     OW 8242   6.204   2.298   4.385
 2448SOL    HW1 8243   6.108   2.304   4.356
 2448SOL    HW2 8244   6.216   2.222   4.448
 2449SOL     OW 8245   1.265   3.670   1.888
 2449SOL    HW1 8246   1.340   3.704   1.945
 2449SOL    HW2 8247   1.264   3.570   1.890
 2450SOL     OW 8248   3.079   5.144   0.144
 2450SOL    HW1 8249   3.060   5.158   0.047
 2450SOL    HW2 8250   3.087   5.232   0.190
 2451SOL     OW 8251   0.846   0.220   3.922
 2451SOL    HW1 8252   0.902   0.290   3.965
 2451SOL    HW2 8253   0.901   0.166   3.859
 2452SOL     OW 8254   2.168   2.354   3.258
 2452SOL    HW1 8255   2.091   2.334   3.198
 2452SOL    HW2 8256   2.252   2.318   3.217
 2453SOL     OW 8257   6.760   2.899   0.798
 2453SOL    HW1 8258   6.778   2.922   0.702
 2453SOL    HW2 8259   6.670   2.855   0.805
 2454SOL     OW 8260   2.509   5.667   6.800
 2454SOL    HW1 8261   2.469   5.575   6.792
 2454SOL    HW2 8262   2.535   5.699   6.709
 2455SOL     OW 8263   3.778   1.130   0.685
 2455SOL    HW1 8264   3.699   1.179   0.720
 2455SOL    HW2 8265   3.794   1.156   0.590
 2456SOL     OW 8266   0.715   3.611   6.678
 2456SOL    HW1 8267   0.657   3.668   6.621
 2456SOL    HW2 8268   0.659   3.548   6.732
 2457SOL     OW 8269   6.055   1.056   5.554
 2457SOL    HW1 8270   6.037   1.087   5.461
 2457SOL    HW2 8271   5.970   1.054   5.606
 2458SOL     OW 8272   0.736   0.352   3.577
 2458SOL    HW1 8273   0.830   0.385   3.567
 2458SOL    HW2 8274   0.708   0.304   3.493
 2459SOL     OW 8275   2.992   5.925   5.719
 2459SOL    HW1 8276   3.009   5.866   5.798
 2459SOL    HW2 8277   2.931   5.999   5.745
 2460SOL     OW 8278   1.210   0.826   0.618
 2460SOL    HW1 8279   1.133   0.811   0.555
 2460SOL    HW2 8280   1.212   0.922   0.645
 2461SOL     OW 8281   4.955   6.644   4.247
 2461SOL    HW1 8282   4.881   6.663   4.312
 2461SOL    HW2 8283   5.028   6.712   4.258
 2462SOL     OW 8284   2.020   4.977   0.488
 2462SOL    HW1 8285   2.015   5.075   0.469
 2462SOL    HW2 8286   2.096   4.960   0.551
 2463SOL     OW 8287   6.822   2.142   0.330
 2463SOL    HW1 8288   6.775   2.087   0.261
 2463SOL    HW2 8289   6.824   2.238   0.300
 2464SOL     OW 8290   1.384   2.812   3.161
 2464SOL    HW1 8291   1.382   2.777   3.254
 2464SOL    HW2 8292   1.363   2.910   3.162
 2465SOL     OW 8293   6.805   6.223   6.494
 2465SOL    HW1 8294   6.885   6.169   6.467
 2465SOL    HW2 8295   6.723   6.166   6.487
 2466SOL     OW 8296   1.525   1.763   2.419
 2466SOL    HW1 8297   1.455   1.825   2.385
 2466SOL    HW2 8298   1.606   1.816   2.446
 2467SOL     OW 8299   4.765   1.808   5.745
 2467SOL    HW1 8300   4.710   1.886   5.715
 2467SOL    HW2 8301   4.859   1.819   5.712
 2468SOL     OW 8302   4.353   6.961   0.191
 2468SOL    HW1 8303   4.327   7.015   0.271
 2468SOL    HW2 8304   4.341   7.015   0.108
 2469SOL     OW 8305   3.963   3.282   5.536
 2469SOL    HW1 8306   3.889   3.331   5.581
 2469SOL    HW2 8307   4.010   3.224   5.602
 2470SOL     OW 8308   3.762   5.433   6.315
 2470SOL    HW1 8309   3.861   5.438   6.298
 2470SOL    HW2 8310   3.713   5.472   6.237
 2471SOL     OW 8311   3.358   6.985   0.090
 2471SOL    HW1 8312   3.370   0.024   0.166
 2471SOL    HW2 8313   3.380   0.009   0.004
 2472SOL     OW 8314   4.121   2.236   3.610
 2472SOL    HW1 8315   4.041   2.218   3.668
 2472SOL    HW2 8316   4.110   2.189   3.523
 2473SOL     OW 8317   1.114   4.066   5.694
 2473SOL    HW1 8318   1.141   4.161   5.712
 2473SOL    HW2 8319   1.157   4.034   5.609
 2474SOL     OW 8320   0.950   5.324   1.269
 2474SOL    HW1 8321   0.887   5.314   1.192
 2474SOL    HW2 8322   1.014   5.398   1.250
 2475SOL     OW 8323   4.477   0.491   1.914
 2475SOL    HW1 8324   4.482   0.392   1.924
 2475SOL    HW2 8325   4.452   0.532   2.002
 2476SOL     OW 8326   5.687   0.173   2.485
 2476SOL    HW1 8327   5.696   0.233   2.564
 2476SOL    HW2 8328   5.763   0.191   2.422
 2477SOL     OW 8329   4.127   0.845   3.490
 2477SOL    HW1 8330   4.061   0.884   3.554
 2477SOL    HW2 8331   4.131   0.902   3.408
 2478SOL     OW 8332   5.873   1.217   1.725
 2478SOL    HW1 8333   5.793   1.273   1.749
 2478SOL    HW2 8334   5.863   1.184   1.631
 2479SOL     OW 8335   1.060   3.053   2.235
 2479SOL    HW1 8336   0.989   3.120   2.258
 2479SOL    HW2 8337   1.147   3.084   2.272
 2480SOL     OW 8338   4.089   3.390   1.009
 2480SOL    HW1 8339   4.166   3.453   0.999
 2480SOL    HW2 8340   4.120   3.307   1.054
 2481SOL     OW 8341   3.202   6.787   1.197
 2481SOL    HW1 8342   3.230   6.730   1.119
 2481SOL    HW2 8343   3.153   6.730   1.263
 2482SOL     OW 8344   5.662   3.272   6.352
 2482SOL    HW1 8345   5.669   3.175   6.374
 2482SOL    HW2 8346   5.664   3.326   6.437
 2483SOL     OW 8347   2.078   1.899   6.709
 2483SOL    HW1 8348   2.140   1.928   6.782
 2483SOL    HW2 8349   2.104   1.943   6.623
 2484SOL     OW 8350   3.246   0.891   0.192
 2484SOL    HW1 8351   3.278   0.909   0.285
 2484SOL    HW2 8352   3.320   0.849   0.139
 2485SOL     OW 8353   5.160   3.094   0.750
 2485SOL    HW1 8354   5.094   3.154   0.704
 2485SOL    HW2 8355   5.198   3.141   0.830
 2486SOL     OW 8356   1.554   4.898   5.419
 2486SOL    HW1 8357   1.586   4.932   5.331
 2486SOL    HW2 8358   1.455   4.883   5.415
 2487SOL     OW 8359   4.680   6.516   0.458
 2487SOL    HW1 8360   4.636   6.429   0.437
 2487SOL    HW2 8361   4.617   6.591   0.436
 2488SOL     OW 8362   0.759   3.905   2.069
 2488SOL    HW1 8363   0.771   3.896   1.970
 2488SOL    HW2 8364   0.827   3.968   2.106
 2489SOL     OW 8365   0.578   5.856   3.921
 2489SOL    HW1 8366   0.670   5.845   3.957
 2489SOL    HW2 8367   0.558   5.954   3.912
 2490SOL     OW 8368   0.170   5.254   0.921
 2490SOL    HW1 8369   0.189   5.314   0.843
 2490SOL    HW2 8370   0.077   5.217   0.912
 2491SOL     OW 8371   3.146   4.203   0.341
 2491SOL    HW1 8372   3.065   4.262   0.346
 2491SOL    HW2 8373   3.208   4.238   0.272
 2492SOL     OW 8374   4.520   3.994   0.806
 2492SOL    HW1 8375   4.447   3.933   0.774
 2492SOL    HW2 8376   4.589   3.939   0.854
 2493SOL     OW 8377   6.768   6.908   1.813
 2493SOL    HW1 8378   6.816   6.916   1.900
 2493SOL    HW2 8379   6.778   6.993   1.761
 2494SOL     OW 8380   5.686   4.486   2.487
 2494SOL    HW1 8381   5.688   4.584   2.469
 2494SOL    HW2 8382   5.593   4.452   2.474
 2495SOL     OW 8383   5.307   6.087   3.658
 2495SOL    HW1 8384   5.331   5.993   3.684
 2495SOL    HW2 8385   5.219   6.087   3.610
 2496SOL     OW 8386   0.725   2.659   6.456
 2496SOL    HW1 8387   0.770   2.734   6.408
 2496SOL    HW2 8388   0.711   2.583   6.393
 2497SOL     OW 8389   0.464   0.279   0.587
 2497SOL    HW1 8390   0.416   0.219   0.524
 2497SOL    HW2 8391   0.549   0.235   0.617
 2498SOL     OW 8392   2.821   2.039   5.389
 2498SOL    HW1 8393   2.781   1.956   5.427
 2498SOL    HW2 8394   2.804   2.042   5.291
 2499SOL     OW 8395   5.952   3.221   2.037
 2499SOL    HW1 8396   5.874   3.240   1.977
 2499SOL    HW2 8397   5.926   3.242   2.132
 2500SOL     OW 8398   3.798   4.302   6.819
 2500SOL    HW1 8399   3.858   4.223   6.815
 2500SOL    HW2 8400   3.746   4.301   6.904
 2501SOL     OW 8401   5.160   5.506   0.906
 2501SOL    HW1 8402   5.082   5.447   0.921
 2501SOL    HW2 8403   5.244   5.457   0.929
 2502SOL     OW 8404   1.167   0.392   4.471
 2502SOL    HW1 8405   1.262   0.424   4.465
 2502SOL    HW2 8406   1.152   0.318   4.406
 2503SOL     OW 8407   2.336   6.412   4.338
 2503SOL    HW1 8408   2.353   6.430   4.241
 2503SOL    HW2 8409   2.418   6.432   4.392
 2504SOL     OW 8410   4.150   5.238   3.517
 2504SOL    HW1 8411   4.203   5.272   3.595
 2504SOL    HW2 8412   4.059   5.211   3.547
 2505SOL     OW 8413   6.843   6.965   2.782
 2505SOL    HW1 8414   6.921   6.903   2.774
 2505SOL    HW2 8415   6.835   6.996   2.877
 2506SOL     OW 8416   6.744   4.040   6.318
 2506SOL    HW1 8417   6.765   3.960   6.262
 2506SOL    HW2 8418   6.816   4.109   6.306
 2507SOL     OW 8419   6.548   3.343   0.230
 2507SOL    HW1 8420   6.576   3.258   0.185
 2507SOL    HW2 8421   6.552   3.418   0.164
 2508SOL     OW 8422   3.048   1.446   3.443
 2508SOL    HW1 8423   2.967   1.475   3.392
 2508SOL    HW2 8424   3.123   1.511   3.428
 2509SOL     OW 8425   0.428   4.132   0.715
 2509SOL    HW1 8426   0.509   4.149   0.772
 2509SOL    HW2 8427   0.444   4.168   0.623
 2510SOL     OW 8428   2.557   5.168   1.174
 2510SOL    HW1 8429   2.625   5.131   1.236
 2510SOL    HW2 8430   2.491   5.097   1.150
 2511SOL     OW 8431   3.567   2.129   4.086
 2511SOL    HW1 8432   3.661   2.105   4.110
 2511SOL    HW2 8433   3.506   2.100   4.161
 2512SOL     OW 8434   4.745   3.976   5.526
 2512SOL    HW1 8435   4.751   3.889   5.576
 2512SOL    HW2 8436   4.809   4.042   5.566
 2513SOL     OW 8437   1.956   4.624   5.045
 2513SOL    HW1 8438   1.888   4.550   5.042
 2513SOL    HW2 8439   1.946   4.682   4.964
 2514SOL     OW 8440   0.766   3.883   5.079
 2514SOL    HW1 8441   0.738   3.845   4.990
 2514SOL    HW2 8442   0.693   3.942   5.114
 2515SOL     OW 8443   1.072   6.436   0.497
 2515SOL    HW1 8444   1.169   6.442   0.470
 2515SOL    HW2 8445   1.026   6.368   0.441
 2516SOL     OW 8446   5.183   1.537   2.887
 2516SOL    HW1 8447   5.262   1.575   2.839
 2516SOL    HW2 8448   5.178   1.438   2.870
 2517SOL     OW 8449   0.683   6.812   6.121
 2517SOL    HW1 8450   0.619   6.738   6.100
 2517SOL    HW2 8451   0.691   6.873   6.043
 2518SOL     OW 8452   1.525   5.170   0.431
 2518SOL    HW1 8453   1.434   5.209   0.445
 2518SOL    HW2 8454   1.542   5.160   0.333
 2519SOL     OW 8455   3.713   6.443   1.930
 2519SOL    HW1 8456   3.703   6.418   1.834
 2519SOL    HW2 8457   3.665   6.377   1.987
 2520SOL     OW 8458   3.248   1.612   0.835
 2520SOL    HW1 8459   3.306   1.628   0.755
 2520SOL    HW2 8460   3.280   1.530   0.883
 2521SOL     OW 8461   2.950   0.654   5.540
 2521SOL    HW1 8462   3.036   0.633   5.586
 2521SOL    HW2 8463   2.947   0.752   5.518
 2522SOL     OW 8464   0.646   2.270   5.345
 2522SOL    HW1 8465   0.721   2.314   5.395
 2522SOL    HW2 8466   0.562   2.276   5.399
 2523SOL     OW 8467   0.809   2.834   1.156
 2523SOL    HW1 8468   0.777   2.779   1.233
 2523SOL    HW2 8469   0.892   2.883   1.183
 2524SOL     OW 8470   0.591   6.787   4.963
 2524SOL    HW1 8471   0.675   6.775   5.017
 2524SOL    HW2 8472   0.513   6.749   5.012
 2525SOL     OW 8473   0.892   2.450   5.362
 2525SOL    HW1 8474   0.945   2.365   5.369
 2525SOL    HW2 8475   0.912   2.494   5.275
 2526SOL     OW 8476   1.469   5.243   6.308
 2526SOL    HW1 8477   1.525   5.181   6.253
 2526SOL    HW2 8478   1.380   5.256   6.264
 2527SOL     OW 8479   5.241   6.130   5.746
 2527SOL    HW1 8480   5.231   6.073   5.664
 2527SOL    HW2 8481   5.201   6.082   5.824
 2528SOL     OW 8482   6.417   4.715   6.910
 2528SOL    HW1 8483   6.360   4.791   6.878
 2528SOL    HW2 8484   6.470   4.678   6.834
 2529SOL     OW 8485   6.520   6.104   6.546
 2529SOL    HW1 8486   6.520   6.046   6.465
 2529SOL    HW2 8487   6.425   6.121   6.574
 2530SOL     OW 8488   2.961   6.417   4.631
 2530SOL    HW1 8489   2.993   6.507   4.660
 2530SOL    HW2 8490   2.985   6.403   4.535
 2531SOL     OW 8491   5.141   5.867   4.939
 2531SOL    HW1 8492   5.112   5.771   4.938
 2531SOL    HW2 8493   5.240   5.871   4.954
 2532SOL     OW 8494   0.045   6.101   0.673
 2532SOL    HW1 8495   0.054   6.117   0.575
 2532SOL    HW2 8496   6.984   6.051   0.691
 2533SOL     OW 8497   3.891   6.661   4.173
 2533SOL    HW1 8498   3.826   6.682   4.100
 2533SOL    HW2 8499   3.846   6.671   4.262
 2534SOL     OW 8500   3.933   1.205   2.066
 2534SOL    HW1 8501   3.851   1.216   2.011
 2534SOL    HW2 8502   3.933   1.115   2.109
 2535SOL     OW 8503   3.261   3.044   5.485
 2535SOL    HW1 8504   3.171   3.005   5.502
 2535SOL    HW2 8505   3.272   3.063   5.387
 2536SOL     OW 8506   1.126   1.673   5.032
 2536SOL    HW1 8507   1.225   1.674   5.023
 2536SOL    HW2 8508   1.097   1.590   5.079
 2537SOL     OW 8509   3.631   0.383   6.356
 2537SOL    HW1 8510   3.536   0.380   6.388
 2537SOL    HW2 8511   3.636   0.436   6.271
 2538SOL     OW 8512   0.796   4.364   3.105
 2538SOL    HW1 8513   0.877   4.316   3.138
 2538SOL    HW2 8514   0.714   4.310   3.126
 2539SOL     OW 8515   6.134   0.989   4.615
 2539SOL    HW1 8516   6.110   0.902   4.658
 2539SOL    HW2 8517   6.212   1.029   4.664
 2540SOL     OW 8518   3.832   1.780   2.963
 2540SOL    HW1 8519   3.732   1.787   2.971
 2540SOL    HW2 8520   3.859   1.811   2.871
 2541SOL     OW 8521   2.582   0.686   5.193
 2541SOL    HW1 8522   2.496   0.676   5.144
 2541SOL    HW2 8523   2.654   0.714   5.129
 2542SOL     OW 8524   2.752   2.391   5.735
 2542SOL    HW1 8525   2.832   2.449   5.724
 2542SOL    HW2 8526   2.742   2.332   5.655
 2543SOL     OW 8527   1.111   1.008   2.829
 2543SOL    HW1 8528   1.135   1.038   2.737
 2543SOL    HW2 8529   1.148   1.072   2.896
 2544SOL     OW 8530   0.533   6.026   1.314
 2544SOL    HW1 8531   0.550   6.081   1.396
 2544SOL    HW2 8532   0.581   6.066   1.236
 2545SOL     OW 8533   0.783   0.030   2.457
 2545SOL    HW1 8534   0.708   6.997   2.422
 2545SOL    HW2 8535   0.748   0.121   2.478
 2546SOL     OW 8536   6.861   0.656   1.943
 2546SOL    HW1 8537   6.917   0.739   1.954
 2546SOL    HW2 8538   6.765   0.678   1.961
 2547SOL     OW 8539   6.783   4.691   0.456
 2547SOL    HW1 8540   6.840   4.635   0.396
 2547SOL    HW2 8541   6.769   4.642   0.542
 2548SOL     OW 8542   1.075   6.678   5.706
 2548SOL    HW1 8543   1.071   6.595   5.763
 2548SOL    HW2 8544   0.998   6.737   5.727
 2549SOL     OW 8545   1.901   0.381   1.058
 2549SOL    HW1 8546   1.984   0.436   1.044
 2549SOL    HW2 8547   1.909   0.296   1.005
 2550SOL     OW 8548   0.349   0.520   6.598
 2550SOL    HW1 8549   0.300   0.607   6.593
 2550SOL    HW2 8550   0.295   0.455   6.652
 2551SOL     OW 8551   3.136   5.358   0.527
 2551SOL    HW1 8552   3.056   5.410   0.558
 2551SOL    HW2 8553   3.219   5.407   0.552
 2552SOL     OW 8554   1.794   6.144   4.498
 2552SOL    HW1 8555   1.793   6.243   4.514
 2552SOL    HW2 8556   1.882   6.106   4.527
 2553SOL     OW 8557   4.833   3.583   6.122
 2553SOL    HW1 8558   4.753   3.533   6.153
 2553SOL    HW2 8559   4.804   3.660   6.064
 2554SOL     OW 8560   1.978   6.798   0.265
 2554SOL    HW1 8561   1.984   6.707   0.306
 2554SOL    HW2 8562   1.939   6.862   0.331
 2555SOL     OW 8563   5.146   6.850   5.014
 2555SOL    HW1 8564   5.112   6.923   4.954
 2555SOL    HW2 8565   5.194   6.782   4.959
 2556SOL     OW 8566   4.030   5.918   0.095
 2556SOL    HW1 8567   4.003   5.825   0.071
 2556SOL    HW2 8568   3.951   5.969   0.128
 2557SOL     OW 8569   1.981   4.652   6.935
 2557SOL    HW1 8570   2.063   4.634   6.881
 2557SOL    HW2 8571   2.004   4.647   0.009
 2558SOL     OW 8572   5.520   1.529   4.962
 2558SOL    HW1 8573   5.544   1.597   4.893
 2558SOL    HW2 8574   5.583   1.451   4.956
 2559SOL     OW 8575   0.569   4.184   4.929
 2559SOL    HW1 8576   0.560   4.138   5.017
 2559SOL    HW2 8577   0.647   4.148   4.879
 2560SOL     OW 8578   5.463   2.839   4.585
 2560SOL    HW1 8579   5.537   2.876   4.530
 2560SOL    HW2 8580   5.431   2.753   4.545
 2561SOL     OW 8581   3.096   6.041   5.098
 2561SOL    HW1 8582   3.124   5.945   5.104
 2561SOL    HW2 8583   3.007   6.047   5.055
 2562SOL     OW 8584   2.241   5.084   1.378
 2562SOL    HW1 8585   2.309   5.157   1.375
 2562SOL    HW2 8586   2.149   5.123   1.382
 2563SOL     OW 8587   3.790   1.839   0.376
 2563SOL    HW1 8588   3.805   1.792   0.289
 2563SOL    HW2 8589   3.850   1.918   0.382
 2564SOL     OW 8590   2.105   5.495   6.326
 2564SOL    HW1 8591   2.079   5.490   6.229
 2564SOL    HW2 8592   2.027   5.528   6.379
 2565SOL     OW 8593   1.240   0.265   0.234
 2565SOL    HW1 8594   1.248   0.199   0.309
 2565SOL    HW2 8595   1.163   0.239   0.176
 2566SOL     OW 8596   2.424   6.632   1.200
 2566SOL    HW1 8597   2.483   6.672   1.270
 2566SOL    HW2 8598   2.348   6.585   1.243
 2567SOL     OW 8599   0.997   0.532   0.875
 2567SOL    HW1 8600   0.915   0.504   0.827
 2567SOL    HW2 8601   0.982   0.620   0.920
 2568SOL     OW 8602   4.442   0.754   6.886
 2568SOL    HW1 8603   4.408   0.748   6.792
 2568SOL    HW2 8604   4.479   0.665   6.913
 2569SOL     OW 8605   3.199   1.498   2.052
 2569SOL    HW1 8606   3.130   1.568   2.074
 2569SOL    HW2 8607   3.153   1.412   2.028
 2570SOL     OW 8608   5.580   0.176   6.776
 2570SOL    HW1 8609   5.561   0.078   6.784
 2570SOL    HW2 8610   5.497   0.228   6.799
 2571SOL     OW 8611   2.465   4.485   4.993
 2571SOL    HW1 8612   2.453   4.393   4.956
 2571SOL    HW2 8613   2.376   4.522   5.020
 2572SOL     OW 8614   2.267   5.845   0.808
 2572SOL    HW1 8615   2.196   5.844   0.739
 2572SOL    HW2 8616   2.337   5.777   0.786
 2573SOL     OW 8617   0.032   1.960   1.585
 2573SOL    HW1 8618   0.092   1.915   1.651
 2573SOL    HW2 8619   0.030   1.907   1.500
 2574SOL     OW 8620   5.603   4.174   0.613
 2574SOL    HW1 8621   5.520   4.211   0.656
 2574SOL    HW2 8622   5.668   4.146   0.683
 2575SOL     OW 8623   5.428   5.354   0.884
 2575SOL    HW1 8624   5.485   5.432   0.857
 2575SOL    HW2 8625   5.446   5.331   0.980
 2576SOL     OW 8626   4.376   6.691   4.844
 2576SOL    HW1 8627   4.473   6.671   4.838
 2576SOL    HW2 8628   4.345   6.733   4.758
 2577SOL     OW 8629   3.910   6.364   2.243
 2577SOL    HW1 8630   3.921   6.435   2.173
 2577SOL    HW2 8631   3.813   6.342   2.253
 2578SOL     OW 8632   4.909   1.846   4.732
 2578SOL    HW1 8633   4.849   1.772   4.700
 2578SOL    HW2 8634   5.001   1.811   4.745
 2579SOL     OW 8635   1.801   6.784   3.024
 2579SOL    HW1 8636   1.765   6.783   3.117
 2579SOL    HW2 8637   1.834   6.693   2.999
 2580SOL     OW 8638   3.748   4.179   6.594
 2580SOL    HW1 8639   3.665   4.124   6.592
 2580SOL    HW2 8640   3.751   4.232   6.679
 2581SOL     OW 8641   1.987   4.894   2.123
 2581SOL    HW1 8642   1.924   4.849   2.060
 2581SOL    HW2 8643   2.013   4.831   2.196
 2582SOL     OW 8644   0.174   4.246   1.305
 2582SOL    HW1 8645   0.202   4.202   1.220
 2582SOL    HW2 8646   0.228   4.329   1.319
 2583SOL     OW 8647   1.448   2.066   6.246
 2583SOL    HW1 8648   1.544   2.090   6.229
 2583SOL    HW2 8649   1.439   2.033   6.340
 2584SOL     OW 8650   5.014   5.163   6.046
 2584SOL    HW1 8651   4.942   5.229   6.067
 2584SOL    HW2 8652   4.980   5.096   5.980
 2585SOL     OW 8653   4.126   3.357   0.579
 2585SOL    HW1 8654   4.038   3.392   0.612
 2585SOL    HW2 8655   4.168   3.425   0.518
 2586SOL     OW 8656   3.624   0.787   4.639
 2586SOL    HW1 8657   3.528   0.766   4.621
 2586SOL    HW2 8658   3.632   0.835   4.727
 2587SOL     OW 8659   6.521   0.784   3.482
 2587SOL    HW1 8660   6.537   0.824   3.392
 2587SOL    HW2 8661   6.469   0.699   3.472
 2588SOL     OW 8662   5.267   2.137   6.606
 2588SOL    HW1 8663   5.297   2.069   6.540
 2588SOL    HW2 8664   5.293   2.229   6.574
 2589SOL     OW 8665   1.484   6.439   5.204
 2589SOL    HW1 8666   1.453   6.511   5.266
 2589SOL    HW2 8667   1.574   6.405   5.234
 2590SOL     OW 8668   3.585   4.938   0.051
 2590SOL    HW1 8669   3.635   4.900   6.997
 2590SOL    HW2 8670   3.571   4.867   0.120
 2591SOL     OW 8671   0.001   4.577   2.886
 2591SOL    HW1 8672   7.020   4.537   2.794
 2591SOL    HW2 8673   0.047   4.512   2.947
 2592SOL     OW 8674   2.891   5.530   0.530
 2592SOL    HW1 8675   2.936   5.611   0.491
 2592SOL    HW2 8676   2.907   5.528   0.629
 2593SOL     OW 8677   4.296   5.912   0.011
 2593SOL    HW1 8678   4.370   5.941   0.071
 2593SOL    HW2 8679   4.212   5.903   0.064
 2594SOL     OW 8680   1.572   4.447   6.356
 2594SOL    HW1 8681   1.607   4.355   6.341
 2594SOL    HW2 8682   1.506   4.446   6.431
 2595SOL     OW 8683   0.279   0.927   4.239
 2595SOL    HW1 8684   0.337   0.927   4.158
 2595SOL    HW2 8685   0.328   0.886   4.315
 2596SOL     OW 8686   3.157   2.187   1.844
 2596SOL    HW1 8687   3.165   2.258   1.774
 2596SOL    HW2 8688   3.060   2.170   1.863
 2597SOL     OW 8689   0.690   5.240   6.132
 2597SOL    HW1 8690   0.768   5.177   6.139
 2597SOL    HW2 8691   0.615   5.206   6.189
 2598SOL     OW 8692   6.272   1.666   2.814
 2598SOL    HW1 8693   6.318   1.625   2.893
 2598SOL    HW2 8694   6.327   1.652   2.732
 2599SOL     OW 8695   1.490   5.865   0.933
 2599SOL    HW1 8696   1.510   5.962   0.925
 2599SOL    HW2 8697   1.431   5.849   1.012
 2600SOL     OW 8698   5.436   2.590   4.416
 2600SOL    HW1 8699   5.520   2.543   4.388
 2600SOL    HW2 8700   5.357   2.540   4.380
 2601SOL     OW 8701   1.873   1.538   1.572
 2601SOL    HW1 8702   1.862   1.516   1.669
 2601SOL    HW2 8703   1.804   1.605   1.545
 2602SOL     OW 8704   1.167   4.822   4.992
 2602SOL    HW1 8705   1.234   4.751   5.017
 2602SOL    HW2 8706   1.160   4.889   5.065
 2603SOL     OW 8707   3.010   1.296   2.892
 2603SOL    HW1 8708   3.099   1.298   2.937
 2603SOL    HW2 8709   3.020   1.258   2.800
 2604SOL     OW 8710   4.603   2.292   2.937
 2604SOL    HW1 8711   4.540   2.338   3.000
 2604SOL    HW2 8712   4.606   2.342   2.850
 2605SOL     OW 8713   1.682   2.735   2.786
 2605SOL    HW1 8714   1.633   2.710   2.702
 2605SOL    HW2 8715   1.628   2.803   2.836
 2606SOL     OW 8716   6.109   5.141   1.509
 2606SOL    HW1 8717   6.167   5.219   1.486
 2606SOL    HW2 8718   6.096   5.084   1.428
 2607SOL     OW 8719   0.897   1.686   1.613
 2607SOL    HW1 8720   0.813   1.669   1.664
 2607SOL    HW2 8721   0.896   1.779   1.577
 2608SOL     OW 8722   3.937   5.755   0.956
 2608SOL    HW1 8723   3.861   5.770   1.019
 2608SOL    HW2 8724   4.004   5.693   0.997
 2609SOL     OW 8725   6.119   1.347   2.179
 2609SOL    HW1 8726   6.128   1.432   2.128
 2609SOL    HW2 8727   6.180   1.350   2.259
 2610SOL     OW 8728   0.922   4.401   4.547
 2610SOL    HW1 8729   0.936   4.303   4.552
 2610SOL    HW2 8730   1.009   4.449   4.560
 2611SOL     OW 8731   4.519   6.236   0.537
 2611SOL    HW1 8732   4.478   6.316   0.580
 2611SOL    HW2 8733   4.492   6.153   0.586
 2612SOL     OW 8734   6.056   6.408   4.722
 2612SOL    HW1 8735   5.981   6.472   4.705
 2612SOL    HW2 8736   6.074   6.403   4.820
 2613SOL     OW 8737   2.265   4.895   5.809
 2613SOL    HW1 8738   2.229   4.861   5.722
 2613SOL    HW2 8739   2.191   4.937   5.862
 2614SOL     OW 8740   6.841   2.631   0.097
 2614SOL    HW1 8741   6.868   2.597   0.007
 2614SOL    HW2 8742   6.781   2.710   0.086
 2615SOL     OW 8743   0.778   3.230   2.219
 2615SOL    HW1 8744   0.833   3.268   2.294
 2615SOL    HW2 8745   0.695   3.284   2.208
 2616SOL     OW 8746   2.421   2.447   5.921
 2616SOL    HW1 8747   2.463   2.507   5.853
 2616SOL    HW2 8748   2.322   2.454   5.914
 2617SOL     OW 8749   4.493   1.041   0.370
 2617SOL    HW1 8750   4.486   0.950   0.412
 2617SOL    HW2 8751   4.429   1.103   0.414
 2618SOL     OW 8752   6.639   0.373   3.928
 2618SOL    HW1 8753   6.639   0.308   4.003
 2618SOL    HW2 8754   6.703   0.343   3.857
 2619SOL     OW 8755   4.711   1.656   2.008
 2619SOL    HW1 8756   4.715   1.739   2.065
 2619SOL    HW2 8757   4.617   1.641   1.977
 2620SOL     OW 8758   6.643   7.018   3.329
 2620SOL    HW1 8759   6.696   0.054   3.389
 2620SOL    HW2 8760   6.704   6.977   3.261
 2621SOL     OW 8761   0.968   5.553   2.505
 2621SOL    HW1 8762   0.886   5.574   2.559
 2621SOL    HW2 8763   1.005   5.465   2.533
 2622SOL     OW 8764   2.411   3.570   5.892
 2622SOL    HW1 8765   2.458   3.573   5.980
 2622SOL    HW2 8766   2.439   3.649   5.837
 2623SOL     OW 8767   0.932   1.082   5.358
 2623SOL    HW1 8768   0.980   1.037   5.282
 2623SOL    HW2 8769   0.949   1.180   5.355
 2624SOL     OW 8770   0.325   2.032   5.155
 2624SOL    HW1 8771   0.269   1.975   5.094
 2624SOL    HW2 8772   0.344   2.119   5.111
 2625SOL     OW 8773   2.429   3.741   5.627
 2625SOL    HW1 8774   2.521   3.767   5.657
 2625SOL    HW2 8775   2.436   3.689   5.542
 2626SOL     OW 8776   6.603   0.472   6.323
 2626SOL    HW1 8777   6.585   0.451   6.227
 2626SOL    HW2 8778   6.649   0.560   6.329
 2627SOL     OW 8779   2.077   1.229   5.903
 2627SOL    HW1 8780   2.000   1.172   5.932
 2627SOL    HW2 8781   2.161   1.174   5.904
 2628SOL     OW 8782   2.069   3.656   5.173
 2628SOL    HW1 8783   1.988   3.604   5.199
 2628SOL    HW2 8784   2.103   3.707   5.252
 2629SOL     OW 8785   3.677   3.353   2.421
 2629SOL    HW1 8786   3.770   3.374   2.451
 2629SOL    HW2 8787   3.663   3.254   2.422
 2630SOL     OW 8788   3.547   1.191   2.812
 2630SOL    HW1 8789   3.557   1.096   2.783
 2630SOL    HW2 8790   3.591   1.251   2.745
 2631SOL     OW 8791   4.941   1.013   6.595
 2631SOL    HW1 8792   4.963   1.110   6.584
 2631SOL    HW2 8793   4.933   0.991   6.692
 2632SOL     OW 8794   5.573   3.505   0.324
 2632SOL    HW1 8795   5.493   3.456   0.291
 2632SOL    HW2 8796   5.576   3.501   0.424
 2633SOL     OW 8797   6.692   2.148   4.907
 2633SOL    HW1 8798   6.735   2.159   4.817
 2633SOL    HW2 8799   6.724   2.220   4.969
 2634SOL     OW 8800   0.571   5.637   3.653
 2634SOL    HW1 8801   0.549   5.697   3.730
 2634SOL    HW2 8802   0.670   5.630   3.644
 2635SOL     OW 8803   6.760   5.690   4.218
 2635SOL    HW1 8804   6.700   5.611   4.206
 2635SOL    HW2 8805   6.707   5.769   4.249
 2636SOL     OW 8806   3.957   0.731   6.867
 2636SOL    HW1 8807   3.964   0.819   6.818
 2636SOL    HW2 8808   3.898   0.669   6.815
 2637SOL     OW 8809   6.453   1.725   3.959
 2637SOL    HW1 8810   6.388   1.799   3.974
 2637SOL    HW2 8811   6.455   1.701   3.862
 2638SOL     OW 8812   0.076   6.613   4.699
 2638SOL    HW1 8813   0.100   6.707   4.672
 2638SOL    HW2 8814   7.010   6.590   4.661
 2639SOL     OW 8815   6.559   5.870   6.687
 2639SOL    HW1 8816   6.553   5.961   6.645
 2639SOL    HW2 8817   6.584   5.879   6.783
 2640SOL     OW 8818   6.772   6.738   4.996
 2640SOL    HW1 8819   6.702   6.709   4.931
 2640SOL    HW2 8820   6.783   6.668   5.066
 2641SOL     OW 8821   5.153   2.353   1.612
 2641SOL    HW1 8822   5.245   2.319   1.634
 2641SOL    HW2 8823   5.136   2.437   1.663
 2642SOL     OW 8824   6.128   6.998   4.152
 2642SOL    HW1 8825   6.135   0.074   4.157
 2642SOL    HW2 8826   6.217   6.959   4.127
 2643SOL     OW 8827   1.275   3.624   3.555
 2643SOL    HW1 8828   1.192   3.673   3.528
 2643SOL    HW2 8829   1.326   3.678   3.622
 2644SOL     OW 8830   4.371   5.111   5.275
 2644SOL    HW1 8831   4.318   5.053   5.337
 2644SOL    HW2 8832   4.310   5.178   5.232
 2645SOL     OW 8833   5.088   5.148   3.574
 2645SOL    HW1 8834   5.041   5.089   3.639
 2645SOL    HW2 8835   5.049   5.240   3.578
 2646SOL     OW 8836   0.169   2.627   0.004
 2646SOL    HW1 8837   0.185   2.571   6.947
 2646SOL    HW2 8838   0.216   2.588   0.082
 2647SOL     OW 8839   5.898   0.203   1.503
 2647SOL    HW1 8840   5.883   0.250   1.415
 2647SOL    HW2 8841   5.995   0.211   1.528
 2648SOL     OW 8842   6.880   6.505   4.599
 2648SOL    HW1 8843   6.839   6.420   4.632
 2648SOL    HW2 8844   6.811   6.558   4.549
 2649SOL     OW 8845   6.140   3.006   1.347
 2649SOL    HW1 8846   6.095   3.016   1.436
 2649SOL    HW2 8847   6.220   3.066   1.344
 2650SOL     OW 8848   2.390   5.765   4.361
 2650SOL    HW1 8849   2.374   5.672   4.394
 2650SOL    HW2 8850   2.310   5.822   4.382
 2651SOL     OW 8851   2.912   1.438   0.737
 2651SOL    HW1 8852   2.909   1.536   0.722
 2651SOL    HW2 8853   2.975   1.396   0.671
 2652SOL     OW 8854   4.851   3.442   5.853
 2652SOL    HW1 8855   4.867   3.504   5.929
 2652SOL    HW2 8856   4.804   3.360   5.885
 2653SOL     OW 8857   4.543   5.869   6.041
 2653SOL    HW1 8858   4.560   5.967   6.051
 2653SOL    HW2 8859   4.530   5.847   5.945
 2654SOL     OW 8860   4.814   6.142   1.289
 2654SOL    HW1 8861   4.728   6.092   1.290
 2654SOL    HW2 8862   4.795   6.240   1.283
 2655SOL     OW 8863   4.737   5.512   3.749
 2655SOL    HW1 8864   4.648   5.510   3.793
 2655SOL    HW2 8865   4.804   5.462   3.804
 2656SOL     OW 8866   3.332   5.198   4.078
 2656SOL    HW1 8867   3.378   5.221   3.993
 2656SOL    HW2 8868   3.243   5.242   4.082
 2657SOL     OW 8869   2.124   3.471   0.725
 2657SOL    HW1 8870   2.070   3.512   0.652
 2657SOL    HW2 8871   2.122   3.371   0.716
 2658SOL     OW 8872   4.377   4.756   0.046
 2658SOL    HW1 8873   4.466   4.791   0.074
 2658SOL    HW2 8874   4.377   4.737   6.972
 2659SOL     OW 8875   4.725   3.255   5.433
 2659SOL    HW1 8876   4.670   3.338   5.424
 2659SOL    HW2 8877   4.822   3.279   5.430
 2660SOL     OW 8878   0.792   0.869   1.562
 2660SOL    HW1 8879   0.695   0.875   1.586
 2660SOL    HW2 8880   0.833   0.790   1.608
 2661SOL     OW 8881   1.892   6.695   1.707
 2661SOL    HW1 8882   1.975   6.679   1.760
 2661SOL    HW2 8883   1.858   6.787   1.725
 2662SOL     OW 8884   2.625   0.372   3.608
 2662SOL    HW1 8885   2.724   0.387   3.609
 2662SOL    HW2 8886   2.590   0.377   3.701
 2663SOL     OW 8887   4.418   5.181   6.538
 2663SOL    HW1 8888   4.518   5.175   6.536
 2663SOL    HW2 8889   4.388   5.204   6.631
 2664SOL     OW 8890   4.309   3.464   5.339
 2664SOL    HW1 8891   4.267   3.393   5.284
 2664SOL    HW2 8892   4.299   3.553   5.293
 2665SOL     OW 8893   2.319   3.516   5.269
 2665SOL    HW1 8894   2.248   3.587   5.278
 2665SOL    HW2 8895   2.398   3.541   5.325
 2666SOL     OW 8896   1.543   4.328   1.492
 2666SOL    HW1 8897   1.578   4.271   1.417
 2666SOL    HW2 8898   1.571   4.288   1.579
 2667SOL     OW 8899   0.969   5.490   4.245
 2667SOL    HW1 8900   0.928   5.468   4.333
 2667SOL    HW2 8901   1.066   5.464   4.246
 2668SOL     OW 8902   5.797   2.747   4.475
 2668SOL    HW1 8903   5.807   2.752   4.574
 2668SOL    HW2 8904   5.724   2.809   4.445
 2669SOL     OW 8905   3.462   5.940   6.753
 2669SOL    HW1 8906   3.533   6.008   6.771
 2669SOL    HW2 8907   3.386   5.953   6.816
 2670SOL     OW 8908   5.813   2.772   4.786
 2670SOL    HW1 8909   5.819   2.821   4.873
 2670SOL    HW2 8910   5.791   2.676   4.803
 2671SOL     OW 8911   4.779   5.348   6.066
 2671SOL    HW1 8912   4.743   5.352   5.972
 2671SOL    HW2 8913   4.706   5.320   6.128
 2672SOL     OW 8914   3.455   6.481   1.702
 2672SOL    HW1 8915   3.472   6.579   1.690
 2672SOL    HW2 8916   3.538   6.430   1.683
 2673SOL     OW 8917   5.540   1.847   2.226
 2673SOL    HW1 8918   5.632   1.887   2.233
 2673SOL    HW2 8919   5.475   1.902   2.278
 2674SOL     OW 8920   1.579   5.163   4.064
 2674SOL    HW1 8921   1.650   5.165   3.994
 2674SOL    HW2 8922   1.538   5.254   4.072
 2675SOL     OW 8923   0.070   6.590   4.383
 2675SOL    HW1 8924   0.165   6.573   4.358
 2675SOL    HW2 8925   0.036   6.514   4.438
 2676SOL     OW 8926   3.502   3.418   2.186
 2676SOL    HW1 8927   3.427   3.394   2.247
 2676SOL    HW2 8928   3.588   3.383   2.224
 2677SOL     OW 8929   2.740   5.035   1.340
 2677SOL    HW1 8930   2.657   5.023   1.394
 2677SOL    HW2 8931   2.797   4.953   1.347
 2678SOL     OW 8932   6.972   2.252   1.635
 2678SOL    HW1 8933   0.005   2.170   1.646
 2678SOL    HW2 8934   6.884   2.238   1.679
 2679SOL     OW 8935   1.595   4.617   2.580
 2679SOL    HW1 8936   1.566   4.653   2.669
 2679SOL    HW2 8937   1.514   4.595   2.525
 2680SOL     OW 8938   1.246   2.406   0.005
 2680SOL    HW1 8939   1.199   2.494   7.021
 2680SOL    HW2 8940   1.329   2.418   0.060
 2681SOL     OW 8941   1.138   2.903   4.943
 2681SOL    HW1 8942   1.235   2.916   4.962
 2681SOL    HW2 8943   1.095   2.852   5.018
 2682SOL     OW 8944   5.045   4.004   2.983
 2682SOL    HW1 8945   4.980   3.966   3.048
 2682SOL    HW2 8946   5.135   3.964   2.999
 2683SOL     OW 8947   2.397   4.646   2.364
 2683SOL    HW1 8948   2.343   4.564   2.341
 2683SOL    HW2 8949   2.474   4.620   2.421
 2684SOL     OW 8950   4.697   0.021   1.565
 2684SOL    HW1 8951   4.652   0.104   1.598
 2684SOL    HW2 8952   4.667   6.966   1.619
 2685SOL     OW 8953   6.289   4.878   5.187
 2685SOL    HW1 8954   6.361   4.926   5.237
 2685SOL    HW2 8955   6.200   4.919   5.209
 2686SOL     OW 8956   0.982   1.573   5.386
 2686SOL    HW1 8957   1.070   1.528   5.370
 2686SOL    HW2 8958   0.910   1.504   5.393
 2687SOL     OW 8959   3.611   6.277   0.856
 2687SOL    HW1 8960   3.630   6.185   0.821
 2687SOL    HW2 8961   3.565   6.270   0.945
 2688SOL     OW 8962   2.777   1.965   0.698
 2688SOL    HW1 8963   2.746   2.010   0.783
 2688SOL    HW2 8964   2.854   1.905   0.719
 2689SOL     OW 8965   0.419   4.028   2.526
 2689SOL    HW1 8966   0.495   4.092   2.543
 2689SOL    HW2 8967   0.362   4.064   2.452
 2690SOL     OW 8968   3.026   3.360   6.922
 2690SOL    HW1 8969   3.070   3.334   6.836
 2690SOL    HW2 8970   3.087   3.420   6.974
 2691SOL     OW 8971   0.014   4.467   3.747
 2691SOL    HW1 8972   0.029   4.535   3.675
 2691SOL    HW2 8973   6.939   4.451   3.757
 2692SOL     OW 8974   2.333   6.823   2.822
 2692SOL    HW1 8975   2.261   6.754   2.831
 2692SOL    HW2 8976   2.294   6.914   2.829
 2693SOL     OW 8977   2.167   4.666   4.102
 2693SOL    HW1 8978   2.083   4.615   4.083
 2693SOL    HW2 8979   2.246   4.614   4.067
 2694SOL     OW 8980   4.212   6.621   3.258
 2694SOL    HW1 8981   4.154   6.700   3.237
 2694SOL    HW2 8982   4.308   6.649   3.256
 2695SOL     OW 8983   5.505   6.997   2.845
 2695SOL    HW1 8984   5.459   0.053   2.884
 2695SOL    HW2 8985   5.536   7.019   2.752
 2696SOL     OW 8986   4.872   4.225   5.703
 2696SOL    HW1 8987   4.967   4.203   5.681
 2696SOL    HW2 8988   4.865   4.322   5.727
 2697SOL     OW 8989   4.304   1.692   2.774
 2697SOL    HW1 8990   4.258   1.737   2.851
 2697SOL    HW2 8991   4.401   1.715   2.774
 2698SOL     OW 8992   1.758   4.771   6.867
 2698SOL    HW1 8993   1.721   4.754   6.776
 2698SOL    HW2 8994   1.841   4.715   6.880
 2699SOL     OW 8995   2.786   6.440   1.220
 2699SOL    HW1 8996   2.750   6.492   1.143
 2699SOL    HW2 8997   2.834   6.359   1.187
 2700SOL     OW 8998   2.700   1.238   1.204
 2700SOL    HW1 8999   2.601   1.255   1.200
 2700SOL    HW2 9000   2.746   1.318   1.242
 2701SOL     OW 9001   5.353   2.183   5.566
 2701SOL    HW1 9002   5.295   2.258   5.534
 2701SOL    HW2 9003   5.369   2.192   5.664
 2702SOL     OW 9004   1.056   2.110   2.737
 2702SOL    HW1 9005   1.047   2.109   2.836
 2702SOL    HW2 9006   1.151   2.092   2.712
 2703SOL     OW 9007   1.471   5.614   1.585
 2703SOL    HW1 9008   1.437   5.585   1.496
 2703SOL    HW2 9009   1.567   5.640   1.578
 2704SOL     OW 9010   6.977   5.657   2.019
 2704SOL    HW1 9011   6.998   5.749   1.987
 2704SOL    HW2 9012   0.037   5.613   2.052
 2705SOL     OW 9013   6.722   0.777   5.081
 2705SOL    HW1 9014   6.760   0.755   4.991
 2705SOL    HW2 9015   6.659   0.704   5.109
 2706SOL     OW 9016   6.372   4.656   4.164
 2706SOL    HW1 9017   6.468   4.630   4.149
 2706SOL    HW2 9018   6.350   4.641   4.261
 2707SOL     OW 9019   4.197   0.057   4.229
 2707SOL    HW1 9020   4.161   0.087   4.141
 2707SOL    HW2 9021   4.193   6.981   4.234
 2708SOL     OW 9022   6.461   2.908   0.731
 2708SOL    HW1 9023   6.417   2.819   0.748
 2708SOL    HW2 9024   6.424   2.976   0.794
 2709SOL     OW 9025   5.141   0.047   6.572
 2709SOL    HW1 9026   5.226   0.046   6.519
 2709SOL    HW2 9027   5.162   0.065   6.668
 2710SOL     OW 9028   1.924   2.761   3.974
 2710SOL    HW1 9029   1.942   2.689   3.907
 2710SOL    HW2 9030   1.966   2.737   4.061
 2711SOL     OW 9031   3.041   0.780   3.590
 2711SOL    HW1 9032   3.081   0.699   3.547
 2711SOL    HW2 9033   3.021   0.849   3.520
 2712SOL     OW 9034   2.529   5.698   2.386
 2712SOL    HW1 9035   2.550   5.692   2.289
 2712SOL    HW2 9036   2.547   5.610   2.430
 2713SOL     OW 9037   3.943   3.955   6.328
 2713SOL    HW1 9038   3.957   3.911   6.239
 2713SOL    HW2 9039   3.948   3.886   6.400
 2714SOL     OW 9040   3.725   3.720   7.021
 2714SOL    HW1 9041   3.782   3.768   6.955
 2714SOL    HW2 9042   3.783   3.684   0.071
 2715SOL     OW 9043   5.579   2.204   0.995
 2715SOL    HW1 9044   5.645   2.130   1.002
 2715SOL    HW2 9045   5.529   2.197   0.909
 2716SOL     OW 9046   5.090   3.305   3.699
 2716SOL    HW1 9047   5.155   3.306   3.624
 2716SOL    HW2 9048   5.127   3.253   3.776
 2717SOL     OW 9049   0.972   6.812   2.086
 2717SOL    HW1 9050   1.027   6.892   2.058
 2717SOL    HW2 9051   0.999   6.784   2.178
 2718SOL     OW 9052   0.190   1.462   5.259
 2718SOL    HW1 9053   0.122   1.496   5.323
 2718SOL    HW2 9054   0.145   1.413   5.184
 2719SOL     OW 9055   1.005   4.456   1.632
 2719SOL    HW1 9056   0.962   4.520   1.568
 2719SOL    HW2 9057   1.079   4.407   1.586
 2720SOL     OW 9058   1.006   0.433   3.544
 2720SOL    HW1 9059   1.078   0.495   3.575
 2720SOL    HW2 9060   1.047   0.346   3.515
 2721SOL     OW 9061   3.409   6.574   3.128
 2721SOL    HW1 9062   3.495   6.608   3.166
 2721SOL    HW2 9063   3.425   6.538   3.036
 2722SOL     OW 9064   4.826   5.312   6.457
 2722SOL    HW1 9065   4.846   5.370   6.378
 2722SOL    HW2 9066   4.840   5.216   6.431
 2723SOL     OW 9067   2.280   6.544   6.641
 2723SOL    HW1 9068   2.259   6.627   6.589
 2723SOL    HW2 9069   2.195   6.506   6.678
 2724SOL     OW 9070   1.437   5.885   6.552
 2724SOL    HW1 9071   1.398   5.941   6.479
 2724SOL    HW2 9072   1.496   5.942   6.610
 2725SOL     OW 9073   5.468   3.790   4.662
 2725SOL    HW1 9074   5.475   3.699   4.705
 2725SOL    HW2 9075   5.428   3.854   4.728
 2726SOL     OW 9076   0.916   1.968   1.582
 2726SOL    HW1 9077   1.003   2.015   1.595
 2726SOL    HW2 9078   0.863   1.972   1.667
 2727SOL     OW 9079   1.776   3.733   4.379
 2727SOL    HW1 9080   1.768   3.816   4.434
 2727SOL    HW2 9081   1.790   3.655   4.439
 2728SOL     OW 9082   5.553   6.193   6.145
 2728SOL    HW1 9083   5.555   6.268   6.211
 2728SOL    HW2 9084   5.518   6.226   6.057
 2729SOL     OW 9085   6.683   6.543   0.365
 2729SOL    HW1 9086   6.735   6.617   0.322
 2729SOL    HW2 9087   6.637   6.489   0.295
 2730SOL     OW 9088   1.145   6.251   1.955
 2730SOL    HW1 9089   1.058   6.258   2.004
 2730SOL    HW2 9090   1.135   6.190   1.877
 2731SOL     OW 9091   3.131   3.579   3.449
 2731SOL    HW1 9092   3.090   3.593   3.359
 2731SOL    HW2 9093   3.230   3.570   3.438
 2732SOL     OW 9094   5.828   2.438   1.071
 2732SOL    HW1 9095   5.863   2.396   1.155
 2732SOL    HW2 9096   5.841   2.375   0.994
 2733SOL     OW 9097   0.334   1.637   5.099
 2733SOL    HW1 9098   0.305   1.556   5.150
 2733SOL    HW2 9099   0.383   1.700   5.161
 2734SOL     OW 9100   3.530   5.677   1.682
 2734SOL    HW1 9101   3.609   5.616   1.683
 2734SOL    HW2 9102   3.451   5.628   1.643
 2735SOL     OW 9103   1.527   2.136   1.411
 2735SOL    HW1 9104   1.460   2.150   1.485
 2735SOL    HW2 9105   1.544   2.223   1.365
 2736SOL     OW 9106   6.198   6.450   4.959
 2736SOL    HW1 9107   6.203   6.395   5.042
 2736SOL    HW2 9108   6.232   6.542   4.977
 2737SOL     OW 9109   2.564   3.545   6.156
 2737SOL    HW1 9110   2.589   3.633   6.196
 2737SOL    HW2 9111   2.580   3.473   6.223
 2738SOL     OW 9112   6.124   6.215   2.360
 2738SOL    HW1 9113   6.092   6.173   2.445
 2738SOL    HW2 9114   6.046   6.236   2.302
 2739SOL     OW 9115   0.561   4.998   0.933
 2739SOL    HW1 9116   0.650   4.991   0.979
 2739SOL    HW2 9117   0.569   4.961   0.841
 2740SOL     OW 9118   6.625   5.081   1.903
 2740SOL    HW1 9119   6.617   5.054   1.999
 2740SOL    HW2 9120   6.622   4.999   1.845
 2741SOL     OW 9121   6.992   1.891   4.879
 2741SOL    HW1 9122   0.051   1.947   4.878
 2741SOL    HW2 9123   6.918   1.940   4.833
 2742SOL     OW 9124   1.981   5.190   0.989
 2742SOL    HW1 9125   1.950   5.274   1.034
 2742SOL    HW2 9126   2.081   5.187   0.988
 2743SOL     OW 9127   6.665   4.661   2.429
 2743SOL    HW1 9128   6.594   4.590   2.426
 2743SOL    HW2 9129   6.676   4.700   2.337
 2744SOL     OW 9130   4.303   2.988   1.646
 2744SOL    HW1 9131   4.228   3.051   1.628
 2744SOL    HW2 9132   4.277   2.896   1.616
 2745SOL     OW 9133   6.620   1.481   5.467
 2745SOL    HW1 9134   6.692   1.538   5.507
 2745SOL    HW2 9135   6.658   1.425   5.393
 2746SOL     OW 9136   0.839   2.305   4.125
 2746SOL    HW1 9137   0.877   2.324   4.216
 2746SOL    HW2 9138   0.845   2.206   4.108
 2747SOL     OW 9139   4.675   5.563   6.925
 2747SOL    HW1 9140   4.678   5.619   7.008
 2747SOL    HW2 9141   4.656   5.621   6.846
 2748SOL     OW 9142   4.087   0.920   1.658
 2748SOL    HW1 9143   4.107   0.982   1.734
 2748SOL    HW2 9144   4.015   0.958   1.601
 2749SOL     OW 9145   0.290   4.598   0.967
 2749SOL    HW1 9146   0.328   4.680   1.010
 2749SOL    HW2 9147   0.349   4.520   0.986
 2750SOL     OW 9148   2.209   4.442   2.282
 2750SOL    HW1 9149   2.123   4.452   2.232
 2750SOL    HW2 9150   2.192   4.398   2.370
 2751SOL     OW 9151   1.386   2.094   1.645
 2751SOL    HW1 9152   1.294   2.098   1.605
 2751SOL    HW2 9153   1.379   2.113   1.743
 2752SOL     OW 9154   3.328   4.357   5.974
 2752SOL    HW1 9155   3.421   4.390   5.958
 2752SOL    HW2 9156   3.263   4.417   5.927
 2753SOL     OW 9157   6.992   6.002   5.120
 2753SOL    HW1 9158   6.916   5.989   5.184
 2753SOL    HW2 9159   6.964   5.973   5.029
 2754SOL     OW 9160   0.147   6.997   6.957
 2754SOL    HW1 9161   0.084   6.961   6.888
 2754SOL    HW2 9162   0.145   0.073   6.955
 2755SOL     OW 9163   3.805   7.012   3.066
 2755SOL    HW1 9164   3.731   0.054   3.052
 2755SOL    HW2 9165   3.799   6.974   3.159
 2756SOL     OW 9166   4.231   6.107   0.245
 2756SOL    HW1 9167   4.221   6.205   0.231
 2756SOL    HW2 9168   4.141   6.066   0.262
 2757SOL     OW 9169   2.086   6.991   1.004
 2757SOL    HW1 9170   2.102   0.045   1.065
 2757SOL    HW2 9171   2.063   6.911   1.059
 2758SOL     OW 9172   4.672   0.096   4.418
 2758SOL    HW1 9173   4.695   0.192   4.409
 2758SOL    HW2 9174   4.755   0.041   4.416
 2759SOL     OW 9175   5.396   6.676   5.124
 2759SOL    HW1 9176   5.399   6.738   5.202
 2759SOL    HW2 9177   5.307   6.630   5.121
 2760SOL     OW 9178   1.300   5.874   1.627
 2760SOL    HW1 9179   1.380   5.814   1.636
 2760SOL    HW2 9180   1.219   5.828   1.662
 2761SOL     OW 9181   2.142   4.697   4.363
 2761SOL    HW1 9182   2.142   4.692   4.263
 2761SOL    HW2 9183   2.195   4.620   4.401
 2762SOL     OW 9184   1.054   0.985   5.128
 2762SOL    HW1 9185   1.068   0.887   5.115
 2762SOL    HW2 9186   1.076   1.033   5.043
 2763SOL     OW 9187   5.507   1.276   3.955
 2763SOL    HW1 9188   5.564   1.241   3.880
 2763SOL    HW2 9189   5.428   1.324   3.917
 2764SOL     OW 9190   6.401   0.284   1.344
 2764SOL    HW1 9191   6.301   0.290   1.339
 2764SOL    HW2 9192   6.433   0.209   1.286
 2765SOL     OW 9193   5.495   0.273   0.667
 2765SOL    HW1 9194   5.520   0.214   0.590
 2765SOL    HW2 9195   5.405   0.246   0.702
 2766SOL     OW 9196   5.046   2.627   0.365
 2766SOL    HW1 9197   4.948   2.609   0.356
 2766SOL    HW2 9198   5.071   2.703   0.305
 2767SOL     OW 9199   6.906   4.888   6.841
 2767SOL    HW1 9200   6.901   4.803   6.893
 2767SOL    HW2 9201   6.999   4.923   6.843
 2768SOL     OW 9202   4.938   0.982   0.195
 2768SOL    HW1 9203   4.879   1.026   0.262
 2768SOL    HW2 9204   4.996   1.051   0.152
 2769SOL     OW 9205   0.395   4.102   3.827
 2769SOL    HW1 9206   0.302   4.137   3.823
 2769SOL    HW2 9207   0.460   4.176   3.811
 2770SOL     OW 9208   2.356   5.619   6.328
 2770SOL    HW1 9209   2.430   5.568   6.370
 2770SOL    HW2 9210   2.284   5.556   6.297
 2771SOL     OW 9211   6.007   1.113   2.206
 2771SOL    HW1 9212   6.068   1.034   2.208
 2771SOL    HW2 9213   6.061   1.197   2.206
 2772SOL     OW 9214   4.724   1.703   0.995
 2772SOL    HW1 9215   4.669   1.782   1.021
 2772SOL    HW2 9216   4.680   1.656   0.918
 2773SOL     OW 9217   5.905   2.822   5.351
 2773SOL    HW1 9218   5.891   2.916   5.381
 2773SOL    HW2 9219   5.852   2.760   5.409
 2774SOL     OW 9220   6.268   3.434   2.873
 2774SOL    HW1 9221   6.210   3.360   2.905
 2774SOL    HW2 9222   6.273   3.506   2.942
 2775SOL     OW 9223   0.245   5.257   6.685
 2775SOL    HW1 9224   0.270   5.313   6.606
 2775SOL    HW2 9225   0.281   5.165   6.673
 2776SOL     OW 9226   5.474   5.169   5.574
 2776SOL    HW1 9227   5.491   5.267   5.584
 2776SOL    HW2 9228   5.512   5.121   5.653
 2777SOL     OW 9229   2.697   1.091   1.933
 2777SOL    HW1 9230   2.606   1.058   1.908
 2777SOL    HW2 9231   2.699   1.109   2.031
 2778SOL     OW 9232   1.242   0.556   5.016
 2778SOL    HW1 9233   1.234   0.497   5.096
 2778SOL    HW2 9234   1.210   0.507   4.935
 2779SOL     OW 9235   5.051   6.521   0.925
 2779SOL    HW1 9236   5.140   6.549   0.889
 2779SOL    HW2 9237   5.060   6.497   1.022
 2780SOL     OW 9238   0.105   5.951   6.844
 2780SOL    HW1 9239   0.115   6.050   6.831
 2780SOL    HW2 9240   0.109   5.906   6.755
 2781SOL     OW 9241   6.252   5.355   1.457
 2781SOL    HW1 9242   6.289   5.355   1.549
 2781SOL    HW2 9243   6.218   5.447   1.435
 2782SOL     OW 9244   2.818   1.968   5.750
 2782SOL    HW1 9245   2.761   2.026   5.809
 2782SOL    HW2 9246   2.889   2.024   5.707
 2783SOL     OW 9247   6.042   3.133   4.635
 2783SOL    HW1 9248   6.125   3.104   4.684
 2783SOL    HW2 9249   5.963   3.083   4.672
 2784SOL     OW 9250   2.912   1.932   0.999
 2784SOL    HW1 9251   3.007   1.959   1.017
 2784SOL    HW2 9252   2.858   2.013   0.975
 2785SOL     OW 9253   5.887   1.753   0.620
 2785SOL    HW1 9254   5.825   1.742   0.697
 2785SOL    HW2 9255   5.940   1.837   0.630
 2786SOL     OW 9256   4.285   5.619   2.115
 2786SOL    HW1 9257   4.209   5.555   2.110
 2786SOL    HW2 9258   4.259   5.705   2.069
 2787SOL     OW 9259   2.802   2.587   6.604
 2787SOL    HW1 9260   2.791   2.601   6.505
 2787SOL    HW2 9261   2.893   2.549   6.622
 2788SOL     OW 9262   2.691   4.478   6.715
 2788SOL    HW1 9263   2.757   4.413   6.678
 2788SOL    HW2 9264   2.657   4.444   6.803
 2789SOL     OW 9265   2.216   3.061   3.352
 2789SOL    HW1 9266   2.204   3.157   3.376
 2789SOL    HW2 9267   2.265   3.014   3.425
 2790SOL     OW 9268   2.473   5.245   2.699
 2790SOL    HW1 9269   2.381   5.276   2.722
 2790SOL    HW2 9270   2.518   5.313   2.640
 2791SOL     OW 9271   1.233   3.896   4.040
 2791SOL    HW1 9272   1.323   3.877   4.000
 2791SOL    HW2 9273   1.187   3.967   3.988
 2792SOL     OW 9274   0.533   6.915   4.752
 2792SOL    HW1 9275   0.473   6.855   4.699
 2792SOL    HW2 9276   0.541   6.879   4.845
 2793SOL     OW 9277   4.841   3.029   2.947
 2793SOL    HW1 9278   4.888   3.112   2.915
 2793SOL    HW2 9279   4.819   3.039   3.044
 2794SOL     OW 9280   6.935   2.713   0.931
 2794SOL    HW1 9281   7.019   2.767   0.932
 2794SOL    HW2 9282   6.863   2.764   0.885
 2795SOL     OW 9283   2.061   2.832   0.615
 2795SOL    HW1 9284   2.133   2.786   0.667
 2795SOL    HW2 9285   2.072   2.812   0.518
 2796SOL     OW 9286   6.172   5.071   2.578
 2796SOL    HW1 9287   6.082   5.056   2.620
 2796SOL    HW2 9288   6.207   4.983   2.545
 2797SOL     OW 9289   4.755   5.192   4.169
 2797SOL    HW1 9290   4.811   5.251   4.110
 2797SOL    HW2 9291   4.741   5.236   4.257
 2798SOL     OW 9292   1.282   4.577   1.699
 2798SOL    HW1 9293   1.258   4.490   1.656
 2798SOL    HW2 9294   1.279   4.650   1.631
 2799SOL     OW 9295   0.079   6.604   6.972
 2799SOL    HW1 9296   0.101   6.510   6.998
 2799SOL    HW2 9297   0.090   6.664   0.027
 2800SOL     OW 9298   4.482   5.073   0.022
 2800SOL    HW1 9299   4.459   5.164   7.010
 2800SOL    HW2 9300   4.401   5.016   0.024
 2801SOL     OW 9301   4.930   5.575   4.783
 2801SOL    HW1 9302   4.850   5.548   4.837
 2801SOL    HW2 9303   4.900   5.611   4.695
 2802SOL     OW 9304   4.532   2.854   6.098
 2802SOL    HW1 9305   4.504   2.933   6.044
 2802SOL    HW2 9306   4.562   2.781   6.037
 2803SOL     OW 9307   3.357   5.971   6.302
 2803SOL    HW1 9308   3.272   5.922   6.323
 2803SOL    HW2 9309   3.427   5.906   6.273
 2804SOL     OW 9310   6.941   4.746   5.055
 2804SOL    HW1 9311   6.924   4.833   5.101
 2804SOL    HW2 9312   6.857   4.714   5.011
 2805SOL     OW 9313   5.081   2.763   2.054
 2805SOL    HW1 9314   4.993   2.783   2.097
 2805SOL    HW2 9315   5.155   2.796   2.112
 2806SOL     OW 9316   6.990   5.221   3.955
 2806SOL    HW1 9317   6.932   5.139   3.953
 2806SOL    HW2 9318   6.944   5.295   3.907
 2807SOL     OW 9319   5.987   5.444   3.734
 2807SOL    HW1 9320   5.954   5.494   3.654
 2807SOL    HW2 9321   6.080   5.411   3.716
 2808SOL     OW 9322   5.178   2.790   2.879
 2808SOL    HW1 9323   5.110   2.761   2.811
 2808SOL    HW2 9324   5.234   2.864   2.840
 2809SOL     OW 9325   5.751   2.875   1.993
 2809SOL    HW1 9326   5.846   2.897   2.019
 2809SOL    HW2 9327   5.744   2.874   1.893
 2810SOL     OW 9328   3.270   6.234   3.679
 2810SOL    HW1 9329   3.201   6.237   3.752
 2810SOL    HW2 9330   3.248   6.158   3.617
 2811SOL     OW 9331   0.537   0.869   3.415
 2811SOL    HW1 9332   0.575   0.817   3.338
 2811SOL    HW2 9333   0.438   0.856   3.417
 2812SOL     OW 9334   5.381   3.350   0.196
 2812SOL    HW1 9335   5.426   3.390   0.116
 2812SOL    HW2 9336   5.304   3.408   0.223
 2813SOL     OW 9337   6.484   0.281   5.791
 2813SOL    HW1 9338   6.396   0.327   5.801
 2813SOL    HW2 9339   6.471   0.195   5.742
 2814SOL     OW 9340   4.933   3.214   6.850
 2814SOL    HW1 9341   4.996   3.144   6.884
 2814SOL    HW2 9342   4.857   3.169   6.801
 2815SOL     OW 9343   6.733   1.089   5.414
 2815SOL    HW1 9344   6.668   1.064   5.342
 2815SOL    HW2 9345   6.694   1.067   5.503
 2816SOL     OW 9346   6.614   6.105   3.498
 2816SOL    HW1 9347   6.674   6.180   3.471
 2816SOL    HW2 9348   6.566   6.070   3.418
 2817SOL     OW 9349   2.576   6.810   1.387
 2817SOL    HW1 9350   2.618   6.771   1.468
 2817SOL    HW2 9351   2.638   6.877   1.346
 2818SOL     OW 9352   0.407   0.171   6.749
 2818SOL    HW1 9353   0.433   0.077   6.726
 2818SOL    HW2 9354   0.457   0.200   6.830
 2819SOL     OW 9355   0.484   1.216   1.398
 2819SOL    HW1 9356   0.532   1.252   1.479
 2819SOL    HW2 9357   0.536   1.240   1.316
 2820SOL     OW 9358   1.243   1.701   2.971
 2820SOL    HW1 9359   1.186   1.778   2.999
 2820SOL    HW2 9360   1.296   1.669   3.049
 2821SOL     OW 9361   4.119   3.434   0.228
 2821SOL    HW1 9362   4.040   3.445   0.288
 2821SOL    HW2 9363   4.089   3.413   0.135
 2822SOL     OW 9364   4.618   2.162   6.876
 2822SOL    HW1 9365   4.580   2.254   6.867
 2822SOL    HW2 9366   4.557   2.096   6.832
 2823SOL     OW 9367   3.443   6.548   0.807
 2823SOL    HW1 9368   3.388   6.623   0.842
 2823SOL    HW2 9369   3.401   6.461   0.832
 2824SOL     OW 9370   2.688   0.963   4.029
 2824SOL    HW1 9371   2.777   0.967   4.075
 2824SOL    HW2 9372   2.698   0.920   3.940
 2825SOL     OW 9373   6.582   0.529   6.819
 2825SOL    HW1 9374   6.539   0.492   6.737
 2825SOL    HW2 9375   6.652   0.466   6.852
 2826SOL     OW 9376   5.029   1.892   6.882
 2826SOL    HW1 9377   4.935   1.906   6.912
 2826SOL    HW2 9378   5.077   1.833   6.947
 2827SOL     OW 9379   6.126   0.900   5.032
 2827SOL    HW1 9380   6.212   0.856   5.007
 2827SOL    HW2 9381   6.051   0.835   5.021
 2828SOL     OW 9382   2.694   1.125   0.368
 2828SOL    HW1 9383   2.708   1.108   0.271
 2828SOL    HW2 9384   2.651   1.214   0.380
 2829SOL     OW 9385   3.563   3.944   6.056
 2829SOL    HW1 9386   3.657   3.923   6.028
 2829SOL    HW2 9387   3.523   4.009   5.991
 2830SOL     OW 9388   0.933   3.470   6.539
 2830SOL    HW1 9389   0.932   3.370   6.538
 2830SOL    HW2 9390   0.858   3.504   6.596
 2831SOL     OW 9391   0.795   6.089   3.566
 2831SOL    HW1 9392   0.824   6.175   3.525
 2831SOL    HW2 9393   0.822   6.087   3.662
 2832SOL     OW 9394   1.085   1.156   2.159
 2832SOL    HW1 9395   1.150   1.142   2.084
 2832SOL    HW2 9396   1.000   1.195   2.124
 2833SOL     OW 9397   4.680   2.652   2.637
 2833SOL    HW1 9398   4.588   2.616   2.628
 2833SOL    HW2 9399   4.684   2.718   2.712
 2834SOL     OW 9400   2.366   6.528   5.718
 2834SOL    HW1 9401   2.306   6.508   5.796
 2834SOL    HW2 9402   2.413   6.615   5.734
 2835SOL     OW 9403   6.917   0.413   2.014
 2835SOL    HW1 9404   6.892   0.505   1.984
 2835SOL    HW2 9405   7.002   0.417   2.067
 2836SOL     OW 9406   6.112   6.886   2.238
 2836SOL    HW1 9407   6.170   6.930   2.170
 2836SOL    HW2 9408   6.107   6.787   2.220
 2837SOL     OW 9409   5.514   4.014   3.345
 2837SOL    HW1 9410   5.598   4.028   3.292
 2837SOL    HW2 9411   5.464   4.100   3.352
 2838SOL     OW 9412   1.822   4.513   0.967
 2838SOL    HW1 9413   1.853   4.534   1.060
 2838SOL    HW2 9414   1.804   4.598   0.918
 2839SOL     OW 9415   5.734   2.111   1.794
 2839SOL    HW1 9416   5.666   2.059   1.847
 2839SOL    HW2 9417   5.739   2.204   1.829
 2840SOL     OW 9418   1.533   0.746   3.688
 2840SOL    HW1 9419   1.543   0.828   3.633
 2840SOL    HW2 9420   1.497   0.770   3.778
 2841SOL     OW 9421   0.701   0.953   6.252
 2841SOL    HW1 9422   0.748   0.996   6.329
 2841SOL    HW2 9423   0.768   0.932   6.180
 2842SOL     OW 9424   6.966   3.989   4.304
 2842SOL    HW1 9425   7.004   3.922   4.368
 2842SOL    HW2 9426   6.968   4.080   4.345
 2843SOL     OW 9427   2.624   1.454   2.740
 2843SOL    HW1 9428   2.608   1.469   2.837
 2843SOL    HW2 9429   2.547   1.488   2.687
 2844SOL     OW 9430   0.983   5.562   0.848
 2844SOL    HW1 9431   1.059   5.600   0.900
 2844SOL    HW2 9432   1.000   5.465   0.830
 2845SOL     OW 9433   0.527   2.893   1.116
 2845SOL    HW1 9434   0.582   2.942   1.183
 2845SOL    HW2 9435   0.517   2.797   1.145
 2846SOL     OW 9436   4.368   0.903   6.579
 2846SOL    HW1 9437   4.462   0.901   6.544
 2846SOL    HW2 9438   4.349   0.818   6.628
 2847SOL     OW 9439   5.316   3.430   3.300
 2847SOL    HW1 9440   5.329   3.347   3.354
 2847SOL    HW2 9441   5.236   3.420   3.242
 2848SOL     OW 9442   1.428   3.350   6.235
 2848SOL    HW1 9443   1.374   3.283   6.285
 2848SOL    HW2 9444   1.428   3.328   6.138
 2849SOL     OW 9445   3.482   6.923   0.943
 2849SOL    HW1 9446   3.550   6.993   0.963
 2849SOL    HW2 9447   3.415   6.959   0.879
 2850SOL     OW 9448   3.208   6.813   2.723
 2850SOL    HW1 9449   3.110   6.803   2.709
 2850SOL    HW2 9450   3.254   6.819   2.635
 2851SOL     OW 9451   0.097   2.592   5.794
 2851SOL    HW1 9452   0.178   2.592   5.735
 2851SOL    HW2 9453   0.097   2.674   5.852
 2852SOL     OW 9454   5.930   4.232   0.380
 2852SOL    HW1 9455   5.846   4.188   0.350
 2852SOL    HW2 9456   5.930   4.238   0.480
 2853SOL     OW 9457   1.877   2.464   0.393
 2853SOL    HW1 9458   1.931   2.521   0.333
 2853SOL    HW2 9459   1.781   2.494   0.391
 2854SOL     OW 9460   3.915   1.122   5.265
 2854SOL    HW1 9461   3.927   1.198   5.201
 2854SOL    HW2 9462   3.979   1.049   5.242
 2855SOL     OW 9463   3.023   0.847   6.388
 2855SOL    HW1 9464   2.932   0.880   6.415
 2855SOL    HW2 9465   3.037   0.756   6.427
 2856SOL     OW 9466   1.811   2.908   5.547
 2856SOL    HW1 9467   1.815   2.850   5.629
 2856SOL    HW2 9468   1.715   2.929   5.526
 2857SOL     OW 9469   3.419   1.720   2.408
 2857SOL    HW1 9470   3.368   1.635   2.402
 2857SOL    HW2 9471   3.364   1.790   2.453
 2858SOL     OW 9472   5.483   3.857   2.311
 2858SOL    HW1 9473   5.438   3.928   2.256
 2858SOL    HW2 9474   5.521   3.787   2.251
 2859SOL     OW 9475   5.251   2.191   0.083
 2859SOL    HW1 9476   5.280   2.141   0.001
 2859SOL    HW2 9477   5.317   2.176   0.157
 2860SOL     OW 9478   3.724   2.138   1.343
 2860SOL    HW1 9479   3.717   2.233   1.311
 2860SOL    HW2 9480   3.766   2.138   1.434
 2861SOL     OW 9481   4.255   4.560   6.133
 2861SOL    HW1 9482   4.248   4.461   6.134
 2861SOL    HW2 9483   4.346   4.588   6.102
 2862SOL     OW 9484   5.188   1.796   3.394
 2862SOL    HW1 9485   5.240   1.832   3.317
 2862SOL    HW2 9486   5.217   1.841   3.478
 2863SOL     OW 9487   4.777   1.471   0.041
 2863SOL    HW1 9488   4.761   1.499   0.136
 2863SOL    HW2 9489   4.720   1.526   7.004
 2864SOL     OW 9490   4.325   1.445   1.316
 2864SOL    HW1 9491   4.295   1.454   1.411
 2864SOL    HW2 9492   4.404   1.504   1.300
 2865SOL     OW 9493   5.540   4.726   5.584
 2865SOL    HW1 9494   5.447   4.750   5.554
 2865SOL    HW2 9495   5.603   4.799   5.557
 2866SOL     OW 9496   6.146   6.274   6.967
 2866SOL    HW1 9497   6.193   6.340   0.001
 2866SOL    HW2 9498   6.211   6.205   6.935
 2867SOL     OW 9499   5.839   3.872   2.119
 2867SOL    HW1 9500   5.905   3.829   2.182
 2867SOL    HW2 9501   5.871   3.860   2.025
 2868SOL     OW 9502   0.129   2.883   5.397
 2868SOL    HW1 9503   0.034   2.910   5.409
 2868SOL    HW2 9504   0.179   2.956   5.351
 2869SOL     OW 9505   6.346   1.012   3.688
 2869SOL    HW1 9506   6.346   1.031   3.786
 2869SOL    HW2 9507   6.415   0.943   3.667
 2870SOL     OW 9508   0.549   1.805   4.213
 2870SOL    HW1 9509   0.621   1.873   4.227
 2870SOL    HW2 9510   0.477   1.817   4.281
 2871SOL     OW 9511   0.813   2.300   0.389
 2871SOL    HW1 9512   0.833   2.346   0.303
 2871SOL    HW2 9513   0.724   2.330   0.423
 2872SOL     OW 9514   2.832   1.556   3.086
 2872SOL    HW1 9515   2.809   1.614   3.008
 2872SOL    HW2 9516   2.928   1.569   3.110
 2873SOL     OW 9517   6.863   4.853   2.805
 2873SOL    HW1 9518   6.914   4.767   2.810
 2873SOL    HW2 9519   6.892   4.904   2.724
 2874SOL     OW 9520   3.976   6.265   3.125
 2874SOL    HW1 9521   4.048   6.196   3.135
 2874SOL    HW2 9522   4.004   6.332   3.057
 2875SOL     OW 9523   5.248   6.620   0.743
 2875SOL    HW1 9524   5.265   6.691   0.675
 2875SOL    HW2 9525   5.239   6.531   0.697
 2876SOL     OW 9526   0.628   0.104   2.079
 2876SOL    HW1 9527   0.610   0.147   1.991
 2876SOL    HW2 9528   0.583   0.156   2.151
 2877SOL     OW 9529   3.625   2.744   5.345
 2877SOL    HW1 9530   3.702   2.807   5.348
 2877SOL    HW2 9531   3.576   2.747   5.432
 2878SOL     OW 9532   4.026   4.909   4.604
 2878SOL    HW1 9533   4.040   4.930   4.701
 2878SOL    HW2 9534   4.052   4.988   4.549
 2879SOL     OW 9535   5.116   4.626   0.849
 2879SOL    HW1 9536   5.215   4.639   0.861
 2879SOL    HW2 9537   5.069   4.650   0.934
 2880SOL     OW 9538   6.220   0.123   0.987
 2880SOL    HW1 9539   6.210   0.142   1.085
 2880SOL    HW2 9540   6.232   0.025   0.973
 2881SOL     OW 9541   5.548   6.514   0.702
 2881SOL    HW1 9542   5.506   6.428   0.733
 2881SOL    HW2 9543   5.568   6.507   0.604
 2882SOL     OW 9544   0.663   4.144   2.531
 2882SOL    HW1 9545   0.637   4.185   2.618
 2882SOL    HW2 9546   0.721   4.065   2.547
 2883SOL     OW 9547   5.488   6.559   3.563
 2883SOL    HW1 9548   5.475   6.645   3.613
 2883SOL    HW2 9549   5.558   6.505   3.608
 2884SOL     OW 9550   0.591   5.487   3.384
 2884SOL    HW1 9551   0.640   5.571   3.362
 2884SOL    HW2 9552   0.618   5.456   3.476
 2885SOL     OW 9553   0.948   3.052   2.621
 2885SOL    HW1 9554   0.966   2.959   2.588
 2885SOL    HW2 9555   0.966   3.056   2.719
 2886SOL     OW 9556   2.628   4.181   6.366
 2886SOL    HW1 9557   2.613   4.203   6.270
 2886SOL    HW2 9558   2.710   4.228   6.399
 2887SOL     OW 9559   1.668   6.910   4.387
 2887SOL    HW1 9560   1.642   6.830   4.441
 2887SOL    HW2 9561   1.593   6.976   4.387
 2888SOL     OW 9562   0.984   4.420   0.256
 2888SOL    HW1 9563   1.063   4.374   0.297
 2888SOL    HW2 9564   0.993   4.420   0.157
 2889SOL     OW 9565   1.936   6.547   2.579
 2889SOL    HW1 9566   1.839   6.534   2.555
 2889SOL    HW2 9567   1.969   6.631   2.537
 2890SOL     OW 9568   2.935   0.161   0.765
 2890SOL    HW1 9569   2.890   0.084   0.721
 2890SOL    HW2 9570   2.869   0.212   0.821
 2891SOL     OW 9571   2.158   3.693   3.426
 2891SOL    HW1 9572   2.075   3.682   3.371
 2891SOL    HW2 9573   2.161   3.785   3.464
 2892SOL     OW 9574   5.479   3.639   6.891
 2892SOL    HW1 9575   5.402   3.700   6.911
 2892SOL    HW2 9576   5.505   3.648   6.795
 2893SOL     OW 9577   6.930   6.294   4.934
 2893SOL    HW1 9578   6.989   6.265   4.859
 2893SOL    HW2 9579   6.975   6.366   4.986
 2894SOL     OW 9580   3.167   3.086   0.611
 2894SOL    HW1 9581   3.090   3.114   0.552
 2894SOL    HW2 9582   3.174   2.986   0.611
 2895SOL     OW 9583   4.190   2.944   6.356
 2895SOL    HW1 9584   4.158   2.856   6.319
 2895SOL    HW2 9585   4.278   2.931   6.401
 2896SOL     OW 9586   3.389   5.164   6.906
 2896SOL    HW1 9587   3.468   5.138   6.852
 2896SOL    HW2 9588   3.407   5.147   7.003
 2897SOL     OW 9589   3.500   5.648   3.145
 2897SOL    HW1 9590   3.415   5.651   3.198
 2897SOL    HW2 9591   3.549   5.735   3.157
 2898SOL     OW 9592   4.168   5.213   3.848
 2898SOL    HW1 9593   4.092   5.207   3.783
 2898SOL    HW2 9594   4.175   5.306   3.884
 2899SOL     OW 9595   0.821   1.730   0.077
 2899SOL    HW1 9596   0.806   1.694   0.169
 2899SOL    HW2 9597   0.888   1.803   0.080
 2900SOL     OW 9598   2.033   4.664   5.752
 2900SOL    HW1 9599   2.010   4.708   5.839
 2900SOL    HW2 9600   2.102   4.594   5.768
 2901SOL     OW 9601   2.021   0.230   3.229
 2901SOL    HW1 9602   2.039   0.328   3.229
 2901SOL    HW2 9603   1.997   0.201   3.137
 2902SOL     OW 9604   5.583   6.468   1.583
 2902SOL    HW1 9605   5.485   6.452   1.596
 2902SOL    HW2 9606   5.623   6.392   1.533
 2903SOL     OW 9607   3.099   0.490   0.546
 2903SOL    HW1 9608   3.109   0.556   0.620
 2903SOL    HW2 9609   3.069   0.402   0.583
 2904SOL     OW 9610   1.979   3.344   5.558
 2904SOL    HW1 9611   2.020   3.306   5.475
 2904SOL    HW2 9612   2.046   3.401   5.605
 2905SOL     OW 9613   1.743   2.570   3.461
 2905SOL    HW1 9614   1.693   2.503   3.406
 2905SOL    HW2 9615   1.841   2.546   3.460
 2906SOL     OW 9616   5.099   5.509   2.480
 2906SOL    HW1 9617   5.074   5.598   2.440
 2906SOL    HW2 9618   5.194   5.513   2.511
 2907SOL     OW 9619   0.517   1.223   4.243
 2907SOL    HW1 9620   0.498   1.321   4.247
 2907SOL    HW2 9621   0.476   1.177   4.321
 2908SOL     OW 9622   4.440   6.763   4.470
 2908SOL    HW1 9623   4.383   6.791   4.548
 2908SOL    HW2 9624   4.404   6.804   4.386
 2909SOL     OW 9625   0.505   6.375   3.871
 2909SOL    HW1 9626   0.426   6.382   3.810
 2909SOL    HW2 9627   0.581   6.428   3.834
 2910SOL     OW 9628   4.712   6.073   4.570
 2910SOL    HW1 9629   4.796   6.037   4.612
 2910SOL    HW2 9630   4.734   6.114   4.482
 2911SOL     OW 9631   1.611   5.306   3.687
 2911SOL    HW1 9632   1.565   5.225   3.652
 2911SOL    HW2 9633   1.576   5.388   3.640
 2912SOL     OW 9634   4.218   6.997   6.398
 2912SOL    HW1 9635   4.206   0.009   6.305
 2912SOL    HW2 9636   4.163   0.029   6.462
 2913SOL     OW 9637   1.904   4.748   2.575
 2913SOL    HW1 9638   1.873   4.654   2.558
 2913SOL    HW2 9639   1.870   4.808   2.503
 2914SOL     OW 9640   5.890   6.360   5.740
 2914SOL    HW1 9641   5.975   6.404   5.767
 2914SOL    HW2 9642   5.868   6.384   5.645
 2915SOL     OW 9643   5.442   1.275   5.368
 2915SOL    HW1 9644   5.535   1.276   5.332
 2915SOL    HW2 9645   5.444   1.262   5.467
 2916SOL     OW 9646   6.576   5.929   6.349
 2916SOL    HW1 9647   6.494   5.872   6.348
 2916SOL    HW2 9648   6.604   5.949   6.255
 2917SOL     OW 9649   4.174   6.601   2.101
 2917SOL    HW1 9650   4.204   6.613   2.195
 2917SOL    HW2 9651   4.079   6.630   2.092
 2918SOL     OW 9652   6.700   3.944   3.644
 2918SOL    HW1 9653   6.717   3.852   3.680
 2918SOL    HW2 9654   6.683   3.938   3.545
 2919SOL     OW 9655   6.810   1.065   0.959
 2919SOL    HW1 9656   6.805   1.004   0.880
 2919SOL    HW2 9657   6.866   1.023   1.030
 2920SOL     OW 9658   2.991   1.900   2.416
 2920SOL    HW1 9659   2.977   1.832   2.344
 2920SOL    HW2 9660   3.089   1.910   2.433
 2921SOL     OW 9661   0.791   0.224   3.140
 2921SOL    HW1 9662   0.732   0.305   3.143
 2921SOL    HW2 9663   0.744   0.152   3.087
 2922SOL     OW 9664   5.818   0.243   0.076
 2922SOL    HW1 9665   5.788   0.202   0.162
 2922SOL    HW2 9666   5.849   0.171   0.014
 2923SOL     OW 9667   0.215   4.715   1.861
 2923SOL    HW1 9668   0.250   4.622   1.874
 2923SOL    HW2 9669   0.207   4.761   1.949
 2924SOL     OW 9670   0.670   1.599   6.925
 2924SOL    HW1 9671   0.646   1.512   6.969
 2924SOL    HW2 9672   0.724   1.654   6.989
 2925SOL     OW 9673   4.663   1.220   3.427
 2925SOL    HW1 9674   4.638   1.218   3.331
 2925SOL    HW2 9675   4.594   1.172   3.481
 2926SOL     OW 9676   0.109   1.320   4.587
 2926SOL    HW1 9677   0.137   1.250   4.521
 2926SOL    HW2 9678   0.179   1.391   4.593
 2927SOL     OW 9679   1.657   1.555   2.284
 2927SOL    HW1 9680   1.691   1.515   2.370
 2927SOL    HW2 9681   1.609   1.640   2.304
 2928SOL     OW 9682   6.771   2.195   6.375
 2928SOL    HW1 9683   6.758   2.248   6.292
 2928SOL    HW2 9684   6.865   2.160   6.378
 2929SOL     OW 9685   0.372   0.507   6.314
 2929SOL    HW1 9686   0.375   0.599   6.275
 2929SOL    HW2 9687   0.380   0.513   6.413
 2930SOL     OW 9688   4.074   6.354   4.824
 2930SOL    HW1 9689   3.995   6.341   4.884
 2930SOL    HW2 9690   4.052   6.319   4.733
 2931SOL     OW 9691   5.761   5.638   0.237
 2931SOL    HW1 9692   5.832   5.594   0.183
 2931SOL    HW2 9693   5.732   5.576   0.310
 2932SOL     OW 9694   1.710   5.123   1.844
 2932SOL    HW1 9695   1.729   5.213   1.807
 2932SOL    HW2 9696   1.617   5.121   1.882
 2933SOL     OW 9697   6.040   3.571   3.131
 2933SOL    HW1 9698   6.043   3.661   3.087
 2933SOL    HW2 9699   6.043   3.583   3.230
 2934SOL     OW 9700   4.397   1.463   0.238
 2934SOL    HW1 9701   4.400   1.378   0.186
 2934SOL    HW2 9702   4.319   1.518   0.207
 2935SOL     OW 9703   6.188   3.414   1.715
 2935SOL    HW1 9704   6.159   3.471   1.793
 2935SOL    HW2 9705   6.288   3.411   1.711
 2936SOL     OW 9706   4.411   5.015   2.212
 2936SOL    HW1 9707   4.353   4.943   2.250
 2936SOL    HW2 9708   4.444   5.074   2.285
 2937SOL     OW 9709   4.220   5.196   0.276
 2937SOL    HW1 9710   4.140   5.194   0.336
 2937SOL    HW2 9711   4.260   5.105   0.270
 2938SOL     OW 9712   5.481   4.875   5.937
 2938SOL    HW1 9713   5.475   4.948   6.005
 2938SOL    HW2 9714   5.500   4.914   5.847
 2939SOL     OW 9715   0.394   0.250   4.524
 2939SOL    HW1 9716   0.403   0.236   4.623
 2939SOL    HW2 9717   0.298   0.239   4.498
 2940SOL     OW 9718   5.879   6.544   6.625
 2940SOL    HW1 9719   5.833   6.602   6.558
 2940SOL    HW2 9720   5.961   6.590   6.658
 2941SOL     OW 9721   2.420   2.707   4.331
 2941SOL    HW1 9722   2.370   2.675   4.251
 2941SOL    HW2 9723   2.485   2.637   4.360
 2942SOL     OW 9724   2.772   2.155   1.288
 2942SOL    HW1 9725   2.834   2.210   1.345
 2942SOL    HW2 9726   2.696   2.212   1.257
 2943SOL     OW 9727   5.980   4.042   2.702
 2943SOL    HW1 9728   6.002   3.964   2.761
 2943SOL    HW2 9729   6.016   4.125   2.743
 2944SOL     OW 9730   2.487   6.008   5.081
 2944SOL    HW1 9731   2.547   5.979   5.005
 2944SOL    HW2 9732   2.486   6.108   5.086
 2945SOL     OW 9733   3.555   4.170   3.721
 2945SOL    HW1 9734   3.560   4.264   3.685
 2945SOL    HW2 9735   3.627   4.115   3.678
 2946SOL     OW 9736   1.139   5.571   6.791
 2946SOL    HW1 9737   1.078   5.636   6.746
 2946SOL    HW2 9738   1.226   5.616   6.811
 2947SOL     OW 9739   0.757   4.115   6.583
 2947SOL    HW1 9740   0.686   4.065   6.633
 2947SOL    HW2 9741   0.809   4.172   6.646
 2948SOL     OW 9742   6.921   4.898   5.468
 2948SOL    HW1 9743   6.870   4.837   5.408
 2948SOL    HW2 9744   7.004   4.929   5.423
 2949SOL     OW 9745   2.324   5.792   1.274
 2949SOL    HW1 9746   2.244   5.735   1.294
 2949SOL    HW2 9747   2.297   5.865   1.211
 2950SOL     OW 9748   4.927   3.728   4.774
 2950SOL    HW1 9749   4.898   3.809   4.724
 2950SOL    HW2 9750   4.859   3.704   4.843
 2951SOL     OW 9751   6.651   2.350   1.489
 2951SOL    HW1 9752   6.734   2.295   1.480
 2951SOL    HW2 9753   6.575   2.292   1.518
 2952SOL     OW 9754   0.912   6.246   5.442
 2952SOL    HW1 9755   0.824   6.198   5.440
 2952SOL    HW2 9756   0.895   6.345   5.442
 2953SOL     OW 9757   4.821   3.100   3.234
 2953SOL    HW1 9758   4.849   3.195   3.249
 2953SOL    HW2 9759   4.822   3.051   3.321
 2954SOL     OW 9760   0.932   5.367   1.793
 2954SOL    HW1 9761   0.990   5.345   1.715
 2954SOL    HW2 9762   0.967   5.321   1.875
 2955SOL     OW 9763   1.032   3.738   1.465
 2955SOL    HW1 9764   1.066   3.685   1.387
 2955SOL    HW2 9765   0.943   3.702   1.493
 2956SOL     OW 9766   5.889   6.365   2.922
 2956SOL    HW1 9767   5.814   6.424   2.953
 2956SOL    HW2 9768   5.948   6.343   2.999
 2957SOL     OW 9769   6.371   3.122   1.938
 2957SOL    HW1 9770   6.285   3.137   1.889
 2957SOL    HW2 9771   6.401   3.027   1.926
 2958SOL     OW 9772   2.536   4.493   4.498
 2958SOL    HW1 9773   2.556   4.410   4.551
 2958SOL    HW2 9774   2.586   4.570   4.536
 2959SOL     OW 9775   4.430   4.618   0.472
 2959SOL    HW1 9776   4.492   4.693   0.448
 2959SOL    HW2 9777   4.363   4.606   0.399
 2960SOL     OW 9778   3.677   6.965   6.631
 2960SOL    HW1 9779   3.731   0.025   6.638
 2960SOL    HW2 9780   3.734   6.892   6.592
 2961SOL     OW 9781   5.129   2.662   4.717
 2961SOL    HW1 9782   5.173   2.689   4.803
 2961SOL    HW2 9783   5.123   2.741   4.657
 2962SOL     OW 9784   4.467   0.615   3.945
 2962SOL    HW1 9785   4.441   0.574   3.857
 2962SOL    HW2 9786   4.385   0.655   3.988
 2963SOL     OW 9787   2.325   1.387   5.886
 2963SOL    HW1 9788   2.355   1.408   5.979
 2963SOL    HW2 9789   2.231   1.352   5.889
 2964SOL     OW 9790   0.394   0.346   2.516
 2964SOL    HW1 9791   0.424   0.434   2.552
 2964SOL    HW2 9792   0.295   0.340   2.521
 2965SOL     OW 9793   0.131   1.280   4.855
 2965SOL    HW1 9794   0.119   1.296   4.758
 2965SOL    HW2 9795   0.229   1.277   4.877
 2966SOL     OW 9796   5.536   5.292   4.582
 2966SOL    HW1 9797   5.520   5.367   4.647
 2966SOL    HW2 9798   5.546   5.330   4.490
 2967SOL     OW 9799   6.315   2.480   4.561
 2967SOL    HW1 9800   6.239   2.442   4.508
 2967SOL    HW2 9801   6.348   2.564   4.519
 2968SOL     OW 9802   0.953   3.784   6.488
 2968SOL    HW1 9803   1.044   3.779   6.448
 2968SOL    HW2 9804   0.922   3.692   6.512
 2969SOL     OW 9805   5.985   1.420   4.485
 2969SOL    HW1 9806   6.016   1.326   4.473
 2969SOL    HW2 9807   5.985   1.466   4.396
 2970SOL     OW 9808   1.029   3.927   6.722
 2970SOL    HW1 9809   0.991   3.872   6.796
 2970SOL    HW2 9810   1.026   3.874   6.637
 2971SOL     OW 9811   6.070   3.212   5.921
 2971SOL    HW1 9812   6.143   3.201   5.988
 2971SOL    HW2 9813   6.109   3.237   5.832
 2972SOL     OW 9814   6.732   4.879   6.239
 2972SOL    HW1 9815   6.808   4.944   6.244
 2972SOL    HW2 9816   6.759   4.794   6.285
 2973SOL     OW 9817   5.755   1.099   4.328
 2973SOL    HW1 9818   5.692   1.054   4.391
 2973SOL    HW2 9819   5.732   1.196   4.322
 2974SOL     OW 9820   0.831   3.893   2.589
 2974SOL    HW1 9821   0.868   3.810   2.549
 2974SOL    HW2 9822   0.754   3.870   2.649
 2975SOL     OW 9823   0.705   2.498   4.979
 2975SOL    HW1 9824   0.714   2.512   4.881
 2975SOL    HW2 9825   0.694   2.400   4.998
 2976SOL     OW 9826   4.196   1.615   3.169
 2976SOL    HW1 9827   4.275   1.567   3.129
 2976SOL    HW2 9828   4.114   1.560   3.156
 2977SOL     OW 9829   1.336   6.225   3.971
 2977SOL    HW1 9830   1.321   6.318   4.004
 2977SOL    HW2 9831   1.317   6.221   3.873
 2978SOL     OW 9832   4.093   4.865   6.546
 2978SOL    HW1 9833   4.175   4.831   6.500
 2978SOL    HW2 9834   4.057   4.944   6.495
 2979SOL     OW 9835   5.042   6.448   4.441
 2979SOL    HW1 9836   5.008   6.512   4.372
 2979SOL    HW2 9837   5.140   6.463   4.455
 2980SOL     OW 9838   0.992   5.914   3.815
 2980SOL    HW1 9839   0.946   5.868   3.891
 2980SOL    HW2 9840   1.001   6.012   3.836
 2981SOL     OW 9841   1.026   1.405   5.713
 2981SOL    HW1 9842   1.058   1.495   5.742
 2981SOL    HW2 9843   0.927   1.406   5.702
 2982SOL     OW 9844   4.940   5.810   3.116
 2982SOL    HW1 9845   4.862   5.774   3.167
 2982SOL    HW2 9846   4.912   5.891   3.065
 2983SOL     OW 9847   0.883   1.495   4.146
 2983SOL    HW1 9848   0.924   1.445   4.069
 2983SOL    HW2 9849   0.897   1.593   4.133
 2984SOL     OW 9850   5.042   5.467   1.800
 2984SOL    HW1 9851   5.069   5.528   1.725
 2984SOL    HW2 9852   5.059   5.372   1.774
 2985SOL     OW 9853   1.064   3.036   5.366
 2985SOL    HW1 9854   1.118   3.101   5.419
 2985SOL    HW2 9855   1.072   3.056   5.269
 2986SOL     OW 9856   2.055   3.874   6.130
 2986SOL    HW1 9857   2.094   3.782   6.121
 2986SOL    HW2 9858   2.092   3.933   6.058
 2987SOL     OW 9859   5.304   0.745   3.889
 2987SOL    HW1 9860   5.334   0.663   3.938
 2987SOL    HW2 9861   5.228   0.788   3.938
 2988SOL     OW 9862   0.841   6.553   2.988
 2988SOL    HW1 9863   0.803   6.560   3.080
 2988SOL    HW2 9864   0.939   6.533   2.993
 2989SOL     OW 9865   6.375   6.296   0.567
 2989SOL    HW1 9866   6.426   6.382   0.560
 2989SOL    HW2 9867   6.334   6.290   0.658
 2990SOL     OW 9868   4.465   1.416   3.754
 2990SOL    HW1 9869   4.453   1.342   3.821
 2990SOL    HW2 9870   4.428   1.386   3.666
 2991SOL     OW 9871   6.953   4.001   6.800
 2991SOL    HW1 9872   0.027   3.986   6.788
 2991SOL    HW2 9873   6.902   3.923   6.765
 2992SOL     OW 9874   2.132   4.831   6.147
 2992SOL    HW1 9875   2.175   4.898   6.087
 2992SOL    HW2 9876   2.202   4.769   6.182
 2993SOL     OW 9877   0.928   4.953   1.744
 2993SOL    HW1 9878   0.858   5.022   1.726
 2993SOL    HW2 9879   0.995   4.953   1.670
 2994SOL     OW 9880   3.921   0.280   0.640
 2994SOL    HW1 9881   3.890   0.335   0.718
 2994SOL    HW2 9882   4.008   0.236   0.662
 2995SOL     OW 9883   1.729   3.417   6.655
 2995SOL    HW1 9884   1.721   3.478   6.734
 2995SOL    HW2 9885   1.823   3.386   6.647
 2996SOL     OW 9886   2.248   6.678   3.404
 2996SOL    HW1 9887   2.241   6.578   3.397
 2996SOL    HW2 9888   2.325   6.711   3.350
 2997SOL     OW 9889   5.172   0.170   1.776
 2997SOL    HW1 9890   5.252   0.124   1.737
 2997SOL    HW2 9891   5.193   0.266   1.791
 2998SOL     OW 9892   5.463   6.263   4.860
 2998SOL    HW1 9893   5.528   6.318   4.913
 2998SOL    HW2 9894   5.370   6.288   4.884
 2999SOL     OW 9895   3.346   4.929   3.841
 2999SOL    HW1 9896   3.251   4.899   3.853
 2999SOL    HW2 9897   3.348   5.004   3.774
 3000SOL     OW 9898   2.025   4.024   6.534
 3000SOL    HW1 9899   1.981   4.096   6.587
 3000SOL    HW2 9900   1.966   3.944   6.530
 3001SOL     OW 9901   5.826   5.865   6.934
 3001SOL    HW1 9902   5.901   5.900   6.877
 3001SOL    HW2 9903   5.847   5.772   6.964
 3002SOL     OW 9904   4.080   0.282   6.227
 3002SOL    HW1 9905   4.124   0.192   6.233
 3002SOL    HW2 9906   4.025   0.287   6.145
 3003SOL     OW 9907   2.208   0.136   6.503
 3003SOL    HW1 9908   2.283   0.195   6.531
 3003SOL    HW2 9909   2.243   0.045   6.481
 3004SOL     OW 9910   0.895   5.440   3.966
 3004SOL    HW1 9911   0.985   5.424   3.924
 3004SOL    HW2 9912   0.902   5.426   4.065
 3005SOL     OW 9913   2.994   2.609   0.362
 3005SOL    HW1 9914   2.894   2.611   0.364
 3005SOL    HW2 9915   3.025   2.539   0.298
 3006SOL     OW 9916   5.785   2.208   6.783
 3006SOL    HW1 9917   5.879   2.179   6.799
 3006SOL    HW2 9918   5.727   2.176   6.858
 3007SOL     OW 9919   5.839   4.902   1.979
 3007SOL    HW1 9920   5.882   4.814   1.959
 3007SOL    HW2 9921   5.784   4.894   2.063
 3008SOL     OW 9922   3.290   0.809   6.616
 3008SOL    HW1 9923   3.293   0.853   6.705
 3008SOL    HW2 9924   3.208   0.752   6.609
 3009SOL     OW 9925   0.264   6.614   3.255
 3009SOL    HW1 9926   0.332   6.676   3.294
 3009SOL    HW2 9927   0.297   6.580   3.167
 3010SOL     OW 9928   3.644   6.567   3.412
 3010SOL    HW1 9929   3.638   6.470   3.436
 3010SOL    HW2 9930   3.711   6.612   3.471
 3011SOL     OW 9931   5.795   1.506   0.347
 3011SOL    HW1 9932   5.728   1.452   0.398
 3011SOL    HW2 9933   5.793   1.601   0.379
 3012SOL     OW 9934   0.951   3.611   5.274
 3012SOL    HW1 9935   0.865   3.650   5.309
 3012SOL    HW2 9936   0.956   3.627   5.176
 3013SOL     OW 9937   5.219   5.604   4.766
 3013SOL    HW1 9938   5.120   5.587   4.772
 3013SOL    HW2 9939   5.260   5.592   4.857
 3014SOL     OW 9940   5.020   3.314   4.520
 3014SOL    HW1 9941   5.052   3.399   4.479
 3014SOL    HW2 9942   4.960   3.334   4.597
 3015SOL     OW 9943   2.715   2.372   0.379
 3015SOL    HW1 9944   2.771   2.333   0.452
 3015SOL    HW2 9945   2.671   2.299   0.327
 3016SOL     OW 9946   2.919   5.723   3.716
 3016SOL    HW1 9947   2.978   5.674   3.780
 3016SOL    HW2 9948   2.838   5.757   3.764
 3017SOL     OW 9949   0.993   5.342   2.060
 3017SOL    HW1 9950   1.083   5.306   2.085
 3017SOL    HW2 9951   0.944   5.370   2.143
 3018SOL     OW 9952   1.861   0.062   5.038
 3018SOL    HW1 9953   1.896   6.994   5.054
 3018SOL    HW2 9954   1.761   0.061   5.040
 3019SOL     OW 9955   2.363   6.700   0.239
 3019SOL    HW1 9956   2.286   6.763   0.239
 3019SOL    HW2 9957   2.331   6.608   0.261
 3020SOL     OW 9958   3.627   4.021   1.634
 3020SOL    HW1 9959   3.546   3.980   1.591
 3020SOL    HW2 9960   3.605   4.112   1.667
 3021SOL     OW 9961   3.467   0.745   0.074
 3021SOL    HW1 9962   3.459   0.649   0.100
 3021SOL    HW2 9963   3.548   0.758   0.018
 3022SOL     OW 9964   4.140   5.692   3.737
 3022SOL    HW1 9965   4.048   5.728   3.747
 3022SOL    HW2 9966   4.206   5.761   3.767
 3023SOL     OW 9967   4.924   0.361   2.097
 3023SOL    HW1 9968   4.901   0.355   2.000
 3023SOL    HW2 9969   5.022   0.377   2.107
 3024SOL     OW 9970   3.781   6.955   5.806
 3024SOL    HW1 9971   3.849   6.929   5.875
 3024SOL    HW2 9972   3.692   6.966   5.849
 3025SOL     OW 9973   4.012   2.035   0.400
 3025SOL    HW1 9974   4.048   1.961   0.343
 3025SOL    HW2 9975   4.014   2.007   0.496
 3026SOL     OW 9976   1.978   1.589   0.651
 3026SOL    HW1 9977   2.038   1.662   0.616
 3026SOL    HW2 9978   2.032   1.507   0.667
 3027SOL     OW 9979   4.183   0.379   2.071
 3027SOL    HW1 9980   4.140   0.458   2.027
 3027SOL    HW2 9981   4.162   0.297   2.018
 3028SOL     OW 9982   1.913   3.814   5.853
 3028SOL    HW1 9983   1.898   3.911   5.834
 3028SOL    HW2 9984   1.999   3.785   5.810
 3029SOL     OW 9985   0.369   4.744   4.856
 3029SOL    HW1 9986   0.270   4.733   4.852
 3029SOL    HW2 9987   0.402   4.777   4.767
 3030SOL     OW 9988   1.082   2.577   5.946
 3030SOL    HW1 9989   1.102   2.670   5.915
 3030SOL    HW2 9990   1.016   2.535   5.884
 3031SOL     OW 9991   0.228   3.437   0.905
 3031SOL    HW1 9992   0.166   3.359   0.918
 3031SOL    HW2 9993   0.263   3.436   0.811
 3032SOL     OW 9994   4.723   6.642   1.615
 3032SOL    HW1 9995   4.733   6.734   1.654
 3032SOL    HW2 9996   4.768   6.576   1.675
 3033SOL     OW 9997   0.027   2.519   1.325
 3033SOL    HW1 9998   6.952   2.504   1.322
 3033SOL    HW2 9999   0.074   2.432   1.342
 3034SOL     OW10000   1.939   5.660   3.365
 3034SOL    HW110001   2.036   5.649   3.344
 3034SOL    HW210002   1.909   5.751   3.338
 3035SOL     OW10003   6.818   3.031   0.092
 3035SOL    HW110004   6.875   2.962   0.047
 3035SOL    HW210005   6.733   3.042   0.042
 3036SOL     OW10006   1.570   2.852   5.982
 3036SOL    HW110007   1.583   2.857   6.082
 3036SOL    HW210008   1.642   2.904   5.937
 3037SOL     OW10009   0.293   5.687   4.355
 3037SOL    HW110010   0.326   5.725   4.269
 3037SOL    HW210011   0.344   5.726   4.432
 3038SOL     OW10012   5.680   6.033   6.569
 3038SOL    HW110013   5.714   6.116   6.525
 3038SOL    HW210014   5.697   6.038   6.667
 3039SOL     OW10015   6.965   3.433   1.787
 3039SOL    HW110016   6.896   3.474   1.728
 3039SOL    HW210017   6.999   3.348   1.746
 3040SOL     OW10018   4.887   3.250   6.418
 3040SOL    HW110019   4.848   3.159   6.437
 3040SOL    HW210020   4.864   3.312   6.492
 3041SOL     OW10021   2.116   2.990   4.992
 3041SOL    HW110022   2.197   2.964   5.044
 3041SOL    HW210023   2.127   2.959   4.897
 3042SOL     OW10024   5.405   6.984   1.413
 3042SOL    HW110025   5.322   6.933   1.390
 3042SOL    HW210026   5.485   6.935   1.376
 3043SOL     OW10027   0.872   5.505   1.479
 3043SOL    HW110028   0.908   5.447   1.406
 3043SOL    HW210029   0.943   5.519   1.549
 3044SOL     OW10030   2.968   4.750   6.215
 3044SOL    HW110031   2.953   4.697   6.132
 3044SOL    HW210032   2.880   4.784   6.249
 3045SOL     OW10033   4.923   1.059   3.005
 3045SOL    HW110034   4.870   1.071   2.922
 3045SOL    HW210035   4.863   1.030   3.079
 3046SOL     OW10036   2.612   1.965   0.021
 3046SOL    HW110037   2.705   1.981   0.053
 3046SOL    HW210038   2.595   2.019   6.962
 3047SOL     OW10039   5.683   6.667   2.364
 3047SOL    HW110040   5.735   6.752   2.372
 3047SOL    HW210041   5.588   6.683   2.392
 3048SOL     OW10042   3.941   2.637   1.669
 3048SOL    HW110043   3.886   2.677   1.596
 3048SOL    HW210044   3.916   2.680   1.756
 3049SOL     OW10045   1.235   6.463   1.814
 3049SOL    HW110046   1.203   6.394   1.878
 3049SOL    HW210047   1.158   6.500   1.763
 3050SOL     OW10048   3.648   0.892   2.744
 3050SOL    HW110049   3.652   0.795   2.766
 3050SOL    HW210050   3.674   0.904   2.648
 3051SOL     OW10051   2.295   3.716   6.777
 3051SOL    HW110052   2.279   3.814   6.785
 3051SOL    HW210053   2.369   3.700   6.711
 3052SOL     OW10054   4.830   0.582   2.188
 3052SOL    HW110055   4.867   0.498   2.148
 3052SOL    HW210056   4.734   0.568   2.210
 3053SOL     OW10057   0.179   1.506   6.509
 3053SOL    HW110058   0.271   1.470   6.493
 3053SOL    HW210059   0.112   1.442   6.472
 3054SOL     OW10060   6.799   2.535   1.321
 3054SOL    HW110061   6.787   2.546   1.222
 3054SOL    HW210062   6.714   2.501   1.361
 3055SOL     OW10063   4.921   6.484   4.031
 3055SOL    HW110064   4.962   6.543   3.961
 3055SOL    HW210065   4.940   6.522   4.122
 3056SOL     OW10066   6.805   1.498   5.809
 3056SOL    HW110067   6.778   1.473   5.902
 3056SOL    HW210068   6.824   1.415   5.756
 3057SOL     OW10069   4.126   6.164   3.755
 3057SOL    HW110070   4.088   6.246   3.712
 3057SOL    HW210071   4.159   6.101   3.684
 3058SOL     OW10072   6.690   5.720   1.176
 3058SOL    HW110073   6.642   5.807   1.171
 3058SOL    HW210074   6.630   5.650   1.215
 3059SOL     OW10075   2.233   2.377   4.108
 3059SOL    HW110076   2.303   2.305   4.103
 3059SOL    HW210077   2.275   2.466   4.088
 3060SOL     OW10078   0.945   6.254   0.757
 3060SOL    HW110079   0.904   6.210   0.677
 3060SOL    HW210080   0.873   6.280   0.821
 3061SOL     OW10081   5.914   0.589   5.581
 3061SOL    HW110082   5.951   0.676   5.547
 3061SOL    HW210083   5.977   0.515   5.558
 3062SOL     OW10084   1.555   6.837   6.641
 3062SOL    HW110085   1.620   6.807   6.710
 3062SOL    HW210086   1.552   6.770   6.567
 3063SOL     OW10087   2.652   5.387   1.963
 3063SOL    HW110088   2.607   5.299   1.979
 3063SOL    HW210089   2.608   5.433   1.886
 3064SOL     OW10090   5.569   3.500   4.013
 3064SOL    HW110091   5.510   3.490   3.933
 3064SOL    HW210092   5.563   3.594   4.047
 3065SOL     OW10093   2.143   0.531   6.907
 3065SOL    HW110094   2.231   0.553   6.866
 3065SOL    HW210095   2.092   0.615   6.925
 3066SOL     OW10096   4.832   5.227   0.688
 3066SOL    HW110097   4.833   5.135   0.650
 3066SOL    HW210098   4.921   5.248   0.728
 3067SOL     OW10099   3.973   2.099   4.691
 3067SOL    HW110100   3.942   2.098   4.596
 3067SOL    HW210101   3.894   2.108   4.751
 3068SOL     OW10102   5.368   6.028   0.911
 3068SOL    HW110103   5.308   5.948   0.917
 3068SOL    HW210104   5.412   6.042   1.000
 3069SOL     OW10105   6.620   6.359   1.877
 3069SOL    HW110106   6.657   6.442   1.918
 3069SOL    HW210107   6.613   6.288   1.947
 3070SOL     OW10108   1.200   1.145   2.558
 3070SOL    HW110109   1.150   1.210   2.502
 3070SOL    HW210110   1.295   1.140   2.529
 3071SOL     OW10111   5.766   5.854   3.622
 3071SOL    HW110112   5.771   5.943   3.667
 3071SOL    HW210113   5.859   5.816   3.612
 3072SOL     OW10114   1.542   6.431   0.613
 3072SOL    HW110115   1.469   6.378   0.568
 3072SOL    HW210116   1.577   6.499   0.549
 3073SOL     OW10117   0.266   3.582   5.432
 3073SOL    HW110118   0.193   3.564   5.366
 3073SOL    HW210119   0.333   3.644   5.392
 3074SOL     OW10120   5.130   2.909   0.505
 3074SOL    HW110121   5.115   2.963   0.588
 3074SOL    HW210122   5.054   2.923   0.441
 3075SOL     OW10123   2.110   5.976   1.581
 3075SOL    HW110124   2.171   6.010   1.652
 3075SOL    HW210125   2.058   5.898   1.617
 3076SOL     OW10126   6.990   1.481   4.432
 3076SOL    HW110127   7.005   1.396   4.482
 3076SOL    HW210128   0.040   1.493   4.365
 3077SOL     OW10129   5.096   5.515   2.780
 3077SOL    HW110130   5.074   5.488   2.686
 3077SOL    HW210131   5.012   5.539   2.829
 3078SOL     OW10132   1.218   3.417   1.072
 3078SOL    HW110133   1.209   3.342   1.137
 3078SOL    HW210134   1.193   3.503   1.116
 3079SOL     OW10135   2.502   2.079   4.463
 3079SOL    HW110136   2.458   1.994   4.492
 3079SOL    HW210137   2.541   2.067   4.372
 3080SOL     OW10138   5.118   4.356   3.658
 3080SOL    HW110139   5.178   4.277   3.669
 3080SOL    HW210140   5.025   4.331   3.683
 3081SOL     OW10141   0.283   2.409   6.058
 3081SOL    HW110142   0.206   2.460   6.097
 3081SOL    HW210143   0.351   2.391   6.129
 3082SOL     OW10144   3.470   7.017   3.583
 3082SOL    HW110145   3.524   0.071   3.614
 3082SOL    HW210146   3.375   0.021   3.571
 3083SOL     OW10147   4.306   6.291   3.438
 3083SOL    HW110148   4.300   6.368   3.501
 3083SOL    HW210149   4.362   6.219   3.479
 3084SOL     OW10150   4.868   3.924   4.602
 3084SOL    HW110151   4.881   3.898   4.506
 3084SOL    HW210152   4.815   4.008   4.606
 3085SOL     OW10153   0.774   4.704   1.933
 3085SOL    HW110154   0.722   4.719   1.849
 3085SOL    HW210155   0.823   4.617   1.927
 3086SOL     OW10156   3.925   1.912   1.924
 3086SOL    HW110157   3.991   1.987   1.925
 3086SOL    HW210158   3.843   1.940   1.874
 3087SOL     OW10159   1.238   5.252   3.999
 3087SOL    HW110160   1.162   5.249   4.064
 3087SOL    HW210161   1.241   5.167   3.947
 3088SOL     OW10162   2.484   4.731   5.933
 3088SOL    HW110163   2.425   4.781   5.870
 3088SOL    HW210164   2.428   4.671   5.990
 3089SOL     OW10165   1.031   3.037   0.502
 3089SOL    HW110166   1.094   3.023   0.427
 3089SOL    HW210167   1.080   3.031   0.589
 3090SOL     OW10168   2.029   2.283   1.768
 3090SOL    HW110169   2.035   2.194   1.723
 3090SOL    HW210170   1.957   2.281   1.837
 3091SOL     OW10171   1.499   6.996   0.315
 3091SOL    HW110172   1.575   6.973   0.255
 3091SOL    HW210173   1.506   6.943   0.400
 3092SOL     OW10174   4.995   6.702   0.289
 3092SOL    HW110175   4.946   6.699   0.202
 3092SOL    HW210176   5.085   6.745   0.275
 3093SOL     OW10177   5.318   5.670   5.826
 3093SOL    HW110178   5.376   5.631   5.897
 3093SOL    HW210179   5.222   5.659   5.852
 3094SOL     OW10180   2.993   6.557   4.249
 3094SOL    HW110181   2.909   6.541   4.196
 3094SOL    HW210182   2.977   6.628   4.317
 3095SOL     OW10183   2.562   5.933   4.219
 3095SOL    HW110184   2.503   6.012   4.239
 3095SOL    HW210185   2.527   5.852   4.266
 3096SOL     OW10186   0.896   0.161   4.745
 3096SOL    HW110187   0.814   0.137   4.694
 3096SOL    HW210188   0.907   0.260   4.747
 3097SOL     OW10189   0.370   2.263   1.214
 3097SOL    HW110190   0.440   2.268   1.285
 3097SOL    HW210191   0.377   2.176   1.165
 3098SOL     OW10192   2.328   3.401   1.004
 3098SOL    HW110193   2.407   3.419   0.945
 3098SOL    HW210194   2.267   3.481   1.002
 3099SOL     OW10195   0.391   5.887   4.516
 3099SOL    HW110196   0.353   5.964   4.465
 3099SOL    HW210197   0.416   5.917   4.608
 3100SOL     OW10198   6.621   0.110   4.504
 3100SOL    HW110199   6.604   0.188   4.564
 3100SOL    HW210200   6.701   0.059   4.537
 3101SOL     OW10201   5.460   5.953   6.044
 3101SOL    HW110202   5.522   5.900   5.986
 3101SOL    HW210203   5.512   6.014   6.102
 3102SOL     OW10204   0.488   5.138   3.055
 3102SOL    HW110205   0.449   5.048   3.033
 3102SOL    HW210206   0.551   5.166   2.983
 3103SOL     OW10207   3.484   0.973   1.729
 3103SOL    HW110208   3.439   1.039   1.789
 3103SOL    HW210209   3.512   1.018   1.644
 3104SOL     OW10210   4.841   6.608   5.315
 3104SOL    HW110211   4.924   6.658   5.292
 3104SOL    HW210212   4.847   6.575   5.409
 3105SOL     OW10213   6.094   4.667   2.118
 3105SOL    HW110214   6.023   4.614   2.164
 3105SOL    HW210215   6.086   4.655   2.019
 3106SOL     OW10216   5.955   0.914   2.903
 3106SOL    HW110217   5.860   0.886   2.915
 3106SOL    HW210218   5.959   1.013   2.889
 3107SOL     OW10219   4.218   0.749   4.078
 3107SOL    HW110220   4.173   0.832   4.044
 3107SOL    HW210221   4.243   0.762   4.175
 3108SOL     OW10222   1.456   0.399   4.440
 3108SOL    HW110223   1.416   0.310   4.464
 3108SOL    HW210224   1.516   0.429   4.515
 3109SOL     OW10225   5.591   5.478   2.554
 3109SOL    HW110226   5.660   5.409   2.576
 3109SOL    HW210227   5.584   5.487   2.454
 3110SOL     OW10228   1.361   1.654   3.209
 3110SOL    HW110229   1.354   1.598   3.292
 3110SOL    HW210230   1.433   1.723   3.222
 3111SOL     OW10231   6.594   5.841   3.921
 3111SOL    HW110232   6.600   5.894   4.005
 3111SOL    HW210233   6.532   5.888   3.857
 3112SOL     OW10234   5.031   2.407   6.158
 3112SOL    HW110235   5.066   2.496   6.187
 3112SOL    HW210236   5.002   2.355   6.238
 3113SOL     OW10237   1.563   6.423   4.300
 3113SOL    HW110238   1.635   6.466   4.245
 3113SOL    HW210239   1.477   6.471   4.285
 3114SOL     OW10240   4.104   2.332   6.821
 3114SOL    HW110241   4.057   2.259   6.771
 3114SOL    HW210242   4.191   2.353   6.775
 3115SOL     OW10243   4.616   3.330   6.950
 3115SOL    HW110244   4.679   3.399   6.914
 3115SOL    HW210245   4.654   3.239   6.934
 3116SOL     OW10246   6.952   3.714   0.017
 3116SOL    HW110247   0.009   3.772   0.005
 3116SOL    HW210248   6.968   3.650   0.093
 3117SOL     OW10249   4.584   3.802   5.310
 3117SOL    HW110250   4.642   3.871   5.355
 3117SOL    HW210251   4.630   3.769   5.228
 3118SOL     OW10252   0.265   4.906   0.177
 3118SOL    HW110253   0.290   4.864   0.264
 3118SOL    HW210254   0.325   4.983   0.159
 3119SOL     OW10255   1.764   3.258   5.697
 3119SOL    HW110256   1.851   3.255   5.647
 3119SOL    HW210257   1.689   3.266   5.632
 3120SOL     OW10258   2.933   0.080   3.935
 3120SOL    HW110259   2.944   7.015   3.889
 3120SOL    HW210260   3.021   0.108   3.974
 3121SOL     OW10261   0.367   1.674   2.377
 3121SOL    HW110262   0.276   1.636   2.392
 3121SOL    HW210263   0.412   1.690   2.466
 3122SOL     OW10264   2.798   6.107   5.828
 3122SOL    HW110265   2.734   6.147   5.762
 3122SOL    HW210266   2.755   6.103   5.918
 3123SOL     OW10267   3.296   0.412   4.184
 3123SOL    HW110268   3.260   0.422   4.091
 3123SOL    HW210269   3.381   0.463   4.192
 3124SOL     OW10270   4.085   6.590   4.454
 3124SOL    HW110271   4.043   6.516   4.401
 3124SOL    HW210272   4.174   6.560   4.489
 3125SOL     OW10273   6.257   1.991   5.163
 3125SOL    HW110274   6.300   1.903   5.182
 3125SOL    HW210275   6.323   2.050   5.116
 3126SOL     OW10276   4.887   5.036   6.367
 3126SOL    HW110277   4.977   4.999   6.388
 3126SOL    HW210278   4.851   4.992   6.285
 3127SOL     OW10279   1.017   2.301   2.980
 3127SOL    HW110280   1.007   2.331   2.885
 3127SOL    HW210281   0.933   2.256   3.010
 3128SOL     OW10282   1.888   7.017   6.306
 3128SOL    HW110283   1.820   0.056   6.344
 3128SOL    HW210284   1.971   0.044   6.283
 3129SOL     OW10285   0.909   4.266   6.759
 3129SOL    HW110286   0.981   4.230   6.700
 3129SOL    HW210287   0.941   4.264   6.854
 3130SOL     OW10288   1.980   4.153   1.896
 3130SOL    HW110289   1.939   4.113   1.814
 3130SOL    HW210290   2.077   4.170   1.881
 3131SOL     OW10291   0.616   2.693   1.861
 3131SOL    HW110292   0.688   2.728   1.921
 3131SOL    HW210293   0.567   2.619   1.906
 3132SOL     OW10294   4.833   5.099   5.749
 3132SOL    HW110295   4.802   5.039   5.676
 3132SOL    HW210296   4.933   5.092   5.757
 3133SOL     OW10297   3.198   1.908   3.079
 3133SOL    HW110298   3.231   1.923   2.986
 3133SOL    HW210299   3.267   1.939   3.145
 3134SOL     OW10300   4.725   4.818   1.577
 3134SOL    HW110301   4.705   4.722   1.594
 3134SOL    HW210302   4.705   4.840   1.482
 3135SOL     OW10303   5.045   0.843   5.101
 3135SOL    HW110304   4.972   0.806   5.159
 3135SOL    HW210305   5.076   0.930   5.139
 3136SOL     OW10306   5.337   0.391   6.633
 3136SOL    HW110307   5.352   0.448   6.713
 3136SOL    HW210308   5.242   0.397   6.604
 3137SOL     OW10309   6.002   0.640   3.556
 3137SOL    HW110310   6.002   0.722   3.500
 3137SOL    HW210311   5.928   0.579   3.526
 3138SOL     OW10312   6.684   2.122   3.757
 3138SOL    HW110313   6.657   2.218   3.766
 3138SOL    HW210314   6.778   2.117   3.723
 3139SOL     OW10315   4.788   6.830   0.407
 3139SOL    HW110316   4.694   6.825   0.372
 3139SOL    HW210317   4.836   6.744   0.387
 3140SOL     OW10318   5.955   6.889   6.600
 3140SOL    HW110319   6.029   6.831   6.633
 3140SOL    HW210320   5.872   6.871   6.653
 3141SOL     OW10321   0.809   6.176   6.015
 3141SOL    HW110322   0.814   6.088   5.968
 3141SOL    HW210323   0.721   6.220   5.995
 3142SOL     OW10324   4.556   6.352   1.510
 3142SOL    HW110325   4.534   6.349   1.413
 3142SOL    HW210326   4.576   6.447   1.537
 3143SOL     OW10327   0.630   2.547   6.664
 3143SOL    HW110328   0.673   2.596   6.588
 3143SOL    HW210329   0.568   2.608   6.712
 3144SOL     OW10330   2.983   4.171   0.908
 3144SOL    HW110331   3.038   4.101   0.862
 3144SOL    HW210332   3.040   4.251   0.927
 3145SOL     OW10333   1.471   4.826   2.771
 3145SOL    HW110334   1.503   4.918   2.750
 3145SOL    HW210335   1.378   4.815   2.734
 3146SOL     OW10336   1.515   7.015   3.240
 3146SOL    HW110337   1.423   6.983   3.265
 3146SOL    HW210338   1.516   0.091   3.238
 3147SOL     OW10339   3.997   5.409   0.109
 3147SOL    HW110340   4.043   5.392   0.197
 3147SOL    HW210341   4.014   5.333   0.048
 3148SOL     OW10342   5.318   5.710   4.541
 3148SOL    HW110343   5.284   5.679   4.630
 3148SOL    HW210344   5.411   5.676   4.528
 3149SOL     OW10345   3.246   0.649   5.303
 3149SOL    HW110346   3.276   0.577   5.366
 3149SOL    HW210347   3.213   0.606   5.218
 3150SOL     OW10348   6.485   5.568   3.898
 3150SOL    HW110349   6.502   5.665   3.881
 3150SOL    HW210350   6.439   5.528   3.818
 3151SOL     OW10351   3.787   0.593   6.702
 3151SOL    HW110352   3.784   0.610   6.603
 3151SOL    HW210353   3.831   0.505   6.718
 3152SOL     OW10354   1.319   4.913   1.722
 3152SOL    HW110355   1.417   4.900   1.733
 3152SOL    HW210356   1.270   4.862   1.793
 3153SOL     OW10357   6.648   4.202   1.662
 3153SOL    HW110358   6.708   4.269   1.618
 3153SOL    HW210359   6.585   4.164   1.594
 3154SOL     OW10360   6.303   1.524   0.146
 3154SOL    HW110361   6.212   1.492   0.172
 3154SOL    HW210362   6.330   1.598   0.207
 3155SOL     OW10363   6.835   5.158   1.311
 3155SOL    HW110364   6.848   5.060   1.297
 3155SOL    HW210365   6.807   5.176   1.405
 3156SOL     OW10366   3.732   3.087   3.808
 3156SOL    HW110367   3.732   3.007   3.748
 3156SOL    HW210368   3.655   3.147   3.785
 3157SOL     OW10369   1.682   2.890   4.922
 3157SOL    HW110370   1.731   2.901   5.009
 3157SOL    HW210371   1.749   2.878   4.849
 3158SOL     OW10372   4.381   0.280   1.676
 3158SOL    HW110373   4.464   0.250   1.722
 3158SOL    HW210374   4.346   0.362   1.721
 3159SOL     OW10375   5.530   0.825   0.141
 3159SOL    HW110376   5.557   0.911   0.185
 3159SOL    HW210377   5.610   0.785   0.097
 3160SOL     OW10378   6.630   5.768   5.477
 3160SOL    HW110379   6.727   5.789   5.463
 3160SOL    HW210380   6.614   5.671   5.458
 3161SOL     OW10381   1.296   1.308   2.833
 3161SOL    HW110382   1.213   1.276   2.879
 3161SOL    HW210383   1.377   1.272   2.880
 3162SOL     OW10384   0.938   5.842   0.778
 3162SOL    HW110385   0.851   5.883   0.754
 3162SOL    HW210386   0.922   5.757   0.828
 3163SOL     OW10387   3.639   2.391   0.248
 3163SOL    HW110388   3.661   2.456   0.176
 3163SOL    HW210389   3.541   2.397   0.269
 3164SOL     OW10390   4.255   4.466   1.454
 3164SOL    HW110391   4.236   4.546   1.511
 3164SOL    HW210392   4.212   4.385   1.495
 3165SOL     OW10393   1.165   6.116   1.716
 3165SOL    HW110394   1.117   6.175   1.650
 3165SOL    HW210395   1.207   6.040   1.667
 3166SOL     OW10396   5.015   2.317   6.427
 3166SOL    HW110397   5.008   2.336   6.525
 3166SOL    HW210398   5.102   2.270   6.409
 3167SOL     OW10399   0.184   4.549   1.597
 3167SOL    HW110400   0.262   4.609   1.609
 3167SOL    HW210401   0.186   4.477   1.667
 3168SOL     OW10402   5.325   2.986   0.286
 3168SOL    HW110403   5.326   3.058   0.356
 3168SOL    HW210404   5.230   2.964   0.263
 3169SOL     OW10405   0.667   3.029   5.649
 3169SOL    HW110406   0.732   3.093   5.608
 3169SOL    HW210407   0.715   2.965   5.710
 3170SOL     OW10408   4.114   0.741   0.894
 3170SOL    HW110409   4.026   0.765   0.853
 3170SOL    HW210410   4.102   0.724   0.992
 3171SOL     OW10411   6.821   6.768   1.195
 3171SOL    HW110412   6.785   6.848   1.148
 3171SOL    HW210413   6.910   6.744   1.156
 3172SOL     OW10414   0.585   5.693   5.693
 3172SOL    HW110415   0.593   5.790   5.712
 3172SOL    HW210416   0.494   5.660   5.721
 3173SOL     OW10417   2.794   1.766   1.209
 3173SOL    HW110418   2.815   1.807   1.297
 3173SOL    HW210419   2.829   1.824   1.135
 3174SOL     OW10420   2.482   2.802   6.872
 3174SOL    HW110421   2.423   2.828   6.948
 3174SOL    HW210422   2.490   2.702   6.868
 3175SOL     OW10423   6.733   6.469   0.626
 3175SOL    HW110424   6.694   6.487   0.535
 3175SOL    HW210425   6.798   6.541   0.650
 3176SOL     OW10426   2.302   5.127   4.936
 3176SOL    HW110427   2.375   5.143   5.002
 3176SOL    HW210428   2.341   5.084   4.854
 3177SOL     OW10429   4.795   5.535   5.471
 3177SOL    HW110430   4.734   5.563   5.545
 3177SOL    HW210431   4.775   5.589   5.390
 3178SOL     OW10432   6.612   3.135   1.343
 3178SOL    HW110433   6.639   3.232   1.346
 3178SOL    HW210434   6.679   3.081   1.393
 3179SOL     OW10435   1.834   2.942   1.791
 3179SOL    HW110436   1.895   3.005   1.743
 3179SOL    HW210437   1.739   2.967   1.773
 3180SOL     OW10438   4.261   0.444   6.814
 3180SOL    HW110439   4.218   0.480   6.897
 3180SOL    HW210440   4.351   0.406   6.837
 3181SOL     OW10441   0.635   0.070   2.817
 3181SOL    HW110442   0.600   7.021   2.757
 3181SOL    HW210443   0.605   0.158   2.781
 3182SOL     OW10444   1.161   1.208   5.803
 3182SOL    HW110445   1.124   1.121   5.771
 3182SOL    HW210446   1.111   1.283   5.762
 3183SOL     OW10447   4.662   4.036   1.474
 3183SOL    HW110448   4.711   4.097   1.412
 3183SOL    HW210449   4.666   3.942   1.439
 3184SOL     OW10450   2.661   1.932   2.714
 3184SOL    HW110451   2.682   1.873   2.636
 3184SOL    HW210452   2.565   1.959   2.711
 3185SOL     OW10453   6.249   0.599   6.568
 3185SOL    HW110454   6.183   0.674   6.563
 3185SOL    HW210455   6.205   0.518   6.607
 3186SOL     OW10456   3.333   0.904   2.761
 3186SOL    HW110457   3.429   0.878   2.757
 3186SOL    HW210458   3.295   0.876   2.850
 3187SOL     OW10459   4.841   4.384   6.952
 3187SOL    HW110460   4.857   4.295   6.995
 3187SOL    HW210461   4.751   4.418   6.979
 3188SOL     OW10462   3.642   5.886   3.151
 3188SOL    HW110463   3.713   5.821   3.176
 3188SOL    HW210464   3.669   5.937   3.070
 3189SOL     OW10465   2.269   1.043   2.994
 3189SOL    HW110466   2.353   1.092   3.018
 3189SOL    HW210467   2.290   0.946   2.981
 3190SOL     OW10468   0.890   6.495   1.414
 3190SOL    HW110469   0.850   6.587   1.420
 3190SOL    HW210470   0.980   6.501   1.371
 3191SOL     OW10471   3.544   6.657   1.042
 3191SOL    HW110472   3.582   6.596   0.972
 3191SOL    HW210473   3.517   6.744   1.001
 3192SOL     OW10474   0.589   2.521   0.995
 3192SOL    HW110475   0.673   2.469   1.003
 3192SOL    HW210476   0.529   2.478   0.926
 3193SOL     OW10477   4.135   2.012   6.479
 3193SOL    HW110478   4.217   1.975   6.522
 3193SOL    HW210479   4.064   2.025   6.547
 3194SOL     OW10480   1.267   2.761   6.266
 3194SOL    HW110481   1.216   2.816   6.201
 3194SOL    HW210482   1.239   2.665   6.259
 3195SOL     OW10483   1.825   2.239   2.619
 3195SOL    HW110484   1.745   2.265   2.565
 3195SOL    HW210485   1.867   2.320   2.659
 3196SOL     OW10486   6.268   0.326   5.107
 3196SOL    HW110487   6.351   0.381   5.113
 3196SOL    HW210488   6.274   0.264   5.029
 3197SOL     OW10489   1.751   5.686   3.596
 3197SOL    HW110490   1.797   5.648   3.516
 3197SOL    HW210491   1.652   5.674   3.587
 3198SOL     OW10492   6.347   2.240   6.958
 3198SOL    HW110493   6.291   2.295   6.896
 3198SOL    HW210494   6.296   2.159   6.987
 3199SOL     OW10495   4.682   2.607   2.203
 3199SOL    HW110496   4.654   2.583   2.111
 3199SOL    HW210497   4.748   2.683   2.199
 3200SOL     OW10498   6.963   1.800   1.369
 3200SOL    HW110499   6.996   1.710   1.343
 3200SOL    HW210500   6.904   1.837   1.297
 3201SOL     OW10501   5.373   4.068   4.241
 3201SOL    HW110502   5.300   4.009   4.275
 3201SOL    HW210503   5.379   4.150   4.298
 3202SOL     OW10504   1.551   4.539   1.763
 3202SOL    HW110505   1.624   4.474   1.741
 3202SOL    HW210506   1.472   4.522   1.704
 3203SOL     OW10507   5.799   0.962   1.030
 3203SOL    HW110508   5.771   1.004   1.117
 3203SOL    HW210509   5.724   0.907   0.994
 3204SOL     OW10510   5.639   6.226   1.461
 3204SOL    HW110511   5.637   6.131   1.429
 3204SOL    HW210512   5.733   6.261   1.456
 3205SOL     OW10513   0.034   4.250   6.763
 3205SOL    HW110514   0.005   4.156   6.783
 3205SOL    HW210515   0.130   4.260   6.788
 3206SOL     OW10516   6.802   6.964   6.049
 3206SOL    HW110517   6.848   7.008   6.126
 3206SOL    HW210518   6.710   7.000   6.040
 3207SOL     OW10519   0.505   1.145   6.551
 3207SOL    HW110520   0.567   1.223   6.557
 3207SOL    HW210521   0.477   1.132   6.456
 3208SOL     OW10522   4.178   6.016   5.512
 3208SOL    HW110523   4.208   5.991   5.604
 3208SOL    HW210524   4.258   6.026   5.453
 3209SOL     OW10525   2.941   6.082   3.610
 3209SOL    HW110526   3.006   6.006   3.617
 3209SOL    HW210527   2.981   6.157   3.559
 3210SOL     OW10528   0.617   3.356   1.777
 3210SOL    HW110529   0.595   3.265   1.742
 3210SOL    HW210530   0.689   3.349   1.846
 3211SOL     OW10531   2.329   4.621   0.493
 3211SOL    HW110532   2.355   4.686   0.422
 3211SOL    HW210533   2.358   4.529   0.467
 3212SOL     OW10534   4.034   1.498   6.773
 3212SOL    HW110535   4.049   1.401   6.791
 3212SOL    HW210536   3.950   1.509   6.720
 3213SOL     OW10537   5.740   4.702   2.788
 3213SOL    HW110538   5.746   4.605   2.762
 3213SOL    HW210539   5.647   4.723   2.816
 3214SOL     OW10540   4.599   6.246   0.274
 3214SOL    HW110541   4.519   6.299   0.243
 3214SOL    HW210542   4.593   6.231   0.372
 3215SOL     OW10543   6.368   3.562   0.687
 3215SOL    HW110544   6.326   3.588   0.774
 3215SOL    HW210545   6.466   3.582   0.690
 3216SOL     OW10546   5.771   5.331   2.320
 3216SOL    HW110547   5.674   5.312   2.303
 3216SOL    HW210548   5.793   5.311   2.415
 3217SOL     OW10549   1.204   4.326   3.283
 3217SOL    HW110550   1.197   4.320   3.183
 3217SOL    HW210551   1.124   4.375   3.318
 3218SOL     OW10552   4.634   6.518   3.323
 3218SOL    HW110553   4.624   6.509   3.422
 3218SOL    HW210554   4.653   6.429   3.283
 3219SOL     OW10555   0.070   0.313   3.735
 3219SOL    HW110556   0.018   0.228   3.727
 3219SOL    HW210557   0.164   0.292   3.760
 3220SOL     OW10558   6.439   4.904   5.868
 3220SOL    HW110559   6.430   4.878   5.964
 3220SOL    HW210560   6.483   4.830   5.818
 3221SOL     OW10561   2.980   5.976   2.390
 3221SOL    HW110562   2.944   6.022   2.472
 3221SOL    HW210563   2.985   5.877   2.408
 3222SOL     OW10564   4.707   1.938   3.617
 3222SOL    HW110565   4.792   1.943   3.565
 3222SOL    HW210566   4.723   1.969   3.711
 3223SOL     OW10567   1.902   5.468   6.962
 3223SOL    HW110568   1.853   5.489   6.877
 3223SOL    HW210569   1.975   5.402   6.943
 3224SOL     OW10570   4.558   5.155   6.148
 3224SOL    HW110571   4.491   5.093   6.189
 3224SOL    HW210572   4.555   5.244   6.194
 3225SOL     OW10573   4.248   2.214   5.976
 3225SOL    HW110574   4.183   2.290   5.983
 3225SOL    HW210575   4.339   2.244   6.004
 3226SOL     OW10576   2.154   1.686   4.281
 3226SOL    HW110577   2.169   1.596   4.322
 3226SOL    HW210578   2.058   1.713   4.291
 3227SOL     OW10579   3.361   2.179   6.621
 3227SOL    HW110580   3.281   2.141   6.574
 3227SOL    HW210581   3.338   2.269   6.657
 3228SOL     OW10582   5.400   3.111   4.300
 3228SOL    HW110583   5.467   3.053   4.346
 3228SOL    HW210584   5.389   3.081   4.206
 3229SOL     OW10585   3.347   1.641   5.709
 3229SOL    HW110586   3.292   1.688   5.640
 3229SOL    HW210587   3.402   1.570   5.665
 3230SOL     OW10588   0.513   2.216   3.290
 3230SOL    HW110589   0.505   2.189   3.194
 3230SOL    HW210590   0.595   2.174   3.330
 3231SOL     OW10591   4.544   5.720   1.875
 3231SOL    HW110592   4.544   5.653   1.800
 3231SOL    HW210593   4.509   5.677   1.958
 3232SOL     OW10594   4.352   5.530   4.374
 3232SOL    HW110595   4.393   5.496   4.289
 3232SOL    HW210596   4.405   5.607   4.408
 3233SOL     OW10597   0.935   4.068   0.704
 3233SOL    HW110598   0.856   4.025   0.749
 3233SOL    HW210599   1.011   4.074   0.768
 3234SOL     OW10600   6.853   2.541   0.486
 3234SOL    HW110601   6.817   2.581   0.571
 3234SOL    HW210602   6.786   2.554   0.413
 3235SOL     OW10603   5.835   5.858   2.027
 3235SOL    HW110604   5.793   5.846   2.117
 3235SOL    HW210605   5.769   5.835   1.956
 3236SOL     OW10606   1.734   3.494   1.496
 3236SOL    HW110607   1.736   3.574   1.555
 3236SOL    HW210608   1.816   3.439   1.511
 3237SOL     OW10609   4.743   0.266   3.937
 3237SOL    HW110610   4.804   0.241   3.861
 3237SOL    HW210611   4.654   0.295   3.900
 3238SOL     OW10612   0.437   5.712   6.669
 3238SOL    HW110613   0.436   5.613   6.656
 3238SOL    HW210614   0.524   5.738   6.712
 3239SOL     OW10615   5.780   1.176   0.472
 3239SOL    HW110616   5.842   1.178   0.393
 3239SOL    HW210617   5.726   1.260   0.474
 3240SOL     OW10618   0.310   6.949   5.018
 3240SOL    HW110619   0.332   6.853   5.036
 3240SOL    HW210620   0.212   6.963   5.026
 3241SOL     OW10621   5.080   1.400   4.175
 3241SOL    HW110622   4.995   1.450   4.194
 3241SOL    HW210623   5.074   1.355   4.086
 3242SOL     OW10624   3.535   4.860   1.189
 3242SOL    HW110625   3.469   4.908   1.247
 3242SOL    HW210626   3.498   4.852   1.097
 3243SOL     OW10627   5.798   5.147   0.140
 3243SOL    HW110628   5.867   5.164   0.211
 3243SOL    HW210629   5.762   5.055   0.150
 3244SOL     OW10630   4.914   5.495   6.278
 3244SOL    HW110631   5.000   5.539   6.251
 3244SOL    HW210632   4.870   5.454   6.198
 3245SOL     OW10633   4.309   2.682   6.150
 3245SOL    HW110634   4.366   2.762   6.135
 3245SOL    HW210635   4.360   2.614   6.202
 3246SOL     OW10636   5.876   0.500   3.048
 3246SOL    HW110637   5.834   0.590   3.044
 3246SOL    HW210638   5.847   0.446   2.969
 3247SOL     OW10639   0.118   4.595   2.438
 3247SOL    HW110640   0.112   4.509   2.489
 3247SOL    HW210641   0.181   4.584   2.361
 3248SOL     OW10642   5.793   3.530   2.097
 3248SOL    HW110643   5.779   3.541   1.998
 3248SOL    HW210644   5.713   3.484   2.137
 3249SOL     OW10645   3.796   4.627   5.613
 3249SOL    HW110646   3.873   4.594   5.668
 3249SOL    HW210647   3.745   4.550   5.576
 3250SOL     OW10648   5.656   7.018   3.378
 3250SOL    HW110649   5.721   6.966   3.323
 3250SOL    HW210650   5.571   6.966   3.386
 3251SOL     OW10651   3.560   1.513   2.848
 3251SOL    HW110652   3.461   1.521   2.849
 3251SOL    HW210653   3.592   1.475   2.935
 3252SOL     OW10654   3.724   1.192   1.893
 3252SOL    HW110655   3.671   1.270   1.860
 3252SOL    HW210656   3.713   1.115   1.830
 3253SOL     OW10657   5.027   2.214   2.365
 3253SOL    HW110658   5.122   2.246   2.371
 3253SOL    HW210659   4.966   2.293   2.370
 3254SOL     OW10660   3.824   5.166   3.946
 3254SOL    HW110661   3.845   5.068   3.943
 3254SOL    HW210662   3.766   5.185   4.025
 3255SOL     OW10663   4.402   5.284   0.902
 3255SOL    HW110664   4.502   5.279   0.899
 3255SOL    HW210665   4.364   5.194   0.883
 3256SOL     OW10666   5.713   0.298   6.531
 3256SOL    HW110667   5.667   0.299   6.442
 3256SOL    HW210668   5.652   0.258   6.600
 3257SOL     OW10669   1.442   2.270   0.921
 3257SOL    HW110670   1.519   2.261   0.859
 3257SOL    HW210671   1.414   2.179   0.952
 3258SOL     OW10672   4.622   6.477   1.954
 3258SOL    HW110673   4.686   6.523   2.015
 3258SOL    HW210674   4.666   6.399   1.910
 3259SOL     OW10675   4.180   5.730   4.189
 3259SOL    HW110676   4.113   5.785   4.139
 3259SOL    HW210677   4.132   5.663   4.246
 3260SOL     OW10678   2.045   2.147   0.821
 3260SOL    HW110679   1.993   2.232   0.813
 3260SOL    HW210680   2.142   2.168   0.835
 3261SOL     OW10681   4.164   6.158   0.580
 3261SOL    HW110682   4.206   6.243   0.551
 3261SOL    HW210683   4.087   6.136   0.521
 3262SOL     OW10684   3.874   1.871   3.232
 3262SOL    HW110685   3.879   1.971   3.239
 3262SOL    HW210686   3.851   1.846   3.138
 3263SOL     OW10687   4.995   0.200   3.191
 3263SOL    HW110688   4.976   0.296   3.172
 3263SOL    HW210689   5.004   0.150   3.104
 3264SOL     OW10690   0.496   5.450   6.790
 3264SOL    HW110691   0.480   5.358   6.754
 3264SOL    HW210692   0.592   5.474   6.780
 3265SOL     OW10693   3.955   2.136   6.693
 3265SOL    HW110694   3.883   2.097   6.750
 3265SOL    HW210695   3.916   2.174   6.609
 3266SOL     OW10696   0.103   2.466   0.445
 3266SOL    HW110697   0.017   2.484   0.492
 3266SOL    HW210698   0.121   2.368   0.444
 3267SOL     OW10699   3.412   2.570   1.479
 3267SOL    HW110700   3.351   2.643   1.511
 3267SOL    HW210701   3.483   2.554   1.547
 3268SOL     OW10702   1.249   3.829   6.897
 3268SOL    HW110703   1.300   3.759   6.848
 3268SOL    HW210704   1.193   3.882   6.832
 3269SOL     OW10705   4.357   4.707   1.874
 3269SOL    HW110706   4.435   4.770   1.870
 3269SOL    HW210707   4.357   4.661   1.964
 3270SOL     OW10708   0.592   5.397   3.835
 3270SOL    HW110709   0.684   5.433   3.819
 3270SOL    HW210710   0.548   5.376   3.748
 3271SOL     OW10711   5.314   1.836   2.937
 3271SOL    HW110712   5.275   1.921   2.974
 3271SOL    HW210713   5.312   1.838   2.837
 3272SOL     OW10714   3.577   5.946   0.703
 3272SOL    HW110715   3.673   5.972   0.690
 3272SOL    HW210716   3.525   5.971   0.622
 3273SOL     OW10717   0.967   6.397   1.673
 3273SOL    HW110718   0.892   6.378   1.737
 3273SOL    HW210719   0.933   6.456   1.600
 3274SOL     OW10720   3.873   2.253   6.985
 3274SOL    HW110721   3.948   2.205   6.941
 3274SOL    HW210722   3.833   2.319   6.921
 3275SOL     OW10723   1.576   0.354   0.100
 3275SOL    HW110724   1.675   0.367   0.108
 3275SOL    HW210725   1.546   0.381   0.009
 3276SOL     OW10726   3.506   4.814   6.654
 3276SOL    HW110727   3.478   4.730   6.701
 3276SOL    HW210728   3.584   4.795   6.595
 3277SOL     OW10729   6.171   0.111   6.459
 3277SOL    HW110730   6.074   0.093   6.442
 3277SOL    HW210731   6.210   0.158   6.380
 3278SOL     OW10732   6.818   1.314   5.271
 3278SOL    HW110733   6.913   1.328   5.241
 3278SOL    HW210734   6.814   1.231   5.326
 3279SOL     OW10735   0.123   0.330   0.573
 3279SOL    HW110736   0.112   0.359   0.478
 3279SOL    HW210737   0.221   0.318   0.592
 3280SOL     OW10738   2.602   5.208   6.634
 3280SOL    HW110739   2.667   5.134   6.616
 3280SOL    HW210740   2.628   5.254   6.719
 3281SOL     OW10741   1.808   6.229   1.157
 3281SOL    HW110742   1.808   6.162   1.083
 3281SOL    HW210743   1.855   6.191   1.237
 3282SOL     OW10744   2.947   6.305   4.365
 3282SOL    HW110745   3.020   6.239   4.346
 3282SOL    HW210746   2.970   6.394   4.325
 3283SOL     OW10747   3.289   1.519   3.015
 3283SOL    HW110748   3.277   1.420   3.013
 3283SOL    HW210749   3.208   1.561   3.058
 3284SOL     OW10750   6.753   6.655   0.015
 3284SOL    HW110751   6.776   6.721   6.967
 3284SOL    HW210752   6.709   6.575   6.998
 3285SOL     OW10753   6.885   2.582   3.258
 3285SOL    HW110754   6.970   2.565   3.207
 3285SOL    HW210755   6.905   2.580   3.356
 3286SOL     OW10756   3.974   3.376   3.784
 3286SOL    HW110757   3.897   3.394   3.846
 3286SOL    HW210758   4.058   3.411   3.825
 3287SOL     OW10759   0.723   5.739   0.014
 3287SOL    HW110760   0.686   5.666   6.981
 3287SOL    HW210761   0.725   5.709   0.110
 3288SOL     OW10762   0.321   6.035   6.986
 3288SOL    HW110763   0.260   5.983   6.926
 3288SOL    HW210764   0.267   6.097   0.018
 3289SOL     OW10765   1.345   6.697   5.320
 3289SOL    HW110766   1.288   6.617   5.338
 3289SOL    HW210767   1.368   6.741   5.406
 3290SOL     OW10768   0.723   6.060   1.905
 3290SOL    HW110769   0.696   6.108   1.821
 3290SOL    HW210770   0.642   6.029   1.953
 3291SOL     OW10771   1.692   6.233   6.405
 3291SOL    HW110772   1.696   6.281   6.317
 3291SOL    HW210773   1.666   6.138   6.389
 3292SOL     OW10774   0.597   1.130   0.153
 3292SOL    HW110775   0.644   1.132   0.241
 3292SOL    HW210776   0.498   1.123   0.168
 3293SOL     OW10777   6.800   1.441   3.349
 3293SOL    HW110778   6.823   1.527   3.395
 3293SOL    HW210779   6.880   1.381   3.348
 3294SOL     OW10780   6.681   0.263   6.525
 3294SOL    HW110781   6.669   0.335   6.457
 3294SOL    HW210782   6.773   0.225   6.517
 3295SOL     OW10783   2.482   2.174   0.900
 3295SOL    HW110784   2.493   2.210   0.807
 3295SOL    HW210785   2.421   2.095   0.898
 3296SOL     OW10786   2.676   6.654   1.593
 3296SOL    HW110787   2.621   6.654   1.677
 3296SOL    HW210788   2.772   6.638   1.615
 3297SOL     OW10789   3.062   2.087   5.229
 3297SOL    HW110790   2.972   2.074   5.188
 3297SOL    HW210791   3.103   2.172   5.194
 3298SOL     OW10792   6.329   3.118   2.773
 3298SOL    HW110793   6.369   3.180   2.705
 3298SOL    HW210794   6.386   3.119   2.855
 3299SOL     OW10795   1.903   0.255   3.488
 3299SOL    HW110796   1.932   0.349   3.502
 3299SOL    HW210797   1.922   0.228   3.393
 3300SOL     OW10798   6.952   0.567   6.014
 3300SOL    HW110799   6.934   0.477   5.976
 3300SOL    HW210800   0.027   0.583   6.016
 3301SOL     OW10801   1.499   3.833   3.883
 3301SOL    HW110802   1.582   3.783   3.859
 3301SOL    HW210803   1.514   3.931   3.873
 3302SOL     OW10804   1.188   4.996   4.555
 3302SOL    HW110805   1.099   4.952   4.567
 3302SOL    HW210806   1.244   4.980   4.636
 3303SOL     OW10807   3.646   3.073   2.427
 3303SOL    HW110808   3.700   3.053   2.345
 3303SOL    HW210809   3.551   3.048   2.411
 3304SOL     OW10810   1.099   4.997   3.580
 3304SOL    HW110811   1.022   5.030   3.634
 3304SOL    HW210812   1.079   4.905   3.545
 3305SOL     OW10813   2.338   1.276   2.000
 3305SOL    HW110814   2.372   1.273   2.094
 3305SOL    HW210815   2.406   1.318   1.941
 3306SOL     OW10816   2.149   4.016   2.685
 3306SOL    HW110817   2.237   4.062   2.698
 3306SOL    HW210818   2.110   4.041   2.597
 3307SOL     OW10819   0.119   5.910   0.333
 3307SOL    HW110820   0.214   5.877   0.333
 3307SOL    HW210821   0.077   5.886   0.245
 3308SOL     OW10822   4.593   5.458   0.283
 3308SOL    HW110823   4.509   5.493   0.242
 3308SOL    HW210824   4.671   5.510   0.247
 3309SOL     OW10825   0.840   5.150   2.413
 3309SOL    HW110826   0.912   5.216   2.435
 3309SOL    HW210827   0.792   5.179   2.330
 3310SOL     OW10828   0.485   3.355   2.772
 3310SOL    HW110829   0.492   3.421   2.698
 3310SOL    HW210830   0.574   3.312   2.786
 3311SOL     OW10831   2.588   5.638   0.514
 3311SOL    HW110832   2.599   5.693   0.597
 3311SOL    HW210833   2.644   5.678   0.441
 3312SOL     OW10834   3.096   4.105   6.249
 3312SOL    HW110835   3.130   4.199   6.251
 3312SOL    HW210836   3.042   4.091   6.167
 3313SOL     OW10837   1.269   5.383   3.774
 3313SOL    HW110838   1.289   5.340   3.862
 3313SOL    HW210839   1.222   5.318   3.715
 3314SOL     OW10840   1.910   2.806   4.783
 3314SOL    HW110841   1.939   2.759   4.700
 3314SOL    HW210842   1.975   2.787   4.856
 3315SOL     OW10843   6.974   3.000   4.119
 3315SOL    HW110844   7.013   2.923   4.170
 3315SOL    HW210845   6.876   2.986   4.107
 3316SOL     OW10846   4.006   1.665   6.063
 3316SOL    HW110847   4.027   1.754   6.104
 3316SOL    HW210848   4.023   1.669   5.964
 3317SOL     OW10849   4.612   2.554   1.929
 3317SOL    HW110850   4.599   2.651   1.906
 3317SOL    HW210851   4.685   2.516   1.873
 3318SOL     OW10852   2.690   6.700   6.476
 3318SOL    HW110853   2.781   6.692   6.517
 3318SOL    HW210854   2.695   6.761   6.397
 3319SOL     OW10855   0.072   6.622   3.703
 3319SOL    HW110856   7.018   6.560   3.713
 3319SOL    HW210857   0.099   6.656   3.793
 3320SOL     OW10858   5.762   1.081   5.373
 3320SOL    HW110859   5.815   1.130   5.304
 3320SOL    HW210860   5.734   1.145   5.445
 3321SOL     OW10861   3.324   2.951   2.796
 3321SOL    HW110862   3.285   2.904   2.717
 3321SOL    HW210863   3.423   2.958   2.785
 3322SOL     OW10864   4.989   2.189   1.444
 3322SOL    HW110865   4.897   2.184   1.482
 3322SOL    HW210866   5.052   2.223   1.514
 3323SOL     OW10867   2.417   4.158   7.008
 3323SOL    HW110868   2.429   4.093   0.060
 3323SOL    HW210869   2.321   4.189   7.006
 3324SOL     OW10870   1.358   4.083   0.429
 3324SOL    HW110871   1.450   4.118   0.446
 3324SOL    HW210872   1.364   3.989   0.393
 3325SOL     OW10873   2.456   3.045   0.146
 3325SOL    HW110874   2.409   3.060   0.233
 3325SOL    HW210875   2.530   2.979   0.159
 3326SOL     OW10876   5.534   1.953   1.898
 3326SOL    HW110877   5.533   1.885   1.825
 3326SOL    HW210878   5.453   1.942   1.955
 3327SOL     OW10879   2.277   6.431   1.542
 3327SOL    HW110880   2.306   6.449   1.448
 3327SOL    HW210881   2.286   6.515   1.596
 3328SOL     OW10882   4.335   1.597   1.874
 3328SOL    HW110883   4.244   1.637   1.861
 3328SOL    HW210884   4.392   1.619   1.796
 3329SOL     OW10885   3.875   0.600   4.974
 3329SOL    HW110886   3.957   0.618   5.028
 3329SOL    HW210887   3.795   0.603   5.034
 3330SOL     OW10888   6.075   6.612   2.177
 3330SOL    HW110889   6.130   6.530   2.163
 3330SOL    HW210890   5.996   6.590   2.235
 3331SOL     OW10891   1.376   3.436   3.081
 3331SOL    HW110892   1.378   3.446   2.982
 3331SOL    HW210893   1.469   3.430   3.117
 3332SOL     OW10894   5.408   4.557   0.471
 3332SOL    HW110895   5.476   4.485   0.459
 3332SOL    HW210896   5.421   4.627   0.401
 3333SOL     OW10897   3.428   3.754   0.721
 3333SOL    HW110898   3.410   3.656   0.712
 3333SOL    HW210899   3.343   3.802   0.744
 3334SOL     OW10900   1.623   2.603   2.122
 3334SOL    HW110901   1.670   2.544   2.056
 3334SOL    HW210902   1.648   2.576   2.214
 3335SOL     OW10903   3.693   4.628   5.864
 3335SOL    HW110904   3.727   4.655   5.774
 3335SOL    HW210905   3.738   4.683   5.934
 3336SOL     OW10906   2.346   0.015   3.982
 3336SOL    HW110907   2.320   6.989   4.065
 3336SOL    HW210908   2.445   0.025   3.979
 3337SOL     OW10909   4.087   3.221   2.327
 3337SOL    HW110910   4.072   3.199   2.424
 3337SOL    HW210911   4.074   3.319   2.313
 3338SOL     OW10912   1.112   2.159   1.589
 3338SOL    HW110913   1.048   2.171   1.665
 3338SOL    HW210914   1.099   2.233   1.523
 3339SOL     OW10915   1.947   0.161   5.753
 3339SOL    HW110916   1.901   0.116   5.829
 3339SOL    HW210917   2.039   0.124   5.743
 3340SOL     OW10918   4.721   0.700   4.308
 3340SOL    HW110919   4.807   0.729   4.265
 3340SOL    HW210920   4.689   0.616   4.263
 3341SOL     OW10921   2.424   4.434   2.958
 3341SOL    HW110922   2.428   4.351   3.014
 3341SOL    HW210923   2.440   4.411   2.862
 3342SOL     OW10924   6.355   0.692   3.056
 3342SOL    HW110925   6.368   0.654   2.965
 3342SOL    HW210926   6.285   0.638   3.105
 3343SOL     OW10927   5.015   5.695   6.498
 3343SOL    HW110928   5.012   5.614   6.439
 3343SOL    HW210929   5.111   5.717   6.518
 3344SOL     OW10930   6.356   2.909   2.581
 3344SOL    HW110931   6.342   2.976   2.655
 3344SOL    HW210932   6.268   2.888   2.538
 3345SOL     OW10933   0.548   3.465   6.830
 3345SOL    HW110934   0.518   3.561   6.832
 3345SOL    HW210935   0.583   3.439   6.920
 3346SOL     OW10936   2.195   0.846   0.220
 3346SOL    HW110937   2.261   0.872   0.290
 3346SOL    HW210938   2.227   0.878   0.130
 3347SOL     OW10939   1.129   2.914   6.024
 3347SOL    HW110940   1.221   2.942   5.996
 3347SOL    HW210941   1.071   2.904   5.944
 3348SOL     OW10942   3.826   4.205   6.312
 3348SOL    HW110943   3.903   4.141   6.313
 3348SOL    HW210944   3.786   4.210   6.403
 3349SOL     OW10945   2.118   3.992   3.497
 3349SOL    HW110946   2.020   4.014   3.492
 3349SOL    HW210947   2.172   4.075   3.485
 3350SOL     OW10948   0.836   4.155   5.723
 3350SOL    HW110949   0.928   4.160   5.684
 3350SOL    HW210950   0.793   4.069   5.697
 3351SOL     OW10951   5.650   0.823   1.555
 3351SOL    HW110952   5.655   0.820   1.655
 3351SOL    HW210953   5.616   0.912   1.526
 3352SOL     OW10954   5.498   2.980   0.841
 3352SOL    HW110955   5.590   3.018   0.827
 3352SOL    HW210956   5.500   2.881   0.825
 3353SOL     OW10957   1.841   0.097   1.207
 3353SOL    HW110958   1.860   0.175   1.266
 3353SOL    HW210959   1.774   0.123   1.137
 3354SOL     OW10960   4.307   3.361   5.644
 3354SOL    HW110961   4.303   3.406   5.554
 3354SOL    HW210962   4.378   3.290   5.642
 3355SOL     OW10963   1.902   1.420   5.522
 3355SOL    HW110964   1.993   1.380   5.512
 3355SOL    HW210965   1.843   1.388   5.448
 3356SOL     OW10966   0.920   7.009   5.983
 3356SOL    HW110967   0.825   6.990   5.957
 3356SOL    HW210968   0.930   0.083   6.004
 3357SOL     OW10969   2.986   3.897   1.802
 3357SOL    HW110970   2.930   3.819   1.828
 3357SOL    HW210971   3.080   3.867   1.786
 3358SOL     OW10972   5.700   1.164   3.765
 3358SOL    HW110973   5.658   1.143   3.677
 3358SOL    HW210974   5.735   1.080   3.807
 3359SOL     OW10975   0.803   5.259   4.321
 3359SOL    HW110976   0.710   5.276   4.291
 3359SOL    HW210977   0.809   5.272   4.420
 3360SOL     OW10978   0.733   2.143   6.557
 3360SOL    HW110979   0.832   2.157   6.551
 3360SOL    HW210980   0.697   2.190   6.637
 3361SOL     OW10981   0.955   0.343   4.175
 3361SOL    HW110982   1.012   0.280   4.228
 3361SOL    HW210983   0.868   0.297   4.153
 3362SOL     OW10984   3.836   1.770   3.975
 3362SOL    HW110985   3.757   1.798   3.921
 3362SOL    HW210986   3.919   1.803   3.932
 3363SOL     OW10987   6.740   2.815   1.738
 3363SOL    HW110988   6.745   2.791   1.641
 3363SOL    HW210989   6.742   2.731   1.793
 3364SOL     OW10990   0.945   4.073   2.207
 3364SOL    HW110991   1.014   4.004   2.228
 3364SOL    HW210992   0.895   4.097   2.290
 3365SOL     OW10993   1.940   2.998   4.362
 3365SOL    HW110994   1.926   2.899   4.353
 3365SOL    HW210995   1.954   3.020   4.459
 3366SOL     OW10996   6.935   4.277   4.316
 3366SOL    HW110997   0.009   4.289   4.337
 3366SOL    HW210998   6.917   4.308   4.223
 3367SOL     OW10999   3.487   3.588   4.207
 3367SOL    HW111000   3.502   3.681   4.239
 3367SOL    HW211001   3.390   3.564   4.218
 3368SOL     OW11002   1.265   6.388   6.613
 3368SOL    HW111003   1.365   6.377   6.610
 3368SOL    HW211004   1.241   6.478   6.577
 3369SOL     OW11005   4.653   1.894   1.703
 3369SOL    HW111006   4.611   1.822   1.648
 3369SOL    HW211007   4.599   1.908   1.786
 3370SOL     OW11008   6.397   6.619   1.864
 3370SOL    HW111009   6.383   6.525   1.833
 3370SOL    HW211010   6.311   6.658   1.895
 3371SOL     OW11011   2.090   3.516   2.275
 3371SOL    HW111012   2.054   3.607   2.256
 3371SOL    HW211013   2.146   3.485   2.197
 3372SOL     OW11014   6.520   2.657   1.118
 3372SOL    HW111015   6.563   2.709   1.191
 3372SOL    HW211016   6.591   2.618   1.059
 3373SOL     OW11017   0.832   1.464   1.857
 3373SOL    HW111018   0.775   1.545   1.848
 3373SOL    HW211019   0.915   1.486   1.908
 3374SOL     OW11020   0.615   0.240   3.815
 3374SOL    HW111021   0.703   0.247   3.862
 3374SOL    HW211022   0.630   0.238   3.716
 3375SOL     OW11023   6.978   4.803   0.163
 3375SOL    HW111024   6.880   4.809   0.181
 3375SOL    HW211025   7.015   4.719   0.203
 3376SOL     OW11026   2.807   3.414   5.413
 3376SOL    HW111027   2.862   3.416   5.496
 3376SOL    HW211028   2.798   3.320   5.381
 3377SOL     OW11029   6.451   5.426   4.345
 3377SOL    HW111030   6.539   5.386   4.318
 3377SOL    HW211031   6.468   5.509   4.399
 3378SOL     OW11032   1.094   6.759   6.907
 3378SOL    HW111033   1.159   6.813   6.853
 3378SOL    HW211034   1.070   6.675   6.857
 3379SOL     OW11035   0.896   3.040   4.848
 3379SOL    HW111036   0.829   3.044   4.921
 3379SOL    HW211037   0.976   2.987   4.878
 3380SOL     OW11038   3.893   4.965   5.585
 3380SOL    HW111039   3.902   5.063   5.570
 3380SOL    HW211040   3.874   4.920   5.497
 3381SOL     OW11041   0.591   2.730   1.594
 3381SOL    HW111042   0.594   2.632   1.576
 3381SOL    HW211043   0.586   2.747   1.692
 3382SOL     OW11044   6.844   3.113   0.965
 3382SOL    HW111045   6.816   3.044   0.898
 3382SOL    HW211046   6.785   3.193   0.959
 3383SOL     OW11047   3.372   4.991   0.478
 3383SOL    HW111048   3.321   4.964   0.397
 3383SOL    HW211049   3.408   5.084   0.466
 3384SOL     OW11050   2.720   4.723   1.056
 3384SOL    HW111051   2.645   4.722   1.123
 3384SOL    HW211052   2.694   4.782   0.979
 3385SOL     OW11053   6.725   2.899   3.606
 3385SOL    HW111054   6.804   2.945   3.646
 3385SOL    HW211055   6.749   2.804   3.584
 3386SOL     OW11056   6.714   4.747   0.203
 3386SOL    HW111057   6.616   4.760   0.189
 3386SOL    HW211058   6.733   4.730   0.300
 3387SOL     OW11059   5.116   1.039   3.301
 3387SOL    HW111060   5.031   1.043   3.354
 3387SOL    HW211061   5.132   1.128   3.258
 3388SOL     OW11062   5.053   4.367   1.409
 3388SOL    HW111063   5.132   4.395   1.463
 3388SOL    HW211064   5.075   4.375   1.312
 3389SOL     OW11065   5.959   6.094   0.183
 3389SOL    HW111066   5.995   6.127   0.095
 3389SOL    HW211067   5.920   6.171   0.234
 3390SOL     OW11068   3.957   6.323   6.010
 3390SOL    HW111069   3.881   6.353   6.067
 3390SOL    HW211070   3.922   6.268   5.934
 3391SOL     OW11071   5.701   2.304   3.529
 3391SOL    HW111072   5.668   2.245   3.456
 3391SOL    HW211073   5.624   2.343   3.579
 3392SOL     OW11074   3.388   0.173   4.876
 3392SOL    HW111075   3.450   0.117   4.931
 3392SOL    HW211076   3.294   0.162   4.908
 3393SOL     OW11077   5.547   6.884   0.387
 3393SOL    HW111078   5.584   6.816   0.323
 3393SOL    HW211079   5.501   6.837   0.462
 3394SOL     OW11080   3.551   5.113   1.393
 3394SOL    HW111081   3.618   5.048   1.357
 3394SOL    HW211082   3.484   5.135   1.322
 3395SOL     OW11083   3.934   1.022   3.336
 3395SOL    HW111084   3.966   1.005   3.243
 3395SOL    HW211085   3.897   1.115   3.342
 3396SOL     OW11086   5.110   0.548   4.094
 3396SOL    HW111087   5.209   0.540   4.085
 3396SOL    HW211088   5.074   0.467   4.140
 3397SOL     OW11089   2.385   6.201   6.299
 3397SOL    HW111090   2.392   6.241   6.391
 3397SOL    HW211091   2.347   6.109   6.306
 3398SOL     OW11092   0.747   1.393   5.344
 3398SOL    HW111093   0.652   1.380   5.318
 3398SOL    HW211094   0.807   1.345   5.280
 3399SOL     OW11095   6.830   5.108   2.950
 3399SOL    HW111096   6.743   5.152   2.927
 3399SOL    HW211097   6.832   5.015   2.912
 3400SOL     OW11098   5.854   3.517   5.999
 3400SOL    HW111099   5.929   3.555   6.053
 3400SOL    HW211100   5.841   3.571   5.916
 3401SOL     OW11101   6.844   3.836   6.165
 3401SOL    HW111102   6.837   3.887   6.080
 3401SOL    HW211103   6.881   3.745   6.145
 3402SOL     OW11104   6.469   5.334   0.981
 3402SOL    HW111105   6.462   5.327   1.081
 3402SOL    HW211106   6.559   5.370   0.957
 3403SOL     OW11107   4.641   5.978   6.369
 3403SOL    HW111108   4.626   6.001   6.273
 3403SOL    HW211109   4.561   5.931   6.406
 3404SOL     OW11110   5.194   3.054   6.180
 3404SOL    HW111111   5.194   3.105   6.266
 3404SOL    HW211112   5.184   3.118   6.104
 3405SOL     OW11113   5.656   5.549   5.897
 3405SOL    HW111114   5.610   5.463   5.875
 3405SOL    HW211115   5.753   5.542   5.874
 3406SOL     OW11116   1.988   3.357   2.502
 3406SOL    HW111117   2.037   3.366   2.588
 3406SOL    HW211118   2.022   3.425   2.437
 3407SOL     OW11119   2.805   4.270   1.081
 3407SOL    HW111120   2.874   4.249   1.012
 3407SOL    HW211121   2.850   4.283   1.170
 3408SOL     OW11122   4.442   2.408   4.055
 3408SOL    HW111123   4.382   2.426   4.133
 3408SOL    HW211124   4.405   2.333   4.001
 3409SOL     OW11125   4.066   6.650   0.494
 3409SOL    HW111126   4.059   6.702   0.409
 3409SOL    HW211127   4.137   6.691   0.552
 3410SOL     OW11128   5.788   6.832   3.210
 3410SOL    HW111129   5.754   6.811   3.118
 3410SOL    HW211130   5.778   6.752   3.269
 3411SOL     OW11131   0.126   2.706   0.695
 3411SOL    HW111132   0.185   2.774   0.650
 3411SOL    HW211133   0.050   2.683   0.635
 3412SOL     OW11134   5.266   3.661   1.518
 3412SOL    HW111135   5.270   3.645   1.419
 3412SOL    HW211136   5.331   3.601   1.564
 3413SOL     OW11137   6.302   1.534   6.729
 3413SOL    HW111138   6.234   1.561   6.661
 3413SOL    HW211139   6.324   1.437   6.717
 3414SOL     OW11140   3.632   2.623   6.301
 3414SOL    HW111141   3.535   2.621   6.279
 3414SOL    HW211142   3.644   2.608   6.399
 3415SOL     OW11143   1.800   2.326   4.310
 3415SOL    HW111144   1.835   2.264   4.381
 3415SOL    HW211145   1.850   2.310   4.225
 3416SOL     OW11146   6.139   0.015   0.345
 3416SOL    HW111147   6.159   0.111   0.361
 3416SOL    HW211148   6.212   6.982   0.383
 3417SOL     OW11149   0.181   6.955   2.661
 3417SOL    HW111150   0.163   6.903   2.578
 3417SOL    HW211151   0.169   6.896   2.741
 3418SOL     OW11152   3.973   5.964   3.229
 3418SOL    HW111153   3.940   6.028   3.298
 3418SOL    HW211154   3.900   5.901   3.204
 3419SOL     OW11155   3.750   5.426   5.571
 3419SOL    HW111156   3.765   5.494   5.643
 3419SOL    HW211157   3.652   5.413   5.557
 3420SOL     OW11158   4.904   2.929   3.925
 3420SOL    HW111159   4.824   2.868   3.924
 3420SOL    HW211160   4.888   3.003   3.991
 3421SOL     OW11161   5.453   1.658   3.416
 3421SOL    HW111162   5.354   1.667   3.408
 3421SOL    HW211163   5.498   1.732   3.366
 3422SOL     OW11164   2.330   0.126   0.085
 3422SOL    HW111165   2.428   0.119   0.104
 3422SOL    HW211166   2.284   0.046   0.123
 3423SOL     OW11167   0.758   4.423   5.758
 3423SOL    HW111168   0.805   4.335   5.749
 3423SOL    HW211169   0.798   4.488   5.693
 3424SOL     OW11170   4.147   6.867   1.614
 3424SOL    HW111171   4.158   6.962   1.587
 3424SOL    HW211172   4.166   6.807   1.536
 3425SOL     OW11173   4.972   4.899   1.962
 3425SOL    HW111174   4.968   4.800   1.976
 3425SOL    HW211175   4.955   4.920   1.866
 3426SOL     OW11176   4.959   3.622   0.806
 3426SOL    HW111177   4.970   3.671   0.893
 3426SOL    HW211178   5.049   3.598   0.770
 3427SOL     OW11179   1.453   2.444   1.742
 3427SOL    HW111180   1.515   2.481   1.673
 3427SOL    HW211181   1.361   2.479   1.726
 3428SOL     OW11182   5.108   5.084   5.744
 3428SOL    HW111183   5.093   5.102   5.647
 3428SOL    HW211184   5.145   4.992   5.755
 3429SOL     OW11185   0.540   1.104   1.128
 3429SOL    HW111186   0.577   1.015   1.154
 3429SOL    HW211187   0.568   1.125   1.034
 3430SOL     OW11188   2.150   4.321   5.862
 3430SOL    HW111189   2.097   4.268   5.796
 3430SOL    HW211190   2.247   4.306   5.846
 3431SOL     OW11191   2.157   6.635   2.091
 3431SOL    HW111192   2.122   6.636   1.997
 3431SOL    HW211193   2.127   6.552   2.137
 3432SOL     OW11194   2.250   4.635   6.810
 3432SOL    HW111195   2.276   4.710   6.749
 3432SOL    HW211196   2.310   4.633   6.889
 3433SOL     OW11197   2.188   0.540   6.333
 3433SOL    HW111198   2.166   0.627   6.288
 3433SOL    HW211199   2.153   0.543   6.427
 3434SOL     OW11200   2.888   2.123   1.911
 3434SOL    HW111201   2.801   2.102   1.867
 3434SOL    HW211202   2.880   2.208   1.963
 3435SOL     OW11203   2.339   0.633   0.524
 3435SOL    HW111204   2.359   0.725   0.490
 3435SOL    HW211205   2.413   0.603   0.584
 3436SOL     OW11206   4.327   5.319   6.800
 3436SOL    HW111207   4.365   5.405   6.766
 3436SOL    HW211208   4.340   5.314   6.899
 3437SOL     OW11209   1.673   6.551   5.813
 3437SOL    HW111210   1.587   6.599   5.833
 3437SOL    HW211211   1.729   6.607   5.752
 3438SOL     OW11212   0.128   3.564   1.562
 3438SOL    HW111213   0.069   3.591   1.638
 3438SOL    HW211214   0.223   3.568   1.591
 3439SOL     OW11215   2.545   6.186   3.141
 3439SOL    HW111216   2.531   6.225   3.232
 3439SOL    HW211217   2.643   6.172   3.124
 3440SOL     OW11218   3.810   2.935   4.704
 3440SOL    HW111219   3.788   2.843   4.670
 3440SOL    HW211220   3.763   2.950   4.791
 3441SOL     OW11221   7.004   6.050   6.402
 3441SOL    HW111222   0.040   6.074   6.325
 3441SOL    HW211223   6.978   5.954   6.396
 3442SOL     OW11224   3.338   3.778   1.358
 3442SOL    HW111225   3.300   3.868   1.382
 3442SOL    HW211226   3.264   3.714   1.342
 3443SOL     OW11227   3.427   5.927   2.499
 3443SOL    HW111228   3.355   5.953   2.564
 3443SOL    HW211229   3.516   5.954   2.535
 3444SOL     OW11230   5.312   4.621   1.335
 3444SOL    HW111231   5.267   4.596   1.249
 3444SOL    HW211232   5.307   4.545   1.399
 3445SOL     OW11233   6.758   4.782   3.866
 3445SOL    HW111234   6.678   4.725   3.849
 3445SOL    HW211235   6.830   4.726   3.907
 3446SOL     OW11236   5.859   0.501   1.702
 3446SOL    HW111237   5.941   0.556   1.715
 3446SOL    HW211238   5.830   0.505   1.607
 3447SOL     OW11239   5.244   0.388   0.130
 3447SOL    HW111240   5.260   0.472   0.182
 3447SOL    HW211241   5.146   0.377   0.114
 3448SOL     OW11242   1.772   6.566   5.442
 3448SOL    HW111243   1.811   6.617   5.518
 3448SOL    HW211244   1.753   6.627   5.365
 3449SOL     OW11245   5.991   5.304   5.025
 3449SOL    HW111246   5.976   5.399   4.994
 3449SOL    HW211247   5.920   5.245   4.988
 3450SOL     OW11248   1.491   0.577   6.371
 3450SOL    HW111249   1.450   0.616   6.288
 3450SOL    HW211250   1.435   0.500   6.403
 3451SOL     OW11251   1.396   6.030   0.521
 3451SOL    HW111252   1.361   5.951   0.471
 3451SOL    HW211253   1.465   6.000   0.587
 3452SOL     OW11254   5.707   0.638   6.091
 3452SOL    HW111255   5.709   0.652   5.992
 3452SOL    HW211256   5.612   0.640   6.123
 3453SOL     OW11257   5.060   6.549   6.045
 3453SOL    HW111258   5.101   6.570   6.133
 3453SOL    HW211259   5.096   6.461   6.012
 3454SOL     OW11260   1.643   2.761   3.120
 3454SOL    HW111261   1.673   2.776   3.214
 3454SOL    HW211262   1.544   2.772   3.114
 3455SOL     OW11263   1.979   2.413   4.651
 3455SOL    HW111264   1.956   2.447   4.742
 3455SOL    HW211265   2.077   2.425   4.634
 3456SOL     OW11266   4.355   4.553   2.102
 3456SOL    HW111267   4.284   4.485   2.084
 3456SOL    HW211268   4.442   4.522   2.066
 3457SOL     OW11269   3.730   5.253   4.885
 3457SOL    HW111270   3.716   5.253   4.786
 3457SOL    HW211271   3.822   5.218   4.905
 3458SOL     OW11272   4.367   2.217   2.527
 3458SOL    HW111273   4.446   2.209   2.466
 3458SOL    HW211274   4.283   2.199   2.476
 3459SOL     OW11275   4.572   1.538   3.255
 3459SOL    HW111276   4.561   1.452   3.305
 3459SOL    HW211277   4.604   1.609   3.317
 3460SOL     OW11278   3.558   1.761   5.846
 3460SOL    HW111279   3.471   1.726   5.812
 3460SOL    HW211280   3.632   1.699   5.819
 3461SOL     OW11281   5.324   4.886   0.092
 3461SOL    HW111282   5.246   4.941   0.064
 3461SOL    HW211283   5.406   4.918   0.043
 3462SOL     OW11284   1.887   3.479   6.359
 3462SOL    HW111285   1.876   3.562   6.305
 3462SOL    HW211286   1.942   3.499   6.440
 3463SOL     OW11287   0.225   3.921   0.827
 3463SOL    HW111288   0.303   3.860   0.812
 3463SOL    HW211289   0.245   4.011   0.787
 3464SOL     OW11290   0.264   4.861   6.478
 3464SOL    HW111291   0.363   4.852   6.477
 3464SOL    HW211292   0.231   4.880   6.386
 3465SOL     OW11293   2.279   1.683   1.519
 3465SOL    HW111294   2.213   1.614   1.488
 3465SOL    HW211295   2.305   1.741   1.442
 3466SOL     OW11296   6.703   5.169   6.106
 3466SOL    HW111297   6.753   5.114   6.172
 3466SOL    HW211298   6.731   5.144   6.013
 3467SOL     OW11299   2.390   1.851   6.615
 3467SOL    HW111300   2.409   1.808   6.704
 3467SOL    HW211301   2.381   1.779   6.545
 3468SOL     OW11302   2.767   5.606   3.375
 3468SOL    HW111303   2.759   5.672   3.449
 3468SOL    HW211304   2.820   5.646   3.299
 3469SOL     OW11305   6.659   2.651   4.182
 3469SOL    HW111306   6.642   2.568   4.128
 3469SOL    HW211307   6.731   2.633   4.248
 3470SOL     OW11308   0.698   5.114   1.362
 3470SOL    HW111309   0.614   5.080   1.320
 3470SOL    HW211310   0.771   5.047   1.351
 3471SOL     OW11311   4.039   5.460   5.174
 3471SOL    HW111312   4.040   5.503   5.084
 3471SOL    HW211313   4.001   5.524   5.241
 3472SOL     OW11314   2.118   0.978   4.261
 3472SOL    HW111315   2.145   0.909   4.329
 3472SOL    HW211316   2.022   1.003   4.274
 3473SOL     OW11317   5.313   1.694   5.735
 3473SOL    HW111318   5.272   1.603   5.731
 3473SOL    HW211319   5.384   1.696   5.805
 3474SOL     OW11320   2.968   4.933   2.115
 3474SOL    HW111321   3.057   4.904   2.151
 3474SOL    HW211322   2.940   4.870   2.043
 3475SOL     OW11323   0.951   6.785   3.956
 3475SOL    HW111324   0.874   6.782   3.892
 3475SOL    HW211325   0.962   6.697   4.000
 3476SOL     OW11326   4.084   0.658   5.124
 3476SOL    HW111327   4.169   0.605   5.127
 3476SOL    HW211328   4.090   0.735   5.186
 3477SOL     OW11329   3.396   5.182   1.188
 3477SOL    HW111330   3.370   5.271   1.227
 3477SOL    HW211331   3.339   5.162   1.108
 3478SOL     OW11332   2.453   6.241   5.798
 3478SOL    HW111333   2.453   6.341   5.808
 3478SOL    HW211334   2.472   6.199   5.886
 3479SOL     OW11335   0.891   0.373   2.707
 3479SOL    HW111336   0.937   0.438   2.647
 3479SOL    HW211337   0.823   0.322   2.654
 3480SOL     OW11338   6.831   1.354   4.170
 3480SOL    HW111339   6.919   1.307   4.180
 3480SOL    HW211340   6.848   1.451   4.152
 3481SOL     OW11341   3.429   6.790   6.466
 3481SOL    HW111342   3.497   6.856   6.498
 3481SOL    HW211343   3.434   6.707   6.521
 3482SOL     OW11344   5.996   1.540   1.484
 3482SOL    HW111345   6.058   1.521   1.560
 3482SOL    HW211346   6.037   1.607   1.423
 3483SOL     OW11347   2.540   0.180   1.063
 3483SOL    HW111348   2.508   0.138   1.148
 3483SOL    HW211349   2.466   0.234   1.023
 3484SOL     OW11350   3.199   3.218   3.390
 3484SOL    HW111351   3.173   3.279   3.316
 3484SOL    HW211352   3.298   3.219   3.402
 3485SOL     OW11353   2.041   1.545   5.035
 3485SOL    HW111354   2.133   1.505   5.028
 3485SOL    HW211355   2.038   1.631   4.984
 3486SOL     OW11356   3.845   1.361   1.591
 3486SOL    HW111357   3.777   1.377   1.663
 3486SOL    HW211358   3.905   1.285   1.617
 3487SOL     OW11359   5.886   1.688   6.508
 3487SOL    HW111360   5.854   1.691   6.413
 3487SOL    HW211361   5.807   1.697   6.570
 3488SOL     OW11362   0.045   3.262   4.164
 3488SOL    HW111363   0.094   3.296   4.083
 3488SOL    HW211364   7.018   3.180   4.140
 3489SOL     OW11365   3.095   6.686   0.607
 3489SOL    HW111366   3.025   6.729   0.664
 3489SOL    HW211367   3.114   6.594   0.641
 3490SOL     OW11368   4.953   4.129   0.025
 3490SOL    HW111369   4.937   4.032   0.011
 3490SOL    HW211370   4.995   4.144   0.115
 3491SOL     OW11371   6.893   2.932   5.355
 3491SOL    HW111372   6.827   2.857   5.354
 3491SOL    HW211373   6.857   3.007   5.412
 3492SOL     OW11374   0.662   5.796   6.772
 3492SOL    HW111375   0.758   5.789   6.743
 3492SOL    HW211376   0.658   5.794   6.872
 3493SOL     OW11377   6.018   4.852   0.872
 3493SOL    HW111378   6.045   4.895   0.958
 3493SOL    HW211379   5.999   4.923   0.804
 3494SOL     OW11380   3.920   6.974   1.054
 3494SOL    HW111381   3.907   6.875   1.050
 3494SOL    HW211382   3.994   7.000   0.991
 3495SOL     OW11383   4.100   4.945   2.018
 3495SOL    HW111384   4.131   4.933   1.923
 3495SOL    HW211385   4.108   5.042   2.043
 3496SOL     OW11386   1.391   3.198   1.454
 3496SOL    HW111387   1.336   3.149   1.522
 3496SOL    HW211388   1.404   3.292   1.483
 3497SOL     OW11389   4.589   0.670   3.347
 3497SOL    HW111390   4.522   0.599   3.325
 3497SOL    HW211391   4.577   0.699   3.442
 3498SOL     OW11392   2.807   1.492   1.169
 3498SOL    HW111393   2.874   1.459   1.102
 3498SOL    HW211394   2.810   1.592   1.173
 3499SOL     OW11395   6.617   3.866   4.277
 3499SOL    HW111396   6.642   3.949   4.328
 3499SOL    HW211397   6.561   3.891   4.198
 3500SOL     OW11398   6.516   4.061   5.985
 3500SOL    HW111399   6.511   4.160   5.995
 3500SOL    HW211400   6.487   4.017   6.069
 3501SOL     OW11401   1.095   4.589   5.228
 3501SOL    HW111402   1.046   4.512   5.269
 3501SOL    HW211403   1.120   4.654   5.300
 3502SOL     OW11404   0.529   2.146   1.735
 3502SOL    HW111405   0.449   2.189   1.693
 3502SOL    HW211406   0.516   2.140   1.834
 3503SOL     OW11407   4.502   5.811   5.754
 3503SOL    HW111408   4.577   5.745   5.757
 3503SOL    HW211409   4.486   5.839   5.660
 3504SOL     OW11410   2.755   3.685   1.092
 3504SOL    HW111411   2.815   3.747   1.041
 3504SOL    HW211412   2.780   3.686   1.189
 3505SOL     OW11413   4.903   5.832   5.088
 3505SOL    HW111414   4.839   5.878   5.026
 3505SOL    HW211415   4.997   5.846   5.056
 3506SOL     OW11416   4.090   5.535   4.352
 3506SOL    HW111417   4.186   5.525   4.379
 3506SOL    HW211418   4.031   5.522   4.432
 3507SOL     OW11419   1.196   0.949   6.249
 3507SOL    HW111420   1.187   0.880   6.320
 3507SOL    HW211421   1.198   1.040   6.291
 3508SOL     OW11422   5.106   2.483   6.888
 3508SOL    HW111423   5.130   2.493   6.984
 3508SOL    HW211424   5.188   2.494   6.832
 3509SOL     OW11425   5.908   6.351   6.811
 3509SOL    HW111426   5.941   6.401   6.731
 3509SOL    HW211427   5.978   6.353   6.883
 3510SOL     OW11428   1.782   2.049   1.466
 3510SOL    HW111429   1.687   2.070   1.444
 3510SOL    HW211430   1.840   2.127   1.440
 3511SOL     OW11431   1.620   3.073   6.925
 3511SOL    HW111432   1.627   3.146   6.856
 3511SOL    HW211433   1.711   3.034   6.940
 3512SOL     OW11434   1.232   3.580   0.160
 3512SOL    HW111435   1.252   3.663   0.109
 3512SOL    HW211436   1.170   3.602   0.236
 3513SOL     OW11437   6.644   4.085   1.007
 3513SOL    HW111438   6.574   4.113   0.941
 3513SOL    HW211439   6.730   4.068   0.959
 3514SOL     OW11440   0.501   6.607   1.076
 3514SOL    HW111441   0.526   6.688   1.130
 3514SOL    HW211442   0.583   6.561   1.043
 3515SOL     OW11443   3.243   5.992   2.684
 3515SOL    HW111444   3.275   5.945   2.767
 3515SOL    HW211445   3.155   5.955   2.657
 3516SOL     OW11446   3.740   0.729   0.866
 3516SOL    HW111447   3.758   0.825   0.886
 3516SOL    HW211448   3.687   0.689   0.940
 3517SOL     OW11449   0.757   1.624   0.318
 3517SOL    HW111450   0.819   1.547   0.299
 3517SOL    HW211451   0.777   1.661   0.409
 3518SOL     OW11452   4.786   3.807   6.557
 3518SOL    HW111453   4.840   3.802   6.641
 3518SOL    HW211454   4.839   3.767   6.481
 3519SOL     OW11455   1.049   6.510   6.776
 3519SOL    HW111456   1.093   6.443   6.717
 3519SOL    HW211457   1.016   6.465   6.859
 3520SOL     OW11458   3.961   4.553   1.114
 3520SOL    HW111459   3.933   4.543   1.019
 3520SOL    HW211460   4.022   4.477   1.139
 3521SOL     OW11461   5.429   2.839   1.724
 3521SOL    HW111462   5.337   2.854   1.759
 3521SOL    HW211463   5.427   2.765   1.657
 3522SOL     OW11464   2.476   5.065   1.763
 3522SOL    HW111465   2.417   5.087   1.841
 3522SOL    HW211466   2.566   5.038   1.798
 3523SOL     OW11467   2.990   4.690   5.417
 3523SOL    HW111468   2.984   4.641   5.330
 3523SOL    HW211469   2.998   4.788   5.400
 3524SOL     OW11470   2.734   0.316   0.921
 3524SOL    HW111471   2.673   0.274   0.988
 3524SOL    HW211472   2.814   0.353   0.969
 3525SOL     OW11473   0.296   2.787   1.925
 3525SOL    HW111474   0.370   2.854   1.932
 3525SOL    HW211475   0.225   2.823   1.865
 3526SOL     OW11476   0.586   0.895   2.897
 3526SOL    HW111477   0.684   0.874   2.898
 3526SOL    HW211478   0.566   0.964   2.966
 3527SOL     OW11479   5.318   2.917   6.496
 3527SOL    HW111480   5.303   2.975   6.416
 3527SOL    HW211481   5.233   2.910   6.549
 3528SOL     OW11482   0.838   5.892   3.090
 3528SOL    HW111483   0.793   5.891   3.180
 3528SOL    HW211484   0.786   5.835   3.027
 3529SOL     OW11485   4.593   0.018   5.636
 3529SOL    HW111486   4.546   6.988   5.566
 3529SOL    HW211487   4.525   0.055   5.700
 3530SOL     OW11488   2.774   5.668   2.569
 3530SOL    HW111489   2.691   5.719   2.547
 3530SOL    HW211490   2.757   5.608   2.648
 3531SOL     OW11491   5.373   4.240   0.160
 3531SOL    HW111492   5.444   4.172   0.141
 3531SOL    HW211493   5.391   4.323   0.106
 3532SOL     OW11494   2.377   0.612   6.804
 3532SOL    HW111495   2.409   0.666   6.882
 3532SOL    HW211496   2.456   0.572   6.757
 3533SOL     OW11497   0.960   1.581   3.109
 3533SOL    HW111498   0.970   1.662   3.168
 3533SOL    HW211499   1.041   1.523   3.117
 3534SOL     OW11500   5.664   1.368   5.210
 3534SOL    HW111501   5.638   1.462   5.232
 3534SOL    HW211502   5.654   1.353   5.111
 3535SOL     OW11503   6.465   5.214   6.208
 3535SOL    HW111504   6.465   5.199   6.307
 3535SOL    HW211505   6.552   5.186   6.169
 3536SOL     OW11506   1.915   3.337   2.903
 3536SOL    HW111507   1.986   3.294   2.846
 3536SOL    HW211508   1.933   3.317   2.999
 3537SOL     OW11509   2.152   5.629   0.509
 3537SOL    HW111510   2.211   5.645   0.430
 3537SOL    HW211511   2.192   5.558   0.567
 3538SOL     OW11512   3.114   6.665   3.369
 3538SOL    HW111513   3.165   6.582   3.395
 3538SOL    HW211514   3.166   6.715   3.299
 3539SOL     OW11515   5.514   4.530   5.778
 3539SOL    HW111516   5.606   4.499   5.802
 3539SOL    HW211517   5.516   4.629   5.765
 3540SOL     OW11518   2.159   3.012   6.927
 3540SOL    HW111519   2.174   2.967   7.015
 3540SOL    HW211520   2.212   2.965   6.856
 3541SOL     OW11521   2.556   3.426   0.835
 3541SOL    HW111522   2.620   3.454   0.907
 3541SOL    HW211523   2.564   3.490   0.758
 3542SOL     OW11524   5.706   2.801   0.052
 3542SOL    HW111525   5.770   2.843   0.115
 3542SOL    HW211526   5.737   2.815   6.981
 3543SOL     OW11527   1.855   3.448   3.183
 3543SOL    HW111528   1.858   3.487   3.275
 3543SOL    HW211529   1.761   3.423   3.160
 3544SOL     OW11530   3.262   3.986   6.700
 3544SOL    HW111531   3.175   4.000   6.651
 3544SOL    HW211532   3.244   3.978   6.798
 3545SOL     OW11533   3.574   5.647   0.716
 3545SOL    HW111534   3.638   5.668   0.642
 3545SOL    HW211535   3.526   5.730   0.743
 3546SOL     OW11536   6.396   3.634   3.044
 3546SOL    HW111537   6.475   3.620   2.984
 3546SOL    HW211538   6.397   3.566   3.117
 3547SOL     OW11539   0.062   3.493   5.296
 3547SOL    HW111540   0.001   3.547   5.238
 3547SOL    HW211541   0.107   3.424   5.241
 3548SOL     OW11542   4.614   1.977   6.132
 3548SOL    HW111543   4.696   1.933   6.094
 3548SOL    HW211544   4.532   1.932   6.096
 3549SOL     OW11545   2.034   5.973   6.508
 3549SOL    HW111546   2.107   5.905   6.506
 3549SOL    HW211547   1.946   5.928   6.523
 3550SOL     OW11548   4.860   2.100   4.842
 3550SOL    HW111549   4.840   2.176   4.781
 3550SOL    HW211550   4.844   2.013   4.794
 3551SOL     OW11551   3.766   2.228   5.696
 3551SOL    HW111552   3.685   2.189   5.740
 3551SOL    HW211553   3.739   2.307   5.641
 3552SOL     OW11554   6.471   5.560   1.257
 3552SOL    HW111555   6.449   5.595   1.348
 3552SOL    HW211556   6.456   5.461   1.255
 3553SOL     OW11557   3.654   6.282   5.947
 3553SOL    HW111558   3.716   6.309   5.873
 3553SOL    HW211559   3.617   6.363   5.991
 3554SOL     OW11560   4.049   3.845   1.130
 3554SOL    HW111561   4.124   3.898   1.088
 3554SOL    HW211562   4.020   3.773   1.067
 3555SOL     OW11563   1.587   2.138   4.251
 3555SOL    HW111564   1.511   2.186   4.207
 3555SOL    HW211565   1.665   2.200   4.259
 3556SOL     OW11566   3.684   1.123   5.050
 3556SOL    HW111567   3.689   1.076   5.138
 3556SOL    HW211568   3.603   1.182   5.048
 3557SOL     OW11569   0.007   0.582   2.675
 3557SOL    HW111570   6.946   0.594   2.727
 3557SOL    HW211571   0.005   0.639   2.593
 3558SOL     OW11572   2.808   6.165   0.353
 3558SOL    HW111573   2.713   6.146   0.379
 3558SOL    HW211574   2.812   6.191   0.256
 3559SOL     OW11575   3.662   6.520   4.577
 3559SOL    HW111576   3.564   6.506   4.596
 3559SOL    HW211577   3.708   6.431   4.574
 3560SOL     OW11578   2.092   5.232   4.714
 3560SOL    HW111579   2.080   5.153   4.773
 3560SOL    HW211580   2.171   5.285   4.746
 3561SOL     OW11581   5.279   4.434   5.149
 3561SOL    HW111582   5.302   4.386   5.065
 3561SOL    HW211583   5.213   4.380   5.201
 3562SOL     OW11584   2.452   1.613   4.695
 3562SOL    HW111585   2.551   1.618   4.705
 3562SOL    HW211586   2.419   1.525   4.728
 3563SOL     OW11587   6.022   2.226   5.812
 3563SOL    HW111588   6.047   2.184   5.725
 3563SOL    HW211589   6.104   2.244   5.866
 3564SOL     OW11590   0.352   4.565   2.963
 3564SOL    HW111591   0.300   4.480   2.971
 3564SOL    HW211592   0.289   4.641   2.948
 3565SOL     OW11593   3.087   4.920   3.310
 3565SOL    HW111594   3.024   4.843   3.301
 3565SOL    HW211595   3.065   4.989   3.241
 3566SOL     OW11596   6.641   1.405   5.033
 3566SOL    HW111597   6.724   1.372   5.077
 3566SOL    HW211598   6.627   1.355   4.947
 3567SOL     OW11599   0.521   3.780   6.585
 3567SOL    HW111600   0.507   3.844   6.509
 3567SOL    HW211601   0.435   3.768   6.634
 3568SOL     OW11602   6.805   4.109   5.509
 3568SOL    HW111603   6.828   4.015   5.534
 3568SOL    HW211604   6.890   4.162   5.502
 3569SOL     OW11605   2.543   1.706   5.952
 3569SOL    HW111606   2.600   1.624   5.951
 3569SOL    HW211607   2.583   1.774   6.013
 3570SOL     OW11608   5.573   0.271   4.990
 3570SOL    HW111609   5.623   0.198   5.037
 3570SOL    HW211610   5.626   0.355   4.994
 3571SOL     OW11611   6.605   5.797   6.970
 3571SOL    HW111612   6.570   5.709   6.939
 3571SOL    HW211613   6.705   5.792   6.975
 3572SOL     OW11614   5.579   3.899   3.781
 3572SOL    HW111615   5.513   3.831   3.749
 3572SOL    HW211616   5.598   3.963   3.707
 3573SOL     OW11617   0.816   4.099   4.414
 3573SOL    HW111618   0.786   4.123   4.322
 3573SOL    HW211619   0.909   4.134   4.429
 3574SOL     OW11620   0.726   4.795   0.132
 3574SOL    HW111621   0.686   4.865   0.073
 3574SOL    HW211622   0.675   4.710   0.122
 3575SOL     OW11623   6.307   5.077   3.165
 3575SOL    HW111624   6.386   5.032   3.123
 3575SOL    HW211625   6.234   5.086   3.098
 3576SOL     OW11626   1.692   1.499   6.090
 3576SOL    HW111627   1.791   1.481   6.095
 3576SOL    HW211628   1.654   1.448   6.012
 3577SOL     OW11629   1.304   2.487   6.620
 3577SOL    HW111630   1.206   2.510   6.614
 3577SOL    HW211631   1.356   2.570   6.638
 3578SOL     OW11632   4.384   3.565   6.674
 3578SOL    HW111633   4.483   3.568   6.691
 3578SOL    HW211634   4.347   3.658   6.679
 3579SOL     OW11635   6.637   3.872   4.992
 3579SOL    HW111636   6.651   3.957   4.941
 3579SOL    HW211637   6.724   3.843   5.032
 3580SOL     OW11638   5.611   2.335   1.462
 3580SOL    HW111639   5.623   2.245   1.419
 3580SOL    HW211640   5.700   2.380   1.469
 3581SOL     OW11641   6.851   0.360   3.264
 3581SOL    HW111642   6.765   0.373   3.312
 3581SOL    HW211643   6.911   0.300   3.317
 3582SOL     OW11644   0.893   1.974   5.937
 3582SOL    HW111645   0.818   2.027   5.976
 3582SOL    HW211646   0.956   2.036   5.889
 3583SOL     OW11647   0.870   4.226   0.017
 3583SOL    HW111648   0.950   4.197   0.071
 3583SOL    HW211649   0.800   4.155   0.022
 3584SOL     OW11650   6.179   6.513   6.330
 3584SOL    HW111651   6.098   6.571   6.323
 3584SOL    HW211652   6.260   6.564   6.302
 3585SOL     OW11653   3.473   5.148   4.940
 3585SOL    HW111654   3.566   5.178   4.917
 3585SOL    HW211655   3.412   5.227   4.944
 3586SOL     OW11656   6.146   2.906   5.410
 3586SOL    HW111657   6.154   2.933   5.506
 3586SOL    HW211658   6.094   2.821   5.404
 3587SOL     OW11659   2.891   6.262   1.066
 3587SOL    HW111660   2.897   6.243   0.968
 3587SOL    HW211661   2.962   6.210   1.114
 3588SOL     OW11662   1.439   2.414   5.393
 3588SOL    HW111663   1.363   2.361   5.431
 3588SOL    HW211664   1.404   2.501   5.357
 3589SOL     OW11665   3.002   0.791   4.365
 3589SOL    HW111666   2.992   0.697   4.397
 3589SOL    HW211667   3.094   0.824   4.384
 3590SOL     OW11668   0.517   4.515   6.655
 3590SOL    HW111669   0.575   4.476   6.583
 3590SOL    HW211670   0.468   4.594   6.619
 3591SOL     OW11671   5.744   3.029   6.459
 3591SOL    HW111672   5.689   2.979   6.525
 3591SOL    HW211673   5.823   3.069   6.505
 3592SOL     OW11674   5.128   3.057   3.374
 3592SOL    HW111675   5.096   3.080   3.282
 3592SOL    HW211676   5.155   2.961   3.377
 3593SOL     OW11677   2.757   6.527   4.130
 3593SOL    HW111678   2.701   6.593   4.081
 3593SOL    HW211679   2.766   6.443   4.076
 3594SOL     OW11680   3.657   0.892   3.020
 3594SOL    HW111681   3.584   0.826   3.040
 3594SOL    HW211682   3.667   0.901   2.921
 3595SOL     OW11683   2.586   6.223   5.326
 3595SOL    HW111684   2.491   6.210   5.299
 3595SOL    HW211685   2.613   6.149   5.388
 3596SOL     OW11686   6.158   1.224   2.567
 3596SOL    HW111687   6.131   1.290   2.636
 3596SOL    HW211688   6.077   1.179   2.529
 3597SOL     OW11689   3.126   6.043   4.527
 3597SOL    HW111690   3.225   6.043   4.541
 3597SOL    HW211691   3.105   6.088   4.440
 3598SOL     OW11692   0.832   0.729   5.553
 3598SOL    HW111693   0.857   0.692   5.643
 3598SOL    HW211694   0.806   0.655   5.492
 3599SOL     OW11695   1.241   2.277   5.508
 3599SOL    HW111696   1.256   2.182   5.534
 3599SOL    HW211697   1.208   2.328   5.587
 3600SOL     OW11698   0.070   3.253   0.322
 3600SOL    HW111699   7.018   3.301   0.366
 3600SOL    HW211700   0.059   3.155   0.333
 3601SOL     OW11701   6.902   4.231   0.558
 3601SOL    HW111702   6.967   4.290   0.511
 3601SOL    HW211703   6.860   4.168   0.493
 3602SOL     OW11704   2.286   0.938   0.788
 3602SOL    HW111705   2.339   1.001   0.844
 3602SOL    HW211706   2.237   0.989   0.718
 3603SOL     OW11707   3.657   5.718   4.170
 3603SOL    HW111708   3.723   5.656   4.127
 3603SOL    HW211709   3.611   5.772   4.099
 3604SOL     OW11710   6.964   3.651   3.158
 3604SOL    HW111711   6.972   3.602   3.071
 3604SOL    HW211712   0.029   3.688   3.184
 3605SOL     OW11713   6.307   4.502   5.789
 3605SOL    HW111714   6.223   4.450   5.803
 3605SOL    HW211715   6.380   4.462   5.845
 3606SOL     OW11716   0.013   4.800   6.039
 3606SOL    HW111717   0.008   4.729   6.110
 3606SOL    HW211718   6.973   4.778   5.966
 3607SOL     OW11719   5.038   0.147   0.597
 3607SOL    HW111720   5.109   0.128   0.664
 3607SOL    HW211721   5.036   0.074   0.529
 3608SOL     OW11722   6.432   1.930   2.005
 3608SOL    HW111723   6.508   1.909   2.066
 3608SOL    HW211724   6.351   1.879   2.033
 3609SOL     OW11725   6.683   0.928   4.356
 3609SOL    HW111726   6.738   1.010   4.337
 3609SOL    HW211727   6.586   0.952   4.355
 3610SOL     OW11728   0.815   0.751   4.943
 3610SOL    HW111729   0.837   0.847   4.960
 3610SOL    HW211730   0.727   0.745   4.896
 3611SOL     OW11731   3.702   4.992   5.109
 3611SOL    HW111732   3.735   5.086   5.112
 3611SOL    HW211733   3.628   4.981   5.175
 3612SOL     OW11734   0.476   6.638   6.071
 3612SOL    HW111735   0.376   6.645   6.069
 3612SOL    HW211736   0.508   6.592   5.988
 3613SOL     OW11737   5.187   4.938   0.753
 3613SOL    HW111738   5.135   4.957   0.837
 3613SOL    HW211739   5.264   4.879   0.774
 3614SOL     OW11740   3.813   3.413   3.998
 3614SOL    HW111741   3.863   3.387   4.081
 3614SOL    HW211742   3.717   3.389   4.008
 3615SOL     OW11743   5.852   6.375   6.284
 3615SOL    HW111744   5.858   6.445   6.212
 3615SOL    HW211745   5.894   6.290   6.251
 3616SOL     OW11746   6.364   2.030   6.599
 3616SOL    HW111747   6.265   2.043   6.598
 3616SOL    HW211748   6.393   2.001   6.691
 3617SOL     OW11749   5.528   1.758   6.240
 3617SOL    HW111750   5.556   1.677   6.291
 3617SOL    HW211751   5.592   1.833   6.258
 3618SOL     OW11752   1.614   2.000   5.181
 3618SOL    HW111753   1.697   1.997   5.236
 3618SOL    HW211754   1.576   2.093   5.183
 3619SOL     OW11755   6.458   2.061   3.633
 3619SOL    HW111756   6.524   2.081   3.705
 3619SOL    HW211757   6.452   2.138   3.570
 3620SOL     OW11758   6.116   6.099   6.097
 3620SOL    HW111759   6.021   6.097   6.128
 3620SOL    HW211760   6.129   6.176   6.035
 3621SOL     OW11761   2.735   2.318   6.585
 3621SOL    HW111762   2.774   2.409   6.602
 3621SOL    HW211763   2.768   2.284   6.497
 3622SOL     OW11764   2.080   1.811   3.314
 3622SOL    HW111765   2.040   1.813   3.222
 3622SOL    HW211766   2.173   1.846   3.311
 3623SOL     OW11767   5.839   5.377   3.952
 3623SOL    HW111768   5.900   5.416   4.021
 3623SOL    HW211769   5.876   5.396   3.861
 3624SOL     OW11770   2.350   5.923   2.509
 3624SOL    HW111771   2.333   5.824   2.508
 3624SOL    HW211772   2.296   5.967   2.437
 3625SOL     OW11773   6.194   3.272   6.645
 3625SOL    HW111774   6.153   3.185   6.619
 3625SOL    HW211775   6.124   3.331   6.686
 3626SOL     OW11776   1.909   4.011   5.455
 3626SOL    HW111777   1.973   4.015   5.378
 3626SOL    HW211778   1.856   4.095   5.459
 3627SOL     OW11779   4.085   3.529   3.363
 3627SOL    HW111780   4.099   3.466   3.440
 3627SOL    HW211781   4.084   3.623   3.396
 3628SOL     OW11782   2.122   6.618   1.828
 3628SOL    HW111783   2.114   6.519   1.837
 3628SOL    HW211784   2.210   6.641   1.785
 3629SOL     OW11785   6.262   2.403   5.133
 3629SOL    HW111786   6.199   2.467   5.177
 3629SOL    HW211787   6.222   2.370   5.047
 3630SOL     OW11788   5.715   2.832   3.754
 3630SOL    HW111789   5.759   2.915   3.722
 3630SOL    HW211790   5.784   2.763   3.775
 3631SOL     OW11791   1.893   0.272   3.935
 3631SOL    HW111792   1.832   0.207   3.890
 3631SOL    HW211793   1.885   0.361   3.890
 3632SOL     OW11794   5.150   0.385   0.502
 3632SOL    HW111795   5.241   0.346   0.508
 3632SOL    HW211796   5.084   0.324   0.548
 3633SOL     OW11797   2.740   2.439   6.100
 3633SOL    HW111798   2.723   2.340   6.098
 3633SOL    HW211799   2.703   2.481   6.018
 3634SOL     OW11800   0.637   5.886   5.275
 3634SOL    HW111801   0.697   5.814   5.312
 3634SOL    HW211802   0.672   5.916   5.186
 3635SOL     OW11803   3.173   0.305   5.495
 3635SOL    HW111804   3.230   0.327   5.574
 3635SOL    HW211805   3.106   0.234   5.521
 3636SOL     OW11806   1.057   6.257   6.082
 3636SOL    HW111807   1.108   6.171   6.082
 3636SOL    HW211808   0.962   6.239   6.056
 3637SOL     OW11809   6.356   2.122   1.214
 3637SOL    HW111810   6.303   2.107   1.298
 3637SOL    HW211811   6.295   2.124   1.135
 3638SOL     OW11812   6.879   5.023   4.301
 3638SOL    HW111813   6.853   5.010   4.397
 3638SOL    HW211814   6.979   5.028   4.295
 3639SOL     OW11815   4.255   3.934   0.981
 3639SOL    HW111816   4.280   3.860   0.918
 3639SOL    HW211817   4.244   4.019   0.931
 3640SOL     OW11818   3.364   6.717   6.792
 3640SOL    HW111819   3.444   6.769   6.821
 3640SOL    HW211820   3.287   6.780   6.779
 3641SOL     OW11821   4.486   2.475   4.832
 3641SOL    HW111822   4.509   2.492   4.928
 3641SOL    HW211823   4.389   2.451   4.824
 3642SOL     OW11824   5.076   1.571   5.831
 3642SOL    HW111825   5.068   1.625   5.915
 3642SOL    HW211826   5.007   1.601   5.765
 3643SOL     OW11827   2.654   5.872   4.906
 3643SOL    HW111828   2.660   5.888   4.807
 3643SOL    HW211829   2.719   5.801   4.933
 3644SOL     OW11830   0.198   1.638   1.734
 3644SOL    HW111831   0.253   1.690   1.669
 3644SOL    HW211832   0.104   1.632   1.700
 3645SOL     OW11833   5.537   0.797   4.025
 3645SOL    HW111834   5.474   0.779   3.949
 3645SOL    HW211835   5.486   0.837   4.101
 3646SOL     OW11836   6.932   5.051   6.267
 3646SOL    HW111837   6.917   5.088   6.359
 3646SOL    HW211838   0.006   5.034   6.253
 3647SOL     OW11839   2.069   4.049   0.669
 3647SOL    HW111840   2.060   4.038   0.570
 3647SOL    HW211841   2.138   3.984   0.703
 3648SOL     OW11842   3.368   5.893   2.916
 3648SOL    HW111843   3.344   5.796   2.911
 3648SOL    HW211844   3.349   5.927   3.008
 3649SOL     OW11845   4.481   2.986   1.266
 3649SOL    HW111846   4.532   2.933   1.333
 3649SOL    HW211847   4.437   3.064   1.311
 3650SOL     OW11848   6.849   5.445   0.642
 3650SOL    HW111849   6.810   5.526   0.598
 3650SOL    HW211850   6.897   5.390   0.574
 3651SOL     OW11851   0.586   5.516   2.908
 3651SOL    HW111852   0.505   5.553   2.862
 3651SOL    HW211853   0.560   5.479   2.997
 3652SOL     OW11854   5.332   5.981   3.323
 3652SOL    HW111855   5.381   6.047   3.380
 3652SOL    HW211856   5.363   5.990   3.228
 3653SOL     OW11857   6.529   0.897   4.065
 3653SOL    HW111858   6.618   0.920   4.105
 3653SOL    HW211859   6.536   0.897   3.965
 3654SOL     OW11860   2.201   6.935   0.194
 3654SOL    HW111861   2.107   6.904   0.203
 3654SOL    HW211862   2.236   6.962   0.284
 3655SOL     OW11863   1.204   6.876   3.867
 3655SOL    HW111864   1.272   6.814   3.907
 3655SOL    HW211865   1.113   6.846   3.893
 3656SOL     OW11866   1.276   2.912   2.028
 3656SOL    HW111867   1.194   2.947   2.073
 3656SOL    HW211868   1.265   2.814   2.011
 3657SOL     OW11869   4.818   5.773   5.948
 3657SOL    HW111870   4.850   5.859   5.986
 3657SOL    HW211871   4.762   5.725   6.017
 3658SOL     OW11872   1.045   5.695   3.654
 3658SOL    HW111873   1.030   5.721   3.559
 3658SOL    HW211874   1.043   5.777   3.712
 3659SOL     OW11875   3.340   3.443   5.907
 3659SOL    HW111876   3.241   3.455   5.912
 3659SOL    HW211877   3.361   3.350   5.878
 3660SOL     OW11878   4.927   6.458   1.965
 3660SOL    HW111879   4.902   6.370   2.006
 3660SOL    HW211880   5.004   6.445   1.903
 3661SOL     OW11881   4.578   1.922   6.435
 3661SOL    HW111882   4.551   2.018   6.428
 3661SOL    HW211883   4.538   1.871   6.359
 3662SOL     OW11884   3.885   0.837   3.737
 3662SOL    HW111885   3.804   0.860   3.792
 3662SOL    HW211886   3.893   0.737   3.731
 3663SOL     OW11887   1.700   1.104   0.304
 3663SOL    HW111888   1.709   1.198   0.271
 3663SOL    HW211889   1.712   1.102   0.403
 3664SOL     OW11890   4.819   2.577   1.424
 3664SOL    HW111891   4.862   2.664   1.400
 3664SOL    HW211892   4.866   2.502   1.378
 3665SOL     OW11893   0.358   5.637   5.453
 3665SOL    HW111894   0.415   5.558   5.435
 3665SOL    HW211895   0.400   5.694   5.523
 3666SOL     OW11896   1.747   3.928   2.717
 3666SOL    HW111897   1.773   3.990   2.643
 3666SOL    HW211898   1.756   3.834   2.686
 3667SOL     OW11899   6.454   0.500   0.695
 3667SOL    HW111900   6.448   0.418   0.752
 3667SOL    HW211901   6.520   0.564   0.736
 3668SOL     OW11902   1.700   0.519   1.888
 3668SOL    HW111903   1.696   0.502   1.790
 3668SOL    HW211904   1.644   0.452   1.936
 3669SOL     OW11905   6.447   1.047   4.922
 3669SOL    HW111906   6.390   1.095   4.989
 3669SOL    HW211907   6.477   0.960   4.960
 3670SOL     OW11908   2.090   4.446   0.577
 3670SOL    HW111909   2.157   4.520   0.585
 3670SOL    HW211910   2.102   4.381   0.652
 3671SOL     OW11911   6.263   0.435   3.960
 3671SOL    HW111912   6.225   0.514   4.008
 3671SOL    HW211913   6.275   0.360   4.026
 3672SOL     OW11914   5.641   1.633   1.235
 3672SOL    HW111915   5.585   1.555   1.207
 3672SOL    HW211916   5.659   1.627   1.333
 3673SOL     OW11917   3.620   0.685   5.941
 3673SOL    HW111918   3.679   0.695   5.860
 3673SOL    HW211919   3.541   0.746   5.932
 3674SOL     OW11920   0.464   0.523   5.699
 3674SOL    HW111921   0.420   0.602   5.657
 3674SOL    HW211922   0.417   0.439   5.670
 3675SOL     OW11923   2.081   3.230   5.313
 3675SOL    HW111924   2.096   3.279   5.227
 3675SOL    HW211925   2.166   3.187   5.342
 3676SOL     OW11926   4.443   5.023   4.424
 3676SOL    HW111927   4.536   5.000   4.454
 3676SOL    HW211928   4.386   4.941   4.430
 3677SOL     OW11929   1.080   6.294   2.982
 3677SOL    HW111930   1.102   6.207   3.026
 3677SOL    HW211931   1.001   6.282   2.921
 3678SOL     OW11932   0.942   3.125   3.704
 3678SOL    HW111933   0.923   3.028   3.696
 3678SOL    HW211934   1.012   3.140   3.774
 3679SOL     OW11935   1.178   0.774   3.249
 3679SOL    HW111936   1.169   0.735   3.341
 3679SOL    HW211937   1.087   0.800   3.215
 3680SOL     OW11938   5.829   2.859   3.376
 3680SOL    HW111939   5.756   2.792   3.359
 3680SOL    HW211940   5.918   2.815   3.365
 3681SOL     OW11941   0.655   0.381   5.177
 3681SOL    HW111942   0.716   0.426   5.111
 3681SOL    HW211943   0.663   0.282   5.167
 3682SOL     OW11944   6.260   2.387   6.228
 3682SOL    HW111945   6.201   2.328   6.284
 3682SOL    HW211946   6.355   2.359   6.239
 3683SOL     OW11947   0.115   0.231   4.508
 3683SOL    HW111948   0.098   0.142   4.466
 3683SOL    HW211949   0.042   0.252   4.573
 3684SOL     OW11950   1.911   3.558   0.198
 3684SOL    HW111951   1.822   3.581   0.236
 3684SOL    HW211952   1.959   3.495   0.259
 3685SOL     OW11953   6.494   6.364   6.155
 3685SOL    HW111954   6.573   6.304   6.150
 3685SOL    HW211955   6.416   6.314   6.192
 3686SOL     OW11956   6.194   5.277   3.563
 3686SOL    HW111957   6.097   5.287   3.539
 3686SOL    HW211958   6.244   5.237   3.486
 3687SOL     OW11959   3.168   6.005   5.528
 3687SOL    HW111960   3.166   6.104   5.534
 3687SOL    HW211961   3.102   5.966   5.593
 3688SOL     OW11962   1.633   3.789   6.926
 3688SOL    HW111963   1.562   3.795   6.855
 3688SOL    HW211964   1.666   3.695   6.932
 3689SOL     OW11965   1.340   0.648   6.139
 3689SOL    HW111966   1.376   0.568   6.091
 3689SOL    HW211967   1.270   0.692   6.083
 3690SOL     OW11968   3.896   6.811   6.568
 3690SOL    HW111969   3.947   6.755   6.503
 3690SOL    HW211970   3.938   6.901   6.576
 3691SOL     OW11971   2.339   2.609   0.145
 3691SOL    HW111972   2.427   2.581   0.185
 3691SOL    HW211973   2.288   2.528   0.116
 3692SOL     OW11974   1.189   6.339   5.169
 3692SOL    HW111975   1.194   6.261   5.107
 3692SOL    HW211976   1.250   6.323   5.247
 3693SOL     OW11977   2.115   2.718   2.503
 3693SOL    HW111978   2.033   2.740   2.557
 3693SOL    HW211979   2.189   2.781   2.528
 3694SOL     OW11980   0.965   5.838   2.510
 3694SOL    HW111981   1.049   5.785   2.521
 3694SOL    HW211982   0.894   5.781   2.468
 3695SOL     OW11983   6.931   2.698   2.562
 3695SOL    HW111984   7.024   2.684   2.527
 3695SOL    HW211985   6.872   2.623   2.530
 3696SOL     OW11986   3.425   5.490   5.214
 3696SOL    HW111987   3.327   5.495   5.233
 3696SOL    HW211988   3.442   5.513   5.118
 3697SOL     OW11989   0.373   5.824   3.534
 3697SOL    HW111990   0.431   5.760   3.585
 3697SOL    HW211991   0.278   5.791   3.535
 3698SOL     OW11992   3.261   6.266   4.745
 3698SOL    HW111993   3.234   6.261   4.841
 3698SOL    HW211994   3.245   6.177   4.701
 3699SOL     OW11995   6.783   3.604   2.739
 3699SOL    HW111996   6.741   3.637   2.654
 3699SOL    HW211997   6.770   3.505   2.747
 3700SOL     OW11998   6.986   0.717   4.479
 3700SOL    HW111999   6.892   0.698   4.451
 3700SOL    HW212000   0.019   0.731   4.398
 3701SOL     OW12001   0.711   0.895   3.635
 3701SOL    HW112002   0.630   0.886   3.578
 3701SOL    HW212003   0.785   0.839   3.597
 3702SOL     OW12004   4.331   0.290   2.277
 3702SOL    HW112005   4.276   0.329   2.204
 3702SOL    HW212006   4.359   0.197   2.251
 3703SOL     OW12007   4.616   2.767   6.338
 3703SOL    HW112008   4.659   2.677   6.345
 3703SOL    HW212009   4.593   2.786   6.243
 3704SOL     OW12010   3.059   0.302   1.271
 3704SOL    HW112011   3.097   0.211   1.258
 3704SOL    HW212012   2.974   0.296   1.324
 3705SOL     OW12013   4.966   6.134   3.814
 3705SOL    HW112014   4.938   6.140   3.909
 3705SOL    HW212015   5.048   6.190   3.799
 3706SOL     OW12016   0.690   3.549   4.607
 3706SOL    HW112017   0.654   3.466   4.649
 3706SOL    HW212018   0.616   3.614   4.593
 3707SOL     OW12019   5.919   3.966   5.273
 3707SOL    HW112020   5.899   4.009   5.185
 3707SOL    HW212021   6.013   3.988   5.300
 3708SOL     OW12022   6.488   0.689   6.514
 3708SOL    HW112023   6.410   0.634   6.544
 3708SOL    HW212024   6.473   0.719   6.420
 3709SOL     OW12025   3.849   0.768   0.447
 3709SOL    HW112026   3.840   0.845   0.383
 3709SOL    HW212027   3.891   0.800   0.532
 3710SOL     OW12028   6.398   5.824   0.539
 3710SOL    HW112029   6.454   5.906   0.531
 3710SOL    HW212030   6.406   5.769   0.455
 3711SOL     OW12031   6.994   6.276   1.813
 3711SOL    HW112032   0.047   6.225   1.774
 3711SOL    HW212033   6.986   6.255   1.911
 3712SOL     OW12034   6.587   6.105   6.915
 3712SOL    HW112035   6.579   6.186   6.857
 3712SOL    HW212036   6.586   6.131   7.011
 3713SOL     OW12037   1.203   6.417   4.408
 3713SOL    HW112038   1.177   6.321   4.402
 3713SOL    HW212039   1.156   6.460   4.485
 3714SOL     OW12040   4.557   5.703   5.296
 3714SOL    HW112041   4.502   5.653   5.230
 3714SOL    HW212042   4.555   5.801   5.276
 3715SOL     OW12043   6.070   4.127   4.046
 3715SOL    HW112044   6.035   4.218   4.028
 3715SOL    HW212045   5.998   4.059   4.031
 3716SOL     OW12046   6.452   0.107   5.284
 3716SOL    HW112047   6.536   0.096   5.337
 3716SOL    HW212048   6.454   0.194   5.235
 3717SOL     OW12049   5.997   5.256   6.284
 3717SOL    HW112050   6.018   5.199   6.365
 3717SOL    HW212051   6.080   5.267   6.230
 3718SOL     OW12052   2.421   0.212   5.459
 3718SOL    HW112053   2.470   0.283   5.408
 3718SOL    HW212054   2.327   0.205   5.427
 3719SOL     OW12055   5.203   4.474   0.639
 3719SOL    HW112056   5.252   4.519   0.564
 3719SOL    HW212057   5.165   4.544   0.701
 3720SOL     OW12058   5.635   2.411   5.729
 3720SOL    HW112059   5.578   2.364   5.796
 3720SOL    HW212060   5.581   2.481   5.682
 3721SOL     OW12061   5.043   4.399   0.421
 3721SOL    HW112062   4.985   4.323   0.453
 3721SOL    HW212063   5.125   4.405   0.478
 3722SOL     OW12064   6.749   0.172   2.600
 3722SOL    HW112065   6.722   0.248   2.659
 3722SOL    HW212066   6.765   0.090   2.655
 3723SOL     OW12067   6.339   6.342   1.821
 3723SOL    HW112068   6.289   6.255   1.813
 3723SOL    HW212069   6.433   6.323   1.848
 3724SOL     OW12070   2.349   5.085   6.743
 3724SOL    HW112071   2.349   5.089   6.843
 3724SOL    HW212072   2.433   5.126   6.708
 3725SOL     OW12073   5.132   6.207   6.987
 3725SOL    HW112074   5.123   6.204   6.887
 3725SOL    HW212075   5.228   6.194   7.012
 3726SOL     OW12076   6.335   4.794   0.517
 3726SOL    HW112077   6.302   4.706   0.552
 3726SOL    HW212078   6.349   4.857   0.593
 3727SOL     OW12079   6.824   2.891   5.746
 3727SOL    HW112080   6.874   2.974   5.721
 3727SOL    HW212081   6.816   2.886   5.846
 3728SOL     OW12082   1.868   3.987   0.064
 3728SOL    HW112083   1.916   3.903   0.038
 3728SOL    HW212084   1.839   4.036   7.005
 3729SOL     OW12085   1.692   2.378   3.731
 3729SOL    HW112086   1.686   2.478   3.732
 3729SOL    HW212087   1.747   2.349   3.653
 3730SOL     OW12088   2.966   5.633   6.798
 3730SOL    HW112089   3.063   5.655   6.809
 3730SOL    HW212090   2.953   5.534   6.809
 3731SOL     OW12091   4.644   6.988   0.583
 3731SOL    HW112092   4.703   6.953   0.510
 3731SOL    HW212093   4.673   6.949   0.671
 3732SOL     OW12094   1.648   2.770   0.025
 3732SOL    HW112095   1.602   2.816   0.101
 3732SOL    HW212096   1.629   2.672   0.030
 3733SOL     OW12097   1.438   3.696   1.335
 3733SOL    HW112098   1.390   3.705   1.422
 3733SOL    HW212099   1.474   3.785   1.307
 3734SOL     OW12100   4.087   1.697   1.830
 3734SOL    HW112101   4.091   1.795   1.847
 3734SOL    HW212102   3.991   1.669   1.819
 3735SOL     OW12103   1.599   1.602   3.534
 3735SOL    HW112104   1.560   1.511   3.523
 3735SOL    HW212105   1.525   1.669   3.543
 3736SOL     OW12106   0.078   3.182   0.896
 3736SOL    HW112107   7.008   3.157   0.922
 3736SOL    HW212108   0.127   3.100   0.867
 3737SOL     OW12109   5.450   0.149   3.254
 3737SOL    HW112110   5.389   0.104   3.318
 3737SOL    HW212111   5.541   0.159   3.296
 3738SOL     OW12112   6.552   6.316   3.093
 3738SOL    HW112113   6.524   6.266   3.175
 3738SOL    HW212114   6.575   6.410   3.118
 3739SOL     OW12115   2.179   4.733   1.983
 3739SOL    HW112116   2.129   4.770   2.062
 3739SOL    HW212117   2.174   4.633   1.985
 3740SOL     OW12118   4.702   0.336   0.365
 3740SOL    HW112119   4.700   0.245   0.323
 3740SOL    HW212120   4.625   0.346   0.427
 3741SOL     OW12121   4.554   3.064   1.593
 3741SOL    HW112122   4.457   3.043   1.582
 3741SOL    HW212123   4.575   3.070   1.690
 3742SOL     OW12124   2.281   1.848   5.771
 3742SOL    HW112125   2.379   1.855   5.753
 3742SOL    HW212126   2.266   1.845   5.870
 3743SOL     OW12127   5.426   4.567   1.050
 3743SOL    HW112128   5.405   4.478   1.091
 3743SOL    HW212129   5.492   4.554   0.976
 3744SOL     OW12130   0.726   5.758   2.875
 3744SOL    HW112131   0.700   5.787   2.783
 3744SOL    HW212132   0.683   5.669   2.894
 3745SOL     OW12133   3.315   5.587   1.956
 3745SOL    HW112134   3.291   5.645   2.033
 3745SOL    HW212135   3.408   5.551   1.968
 3746SOL     OW12136   4.334   1.509   2.468
 3746SOL    HW112137   4.347   1.608   2.466
 3746SOL    HW212138   4.258   1.484   2.408
 3747SOL     OW12139   3.418   0.481   5.981
 3747SOL    HW112140   3.390   0.433   5.898
 3747SOL    HW212141   3.497   0.539   5.961
 3748SOL     OW12142   5.095   0.816   1.667
 3748SOL    HW112143   5.187   0.782   1.648
 3748SOL    HW212144   5.030   0.740   1.661
 3749SOL     OW12145   1.385   6.720   3.964
 3749SOL    HW112146   1.465   6.705   4.023
 3749SOL    HW212147   1.415   6.721   3.869
 3750SOL     OW12148   2.137   4.274   0.361
 3750SOL    HW112149   2.122   4.333   0.441
 3750SOL    HW212150   2.193   4.322   0.294
 3751SOL     OW12151   6.421   3.736   2.119
 3751SOL    HW112152   6.439   3.731   2.021
 3751SOL    HW212153   6.325   3.758   2.134
 3752SOL     OW12154   5.236   0.508   5.248
 3752SOL    HW112155   5.267   0.586   5.193
 3752SOL    HW212156   5.138   0.493   5.232
 3753SOL     OW12157   6.286   0.141   4.912
 3753SOL    HW112158   6.288   0.214   4.844
 3753SOL    HW212159   6.351   0.069   4.885
 3754SOL     OW12160   2.349   0.662   1.759
 3754SOL    HW112161   2.288   0.725   1.808
 3754SOL    HW212162   2.379   0.704   1.674
 3755SOL     OW12163   3.504   5.660   4.949
 3755SOL    HW112164   3.466   5.751   4.967
 3755SOL    HW212165   3.516   5.648   4.851
 3756SOL     OW12166   3.226   5.301   6.532
 3756SOL    HW112167   3.183   5.297   6.622
 3756SOL    HW212168   3.311   5.352   6.538
 3757SOL     OW12169   6.412   5.202   1.756
 3757SOL    HW112170   6.450   5.176   1.845
 3757SOL    HW212171   6.357   5.127   1.720
 3758SOL     OW12172   1.609   1.123   5.069
 3758SOL    HW112173   1.687   1.079   5.024
 3758SOL    HW212174   1.612   1.221   5.054
 3759SOL     OW12175   4.347   0.838   5.245
 3759SOL    HW112176   4.426   0.776   5.244
 3759SOL    HW212177   4.379   0.932   5.259
 3760SOL     OW12178   0.052   0.218   3.370
 3760SOL    HW112179   0.090   0.283   3.437
 3760SOL    HW212180   0.107   0.220   3.287
 3761SOL     OW12181   6.780   1.126   4.653
 3761SOL    HW112182   6.741   1.179   4.728
 3761SOL    HW212183   6.766   1.175   4.567
 3762SOL     OW12184   1.355   4.212   2.097
 3762SOL    HW112185   1.333   4.296   2.047
 3762SOL    HW212186   1.274   4.179   2.145
 3763SOL     OW12187   6.269   3.836   0.500
 3763SOL    HW112188   6.271   3.903   0.426
 3763SOL    HW212189   6.347   3.851   0.561
 3764SOL     OW12190   2.044   0.525   2.743
 3764SOL    HW112191   2.026   0.562   2.652
 3764SOL    HW212192   2.079   0.432   2.736
 3765SOL     OW12193   5.956   1.900   1.392
 3765SOL    HW112194   5.881   1.881   1.455
 3765SOL    HW212195   5.999   1.813   1.366
 3766SOL     OW12196   1.933   2.194   4.498
 3766SOL    HW112197   2.019   2.149   4.475
 3766SOL    HW212198   1.952   2.279   4.546
 3767SOL     OW12199   3.522   4.398   6.465
 3767SOL    HW112200   3.608   4.435   6.431
 3767SOL    HW212201   3.538   4.352   6.552
 3768SOL     OW12202   1.066   0.764   4.600
 3768SOL    HW112203   0.992   0.832   4.605
 3768SOL    HW212204   1.144   0.796   4.654
 3769SOL     OW12205   5.731   5.754   5.371
 3769SOL    HW112206   5.664   5.824   5.395
 3769SOL    HW212207   5.711   5.718   5.280
 3770SOL     OW12208   1.313   1.072   6.548
 3770SOL    HW112209   1.271   1.128   6.620
 3770SOL    HW212210   1.304   1.119   6.460
 3771SOL     OW12211   5.918   4.338   6.713
 3771SOL    HW112212   5.840   4.395   6.741
 3771SOL    HW212213   5.998   4.364   6.767
 3772SOL     OW12214   1.271   0.095   0.468
 3772SOL    HW112215   1.259   0.009   0.419
 3772SOL    HW212216   1.366   0.102   0.501
 3773SOL     OW12217   5.922   3.453   5.485
 3773SOL    HW112218   5.922   3.391   5.407
 3773SOL    HW212219   5.933   3.400   5.569
 3774SOL     OW12220   5.779   4.959   1.688
 3774SOL    HW112221   5.852   4.960   1.757
 3774SOL    HW212222   5.695   4.925   1.729
 3775SOL     OW12223   3.904   5.000   3.519
 3775SOL    HW112224   3.806   4.982   3.512
 3775SOL    HW212225   3.923   5.050   3.603
 3776SOL     OW12226   3.710   2.889   6.309
 3776SOL    HW112227   3.685   2.792   6.306
 3776SOL    HW212228   3.736   2.919   6.217
 3777SOL     OW12229   2.602   5.884   3.644
 3777SOL    HW112230   2.547   5.809   3.607
 3777SOL    HW212231   2.649   5.853   3.726
 3778SOL     OW12232   1.675   6.245   3.558
 3778SOL    HW112233   1.710   6.209   3.645
 3778SOL    HW212234   1.731   6.323   3.529
 3779SOL     OW12235   0.331   4.942   0.757
 3779SOL    HW112236   0.247   4.894   0.783
 3779SOL    HW212237   0.406   4.913   0.817
 3780SOL     OW12238   0.401   2.846   3.719
 3780SOL    HW112239   0.489   2.799   3.732
 3780SOL    HW212240   0.414   2.944   3.734
 3781SOL     OW12241   0.396   6.717   4.608
 3781SOL    HW112242   0.376   6.625   4.641
 3781SOL    HW212243   0.445   6.712   4.521
 3782SOL     OW12244   3.646   6.354   2.341
 3782SOL    HW112245   3.659   6.449   2.372
 3782SOL    HW212246   3.650   6.293   2.419
 3783SOL     OW12247   6.253   5.133   4.755
 3783SOL    HW112248   6.258   5.152   4.853
 3783SOL    HW212249   6.236   5.218   4.705
 3784SOL     OW12250   5.450   2.550   2.450
 3784SOL    HW112251   5.382   2.502   2.506
 3784SOL    HW212252   5.515   2.596   2.509
 3785SOL     OW12253   0.748   3.353   5.330
 3785SOL    HW112254   0.842   3.326   5.310
 3785SOL    HW212255   0.747   3.410   5.412
 3786SOL     OW12256   2.083   3.164   2.763
 3786SOL    HW112257   2.165   3.207   2.726
 3786SOL    HW212258   2.107   3.112   2.845
 3787SOL     OW12259   5.362   0.184   2.943
 3787SOL    HW112260   5.369   0.238   2.859
 3787SOL    HW212261   5.267   0.161   2.960
 3788SOL     OW12262   6.046   4.715   5.156
 3788SOL    HW112263   6.111   4.768   5.104
 3788SOL    HW212264   6.091   4.676   5.236
 3789SOL     OW12265   0.127   3.629   2.459
 3789SOL    HW112266   0.154   3.618   2.555
 3789SOL    HW212267   0.048   3.690   2.454
 3790SOL     OW12268   1.500   5.609   6.614
 3790SOL    HW112269   1.504   5.559   6.528
 3790SOL    HW212270   1.518   5.706   6.598
 3791SOL     OW12271   5.282   2.039   6.879
 3791SOL    HW112272   5.285   2.104   6.803
 3791SOL    HW212273   5.189   2.005   6.890
 3792SOL     OW12274   1.419   1.562   4.316
 3792SOL    HW112275   1.417   1.551   4.217
 3792SOL    HW212276   1.332   1.601   4.347
 3793SOL     OW12277   5.847   6.681   1.525
 3793SOL    HW112278   5.779   6.752   1.509
 3793SOL    HW212279   5.937   6.712   1.494
 3794SOL     OW12280   1.975   3.158   1.718
 3794SOL    HW112281   2.031   3.139   1.799
 3794SOL    HW212282   1.959   3.256   1.711
 3795SOL     OW12283   3.067   5.349   1.161
 3795SOL    HW112284   3.040   5.262   1.203
 3795SOL    HW212285   3.004   5.421   1.191
 3796SOL     OW12286   4.091   2.275   0.955
 3796SOL    HW112287   4.126   2.223   1.033
 3796SOL    HW212288   4.118   2.230   0.870
 3797SOL     OW12289   0.816   4.054   3.368
 3797SOL    HW112290   0.793   4.142   3.408
 3797SOL    HW212291   0.796   3.981   3.434
 3798SOL     OW12292   3.361   6.264   2.557
 3798SOL    HW112293   3.292   6.242   2.489
 3798SOL    HW212294   3.337   6.221   2.644
 3799SOL     OW12295   6.863   2.761   3.866
 3799SOL    HW112296   6.961   2.761   3.846
 3799SOL    HW212297   6.841   2.836   3.928
 3800SOL     OW12298   5.143   2.244   3.639
 3800SOL    HW112299   5.131   2.337   3.672
 3800SOL    HW212300   5.192   2.189   3.707
 3801SOL     OW12301   5.413   0.078   1.685
 3801SOL    HW112302   5.400   0.059   1.588
 3801SOL    HW212303   5.445   7.019   1.731
 3802SOL     OW12304   6.885   1.749   2.515
 3802SOL    HW112305   6.950   1.804   2.463
 3802SOL    HW212306   6.823   1.809   2.565
 3803SOL     OW12307   4.058   3.720   3.719
 3803SOL    HW112308   4.027   3.672   3.801
 3803SOL    HW212309   4.144   3.767   3.738
 3804SOL     OW12310   3.294   1.836   4.084
 3804SOL    HW112311   3.355   1.762   4.112
 3804SOL    HW212312   3.325   1.922   4.123
 3805SOL     OW12313   1.952   2.660   1.634
 3805SOL    HW112314   1.995   2.750   1.642
 3805SOL    HW212315   2.003   2.593   1.689
 3806SOL     OW12316   3.885   3.549   6.237
 3806SOL    HW112317   3.949   3.483   6.198
 3806SOL    HW212318   3.903   3.640   6.200
 3807SOL     OW12319   1.824   4.236   3.957
 3807SOL    HW112320   1.894   4.283   4.010
 3807SOL    HW212321   1.867   4.184   3.884
 3808SOL     OW12322   4.682   0.677   6.146
 3808SOL    HW112323   4.741   0.727   6.209
 3808SOL    HW212324   4.661   0.735   6.067
 3809SOL     OW12325   5.676   2.086   2.329
 3809SOL    HW112326   5.702   2.078   2.426
 3809SOL    HW212327   5.644   2.179   2.311
 3810SOL     OW12328   0.027   2.552   3.525
 3810SOL    HW112329   0.115   2.599   3.519
 3810SOL    HW212330   0.038   2.456   3.499
 3811SOL     OW12331   0.138   5.971   4.267
 3811SOL    HW112332   0.124   6.044   4.199
 3811SOL    HW212333   0.103   5.885   4.230
 3812SOL     OW12334   3.373   5.055   6.138
 3812SOL    HW112335   3.337   5.106   6.060
 3812SOL    HW212336   3.323   4.969   6.147
 3813SOL     OW12337   5.761   4.122   1.107
 3813SOL    HW112338   5.802   4.199   1.057
 3813SOL    HW212339   5.709   4.065   1.043
 3814SOL     OW12340   0.372   0.245   3.694
 3814SOL    HW112341   0.447   0.272   3.754
 3814SOL    HW212342   0.374   0.301   3.611
 3815SOL     OW12343   4.340   2.474   0.897
 3815SOL    HW112344   4.399   2.405   0.939
 3815SOL    HW212345   4.245   2.458   0.927
 3816SOL     OW12346   0.964   5.854   5.502
 3816SOL    HW112347   1.041   5.793   5.482
 3816SOL    HW212348   0.880   5.816   5.464
 3817SOL     OW12349   5.153   3.233   1.759
 3817SOL    HW112350   5.065   3.187   1.760
 3817SOL    HW212351   5.154   3.306   1.828
 3818SOL     OW12352   7.009   0.464   0.768
 3818SOL    HW112353   0.014   0.414   0.686
 3818SOL    HW212354   6.915   0.440   0.790
 3819SOL     OW12355   6.420   4.426   2.442
 3819SOL    HW112356   6.419   4.462   2.349
 3819SOL    HW212357   6.343   4.465   2.493
 3820SOL     OW12358   6.143   6.504   3.529
 3820SOL    HW112359   6.167   6.408   3.511
 3820SOL    HW212360   6.070   6.507   3.597
 3821SOL     OW12361   0.929   1.213   0.961
 3821SOL    HW112362   0.882   1.225   0.873
 3821SOL    HW212363   0.864   1.229   1.035
 3822SOL     OW12364   2.445   6.978   6.164
 3822SOL    HW112365   2.472   0.050   6.152
 3822SOL    HW212366   2.395   6.968   6.250
 3823SOL     OW12367   4.149   4.229   6.391
 3823SOL    HW112368   4.149   4.143   6.442
 3823SOL    HW212369   4.203   4.297   6.441
 3824SOL     OW12370   0.169   2.446   1.108
 3824SOL    HW112371   0.138   2.500   1.187
 3824SOL    HW212372   0.246   2.388   1.136
 3825SOL     OW12373   0.667   3.992   0.779
 3825SOL    HW112374   0.609   3.975   0.859
 3825SOL    HW212375   0.624   3.954   0.697
 3826SOL     OW12376   6.942   3.176   1.649
 3826SOL    HW112377   6.917   3.081   1.663
 3826SOL    HW212378   0.016   3.182   1.628
 3827SOL     OW12379   0.558   0.251   1.470
 3827SOL    HW112380   0.633   0.317   1.478
 3827SOL    HW212381   0.590   0.161   1.498
 3828SOL     OW12382   3.836   3.714   4.557
 3828SOL    HW112383   3.876   3.726   4.467
 3828SOL    HW212384   3.887   3.645   4.608
 3829SOL     OW12385   0.497   5.002   2.149
 3829SOL    HW112386   0.559   4.924   2.147
 3829SOL    HW212387   0.530   5.072   2.086
 3830SOL     OW12388   0.519   1.250   5.892
 3830SOL    HW112389   0.611   1.213   5.907
 3830SOL    HW212390   0.463   1.233   5.973
 3831SOL     OW12391   4.461   2.452   2.632
 3831SOL    HW112392   4.401   2.480   2.708
 3831SOL    HW212393   4.443   2.356   2.609
 3832SOL     OW12394   6.624   0.617   2.660
 3832SOL    HW112395   6.697   0.620   2.727
 3832SOL    HW212396   6.628   0.699   2.603
 3833SOL     OW12397   0.985   6.587   6.515
 3833SOL    HW112398   0.993   6.587   6.615
 3833SOL    HW212399   0.893   6.557   6.489
 3834SOL     OW12400   3.712   4.358   1.264
 3834SOL    HW112401   3.624   4.403   1.284
 3834SOL    HW212402   3.782   4.428   1.247
 3835SOL     OW12403   3.886   6.122   5.360
 3835SOL    HW112404   3.931   6.033   5.368
 3835SOL    HW212405   3.946   6.185   5.310
 3836SOL     OW12406   0.029   5.068   5.915
 3836SOL    HW112407   0.039   4.970   5.929
 3836SOL    HW212408   0.047   5.116   6.001
 3837SOL     OW12409   4.732   5.250   5.351
 3837SOL    HW112410   4.757   5.343   5.379
 3837SOL    HW212411   4.808   5.188   5.371
 3838SOL     OW12412   1.331   2.227   3.554
 3838SOL    HW112413   1.406   2.177   3.511
 3838SOL    HW212414   1.349   2.325   3.549
 3839SOL     OW12415   4.794   1.443   2.784
 3839SOL    HW112416   4.714   1.440   2.725
 3839SOL    HW212417   4.860   1.373   2.755
 3840SOL     OW12418   3.383   2.015   6.844
 3840SOL    HW112419   3.330   1.939   6.807
 3840SOL    HW212420   3.400   2.082   6.771
 3841SOL     OW12421   1.313   4.195   4.270
 3841SOL    HW112422   1.215   4.212   4.284
 3841SOL    HW212423   1.335   4.206   4.173
 3842SOL     OW12424   2.619   2.505   3.721
 3842SOL    HW112425   2.542   2.553   3.680
 3842SOL    HW212426   2.622   2.524   3.819
 3843SOL     OW12427   5.303   3.044   2.013
 3843SOL    HW112428   5.388   3.031   2.065
 3843SOL    HW212429   5.254   2.958   2.006
 3844SOL     OW12430   1.484   3.488   6.495
 3844SOL    HW112431   1.464   3.498   6.398
 3844SOL    HW212432   1.582   3.497   6.510
 3845SOL     OW12433   2.489   5.329   6.150
 3845SOL    HW112434   2.579   5.293   6.125
 3845SOL    HW212435   2.454   5.278   6.229
 3846SOL     OW12436   1.004   3.901   3.724
 3846SOL    HW112437   1.018   3.966   3.798
 3846SOL    HW212438   1.060   3.820   3.740
 3847SOL     OW12439   5.142   3.057   4.379
 3847SOL    HW112440   5.212   3.096   4.319
 3847SOL    HW212441   5.090   3.131   4.422
 3848SOL     OW12442   5.032   3.719   2.567
 3848SOL    HW112443   5.065   3.769   2.647
 3848SOL    HW212444   5.109   3.698   2.507
 3849SOL     OW12445   1.435   1.078   5.854
 3849SOL    HW112446   1.338   1.098   5.846
 3849SOL    HW212447   1.457   1.057   5.949
 3850SOL     OW12448   2.850   3.070   1.830
 3850SOL    HW112449   2.756   3.050   1.802
 3850SOL    HW212450   2.907   2.990   1.811
 3851SOL     OW12451   6.922   4.814   3.411
 3851SOL    HW112452   6.834   4.854   3.438
 3851SOL    HW212453   6.979   4.884   3.369
 3852SOL     OW12454   3.430   5.937   3.691
 3852SOL    HW112455   3.496   5.998   3.647
 3852SOL    HW212456   3.433   5.952   3.790
 3853SOL     OW12457   1.025   3.156   3.133
 3853SOL    HW112458   1.051   3.246   3.170
 3853SOL    HW212459   1.028   3.088   3.206
 3854SOL     OW12460   1.134   2.371   2.662
 3854SOL    HW112461   1.179   2.369   2.573
 3854SOL    HW212462   1.108   2.278   2.688
 3855SOL     OW12463   4.307   5.840   6.778
 3855SOL    HW112464   4.405   5.825   6.773
 3855SOL    HW212465   4.283   5.877   6.867
 3856SOL     OW12466   0.471   0.509   6.031
 3856SOL    HW112467   0.435   0.482   6.120
 3856SOL    HW212468   0.478   0.428   5.972
 3857SOL     OW12469   0.695   6.246   6.760
 3857SOL    HW112470   0.767   6.276   6.822
 3857SOL    HW212471   0.643   6.326   6.728
 3858SOL     OW12472   3.302   1.492   6.139
 3858SOL    HW112473   3.205   1.518   6.134
 3858SOL    HW212474   3.313   1.420   6.207
 3859SOL     OW12475   6.381   1.001   1.870
 3859SOL    HW112476   6.359   1.072   1.937
 3859SOL    HW212477   6.404   1.045   1.783
 3860SOL     OW12478   1.982   1.293   4.811
 3860SOL    HW112479   2.008   1.339   4.896
 3860SOL    HW212480   2.025   1.202   4.809
 3861SOL     OW12481   4.457   5.297   4.005
 3861SOL    HW112482   4.490   5.209   3.971
 3861SOL    HW212483   4.444   5.292   4.104
 3862SOL     OW12484   0.459   1.198   4.628
 3862SOL    HW112485   0.364   1.178   4.652
 3862SOL    HW212486   0.503   1.115   4.594
 3863SOL     OW12487   6.140   2.034   7.020
 3863SOL    HW112488   6.101   2.017   0.087
 3863SOL    HW212489   6.082   1.990   6.951
 3864SOL     OW12490   2.025   0.605   5.752
 3864SOL    HW112491   2.094   0.547   5.708
 3864SOL    HW212492   1.973   0.550   5.818
 3865SOL     OW12493   4.356   1.003   1.151
 3865SOL    HW112494   4.310   1.066   1.212
 3865SOL    HW212495   4.355   0.911   1.190
 3866SOL     OW12496   4.199   0.522   0.649
 3866SOL    HW112497   4.248   0.567   0.724
 3866SOL    HW212498   4.189   0.585   0.573
 3867SOL     OW12499   0.820   4.899   3.283
 3867SOL    HW112500   0.836   4.828   3.352
 3867SOL    HW212501   0.838   4.989   3.322
 3868SOL     OW12502   3.412   0.496   0.440
 3868SOL    HW112503   3.482   0.429   0.413
 3868SOL    HW212504   3.388   0.483   0.536
 3869SOL     OW12505   6.084   2.787   4.640
 3869SOL    HW112506   6.057   2.862   4.700
 3869SOL    HW212507   6.020   2.711   4.651
 3870SOL     OW12508   6.973   6.643   0.685
 3870SOL    HW112509   6.925   6.727   0.661
 3870SOL    HW212510   0.005   6.614   0.607
 3871SOL     OW12511   3.692   0.930   3.298
 3871SOL    HW112512   3.691   0.899   3.203
 3871SOL    HW212513   3.781   0.971   3.318
 3872SOL     OW12514   2.965   3.363   4.367
 3872SOL    HW112515   2.978   3.271   4.328
 3872SOL    HW212516   3.008   3.367   4.457
 3873SOL     OW12517   6.081   4.110   1.210
 3873SOL    HW112518   6.137   4.049   1.266
 3873SOL    HW212519   5.987   4.077   1.208
 3874SOL     OW12520   4.339   5.940   0.427
 3874SOL    HW112521   4.310   5.998   0.351
 3874SOL    HW212522   4.325   5.987   0.514
 3875SOL     OW12523   2.140   3.117   2.465
 3875SOL    HW112524   2.157   3.207   2.426
 3875SOL    HW212525   2.043   3.109   2.490
 3876SOL     OW12526   3.659   5.237   1.026
 3876SOL    HW112527   3.605   5.211   1.106
 3876SOL    HW212528   3.636   5.330   0.999
 3877SOL     OW12529   5.824   2.514   1.505
 3877SOL    HW112530   5.911   2.520   1.456
 3877SOL    HW212531   5.782   2.605   1.510
 3878SOL     OW12532   4.118   6.625   4.944
 3878SOL    HW112533   4.200   6.659   4.899
 3878SOL    HW212534   4.097   6.533   4.912
 3879SOL     OW12535   5.927   5.292   0.743
 3879SOL    HW112536   5.923   5.215   0.679
 3879SOL    HW212537   5.921   5.378   0.693
 3880SOL     OW12538   5.168   4.378   4.263
 3880SOL    HW112539   5.211   4.467   4.275
 3880SOL    HW212540   5.185   4.345   4.170
 3881SOL     OW12541   1.082   3.395   1.704
 3881SOL    HW112542   1.076   3.295   1.701
 3881SOL    HW212543   1.020   3.435   1.637
 3882SOL     OW12544   1.292   2.012   5.617
 3882SOL    HW112545   1.384   1.980   5.640
 3882SOL    HW212546   1.231   1.933   5.607
 3883SOL     OW12547   4.304   1.049   2.560
 3883SOL    HW112548   4.211   1.036   2.595
 3883SOL    HW212549   4.356   1.105   2.623
 3884SOL     OW12550   1.157   6.019   2.158
 3884SOL    HW112551   1.081   6.032   2.221
 3884SOL    HW212552   1.176   6.104   2.110
 3885SOL     OW12553   5.805   5.805   2.356
 3885SOL    HW112554   5.866   5.826   2.433
 3885SOL    HW212555   5.822   5.712   2.325
 3886SOL     OW12556   5.494   5.108   5.175
 3886SOL    HW112557   5.481   5.047   5.253
 3886SOL    HW212558   5.416   5.100   5.113
 3887SOL     OW12559   0.988   0.710   6.952
 3887SOL    HW112560   1.083   0.714   6.923
 3887SOL    HW212561   0.965   0.794   7.002
 3888SOL     OW12562   0.019   0.749   4.917
 3888SOL    HW112563   0.107   0.703   4.930
 3888SOL    HW212564   7.024   0.808   4.996
 3889SOL     OW12565   0.259   4.273   0.055
 3889SOL    HW112566   0.335   4.233   0.005
 3889SOL    HW212567   0.193   4.201   0.078
 3890SOL     OW12568   6.495   4.672   3.404
 3890SOL    HW112569   6.508   4.770   3.419
 3890SOL    HW212570   6.546   4.620   3.473
 3891SOL     OW12571   5.570   3.786   4.018
 3891SOL    HW112572   5.605   3.827   4.102
 3891SOL    HW212573   5.584   3.849   3.942
 3892SOL     OW12574   0.277   1.763   1.315
 3892SOL    HW112575   0.282   1.712   1.229
 3892SOL    HW212576   0.209   1.720   1.375
 3893SOL     OW12577   4.543   4.057   0.023
 3893SOL    HW112578   4.528   3.970   6.999
 3893SOL    HW212579   4.619   4.047   0.087
 3894SOL     OW12580   4.608   1.224   0.785
 3894SOL    HW112581   4.596   1.232   0.884
 3894SOL    HW212582   4.605   1.128   0.759
 3895SOL     OW12583   1.494   0.863   5.161
 3895SOL    HW112584   1.505   0.963   5.158
 3895SOL    HW212585   1.584   0.819   5.159
 3896SOL     OW12586   0.464   1.376   5.326
 3896SOL    HW112587   0.369   1.405   5.315
 3896SOL    HW212588   0.469   1.277   5.321
 3897SOL     OW12589   3.650   5.587   2.735
 3897SOL    HW112590   3.628   5.569   2.639
 3897SOL    HW212591   3.566   5.584   2.790
 3898SOL     OW12592   2.523   3.481   5.580
 3898SOL    HW112593   2.517   3.386   5.612
 3898SOL    HW212594   2.542   3.540   5.658
 3899SOL     OW12595   4.552   6.567   5.307
 3899SOL    HW112596   4.530   6.596   5.401
 3899SOL    HW212597   4.646   6.594   5.285
 3900SOL     OW12598   5.260   2.814   3.829
 3900SOL    HW112599   5.330   2.828   3.759
 3900SOL    HW212600   5.196   2.891   3.828
 3901SOL     OW12601   2.522   0.392   5.170
 3901SOL    HW112602   2.573   0.366   5.088
 3901SOL    HW212603   2.547   0.484   5.198
 3902SOL     OW12604   5.605   3.453   1.545
 3902SOL    HW112605   5.542   3.412   1.610
 3902SOL    HW212606   5.696   3.413   1.556
 3903SOL     OW12607   3.732   6.081   6.114
 3903SOL    HW112608   3.742   6.139   6.195
 3903SOL    HW212609   3.699   6.136   6.038
 3904SOL     OW12610   3.156   1.733   5.551
 3904SOL    HW112611   3.062   1.744   5.583
 3904SOL    HW212612   3.174   1.637   5.531
 3905SOL     OW12613   0.680   6.900   6.396
 3905SOL    HW112614   0.681   6.894   6.296
 3905SOL    HW212615   0.649   6.812   6.434
 3906SOL     OW12616   5.148   5.642   6.202
 3906SOL    HW112617   5.222   5.707   6.221
 3906SOL    HW212618   5.140   5.629   6.103
 3907SOL     OW12619   5.947   0.533   4.306
 3907SOL    HW112620   6.037   0.572   4.290
 3907SOL    HW212621   5.904   0.512   4.218
 3908SOL     OW12622   1.562   2.272   0.196
 3908SOL    HW112623   1.515   2.213   0.131
 3908SOL    HW212624   1.545   2.240   0.289
 3909SOL     OW12625   6.918   5.474   5.171
 3909SOL    HW112626   6.842   5.416   5.141
 3909SOL    HW212627   6.957   5.521   5.092
 3910SOL     OW12628   2.902   3.316   1.987
 3910SOL    HW112629   2.913   3.218   1.970
 3910SOL    HW212630   2.855   3.358   1.910
 3911SOL     OW12631   5.049   1.694   6.558
 3911SOL    HW112632   5.049   1.793   6.540
 3911SOL    HW212633   4.987   1.674   6.633
 3912SOL     OW12634   4.230   0.610   5.662
 3912SOL    HW112635   4.187   0.669   5.594
 3912SOL    HW212636   4.289   0.543   5.616
 3913SOL     OW12637   1.810   0.086   5.998
 3913SOL    HW112638   1.904   0.060   6.019
 3913SOL    HW212639   1.758   0.003   5.976
 3914SOL     OW12640   3.765   0.973   0.917
 3914SOL    HW112641   3.762   1.013   0.825
 3914SOL    HW212642   3.768   1.046   0.985
 3915SOL     OW12643   3.825   5.169   2.162
 3915SOL    HW112644   3.839   5.179   2.260
 3915SOL    HW212645   3.837   5.073   2.135
 3916SOL     OW12646   1.893   6.411   3.756
 3916SOL    HW112647   1.913   6.449   3.846
 3916SOL    HW212648   1.871   6.314   3.765
 3917SOL     OW12649   6.701   5.720   0.240
 3917SOL    HW112650   6.628   5.776   0.203
 3917SOL    HW212651   6.734   5.761   0.326
 3918SOL     OW12652   4.937   6.403   1.664
 3918SOL    HW112653   4.848   6.370   1.695
 3918SOL    HW212654   4.951   6.379   1.569
 3919SOL     OW12655   2.127   6.732   6.454
 3919SOL    HW112656   2.038   6.777   6.454
 3919SOL    HW212657   2.144   6.691   6.365
 3920SOL     OW12658   3.448   3.121   1.195
 3920SOL    HW112659   3.404   3.038   1.160
 3920SOL    HW212660   3.485   3.173   1.118
 3921SOL     OW12661   6.809   2.965   1.460
 3921SOL    HW112662   6.864   3.001   1.385
 3921SOL    HW212663   6.843   2.875   1.487
 3922SOL     OW12664   5.714   4.162   1.851
 3922SOL    HW112665   5.696   4.086   1.789
 3922SOL    HW212666   5.705   4.131   1.945
 3923SOL     OW12667   0.003   1.994   6.885
 3923SOL    HW112668   6.983   2.076   6.849
 3923SOL    HW212669   0.013   1.926   6.811
 3924SOL     OW12670   0.422   5.146   3.372
 3924SOL    HW112671   0.405   5.047   3.375
 3924SOL    HW212672   0.423   5.176   3.276
 3925SOL     OW12673   3.046   5.152   0.693
 3925SOL    HW112674   3.104   5.223   0.652
 3925SOL    HW212675   3.058   5.152   0.792
 3926SOL     OW12676   6.729   5.944   2.902
 3926SOL    HW112677   6.732   5.901   2.992
 3926SOL    HW212678   6.818   5.937   2.858
 3927SOL     OW12679   6.408   3.055   3.380
 3927SOL    HW112680   6.365   3.015   3.299
 3927SOL    HW212681   6.508   3.055   3.368
 3928SOL     OW12682   3.459   6.273   5.486
 3928SOL    HW112683   3.365   6.305   5.489
 3928SOL    HW212684   3.479   6.219   5.568
 3929SOL     OW12685   6.828   1.235   5.714
 3929SOL    HW112686   6.896   1.235   5.640
 3929SOL    HW212687   6.743   1.194   5.681
 3930SOL     OW12688   2.365   1.986   3.828
 3930SOL    HW112689   2.433   1.993   3.755
 3930SOL    HW212690   2.394   1.916   3.894
 3931SOL     OW12691   1.802   1.409   1.846
 3931SOL    HW112692   1.807   1.456   1.934
 3931SOL    HW212693   1.885   1.356   1.831
 3932SOL     OW12694   1.209   4.224   2.369
 3932SOL    HW112695   1.116   4.189   2.373
 3932SOL    HW212696   1.268   4.168   2.427
 3933SOL     OW12697   1.627   6.706   0.175
 3933SOL    HW112698   1.661   6.623   0.132
 3933SOL    HW212699   1.546   6.739   0.125
 3934SOL     OW12700   7.011   0.879   1.065
 3934SOL    HW112701   0.069   0.937   1.072
 3934SOL    HW212702   0.005   0.792   1.110
 3935SOL     OW12703   2.712   0.093   6.522
 3935SOL    HW112704   2.758   0.179   6.501
 3935SOL    HW212705   2.617   0.111   6.546
 3936SOL     OW12706   6.718   5.159   5.463
 3936SOL    HW112707   6.799   5.182   5.518
 3936SOL    HW212708   6.700   5.060   5.472
 3937SOL     OW12709   6.499   1.038   2.519
 3937SOL    HW112710   6.567   1.030   2.591
 3937SOL    HW212711   6.538   1.005   2.433
 3938SOL     OW12712   0.255   1.417   4.026
 3938SOL    HW112713   0.324   1.345   4.011
 3938SOL    HW212714   0.244   1.470   3.942
 3939SOL     OW12715   2.742   1.788   2.053
 3939SOL    HW112716   2.761   1.775   1.955
 3939SOL    HW212717   2.814   1.845   2.093
 3940SOL     OW12718   4.231   5.173   2.076
 3940SOL    HW112719   4.300   5.104   2.096
 3940SOL    HW212720   4.250   5.256   2.127
 3941SOL     OW12721   4.687   2.219   6.471
 3941SOL    HW112722   4.732   2.186   6.388
 3941SOL    HW212723   4.756   2.238   6.541
 3942SOL     OW12724   0.205   0.335   6.730
 3942SOL    HW112725   0.281   0.273   6.712
 3942SOL    HW212726   0.168   0.316   6.821
 3943SOL     OW12727   0.544   3.821   3.088
 3943SOL    HW112728   0.626   3.771   3.115
 3943SOL    HW212729   0.463   3.778   3.128
 3944SOL     OW12730   5.483   3.284   5.086
 3944SOL    HW112731   5.412   3.271   5.155
 3944SOL    HW212732   5.441   3.297   4.997
 3945SOL     OW12733   0.972   1.780   1.260
 3945SOL    HW112734   1.044   1.849   1.269
 3945SOL    HW212735   1.014   1.692   1.237
 3946SOL     OW12736   5.459   6.165   6.468
 3946SOL    HW112737   5.383   6.189   6.530
 3946SOL    HW212738   5.515   6.094   6.510
 3947SOL     OW12739   5.920   5.527   0.613
 3947SOL    HW112740   5.983   5.604   0.621
 3947SOL    HW212741   5.944   5.473   0.532
 3948SOL     OW12742   1.043   5.792   1.741
 3948SOL    HW112743   1.077   5.754   1.827
 3948SOL    HW212744   0.949   5.823   1.754
 3949SOL     OW12745   5.583   0.305   3.043
 3949SOL    HW112746   5.576   0.382   3.106
 3949SOL    HW212747   5.504   0.245   3.054
 3950SOL     OW12748   1.880   4.246   1.539
 3950SOL    HW112749   1.830   4.183   1.479
 3950SOL    HW212750   1.978   4.242   1.519
 3951SOL     OW12751   6.197   6.653   0.391
 3951SOL    HW112752   6.104   6.656   0.429
 3951SOL    HW212753   6.201   6.583   0.320
 3952SOL     OW12754   6.221   3.637   2.650
 3952SOL    HW112755   6.259   3.564   2.706
 3952SOL    HW212756   6.284   3.714   2.647
 3953SOL     OW12757   3.967   4.650   1.359
 3953SOL    HW112758   4.043   4.711   1.379
 3953SOL    HW212759   3.965   4.630   1.261
 3954SOL     OW12760   4.819   5.245   4.800
 3954SOL    HW112761   4.745   5.303   4.766
 3954SOL    HW212762   4.859   5.287   4.882
 3955SOL     OW12763   3.000   5.099   6.610
 3955SOL    HW112764   2.917   5.046   6.594
 3955SOL    HW212765   3.050   5.109   6.524
 3956SOL     OW12766   6.823   0.746   3.220
 3956SOL    HW112767   6.867   0.684   3.285
 3956SOL    HW212768   6.751   0.698   3.172
 3957SOL     OW12769   4.603   6.003   3.449
 3957SOL    HW112770   4.560   6.032   3.534
 3957SOL    HW212771   4.678   5.941   3.469
 3958SOL     OW12772   5.701   0.260   5.562
 3958SOL    HW112773   5.799   0.239   5.553
 3958SOL    HW212774   5.678   0.340   5.507
 3959SOL     OW12775   4.058   6.334   1.030
 3959SOL    HW112776   3.969   6.360   0.991
 3959SOL    HW212777   4.105   6.273   0.966
 3960SOL     OW12778   4.593   1.546   6.850
 3960SOL    HW112779   4.611   1.641   6.872
 3960SOL    HW212780   4.520   1.511   6.909
 3961SOL     OW12781   5.164   2.095   2.745
 3961SOL    HW112782   5.215   2.175   2.776
 3961SOL    HW212783   5.074   2.123   2.712
 3962SOL     OW12784   2.652   4.703   0.143
 3962SOL    HW112785   2.743   4.673   0.169
 3962SOL    HW212786   2.595   4.623   0.122
 3963SOL     OW12787   4.548   4.901   3.899
 3963SOL    HW112788   4.625   4.841   3.878
 3963SOL    HW212789   4.546   4.919   3.997
 3964SOL     OW12790   4.039   5.118   3.265
 3964SOL    HW112791   4.060   5.112   3.363
 3964SOL    HW212792   3.999   5.031   3.234
 3965SOL     OW12793   5.107   3.265   6.045
 3965SOL    HW112794   5.019   3.221   6.065
 3965SOL    HW212795   5.107   3.358   6.080
 3966SOL     OW12796   5.015   5.689   0.427
 3966SOL    HW112797   4.989   5.781   0.459
 3966SOL    HW212798   5.054   5.637   0.503
 3967SOL     OW12799   1.578   3.907   1.888
 3967SOL    HW112800   1.666   3.911   1.937
 3967SOL    HW212801   1.507   3.877   1.951
 3968SOL     OW12802   5.138   0.607   1.296
 3968SOL    HW112803   5.171   0.554   1.374
 3968SOL    HW212804   5.100   0.694   1.328
 3969SOL     OW12805   1.372   3.841   2.090
 3969SOL    HW112806   1.440   3.893   2.141
 3969SOL    HW212807   1.282   3.850   2.133
 3970SOL     OW12808   6.197   6.089   4.045
 3970SOL    HW112809   6.195   6.157   3.972
 3970SOL    HW212810   6.286   6.092   4.091
 3971SOL     OW12811   2.529   4.843   2.231
 3971SOL    HW112812   2.495   4.756   2.268
 3971SOL    HW212813   2.626   4.854   2.257
 3972SOL     OW12814   0.969   5.015   0.772
 3972SOL    HW112815   0.978   4.980   0.866
 3972SOL    HW212816   1.059   5.042   0.738
 3973SOL     OW12817   1.575   5.266   6.539
 3973SOL    HW112818   1.612   5.180   6.574
 3973SOL    HW212819   1.528   5.250   6.453
 3974SOL     OW12820   1.865   1.025   4.180
 3974SOL    HW112821   1.814   0.999   4.262
 3974SOL    HW212822   1.831   0.974   4.102
 3975SOL     OW12823   5.919   0.603   5.190
 3975SOL    HW112824   5.961   0.514   5.174
 3975SOL    HW212825   5.932   0.631   5.285
 3976SOL     OW12826   1.497   6.478   1.751
 3976SOL    HW112827   1.541   6.410   1.809
 3976SOL    HW212828   1.398   6.473   1.763
 3977SOL     OW12829   2.485   4.299   5.565
 3977SOL    HW112830   2.434   4.306   5.480
 3977SOL    HW212831   2.571   4.251   5.549
 3978SOL     OW12832   5.761   5.640   5.088
 3978SOL    HW112833   5.703   5.559   5.094
 3978SOL    HW212834   5.855   5.613   5.065
 3979SOL     OW12835   3.183   6.201   0.893
 3979SOL    HW112836   3.278   6.229   0.905
 3979SOL    HW212837   3.174   6.104   0.919
 3980SOL     OW12838   0.025   5.560   0.389
 3980SOL    HW112839   0.069   5.471   0.382
 3980SOL    HW212840   0.067   5.613   0.463
 3981SOL     OW12841   2.103   0.648   0.399
 3981SOL    HW112842   2.177   0.603   0.449
 3981SOL    HW212843   2.142   0.704   0.325
 3982SOL     OW12844   2.095   0.117   4.175
 3982SOL    HW112845   2.113   0.205   4.218
 3982SOL    HW212846   2.019   0.072   4.222
 3983SOL     OW12847   5.291   5.195   4.463
 3983SOL    HW112848   5.345   5.263   4.512
 3983SOL    HW212849   5.349   5.145   4.399
 3984SOL     OW12850   6.649   1.319   2.768
 3984SOL    HW112851   6.581   1.329   2.841
 3984SOL    HW212852   6.663   1.407   2.724
 3985SOL     OW12853   3.421   4.291   6.698
 3985SOL    HW112854   3.405   4.194   6.681
 3985SOL    HW212855   3.337   4.334   6.731
 3986SOL     OW12856   6.442   2.107   3.238
 3986SOL    HW112857   6.533   2.065   3.238
 3986SOL    HW212858   6.434   2.171   3.315
 3987SOL     OW12859   3.548   5.443   3.420
 3987SOL    HW112860   3.571   5.539   3.434
 3987SOL    HW212861   3.461   5.423   3.465
 3988SOL     OW12862   4.378   4.240   6.938
 3988SOL    HW112863   4.352   4.300   7.013
 3988SOL    HW212864   4.437   4.167   6.973
 3989SOL     OW12865   6.627   2.999   6.735
 3989SOL    HW112866   6.602   2.949   6.817
 3989SOL    HW212867   6.565   2.976   6.660
 3990SOL     OW12868   5.223   2.569   3.094
 3990SOL    HW112869   5.308   2.518   3.098
 3990SOL    HW212870   5.146   2.506   3.106
 3991SOL     OW12871   5.723   0.876   2.400
 3991SOL    HW112872   5.651   0.873   2.470
 3991SOL    HW212873   5.809   0.841   2.439
 3992SOL     OW12874   3.648   2.609   0.078
 3992SOL    HW112875   3.643   2.687   0.141
 3992SOL    HW212876   3.731   2.615   0.023
 3993SOL     OW12877   1.532   1.590   2.672
 3993SOL    HW112878   1.468   1.621   2.601
 3993SOL    HW212879   1.611   1.546   2.629
 3994SOL     OW12880   0.877   0.626   5.789
 3994SOL    HW112881   0.807   0.653   5.855
 3994SOL    HW212882   0.958   0.594   5.837
 3995SOL     OW12883   1.824   3.607   5.324
 3995SOL    HW112884   1.742   3.644   5.280
 3995SOL    HW212885   1.846   3.663   5.404
 3996SOL     OW12886   1.080   0.533   4.007
 3996SOL    HW112887   1.024   0.592   3.948
 3996SOL    HW212888   1.021   0.480   4.068
 3997SOL     OW12889   4.804   1.013   3.973
 3997SOL    HW112890   4.898   0.986   3.996
 3997SOL    HW212891   4.806   1.096   3.917
 3998SOL     OW12892   4.158   1.066   4.383
 3998SOL    HW112893   4.123   0.977   4.412
 3998SOL    HW212894   4.236   1.052   4.322
 3999SOL     OW12895   5.864   3.229   3.991
 3999SOL    HW112896   5.924   3.222   3.911
 3999SOL    HW212897   5.818   3.318   3.990
 4000SOL     OW12898   3.367   5.983   3.161
 4000SOL    HW112899   3.355   6.049   3.235
 4000SOL    HW212900   3.452   5.932   3.175
 4001SOL     OW12901   2.542   2.305   4.255
 4001SOL    HW112902   2.481   2.237   4.214
 4001SOL    HW212903   2.558   2.282   4.351
 4002SOL     OW12904   2.766   3.485   0.510
 4002SOL    HW112905   2.689   3.535   0.549
 4002SOL    HW212906   2.848   3.502   0.565
 4003SOL     OW12907   3.060   6.259   3.849
 4003SOL    HW112908   3.081   6.290   3.941
 4003SOL    HW212909   3.001   6.178   3.853
 4004SOL     OW12910   5.068   1.726   4.451
 4004SOL    HW112911   5.105   1.738   4.543
 4004SOL    HW212912   5.108   1.794   4.389
 4005SOL     OW12913   4.697   5.609   0.570
 4005SOL    HW112914   4.755   5.549   0.515
 4005SOL    HW212915   4.611   5.562   0.591
 4006SOL     OW12916   3.623   5.196   3.014
 4006SOL    HW112917   3.590   5.111   3.054
 4006SOL    HW212918   3.638   5.264   3.086
 4007SOL     OW12919   0.436   2.402   0.824
 4007SOL    HW112920   0.345   2.442   0.832
 4007SOL    HW212921   0.436   2.309   0.862
 4008SOL     OW12922   3.101   2.093   3.784
 4008SOL    HW112923   3.066   2.135   3.700
 4008SOL    HW212924   3.198   2.071   3.772
 4009SOL     OW12925   5.202   3.570   0.919
 4009SOL    HW112926   5.294   3.583   0.883
 4009SOL    HW212927   5.190   3.625   1.001
 4010SOL     OW12928   2.797   3.442   1.504
 4010SOL    HW112929   2.701   3.467   1.492
 4010SOL    HW212930   2.850   3.524   1.528
 4011SOL     OW12931   0.394   0.845   2.711
 4011SOL    HW112932   0.459   0.868   2.783
 4011SOL    HW212933   0.421   0.891   2.626
 4012SOL     OW12934   4.776   5.446   1.559
 4012SOL    HW112935   4.735   5.368   1.511
 4012SOL    HW212936   4.756   5.437   1.657
 4013SOL     OW12937   2.578   0.630   5.458
 4013SOL    HW112938   2.584   0.663   5.364
 4013SOL    HW212939   2.497   0.669   5.502
 4014SOL     OW12940   4.520   6.450   2.351
 4014SOL    HW112941   4.485   6.476   2.261
 4014SOL    HW212942   4.620   6.439   2.346
 4015SOL     OW12943   5.208   4.990   6.136
 4015SOL    HW112944   5.135   5.035   6.084
 4015SOL    HW212945   5.170   4.910   6.184
 4016SOL     OW12946   2.391   6.282   6.549
 4016SOL    HW112947   2.392   6.231   6.635
 4016SOL    HW212948   2.355   6.374   6.565
 4017SOL     OW12949   0.322   5.729   0.629
 4017SOL    HW112950   0.265   5.655   0.662
 4017SOL    HW212951   0.347   5.789   0.705
 4018SOL     OW12952   4.901   6.360   2.910
 4018SOL    HW112953   4.863   6.409   2.989
 4018SOL    HW212954   4.832   6.357   2.838
 4019SOL     OW12955   5.843   3.470   2.993
 4019SOL    HW112956   5.926   3.508   3.033
 4019SOL    HW212957   5.867   3.410   2.916
 4020SOL     OW12958   4.648   2.165   5.451
 4020SOL    HW112959   4.626   2.232   5.380
 4020SOL    HW212960   4.739   2.127   5.434
 4021SOL     OW12961   3.502   4.398   6.171
 4021SOL    HW112962   3.434   4.347   6.118
 4021SOL    HW212963   3.526   4.346   6.253
 4022SOL     OW12964   4.553   0.505   6.987
 4022SOL    HW112965   4.646   0.499   6.952
 4022SOL    HW212966   4.537   0.433   0.030
 4023SOL     OW12967   6.183   2.014   4.814
 4023SOL    HW112968   6.102   1.976   4.857
 4023SOL    HW212969   6.251   1.942   4.801
 4024SOL     OW12970   3.695   6.242   3.134
 4024SOL    HW112971   3.794   6.238   3.148
 4024SOL    HW212972   3.676   6.261   3.038
 4025SOL     OW12973   0.840   5.981   4.249
 4025SOL    HW112974   0.902   5.912   4.212
 4025SOL    HW212975   0.755   5.981   4.196
 4026SOL     OW12976   5.876   5.294   4.440
 4026SOL    HW112977   5.863   5.252   4.530
 4026SOL    HW212978   5.973   5.290   4.415
 4027SOL     OW12979   3.563   4.262   1.743
 4027SOL    HW112980   3.643   4.312   1.709
 4027SOL    HW212981   3.508   4.323   1.800
 4028SOL     OW12982   1.140   2.188   3.998
 4028SOL    HW112983   1.149   2.165   3.901
 4028SOL    HW212984   1.130   2.105   4.052
 4029SOL     OW12985   2.249   4.361   6.663
 4029SOL    HW112986   2.257   4.443   6.719
 4029SOL    HW212987   2.337   4.342   6.619
 4030SOL     OW12988   1.363   2.405   5.932
 4030SOL    HW112989   1.345   2.503   5.926
 4030SOL    HW212990   1.344   2.372   6.025
 4031SOL     OW12991   5.099   5.854   3.366
 4031SOL    HW112992   5.056   5.830   3.279
 4031SOL    HW212993   5.174   5.919   3.350
 4032SOL     OW12994   6.371   0.027   3.319
 4032SOL    HW112995   6.388   0.125   3.307
 4032SOL    HW212996   6.456   7.004   3.343
 4033SOL     OW12997   3.478   3.173   3.396
 4033SOL    HW112998   3.490   3.169   3.297
 4033SOL    HW212999   3.491   3.081   3.434
 4034SOL     OW13000   5.523   0.949   5.251
 4034SOL    HW113001   5.471   1.022   5.206
 4034SOL    HW213002   5.603   0.989   5.296
 4035SOL     OW13003   6.846   3.448   1.124
 4035SOL    HW113004   6.866   3.419   1.031
 4035SOL    HW213005   6.919   3.418   1.185
 4036SOL     OW13006   5.889   6.499   2.352
 4036SOL    HW113007   5.809   6.559   2.355
 4036SOL    HW213008   5.860   6.404   2.348
 4037SOL     OW13009   2.158   2.401   0.172
 4037SOL    HW113010   2.119   2.473   0.229
 4037SOL    HW213011   2.102   2.318   0.178
 4038SOL     OW13012   4.856   4.880   2.218
 4038SOL    HW113013   4.910   4.949   2.267
 4038SOL    HW213014   4.813   4.922   2.138
 4039SOL     OW13015   4.939   5.366   1.055
 4039SOL    HW113016   4.921   5.449   1.108
 4039SOL    HW213017   4.854   5.315   1.043
 4040SOL     OW13018   2.849   6.664   0.335
 4040SOL    HW113019   2.806   6.735   0.279
 4040SOL    HW213020   2.939   6.643   0.299
 4041SOL     OW13021   1.779   5.793   2.594
 4041SOL    HW113022   1.733   5.725   2.537
 4041SOL    HW213023   1.772   5.883   2.550
 4042SOL     OW13024   6.334   4.868   2.511
 4042SOL    HW113025   6.380   4.813   2.581
 4042SOL    HW213026   6.390   4.948   2.489
 4043SOL     OW13027   5.574   1.891   3.574
 4043SOL    HW113028   5.479   1.865   3.593
 4043SOL    HW213029   5.607   1.952   3.646
 4044SOL     OW13030   6.282   0.396   4.563
 4044SOL    HW113031   6.202   0.356   4.608
 4044SOL    HW213032   6.301   0.486   4.602
 4045SOL     OW13033   2.803   4.325   5.862
 4045SOL    HW113034   2.743   4.248   5.841
 4045SOL    HW213035   2.770   4.407   5.817
 4046SOL     OW13036   0.890   1.436   2.904
 4046SOL    HW113037   0.894   1.481   2.815
 4046SOL    HW213038   0.925   1.498   2.974
 4047SOL     OW13039   2.734   3.669   0.750
 4047SOL    HW113040   2.828   3.633   0.745
 4047SOL    HW213041   2.737   3.765   0.778
 4048SOL     OW13042   5.488   0.841   1.787
 4048SOL    HW113043   5.490   0.839   1.886
 4048SOL    HW213044   5.476   0.936   1.756
 4049SOL     OW13045   6.512   6.363   6.658
 4049SOL    HW113046   6.505   6.281   6.602
 4049SOL    HW213047   6.601   6.407   6.643
 4050SOL     OW13048   1.686   6.486   6.794
 4050SOL    HW113049   1.768   6.525   6.753
 4050SOL    HW213050   1.620   6.464   6.722
 4051SOL     OW13051   2.823   4.094   0.196
 4051SOL    HW113052   2.838   4.138   0.284
 4051SOL    HW213053   2.784   4.003   0.211
 4052SOL     OW13054   1.037   0.330   1.344
 4052SOL    HW113055   0.991   0.242   1.332
 4052SOL    HW213056   1.086   0.330   1.431
 4053SOL     OW13057   3.051   4.937   3.826
 4053SOL    HW113058   3.048   4.977   3.734
 4053SOL    HW213059   2.985   4.983   3.884
 4054SOL     OW13060   2.677   2.843   0.704
 4054SOL    HW113061   2.591   2.853   0.755
 4054SOL    HW213062   2.734   2.924   0.716
 4055SOL     OW13063   2.524   2.956   6.068
 4055SOL    HW113064   2.511   2.863   6.033
 4055SOL    HW213065   2.519   3.021   5.993
 4056SOL     OW13066   4.278   3.107   6.948
 4056SOL    HW113067   4.292   3.181   6.882
 4056SOL    HW213068   4.300   3.141   0.016
 4057SOL     OW13069   5.491   3.640   0.907
 4057SOL    HW113070   5.543   3.575   0.961
 4057SOL    HW213071   5.477   3.724   0.960
 4058SOL     OW13072   2.328   1.240   4.523
 4058SOL    HW113073   2.372   1.209   4.438
 4058SOL    HW213074   2.270   1.318   4.504
 4059SOL     OW13075   1.935   1.583   3.431
 4059SOL    HW113076   2.006   1.562   3.498
 4059SOL    HW213077   1.957   1.669   3.385
 4060SOL     OW13078   3.814   5.296   4.397
 4060SOL    HW113079   3.817   5.395   4.412
 4060SOL    HW213080   3.788   5.251   4.483
 4061SOL     OW13081   3.317   4.592   1.702
 4061SOL    HW113082   3.307   4.496   1.730
 4061SOL    HW213083   3.398   4.631   1.746
 4062SOL     OW13084   4.439   1.524   3.027
 4062SOL    HW113085   4.451   1.425   3.021
 4062SOL    HW213086   4.498   1.560   3.099
 4063SOL     OW13087   3.987   6.649   6.189
 4063SOL    HW113088   3.891   6.625   6.175
 4063SOL    HW213089   4.044   6.593   6.128
 4064SOL     OW13090   2.029   0.096   2.349
 4064SOL    HW113091   2.036   0.063   2.443
 4064SOL    HW213092   1.970   0.177   2.347
 4065SOL     OW13093   0.404   0.130   0.893
 4065SOL    HW113094   0.502   0.114   0.886
 4065SOL    HW213095   0.386   0.205   0.957
 4066SOL     OW13096   5.475   4.481   1.730
 4066SOL    HW113097   5.565   4.449   1.699
 4066SOL    HW213098   5.468   4.472   1.829
 4067SOL     OW13099   4.961   1.633   3.464
 4067SOL    HW113100   5.052   1.668   3.441
 4067SOL    HW213101   4.955   1.537   3.437
 4068SOL     OW13102   4.552   0.298   5.311
 4068SOL    HW113103   4.556   0.328   5.215
 4068SOL    HW213104   4.537   0.199   5.314
 4069SOL     OW13105   4.521   4.463   0.681
 4069SOL    HW113106   4.491   4.492   0.591
 4069SOL    HW213107   4.553   4.543   0.733
 4070SOL     OW13108   1.719   3.263   2.520
 4070SOL    HW113109   1.801   3.308   2.484
 4070SOL    HW213110   1.648   3.262   2.450
 4071SOL     OW13111   1.282   0.826   5.010
 4071SOL    HW113112   1.363   0.848   5.065
 4071SOL    HW213113   1.269   0.727   5.009
 4072SOL     OW13114   1.955   6.619   4.436
 4072SOL    HW113115   1.912   6.657   4.518
 4072SOL    HW213116   2.008   6.690   4.390
 4073SOL     OW13117   1.951   5.726   6.224
 4073SOL    HW113118   1.975   5.819   6.196
 4073SOL    HW213119   2.009   5.661   6.175
 4074SOL     OW13120   0.292   2.304   1.740
 4074SOL    HW113121   0.211   2.358   1.761
 4074SOL    HW213122   0.347   2.293   1.823
 4075SOL     OW13123   4.352   1.787   2.399
 4075SOL    HW113124   4.379   1.840   2.480
 4075SOL    HW213125   4.394   1.828   2.318
 4076SOL     OW13126   2.091   4.010   5.145
 4076SOL    HW113127   2.102   3.927   5.199
 4076SOL    HW213128   2.169   4.019   5.083
 4077SOL     OW13129   2.706   6.734   0.668
 4077SOL    HW113130   2.656   6.653   0.638
 4077SOL    HW213131   2.739   6.785   0.589
 4078SOL     OW13132   6.391   4.590   2.221
 4078SOL    HW113133   6.293   4.587   2.199
 4078SOL    HW213134   6.418   4.685   2.234
 4079SOL     OW13135   0.875   0.766   3.448
 4079SOL    HW113136   0.868   0.793   3.352
 4079SOL    HW213137   0.971   0.746   3.470
 4080SOL     OW13138   2.815   4.161   0.468
 4080SOL    HW113139   2.863   4.200   0.547
 4080SOL    HW213140   2.806   4.062   0.481
 4081SOL     OW13141   2.383   1.244   5.196
 4081SOL    HW113142   2.297   1.235   5.146
 4081SOL    HW213143   2.428   1.329   5.170
 4082SOL     OW13144   1.131   2.159   5.822
 4082SOL    HW113145   1.187   2.098   5.766
 4082SOL    HW213146   1.159   2.254   5.804
 4083SOL     OW13147   6.063   4.548   3.015
 4083SOL    HW113148   6.048   4.456   2.980
 4083SOL    HW213149   6.114   4.543   3.101
 4084SOL     OW13150   4.807   2.817   3.150
 4084SOL    HW113151   4.903   2.788   3.147
 4084SOL    HW213152   4.802   2.912   3.182
 4085SOL     OW13153   2.237   5.468   1.095
 4085SOL    HW113154   2.147   5.508   1.109
 4085SOL    HW213155   2.289   5.525   1.031
 4086SOL     OW13156   6.971   5.726   0.192
 4086SOL    HW113157   6.874   5.707   0.179
 4086SOL    HW213158   7.009   5.664   0.260
 4087SOL     OW13159   3.037   0.325   2.720
 4087SOL    HW113160   3.122   0.274   2.707
 4087SOL    HW213161   2.960   0.268   2.692
 4088SOL     OW13162   6.468   0.796   5.425
 4088SOL    HW113163   6.394   0.829   5.484
 4088SOL    HW213164   6.485   0.862   5.353
 4089SOL     OW13165   0.088   5.791   4.525
 4089SOL    HW113166   0.144   5.813   4.446
 4089SOL    HW213167   0.083   5.691   4.536
 4090SOL     OW13168   2.242   6.806   4.765
 4090SOL    HW113169   2.149   6.772   4.753
 4090SOL    HW213170   2.244   6.877   4.834
 4091SOL     OW13171   1.050   4.940   1.001
 4091SOL    HW113172   1.039   4.865   1.067
 4091SOL    HW213173   1.139   4.984   1.015
 4092SOL     OW13174   4.774   2.937   4.654
 4092SOL    HW113175   4.807   2.918   4.562
 4092SOL    HW213176   4.732   2.854   4.692
 4093SOL     OW13177   6.158   5.463   2.104
 4093SOL    HW113178   6.135   5.421   2.016
 4093SOL    HW213179   6.241   5.421   2.140
 4094SOL     OW13180   0.423   5.044   6.841
 4094SOL    HW113181   0.436   5.059   6.744
 4094SOL    HW213182   0.510   5.021   6.884
 4095SOL     OW13183   0.109   3.456   6.923
 4095SOL    HW113184   0.069   3.537   6.966
 4095SOL    HW213185   0.061   3.374   6.954
 4096SOL     OW13186   2.294   1.134   6.675
 4096SOL    HW113187   2.292   1.059   6.609
 4096SOL    HW213188   2.202   1.151   6.709
 4097SOL     OW13189   6.938   4.170   5.063
 4097SOL    HW113190   6.860   4.139   5.117
 4097SOL    HW213191   7.021   4.162   5.118
 4098SOL     OW13192   1.964   3.422   1.660
 4098SOL    HW113193   1.976   3.492   1.729
 4098SOL    HW213194   2.024   3.441   1.582
 4099SOL     OW13195   4.229   5.013   6.921
 4099SOL    HW113196   4.255   5.001   6.825
 4099SOL    HW213197   4.178   4.932   6.952
 4100SOL     OW13198   1.145   0.723   3.524
 4100SOL    HW113199   1.221   0.661   3.546
 4100SOL    HW213200   1.174   0.817   3.538
 4101SOL     OW13201   6.741   0.686   6.388
 4101SOL    HW113202   6.657   0.708   6.437
 4101SOL    HW213203   6.803   0.637   6.448
 4102SOL     OW13204   1.652   0.501   0.586
 4102SOL    HW113205   1.732   0.550   0.552
 4102SOL    HW213206   1.589   0.483   0.510
 4103SOL     OW13207   0.251   6.633   2.431
 4103SOL    HW113208   0.166   6.583   2.416
 4103SOL    HW213209   0.325   6.589   2.380
 4104SOL     OW13210   0.340   5.847   2.937
 4104SOL    HW113211   0.403   5.823   3.010
 4104SOL    HW213212   0.257   5.792   2.944
 4105SOL     OW13213   4.837   1.400   1.522
 4105SOL    HW113214   4.774   1.409   1.599
 4105SOL    HW213215   4.797   1.340   1.453
 4106SOL     OW13216   0.079   1.711   3.689
 4106SOL    HW113217   0.030   1.624   3.696
 4106SOL    HW213218   0.018   1.785   3.717
 4107SOL     OW13219   0.238   6.120   6.288
 4107SOL    HW113220   0.184   6.195   6.324
 4107SOL    HW213221   0.311   6.097   6.353
 4108SOL     OW13222   0.268   5.182   3.942
 4108SOL    HW113223   0.170   5.199   3.957
 4108SOL    HW213224   0.321   5.262   3.968
 4109SOL     OW13225   6.157   5.654   3.414
 4109SOL    HW113226   6.144   5.560   3.382
 4109SOL    HW213227   6.111   5.717   3.352
 4110SOL     OW13228   4.528   2.786   6.746
 4110SOL    HW113229   4.441   2.794   6.698
 4110SOL    HW213230   4.513   2.792   6.845
 4111SOL     OW13231   6.640   5.534   6.610
 4111SOL    HW113232   6.686   5.450   6.638
 4111SOL    HW213233   6.705   5.610   6.611
 4112SOL     OW13234   4.530   6.243   4.944
 4112SOL    HW113235   4.474   6.202   4.872
 4112SOL    HW213236   4.471   6.292   5.008
 4113SOL     OW13237   3.981   5.158   4.891
 4113SOL    HW113238   3.949   5.069   4.857
 4113SOL    HW213239   4.025   5.145   4.980
 4114SOL     OW13240   6.373   1.847   3.476
 4114SOL    HW113241   6.417   1.915   3.535
 4114SOL    HW213242   6.275   1.868   3.468
 4115SOL     OW13243   2.597   4.875   3.285
 4115SOL    HW113244   2.595   4.935   3.365
 4115SOL    HW213245   2.503   4.861   3.252
 4116SOL     OW13246   5.524   2.200   3.380
 4116SOL    HW113247   5.557   2.131   3.315
 4116SOL    HW213248   5.424   2.195   3.385
 4117SOL     OW13249   1.316   2.043   2.712
 4117SOL    HW113250   1.379   2.121   2.720
 4117SOL    HW213251   1.357   1.963   2.755
 4118SOL     OW13252   6.399   6.407   6.902
 4118SOL    HW113253   6.492   6.403   6.865
 4118SOL    HW213254   6.334   6.375   6.833
 4119SOL     OW13255   2.769   0.695   3.306
 4119SOL    HW113256   2.834   0.765   3.335
 4119SOL    HW213257   2.680   0.714   3.345
 4120SOL     OW13258   3.479   1.316   6.721
 4120SOL    HW113259   3.490   1.277   6.629
 4120SOL    HW213260   3.381   1.320   6.744
 4121SOL     OW13261   6.616   6.437   2.596
 4121SOL    HW113262   6.585   6.531   2.580
 4121SOL    HW213263   6.662   6.432   2.684
 4122SOL     OW13264   0.440   5.897   4.791
 4122SOL    HW113265   0.342   5.885   4.804
 4122SOL    HW213266   0.488   5.816   4.823
 4123SOL     OW13267   3.847   5.091   4.221
 4123SOL    HW113268   3.936   5.107   4.177
 4123SOL    HW213269   3.843   5.140   4.307
 4124SOL     OW13270   6.507   6.353   0.986
 4124SOL    HW113271   6.561   6.436   0.973
 4124SOL    HW213272   6.545   6.300   1.062
 4125SOL     OW13273   4.973   2.700   2.725
 4125SOL    HW113274   4.953   2.687   2.628
 4125SOL    HW213275   4.896   2.747   2.769
 4126SOL     OW13276   1.582   2.868   2.341
 4126SOL    HW113277   1.495   2.824   2.319
 4126SOL    HW213278   1.573   2.917   2.428
 4127SOL     OW13279   3.809   2.006   4.101
 4127SOL    HW113280   3.888   2.060   4.071
 4127SOL    HW213281   3.805   1.921   4.047
 4128SOL     OW13282   0.588   3.090   1.861
 4128SOL    HW113283   0.558   3.093   1.765
 4128SOL    HW213284   0.540   3.161   1.912
 4129SOL     OW13285   3.615   2.813   0.882
 4129SOL    HW113286   3.521   2.830   0.850
 4129SOL    HW213287   3.675   2.883   0.845
 4130SOL     OW13288   6.223   2.925   0.913
 4130SOL    HW113289   6.171   2.840   0.905
 4130SOL    HW213290   6.278   2.922   0.997
 4131SOL     OW13291   6.026   0.473   2.449
 4131SOL    HW113292   6.103   0.530   2.422
 4131SOL    HW213293   5.948   0.531   2.471
 4132SOL     OW13294   6.163   4.251   4.342
 4132SOL    HW113295   6.126   4.342   4.360
 4132SOL    HW213296   6.137   4.223   4.249
 4133SOL     OW13297   5.749   6.424   1.167
 4133SOL    HW113298   5.746   6.368   1.084
 4133SOL    HW213299   5.841   6.422   1.205
 4134SOL     OW13300   2.301   3.794   1.202
 4134SOL    HW113301   2.310   3.734   1.281
 4134SOL    HW213302   2.230   3.758   1.141
 4135SOL     OW13303   0.801   1.877   2.480
 4135SOL    HW113304   0.733   1.807   2.458
 4135SOL    HW213305   0.850   1.851   2.563
 4136SOL     OW13306   0.509   3.521   1.472
 4136SOL    HW113307   0.463   3.544   1.558
 4136SOL    HW213308   0.505   3.600   1.410
 4137SOL     OW13309   1.653   2.610   0.414
 4137SOL    HW113310   1.637   2.703   0.380
 4137SOL    HW213311   1.582   2.587   0.480
 4138SOL     OW13312   4.178   5.439   0.837
 4138SOL    HW113313   4.145   5.500   0.909
 4138SOL    HW213314   4.257   5.387   0.870
 4139SOL     OW13315   1.484   2.229   3.274
 4139SOL    HW113316   1.539   2.311   3.260
 4139SOL    HW213317   1.419   2.220   3.198
 4140SOL     OW13318   2.903   1.914   3.863
 4140SOL    HW113319   2.864   1.864   3.786
 4140SOL    HW213320   2.966   1.984   3.829
 4141SOL     OW13321   4.584   6.863   6.888
 4141SOL    HW113322   4.505   6.858   6.828
 4141SOL    HW213323   4.634   6.948   6.870
 4142SOL     OW13324   6.652   3.534   1.858
 4142SOL    HW113325   6.700   3.497   1.938
 4142SOL    HW213326   6.574   3.475   1.837
 4143SOL     OW13327   5.914   3.384   0.664
 4143SOL    HW113328   5.983   3.376   0.591
 4143SOL    HW213329   5.952   3.438   0.739
 4144SOL     OW13330   5.226   1.473   0.913
 4144SOL    HW113331   5.175   1.410   0.854
 4144SOL    HW213332   5.298   1.517   0.860
 4145SOL     OW13333   1.217   6.137   0.772
 4145SOL    HW113334   1.230   6.095   0.682
 4145SOL    HW213335   1.128   6.182   0.775
 4146SOL     OW13336   6.161   6.766   3.804
 4146SOL    HW113337   6.227   6.831   3.766
 4146SOL    HW213338   6.071   6.784   3.764
 4147SOL     OW13339   5.761   4.416   5.892
 4147SOL    HW113340   5.753   4.331   5.944
 4147SOL    HW213341   5.722   4.491   5.945
 4148SOL     OW13342   3.283   6.910   5.823
 4148SOL    HW113343   3.195   6.924   5.868
 4148SOL    HW213344   3.282   6.821   5.776
 4149SOL     OW13345   1.232   3.180   1.239
 4149SOL    HW113346   1.288   3.141   1.166
 4149SOL    HW213347   1.288   3.193   1.321
 4150SOL     OW13348   6.551   2.951   5.577
 4150SOL    HW113349   6.515   2.951   5.670
 4150SOL    HW213350   6.602   2.867   5.561
 4151SOL     OW13351   2.292   0.069   4.929
 4151SOL    HW113352   2.309   0.111   4.840
 4151SOL    HW213353   2.270   0.140   4.996
 4152SOL     OW13354   3.540   5.465   2.056
 4152SOL    HW113355   3.524   5.544   2.115
 4152SOL    HW213356   3.639   5.451   2.045
 4153SOL     OW13357   6.236   4.711   1.192
 4153SOL    HW113358   6.293   4.629   1.185
 4153SOL    HW213359   6.265   4.765   1.271
 4154SOL     OW13360   6.895   5.794   3.476
 4154SOL    HW113361   6.882   5.702   3.440
 4154SOL    HW213362   6.814   5.821   3.528
 4155SOL     OW13363   6.701   1.731   1.500
 4155SOL    HW113364   6.775   1.774   1.448
 4155SOL    HW213365   6.621   1.791   1.500
 4156SOL     OW13366   6.565   4.978   5.232
 4156SOL    HW113367   6.539   5.074   5.241
 4156SOL    HW213368   6.596   4.960   5.139
 4157SOL     OW13369   6.384   6.101   2.348
 4157SOL    HW113370   6.423   6.141   2.431
 4157SOL    HW213371   6.295   6.142   2.330
 4158SOL     OW13372   1.895   2.656   1.326
 4158SOL    HW113373   1.911   2.647   1.424
 4158SOL    HW213374   1.913   2.568   1.281
 4159SOL     OW13375   2.926   1.998   2.765
 4159SOL    HW113376   2.837   1.959   2.742
 4159SOL    HW213377   2.921   2.098   2.764
 4160SOL     OW13378   6.324   6.996   6.693
 4160SOL    HW113379   6.287   0.001   6.605
 4160SOL    HW213380   6.259   7.016   6.766
 4161SOL     OW13381   1.991   2.117   1.240
 4161SOL    HW113382   2.064   2.158   1.186
 4161SOL    HW213383   1.902   2.148   1.205
 4162SOL     OW13384   6.265   5.487   0.863
 4162SOL    HW113385   6.265   5.550   0.941
 4162SOL    HW213386   6.338   5.420   0.874
 4163SOL     OW13387   5.656   0.928   2.837
 4163SOL    HW113388   5.671   1.021   2.804
 4163SOL    HW213389   5.558   0.907   2.836
 4164SOL     OW13390   0.178   6.641   5.584
 4164SOL    HW113391   0.134   6.714   5.636
 4164SOL    HW213392   0.129   6.556   5.599
 4165SOL     OW13393   4.417   0.035   5.842
 4165SOL    HW113394   4.448   6.987   5.905
 4165SOL    HW213395   4.379   0.111   5.895
 4166SOL     OW13396   6.709   0.867   1.684
 4166SOL    HW113397   6.716   0.935   1.757
 4166SOL    HW213398   6.672   0.909   1.602
 4167SOL     OW13399   2.313   4.581   6.069
 4167SOL    HW113400   2.319   4.549   6.164
 4167SOL    HW213401   2.336   4.506   6.007
 4168SOL     OW13402   0.425   4.304   0.471
 4168SOL    HW113403   0.490   4.379   0.476
 4168SOL    HW213404   0.360   4.320   0.396
 4169SOL     OW13405   5.937   4.172   5.102
 4169SOL    HW113406   5.912   4.269   5.104
 4169SOL    HW213407   6.027   4.161   5.145
 4170SOL     OW13408   4.933   3.140   4.747
 4170SOL    HW113409   4.898   3.066   4.690
 4170SOL    HW213410   4.861   3.207   4.764
 4171SOL     OW13411   1.288   4.729   1.471
 4171SOL    HW113412   1.269   4.675   1.389
 4171SOL    HW213413   1.364   4.791   1.454
 4172SOL     OW13414   2.552   3.191   0.697
 4172SOL    HW113415   2.499   3.212   0.614
 4172SOL    HW213416   2.566   3.276   0.749
 4173SOL     OW13417   4.592   2.824   5.643
 4173SOL    HW113418   4.623   2.731   5.660
 4173SOL    HW213419   4.494   2.830   5.657
 4174SOL     OW13420   4.688   0.839   2.837
 4174SOL    HW113421   4.737   0.782   2.903
 4174SOL    HW213422   4.594   0.854   2.869
 4175SOL     OW13423   1.655   4.579   5.589
 4175SOL    HW113424   1.567   4.602   5.546
 4175SOL    HW213425   1.658   4.617   5.681
 4176SOL     OW13426   4.654   6.300   0.973
 4176SOL    HW113427   4.690   6.323   0.882
 4176SOL    HW213428   4.725   6.316   1.042
 4177SOL     OW13429   5.690   4.837   4.705
 4177SOL    HW113430   5.626   4.914   4.700
 4177SOL    HW213431   5.759   4.855   4.774
 4178SOL     OW13432   4.627   0.066   2.610
 4178SOL    HW113433   4.565   0.138   2.579
 4178SOL    HW213434   4.577   7.023   2.665
 4179SOL     OW13435   5.716   4.037   3.586
 4179SOL    HW113436   5.744   4.133   3.592
 4179SOL    HW213437   5.640   4.028   3.522
 4180SOL     OW13438   5.249   3.329   1.123
 4180SOL    HW113439   5.293   3.308   1.036
 4180SOL    HW213440   5.163   3.278   1.130
 4181SOL     OW13441   5.246   0.942   6.812
 4181SOL    HW113442   5.156   0.986   6.812
 4181SOL    HW213443   5.234   0.844   6.829
 4182SOL     OW13444   0.079   5.426   3.577
 4182SOL    HW113445   0.171   5.389   3.589
 4182SOL    HW213446   0.061   5.495   3.647
 4183SOL     OW13447   2.796   0.337   0.514
 4183SOL    HW113448   2.791   0.238   0.529
 4183SOL    HW213449   2.779   0.385   0.600
 4184SOL     OW13450   3.836   0.234   2.233
 4184SOL    HW113451   3.918   0.213   2.180
 4184SOL    HW213452   3.852   0.318   2.286
 4185SOL     OW13453   0.813   4.135   2.889
 4185SOL    HW113454   0.837   4.070   2.961
 4185SOL    HW213455   0.879   4.128   2.815
 4186SOL     OW13456   2.474   5.600   6.088
 4186SOL    HW113457   2.425   5.621   6.173
 4186SOL    HW213458   2.497   5.503   6.087
 4187SOL     OW13459   2.692   3.331   0.320
 4187SOL    HW113460   2.606   3.287   0.345
 4187SOL    HW213461   2.721   3.392   0.394
 4188SOL     OW13462   5.425   0.062   5.287
 4188SOL    HW113463   5.338   0.052   5.239
 4188SOL    HW213464   5.444   0.159   5.301
 4189SOL     OW13465   3.601   4.897   3.736
 4189SOL    HW113466   3.668   4.876   3.806
 4189SOL    HW213467   3.510   4.904   3.778
 4190SOL     OW13468   0.337   6.611   0.846
 4190SOL    HW113469   0.383   6.658   0.921
 4190SOL    HW213470   0.245   6.585   0.874
 4191SOL     OW13471   5.404   3.932   5.651
 4191SOL    HW113472   5.349   4.003   5.606
 4191SOL    HW213473   5.465   3.973   5.718
 4192SOL     OW13474   1.605   1.346   1.604
 4192SOL    HW113475   1.527   1.335   1.666
 4192SOL    HW213476   1.690   1.344   1.657
 4193SOL     OW13477   5.339   0.603   0.256
 4193SOL    HW113478   5.428   0.579   0.294
 4193SOL    HW213479   5.306   0.688   0.298
 4194SOL     OW13480   4.874   6.965   4.436
 4194SOL    HW113481   4.865   6.867   4.454
 4194SOL    HW213482   4.904   7.012   4.519
 4195SOL     OW13483   4.295   5.616   1.741
 4195SOL    HW113484   4.226   5.595   1.671
 4195SOL    HW213485   4.297   5.542   1.808
 4196SOL     OW13486   6.743   2.433   2.965
 4196SOL    HW113487   6.707   2.389   3.046
 4196SOL    HW213488   6.668   2.465   2.907
 4197SOL     OW13489   4.174   5.081   5.444
 4197SOL    HW113490   4.154   5.042   5.534
 4197SOL    HW213491   4.170   5.181   5.449
 4198SOL     OW13492   6.874   1.807   2.180
 4198SOL    HW113493   6.807   1.866   2.134
 4198SOL    HW213494   6.835   1.716   2.192
 4199SOL     OW13495   1.251   2.609   5.278
 4199SOL    HW113496   1.180   2.611   5.207
 4199SOL    HW213497   1.328   2.667   5.251
 4200SOL     OW13498   2.964   0.541   5.835
 4200SOL    HW113499   2.865   0.532   5.820
 4200SOL    HW213500   3.013   0.491   5.763
 4201SOL     OW13501   6.224   6.979   3.115
 4201SOL    HW113502   6.283   7.004   3.191
 4201SOL    HW213503   6.157   6.910   3.145
 4202SOL     OW13504   2.907   5.377   6.871
 4202SOL    HW113505   2.830   5.313   6.881
 4202SOL    HW213506   2.991   5.326   6.856
 4203SOL     OW13507   5.210   4.504   0.220
 4203SOL    HW113508   5.141   4.450   0.268
 4203SOL    HW213509   5.292   4.448   0.207
 4204SOL     OW13510   4.027   3.549   5.564
 4204SOL    HW113511   3.936   3.589   5.551
 4204SOL    HW213512   4.029   3.458   5.524
 4205SOL     OW13513   3.758   5.773   4.645
 4205SOL    HW113514   3.802   5.825   4.718
 4205SOL    HW213515   3.826   5.716   4.599
 4206SOL     OW13516   6.380   1.791   4.861
 4206SOL    HW113517   6.472   1.821   4.886
 4206SOL    HW213518   6.366   1.697   4.892
 4207SOL     OW13519   2.130   3.004   1.514
 4207SOL    HW113520   2.202   3.061   1.476
 4207SOL    HW213521   2.073   3.058   1.575
 4208SOL     OW13522   0.316   3.958   5.827
 4208SOL    HW113523   0.276   3.951   5.736
 4208SOL    HW213524   0.299   4.049   5.864
 4209SOL     OW13525   0.035   5.983   3.050
 4209SOL    HW113526   0.001   5.954   3.140
 4209SOL    HW213527   0.061   5.902   2.998
 4210SOL     OW13528   4.035   3.333   2.904
 4210SOL    HW113529   4.071   3.426   2.908
 4210SOL    HW213530   3.996   3.308   2.993
 4211SOL     OW13531   3.529   1.434   5.651
 4211SOL    HW113532   3.540   1.414   5.748
 4211SOL    HW213533   3.604   1.492   5.620
 4212SOL     OW13534   6.836   1.798   3.673
 4212SOL    HW113535   6.793   1.748   3.598
 4212SOL    HW213536   6.803   1.762   3.761
 4213SOL     OW13537   3.057   6.912   2.998
 4213SOL    HW113538   3.041   6.923   2.900
 4213SOL    HW213539   3.103   6.825   3.015
 4214SOL     OW13540   0.414   6.125   5.140
 4214SOL    HW113541   0.492   6.115   5.079
 4214SOL    HW213542   0.405   6.044   5.197
 4215SOL     OW13543   4.632   6.995   5.021
 4215SOL    HW113544   4.629   6.931   4.944
 4215SOL    HW213545   4.704   0.039   5.004
 4216SOL     OW13546   1.374   0.955   2.070
 4216SOL    HW113547   1.315   1.019   2.022
 4216SOL    HW213548   1.441   0.917   2.006
 4217SOL     OW13549   1.477   0.684   2.270
 4217SOL    HW113550   1.461   0.586   2.282
 4217SOL    HW213551   1.438   0.713   2.182
 4218SOL     OW13552   3.589   0.141   1.323
 4218SOL    HW113553   3.548   0.140   1.415
 4218SOL    HW213554   3.678   0.096   1.326
 4219SOL     OW13555   4.723   6.210   4.322
 4219SOL    HW113556   4.694   6.207   4.226
 4219SOL    HW213557   4.822   6.221   4.327
 4220SOL     OW13558   6.075   3.513   2.155
 4220SOL    HW113559   5.980   3.481   2.147
 4220SOL    HW213560   6.091   3.545   2.248
 4221SOL     OW13561   6.184   4.733   5.744
 4221SOL    HW113562   6.245   4.804   5.710
 4221SOL    HW213563   6.238   4.654   5.773
 4222SOL     OW13564   6.458   1.146   3.199
 4222SOL    HW113565   6.463   1.081   3.274
 4222SOL    HW213566   6.543   1.144   3.147
 4223SOL     OW13567   4.294   3.277   0.774
 4223SOL    HW113568   4.256   3.348   0.715
 4223SOL    HW213569   4.367   3.316   0.830
 4224SOL     OW13570   5.549   5.085   4.792
 4224SOL    HW113571   5.462   5.045   4.763
 4224SOL    HW213572   5.551   5.182   4.767
 4225SOL     OW13573   1.762   2.656   5.200
 4225SOL    HW113574   1.810   2.744   5.203
 4225SOL    HW213575   1.821   2.587   5.157
 4226SOL     OW13576   0.780   5.675   3.279
 4226SOL    HW113577   0.843   5.602   3.253
 4226SOL    HW213578   0.831   5.759   3.298
 4227SOL     OW13579   4.560   6.158   1.951
 4227SOL    HW113580   4.580   6.060   1.960
 4227SOL    HW213581   4.477   6.179   2.002
 4228SOL     OW13582   6.792   6.448   5.694
 4228SOL    HW113583   6.890   6.433   5.708
 4228SOL    HW213584   6.767   6.416   5.603
 4229SOL     OW13585   4.452   5.549   5.556
 4229SOL    HW113586   4.501   5.629   5.589
 4229SOL    HW213587   4.483   5.526   5.464
 4230SOL     OW13588   1.736   6.370   3.094
 4230SOL    HW113589   1.660   6.412   3.045
 4230SOL    HW213590   1.756   6.280   3.054
 4231SOL     OW13591   5.324   0.145   5.825
 4231SOL    HW113592   5.359   0.236   5.803
 4231SOL    HW213593   5.269   0.150   5.909
 4232SOL     OW13594   1.549   4.612   3.569
 4232SOL    HW113595   1.631   4.668   3.581
 4232SOL    HW213596   1.515   4.583   3.659
 4233SOL     OW13597   7.009   1.382   5.058
 4233SOL    HW113598   7.015   1.466   5.004
 4233SOL    HW213599   0.043   1.311   5.017
 4234SOL     OW13600   2.172   5.236   5.430
 4234SOL    HW113601   2.216   5.318   5.465
 4234SOL    HW213602   2.150   5.175   5.506
 4235SOL     OW13603   6.885   4.356   5.890
 4235SOL    HW113604   6.935   4.381   5.807
 4235SOL    HW213605   6.847   4.264   5.880
 4236SOL     OW13606   6.417   4.339   2.117
 4236SOL    HW113607   6.433   4.437   2.133
 4236SOL    HW213608   6.372   4.327   2.029
 4237SOL     OW13609   6.990   4.910   3.708
 4237SOL    HW113610   6.986   4.890   3.610
 4237SOL    HW213611   6.897   4.906   3.746
 4238SOL     OW13612   1.660   6.598   2.698
 4238SOL    HW113613   1.606   6.629   2.776
 4238SOL    HW213614   1.636   6.653   2.618
 4239SOL     OW13615   4.581   1.727   2.900
 4239SOL    HW113616   4.524   1.647   2.922
 4239SOL    HW213617   4.534   1.810   2.930
 4240SOL     OW13618   1.713   5.617   0.613
 4240SOL    HW113619   1.801   5.653   0.642
 4240SOL    HW213620   1.716   5.595   0.515
 4241SOL     OW13621   5.616   1.059   0.265
 4241SOL    HW113622   5.677   1.108   0.202
 4241SOL    HW213623   5.647   1.074   0.359
 4242SOL     OW13624   2.790   2.261   3.919
 4242SOL    HW113625   2.821   2.193   3.985
 4242SOL    HW213626   2.787   2.220   3.827
 4243SOL     OW13627   5.589   2.038   2.921
 4243SOL    HW113628   5.491   2.054   2.904
 4243SOL    HW213629   5.643   2.094   2.859
 4244SOL     OW13630   4.111   4.363   1.226
 4244SOL    HW113631   4.149   4.434   1.287
 4244SOL    HW213632   4.045   4.308   1.277
 4245SOL     OW13633   6.442   1.950   6.360
 4245SOL    HW113634   6.365   1.905   6.314
 4245SOL    HW213635   6.411   1.990   6.446
 4246SOL     OW13636   6.443   3.966   3.092
 4246SOL    HW113637   6.386   3.886   3.070
 4246SOL    HW213638   6.403   4.014   3.171
 4247SOL     OW13639   2.189   6.445   3.696
 4247SOL    HW113640   2.203   6.347   3.682
 4247SOL    HW213641   2.098   6.462   3.734
 4248SOL     OW13642   3.100   1.478   4.149
 4248SOL    HW113643   3.114   1.573   4.176
 4248SOL    HW213644   3.187   1.428   4.155
 4249SOL     OW13645   6.606   2.896   5.252
 4249SOL    HW113646   6.616   2.831   5.177
 4249SOL    HW213647   6.677   2.966   5.245
 4250SOL     OW13648   0.175   4.357   2.969
 4250SOL    HW113649   0.132   4.299   2.900
 4250SOL    HW213650   0.218   4.300   3.039
 4251SOL     OW13651   5.389   4.758   0.826
 4251SOL    HW113652   5.411   4.708   0.910
 4251SOL    HW213653   5.466   4.753   0.763
 4252SOL     OW13654   5.952   6.848   5.191
 4252SOL    HW113655   5.931   6.879   5.284
 4252SOL    HW213656   5.997   6.921   5.141
 4253SOL     OW13657   2.878   6.841   1.101
 4253SOL    HW113658   2.789   6.809   1.066
 4253SOL    HW213659   2.950   6.780   1.069
 4254SOL     OW13660   1.379   2.600   2.346
 4254SOL    HW113661   1.349   2.604   2.251
 4254SOL    HW213662   1.383   2.505   2.377
 4255SOL     OW13663   5.536   3.056   3.520
 4255SOL    HW113664   5.497   2.964   3.523
 4255SOL    HW213665   5.633   3.051   3.544
 4256SOL     OW13666   1.516   6.688   0.829
 4256SOL    HW113667   1.447   6.752   0.861
 4256SOL    HW213668   1.479   6.595   0.832
 4257SOL     OW13669   3.226   0.523   4.565
 4257SOL    HW113670   3.258   0.617   4.563
 4257SOL    HW213671   3.300   0.461   4.536
 4258SOL     OW13672   6.096   6.831   1.471
 4258SOL    HW113673   6.168   6.762   1.474
 4258SOL    HW213674   6.099   6.886   1.555
 4259SOL     OW13675   2.560   0.742   6.998
 4259SOL    HW113676   2.554   0.669   0.042
 4259SOL    HW213677   2.655   0.769   6.986
 4260SOL     OW13678   4.928   6.807   5.698
 4260SOL    HW113679   4.883   6.851   5.775
 4260SOL    HW213680   4.974   6.877   5.642
 4261SOL     OW13681   1.952   0.593   1.874
 4261SOL    HW113682   1.857   0.571   1.894
 4261SOL    HW213683   1.973   0.568   1.779
 4262SOL     OW13684   0.436   4.546   6.273
 4262SOL    HW113685   0.394   4.456   6.286
 4262SOL    HW213686   0.444   4.565   6.175
 4263SOL     OW13687   2.954   6.479   3.203
 4263SOL    HW113688   2.905   6.556   3.245
 4263SOL    HW213689   3.021   6.515   3.138
 4264SOL     OW13690   6.984   2.167   2.583
 4264SOL    HW113691   6.957   2.117   2.501
 4264SOL    HW213692   7.015   2.103   2.653
 4265SOL     OW13693   5.622   1.392   0.511
 4265SOL    HW113694   5.528   1.361   0.497
 4265SOL    HW213695   5.647   1.379   0.607
 4266SOL     OW13696   1.993   5.254   0.431
 4266SOL    HW113697   1.973   5.237   0.527
 4266SOL    HW213698   1.968   5.348   0.408
 4267SOL     OW13699   1.445   3.472   5.189
 4267SOL    HW113700   1.445   3.444   5.093
 4267SOL    HW213701   1.515   3.541   5.204
 4268SOL     OW13702   1.348   6.661   6.002
 4268SOL    HW113703   1.350   6.561   6.000
 4268SOL    HW213704   1.253   6.692   6.012
 4269SOL     OW13705   2.064   0.913   1.517
 4269SOL    HW113706   2.075   0.938   1.613
 4269SOL    HW213707   2.075   0.994   1.460
 4270SOL     OW13708   3.233   2.951   4.926
 4270SOL    HW113709   3.288   2.914   5.001
 4270SOL    HW213710   3.147   2.900   4.919
 4271SOL     OW13711   0.615   0.987   6.754
 4271SOL    HW113712   0.572   1.031   6.675
 4271SOL    HW213713   0.548   0.932   6.802
 4272SOL     OW13714   0.783   4.124   4.794
 4272SOL    HW113715   0.843   4.199   4.766
 4272SOL    HW213716   0.809   4.041   4.745
 4273SOL     OW13717   4.713   5.983   4.931
 4273SOL    HW113718   4.750   6.020   4.846
 4273SOL    HW213719   4.684   6.059   4.990
 4274SOL     OW13720   1.794   6.648   2.214
 4274SOL    HW113721   1.891   6.675   2.217
 4274SOL    HW213722   1.782   6.577   2.145
 4275SOL     OW13723   6.603   1.667   5.139
 4275SOL    HW113724   6.630   1.573   5.118
 4275SOL    HW213725   6.600   1.721   5.055
 4276SOL     OW13726   1.428   4.544   3.838
 4276SOL    HW113727   1.375   4.627   3.857
 4276SOL    HW213728   1.444   4.494   3.923
 4277SOL     OW13729   6.056   4.659   4.196
 4277SOL    HW113730   6.152   4.687   4.193
 4277SOL    HW213731   5.998   4.735   4.166
 4278SOL     OW13732   0.397   0.672   4.684
 4278SOL    HW113733   0.476   0.621   4.719
 4278SOL    HW213734   0.344   0.709   4.761
 4279SOL     OW13735   3.616   7.017   5.422
 4279SOL    HW113736   3.698   0.015   5.474
 4279SOL    HW213737   3.538   7.008   5.485
 4280SOL     OW13738   5.342   0.713   5.106
 4280SOL    HW113739   5.393   0.783   5.156
 4280SOL    HW213740   5.300   0.754   5.025
 4281SOL     OW13741   2.017   5.090   4.493
 4281SOL    HW113742   2.048   5.148   4.569
 4281SOL    HW213743   1.946   5.138   4.442
 4282SOL     OW13744   3.538   2.749   0.497
 4282SOL    HW113745   3.629   2.720   0.467
 4282SOL    HW213746   3.494   2.675   0.547
 4283SOL     OW13747   2.044   1.002   3.861
 4283SOL    HW113748   2.038   1.096   3.894
 4283SOL    HW213749   2.090   0.946   3.929
 4284SOL     OW13750   4.993   6.081   1.786
 4284SOL    HW113751   4.976   5.989   1.820
 4284SOL    HW213752   4.910   6.136   1.796
 4285SOL     OW13753   0.727   0.409   5.767
 4285SOL    HW113754   0.632   0.440   5.775
 4285SOL    HW213755   0.787   0.489   5.761
 4286SOL     OW13756   5.175   5.554   6.805
 4286SOL    HW113757   5.210   5.512   6.721
 4286SOL    HW213758   5.083   5.520   6.823
 4287SOL     OW13759   5.647   1.065   6.551
 4287SOL    HW113760   5.687   1.021   6.470
 4287SOL    HW213761   5.664   1.163   6.547
 4288SOL     OW13762   1.101   6.041   3.132
 4288SOL    HW113763   1.025   5.981   3.110
 4288SOL    HW213764   1.184   6.008   3.087
 4289SOL     OW13765   6.187   3.338   1.131
 4289SOL    HW113766   6.223   3.283   1.056
 4289SOL    HW213767   6.088   3.323   1.138
 4290SOL     OW13768   3.071   6.719   2.426
 4290SOL    HW113769   3.171   6.725   2.429
 4290SOL    HW213770   3.044   6.634   2.381
 4291SOL     OW13771   4.477   3.775   1.676
 4291SOL    HW113772   4.431   3.862   1.693
 4291SOL    HW213773   4.410   3.703   1.660
 4292SOL     OW13774   6.428   4.519   6.154
 4292SOL    HW113775   6.440   4.616   6.135
 4292SOL    HW213776   6.339   4.503   6.197
 4293SOL     OW13777   0.292   2.945   0.439
 4293SOL    HW113778   0.333   2.999   0.366
 4293SOL    HW213779   0.329   2.852   0.436
 4294SOL     OW13780   3.358   2.768   6.840
 4294SOL    HW113781   3.345   2.847   6.900
 4294SOL    HW213782   3.342   2.795   6.746
 4295SOL     OW13783   3.734   6.222   4.586
 4295SOL    HW113784   3.823   6.187   4.614
 4295SOL    HW213785   3.664   6.190   4.650
 4296SOL     OW13786   3.770   1.194   0.411
 4296SOL    HW113787   3.734   1.269   0.355
 4296SOL    HW213788   3.728   1.108   0.382
 4297SOL     OW13789   5.432   0.671   6.184
 4297SOL    HW113790   5.334   0.659   6.178
 4297SOL    HW213791   5.466   0.628   6.268
 4298SOL     OW13792   2.556   5.470   6.456
 4298SOL    HW113793   2.641   5.450   6.407
 4298SOL    HW213794   2.545   5.405   6.531
 4299SOL     OW13795   0.318   2.880   6.964
 4299SOL    HW113796   0.351   2.949   0.005
 4299SOL    HW213797   0.252   2.821   7.009
 4300SOL     OW13798   3.658   0.977   0.278
 4300SOL    HW113799   3.689   0.943   0.190
 4300SOL    HW213800   3.567   1.017   0.269
 4301SOL     OW13801   3.022   1.429   0.993
 4301SOL    HW113802   2.987   1.443   0.901
 4301SOL    HW213803   3.122   1.433   0.992
 4302SOL     OW13804   1.140   6.540   5.478
 4302SOL    HW113805   1.125   6.610   5.548
 4302SOL    HW213806   1.051   6.507   5.445
 4303SOL     OW13807   5.921   4.889   4.153
 4303SOL    HW113808   5.925   4.989   4.156
 4303SOL    HW213809   5.833   4.861   4.115
 4304SOL     OW13810   3.233   3.514   4.242
 4304SOL    HW113811   3.160   3.449   4.263
 4304SOL    HW213812   3.208   3.605   4.275
 4305SOL     OW13813   6.128   1.011   4.073
 4305SOL    HW113814   6.130   0.933   4.136
 4305SOL    HW213815   6.038   1.056   4.079
 4306SOL     OW13816   6.403   3.617   6.710
 4306SOL    HW113817   6.341   3.598   6.786
 4306SOL    HW213818   6.395   3.713   6.685
 4307SOL     OW13819   5.159   3.637   6.536
 4307SOL    HW113820   5.089   3.666   6.471
 4307SOL    HW213821   5.216   3.566   6.495
 4308SOL     OW13822   5.654   5.640   6.357
 4308SOL    HW113823   5.688   5.554   6.395
 4308SOL    HW213824   5.609   5.693   6.429
 4309SOL     OW13825   1.331   1.082   0.337
 4309SOL    HW113826   1.378   1.055   0.421
 4309SOL    HW213827   1.293   1.001   0.292
 4310SOL     OW13828   2.209   2.524   2.921
 4310SOL    HW113829   2.145   2.585   2.967
 4310SOL    HW213830   2.159   2.451   2.874
 4311SOL     OW13831   1.586   5.595   3.196
 4311SOL    HW113832   1.642   5.622   3.118
 4311SOL    HW213833   1.629   5.517   3.242
 4312SOL     OW13834   1.500   5.274   0.917
 4312SOL    HW113835   1.579   5.321   0.878
 4312SOL    HW213836   1.494   5.182   0.879
 4313SOL     OW13837   5.198   1.481   1.766
 4313SOL    HW113838   5.133   1.557   1.769
 4313SOL    HW213839   5.291   1.517   1.773
 4314SOL     OW13840   5.924   1.874   4.165
 4314SOL    HW113841   5.943   1.776   4.175
 4314SOL    HW213842   5.899   1.893   4.070
 4315SOL     OW13843   2.721   0.454   1.808
 4315SOL    HW113844   2.631   0.480   1.844
 4315SOL    HW213845   2.775   0.537   1.793
 4316SOL     OW13846   5.190   0.368   0.887
 4316SOL    HW113847   5.263   0.397   0.948
 4316SOL    HW213848   5.102   0.396   0.925
 4317SOL     OW13849   3.896   1.520   4.614
 4317SOL    HW113850   3.970   1.512   4.682
 4317SOL    HW213851   3.932   1.502   4.523
 4318SOL     OW13852   1.208   2.931   3.643
 4318SOL    HW113853   1.126   2.905   3.694
 4318SOL    HW213854   1.289   2.914   3.699
 4319SOL     OW13855   2.052   2.917   0.300
 4319SOL    HW113856   1.964   2.958   0.272
 4319SOL    HW213857   2.109   2.905   0.219
 4320SOL     OW13858   0.348   6.207   1.995
 4320SOL    HW113859   0.383   6.279   1.936
 4320SOL    HW213860   0.307   6.135   1.938
 4321SOL     OW13861   0.176   0.156   4.121
 4321SOL    HW113862   0.246   0.089   4.095
 4321SOL    HW213863   0.218   0.246   4.126
 4322SOL     OW13864   6.091   1.972   6.617
 4322SOL    HW113865   6.028   2.006   6.548
 4322SOL    HW213866   6.039   1.930   6.692
 4323SOL     OW13867   4.776   4.198   1.271
 4323SOL    HW113868   4.833   4.267   1.316
 4323SOL    HW213869   4.777   4.213   1.172
 4324SOL     OW13870   5.984   3.867   6.352
 4324SOL    HW113871   5.936   3.786   6.387
 4324SOL    HW213872   5.921   3.945   6.350
 4325SOL     OW13873   1.872   0.383   0.707
 4325SOL    HW113874   1.939   0.455   0.687
 4325SOL    HW213875   1.780   0.416   0.685
 4326SOL     OW13876   5.442   2.822   4.863
 4326SOL    HW113877   5.471   2.822   4.767
 4326SOL    HW213878   5.503   2.763   4.915
 4327SOL     OW13879   5.963   5.200   2.158
 4327SOL    HW113880   6.031   5.202   2.231
 4327SOL    HW213881   5.884   5.256   2.183
 4328SOL     OW13882   4.356   3.713   5.856
 4328SOL    HW113883   4.429   3.720   5.787
 4328SOL    HW213884   4.268   3.728   5.812
 4329SOL     OW13885   3.769   1.668   6.458
 4329SOL    HW113886   3.781   1.748   6.398
 4329SOL    HW213887   3.791   1.694   6.552
 4330SOL     OW13888   2.899   0.488   4.823
 4330SOL    HW113889   2.998   0.494   4.835
 4330SOL    HW213890   2.872   0.543   4.743
 4331SOL     OW13891   4.765   2.967   0.883
 4331SOL    HW113892   4.852   2.918   0.875
 4331SOL    HW213893   4.724   2.946   0.971
 4332SOL     OW13894   5.174   4.902   2.151
 4332SOL    HW113895   5.226   4.827   2.110
 4332SOL    HW213896   5.084   4.908   2.107
 4333SOL     OW13897   4.348   0.995   5.539
 4333SOL    HW113898   4.432   0.944   5.519
 4333SOL    HW213899   4.373   1.084   5.580
 4334SOL     OW13900   1.791   1.916   2.428
 4334SOL    HW113901   1.785   1.945   2.524
 4334SOL    HW213902   1.885   1.926   2.396
 4335SOL     OW13903   2.992   3.869   3.498
 4335SOL    HW113904   3.054   3.929   3.549
 4335SOL    HW213905   3.011   3.774   3.522
 4336SOL     OW13906   1.456   6.760   5.780
 4336SOL    HW113907   1.385   6.798   5.720
 4336SOL    HW213908   1.419   6.748   5.872
 4337SOL     OW13909   1.147   4.254   0.425
 4337SOL    HW113910   1.223   4.190   0.431
 4337SOL    HW213911   1.176   4.344   0.457
 4338SOL     OW13912   5.185   5.620   4.035
 4338SOL    HW113913   5.166   5.612   3.937
 4338SOL    HW213914   5.282   5.642   4.048
 4339SOL     OW13915   6.125   3.877   5.036
 4339SOL    HW113916   6.055   3.822   4.989
 4339SOL    HW213917   6.155   3.951   4.977
 4340SOL     OW13918   5.855   4.532   2.172
 4340SOL    HW113919   5.757   4.550   2.159
 4340SOL    HW213920   5.866   4.456   2.236
 4341SOL     OW13921   0.653   5.670   2.161
 4341SOL    HW113922   0.715   5.623   2.098
 4341SOL    HW213923   0.583   5.606   2.194
 4342SOL     OW13924   6.798   4.136   4.048
 4342SOL    HW113925   6.704   4.113   4.073
 4342SOL    HW213926   6.808   4.235   4.041
 4343SOL     OW13927   2.348   6.436   6.174
 4343SOL    HW113928   2.411   6.470   6.244
 4343SOL    HW213929   2.335   6.338   6.186
 4344SOL     OW13930   1.701   5.217   3.146
 4344SOL    HW113931   1.620   5.252   3.098
 4344SOL    HW213932   1.726   5.281   3.219
 4345SOL     OW13933   2.042   3.000   5.471
 4345SOL    HW113934   1.989   3.084   5.463
 4345SOL    HW213935   1.989   2.931   5.521
 4346SOL     OW13936   1.861   3.039   2.052
 4346SOL    HW113937   1.881   3.136   2.040
 4346SOL    HW213938   1.853   2.995   1.963
 4347SOL     OW13939   5.672   6.712   2.687
 4347SOL    HW113940   5.648   6.800   2.644
 4347SOL    HW213941   5.632   6.708   2.778
 4348SOL     OW13942   0.216   3.585   2.697
 4348SOL    HW113943   0.307   3.624   2.716
 4348SOL    HW213944   0.226   3.494   2.659
 4349SOL     OW13945   6.380   2.026   2.558
 4349SOL    HW113946   6.360   1.988   2.648
 4349SOL    HW213947   6.371   2.126   2.561
 4350SOL     OW13948   4.993   2.489   3.756
 4350SOL    HW113949   4.917   2.433   3.722
 4350SOL    HW213950   4.974   2.516   3.851
 4351SOL     OW13951   1.750   6.873   1.269
 4351SOL    HW113952   1.748   6.803   1.197
 4351SOL    HW213953   1.790   6.957   1.232
 4352SOL     OW13954   1.305   2.335   2.438
 4352SOL    HW113955   1.384   2.276   2.422
 4352SOL    HW213956   1.240   2.324   2.362
 4353SOL     OW13957   3.390   4.426   0.280
 4353SOL    HW113958   3.455   4.355   0.251
 4353SOL    HW213959   3.412   4.455   0.373
 4354SOL     OW13960   2.580   6.678   5.334
 4354SOL    HW113961   2.540   6.596   5.376
 4354SOL    HW213962   2.511   6.751   5.333
 4355SOL     OW13963   3.468   0.799   2.039
 4355SOL    HW113964   3.481   0.897   2.055
 4355SOL    HW213965   3.397   0.786   1.969
 4356SOL     OW13966   4.506   4.349   1.624
 4356SOL    HW113967   4.502   4.286   1.701
 4356SOL    HW213968   4.446   4.316   1.551
 4357SOL     OW13969   6.055   0.632   6.896
 4357SOL    HW113970   6.057   0.532   6.899
 4357SOL    HW213971   6.046   0.662   6.802
 4358SOL     OW13972   6.845   5.871   0.458
 4358SOL    HW113973   6.834   5.967   0.481
 4358SOL    HW213974   6.941   5.852   0.438
 4359SOL     OW13975   1.632   2.319   5.975
 4359SOL    HW113976   1.655   2.410   6.008
 4359SOL    HW213977   1.548   2.324   5.921
 4360SOL     OW13978   1.237   2.581   3.049
 4360SOL    HW113979   1.163   2.525   3.086
 4360SOL    HW213980   1.275   2.638   3.121
 4361SOL     OW13981   2.848   2.779   1.639
 4361SOL    HW113982   2.786   2.857   1.646
 4361SOL    HW213983   2.924   2.790   1.703
 4362SOL     OW13984   6.114   3.910   3.604
 4362SOL    HW113985   6.102   4.004   3.571
 4362SOL    HW213986   6.025   3.864   3.607
 4363SOL     OW13987   5.609   2.592   6.663
 4363SOL    HW113988   5.652   2.560   6.747
 4363SOL    HW213989   5.680   2.614   6.596
 4364SOL     OW13990   3.403   3.506   5.387
 4364SOL    HW113991   3.458   3.572   5.438
 4364SOL    HW213992   3.330   3.553   5.339
 4365SOL     OW13993   2.047   2.511   2.061
 4365SOL    HW113994   1.957   2.545   2.033
 4365SOL    HW213995   2.117   2.552   2.003
 4366SOL     OW13996   5.585   6.484   0.436
 4366SOL    HW113997   5.617   6.498   0.343
 4366SOL    HW213998   5.580   6.386   0.455
 4367SOL     OW13999   2.039   5.076   4.956
 4367SOL    HW114000   2.009   5.111   5.044
 4367SOL    HW214001   2.138   5.083   4.949
 4368SOL     OW14002   3.976   5.416   1.395
 4368SOL    HW114003   4.048   5.390   1.329
 4368SOL    HW214004   3.936   5.333   1.434
 4369SOL     OW14005   3.953   5.480   3.302
 4369SOL    HW114006   4.029   5.491   3.366
 4369SOL    HW214007   3.932   5.383   3.292
 4370SOL     OW14008   4.502   4.785   2.949
 4370SOL    HW114009   4.591   4.819   2.917
 4370SOL    HW214010   4.471   4.711   2.890
 4371SOL     OW14011   7.018   1.096   1.313
 4371SOL    HW114012   0.012   1.151   1.231
 4371SOL    HW214013   0.081   1.061   1.349
 4372SOL     OW14014   4.374   0.927   3.306
 4372SOL    HW114015   4.290   0.908   3.254
 4372SOL    HW214016   4.406   0.843   3.349
 4373SOL     OW14017   0.315   2.166   6.313
 4373SOL    HW114018   0.329   2.148   6.216
 4373SOL    HW214019   0.335   2.262   6.333
 4374SOL     OW14020   1.178   1.662   1.746
 4374SOL    HW114021   1.242   1.643   1.671
 4374SOL    HW214022   1.087   1.677   1.709
 4375SOL     OW14023   3.369   0.546   3.759
 4375SOL    HW114024   3.345   0.633   3.715
 4375SOL    HW214025   3.451   0.509   3.715
 4376SOL     OW14026   6.486   6.643   3.267
 4376SOL    HW114027   6.402   6.597   3.295
 4376SOL    HW214028   6.517   6.702   3.342
 4377SOL     OW14029   5.651   4.122   6.896
 4377SOL    HW114030   5.726   4.135   6.831
 4377SOL    HW214031   5.650   4.197   6.962
 4378SOL     OW14032   2.028   1.657   2.416
 4378SOL    HW114033   1.971   1.739   2.405
 4378SOL    HW214034   2.112   1.668   2.364
 4379SOL     OW14035   2.317   0.957   2.504
 4379SOL    HW114036   2.255   0.950   2.425
 4379SOL    HW214037   2.393   0.892   2.492
 4380SOL     OW14038   1.741   0.222   2.320
 4380SOL    HW114039   1.751   0.157   2.245
 4380SOL    HW214040   1.778   0.310   2.292
 4381SOL     OW14041   0.336   6.285   5.431
 4381SOL    HW114042   0.386   6.356   5.383
 4381SOL    HW214043   0.257   6.257   5.377
 4382SOL     OW14044   0.745   3.485   5.563
 4382SOL    HW114045   0.698   3.536   5.634
 4382SOL    HW214046   0.837   3.459   5.594
 4383SOL     OW14047   0.311   3.471   6.527
 4383SOL    HW114048   0.219   3.445   6.499
 4383SOL    HW214049   0.354   3.525   6.455
 4384SOL     OW14050   6.254   0.610   4.347
 4384SOL    HW114051   6.251   0.522   4.394
 4384SOL    HW214052   6.310   0.601   4.264
 4385SOL     OW14053   4.575   2.747   5.224
 4385SOL    HW114054   4.638   2.779   5.154
 4385SOL    HW214055   4.561   2.819   5.292
 4386SOL     OW14056   1.645   3.690   5.116
 4386SOL    HW114057   1.729   3.695   5.062
 4386SOL    HW214058   1.580   3.758   5.082
 4387SOL     OW14059   6.588   1.951   1.744
 4387SOL    HW114060   6.558   1.915   1.832
 4387SOL    HW214061   6.688   1.958   1.743
 4388SOL     OW14062   3.715   2.097   6.002
 4388SOL    HW114063   3.624   2.116   5.963
 4388SOL    HW214064   3.737   2.001   5.989
 4389SOL     OW14065   7.023   3.827   0.642
 4389SOL    HW114066   0.081   3.829   0.699
 4389SOL    HW214067   7.004   3.733   0.614
 4390SOL     OW14068   4.206   0.091   1.529
 4390SOL    HW114069   4.272   0.144   1.583
 4390SOL    HW214070   4.244   0.072   1.439
 4391SOL     OW14071   2.982   4.884   0.231
 4391SOL    HW114072   2.997   4.935   0.146
 4391SOL    HW214073   2.956   4.790   0.210
 4392SOL     OW14074   1.272   2.371   5.041
 4392SOL    HW114075   1.187   2.420   5.060
 4392SOL    HW214076   1.331   2.430   4.985
 4393SOL     OW14077   6.407   0.612   1.487
 4393SOL    HW114078   6.368   0.524   1.513
 4393SOL    HW214079   6.473   0.641   1.556
 4394SOL     OW14080   6.953   5.858   2.321
 4394SOL    HW114081   0.013   5.828   2.366
 4394SOL    HW214082   6.937   5.954   2.344
 4395SOL     OW14083   2.049   0.932   1.800
 4395SOL    HW114084   2.077   0.890   1.887
 4395SOL    HW214085   1.950   0.946   1.800
 4396SOL     OW14086   1.787   1.636   3.905
 4396SOL    HW114087   1.774   1.676   3.814
 4396SOL    HW214088   1.776   1.537   3.900
 4397SOL     OW14089   1.574   2.671   4.605
 4397SOL    HW114090   1.542   2.754   4.560
 4397SOL    HW214091   1.597   2.602   4.536
 4398SOL     OW14092   1.678   3.248   6.341
 4398SOL    HW114093   1.586   3.282   6.323
 4398SOL    HW214094   1.745   3.319   6.319
 4399SOL     OW14095   3.613   6.032   2.220
 4399SOL    HW114096   3.624   6.131   2.233
 4399SOL    HW214097   3.692   5.985   2.260
 4400SOL     OW14098   2.062   6.673   3.823
 4400SOL    HW114099   2.040   6.710   3.732
 4400SOL    HW214100   2.160   6.684   3.841
 4401SOL     OW14101   3.373   6.774   5.319
 4401SOL    HW114102   3.281   6.740   5.302
 4401SOL    HW214103   3.369   6.859   5.370
 4402SOL     OW14104   1.192   6.954   2.770
 4402SOL    HW114105   1.288   6.945   2.797
 4402SOL    HW214106   1.171   6.886   2.699
 4403SOL     OW14107   1.358   6.626   0.281
 4403SOL    HW114108   1.381   6.707   0.229
 4403SOL    HW214109   1.330   6.652   0.374
 4404SOL     OW14110   0.858   6.501   5.380
 4404SOL    HW114111   0.833   6.517   5.285
 4404SOL    HW214112   0.802   6.559   5.439
 4405SOL     OW14113   1.735   4.622   2.248
 4405SOL    HW114114   1.659   4.558   2.257
 4405SOL    HW214115   1.791   4.597   2.169
 4406SOL     OW14116   6.841   2.983   0.541
 4406SOL    HW114117   6.766   2.959   0.479
 4406SOL    HW214118   6.925   2.997   0.489
 4407SOL     OW14119   0.382   5.084   1.720
 4407SOL    HW114120   0.290   5.069   1.757
 4407SOL    HW214121   0.426   5.159   1.769
 4408SOL     OW14122   1.817   0.004   6.897
 4408SOL    HW114123   1.901   6.974   6.883
 4408SOL    HW214124   1.787   7.018   6.991
 4409SOL     OW14125   4.227   1.473   1.582
 4409SOL    HW114126   4.272   1.440   1.665
 4409SOL    HW214127   4.213   1.572   1.589
 4410SOL     OW14128   0.329   5.773   0.070
 4410SOL    HW114129   0.353   5.758   0.166
 4410SOL    HW214130   0.347   5.868   0.045
 4411SOL     OW14131   3.584   4.730   5.367
 4411SOL    HW114132   3.578   4.745   5.466
 4411SOL    HW214133   3.518   4.790   5.321
 4412SOL     OW14134   4.460   6.252   4.343
 4412SOL    HW114135   4.558   6.265   4.357
 4412SOL    HW214136   4.429   6.313   4.270
 4413SOL     OW14137   5.452   5.535   3.803
 4413SOL    HW114138   5.423   5.444   3.835
 4413SOL    HW214139   5.523   5.570   3.863
 4414SOL     OW14140   3.599   5.976   1.204
 4414SOL    HW114141   3.516   5.938   1.246
 4414SOL    HW214142   3.671   5.906   1.205
 4415SOL     OW14143   4.353   3.148   0.189
 4415SOL    HW114144   4.375   3.243   0.164
 4415SOL    HW214145   4.341   3.142   0.288
 4416SOL     OW14146   4.418   1.687   3.679
 4416SOL    HW114147   4.465   1.600   3.690
 4416SOL    HW214148   4.370   1.689   3.591
 4417SOL     OW14149   5.644   3.676   3.500
 4417SOL    HW114150   5.648   3.579   3.522
 4417SOL    HW214151   5.569   3.693   3.436
 4418SOL     OW14152   6.241   2.062   3.036
 4418SOL    HW114153   6.155   2.019   3.063
 4418SOL    HW214154   6.302   2.066   3.115
 4419SOL     OW14155   6.484   0.051   5.671
 4419SOL    HW114156   6.429   0.040   5.589
 4419SOL    HW214157   6.544   6.995   5.683
 4420SOL     OW14158   3.905   1.652   1.391
 4420SOL    HW114159   3.908   1.567   1.443
 4420SOL    HW214160   3.882   1.728   1.452
 4421SOL     OW14161   2.092   1.715   5.309
 4421SOL    HW114162   2.009   1.702   5.254
 4421SOL    HW214163   2.157   1.641   5.288
 4422SOL     OW14164   1.299   4.535   6.926
 4422SOL    HW114165   1.232   4.596   6.968
 4422SOL    HW214166   1.320   4.566   6.834
 4423SOL     OW14167   0.210   4.173   5.985
 4423SOL    HW114168   0.232   4.168   6.082
 4423SOL    HW214169   0.238   4.262   5.948
 4424SOL     OW14170   5.327   6.493   4.466
 4424SOL    HW114171   5.375   6.420   4.514
 4424SOL    HW214172   5.393   6.553   4.422
 4425SOL     OW14173   1.588   4.978   0.617
 4425SOL    HW114174   1.584   5.058   0.557
 4425SOL    HW214175   1.664   4.919   0.588
 4426SOL     OW14176   0.679   1.583   4.307
 4426SOL    HW114177   0.742   1.566   4.231
 4426SOL    HW214178   0.636   1.672   4.296
 4427SOL     OW14179   5.143   6.327   2.799
 4427SOL    HW114180   5.209   6.376   2.856
 4427SOL    HW214181   5.060   6.309   2.852
 4428SOL     OW14182   4.421   0.502   4.367
 4428SOL    HW114183   4.357   0.579   4.372
 4428SOL    HW214184   4.469   0.493   4.454
 4429SOL     OW14185   2.667   6.689   2.559
 4429SOL    HW114186   2.649   6.758   2.629
 4429SOL    HW214187   2.581   6.646   2.531
 4430SOL     OW14188   4.854   4.662   5.019
 4430SOL    HW114189   4.780   4.612   4.975
 4430SOL    HW214190   4.925   4.684   4.952
 4431SOL     OW14191   2.958   0.895   3.342
 4431SOL    HW114192   3.017   0.885   3.262
 4431SOL    HW214193   2.904   0.979   3.332
 4432SOL     OW14194   2.479   3.619   6.566
 4432SOL    HW114195   2.448   3.646   6.475
 4432SOL    HW214196   2.579   3.627   6.571
 4433SOL     OW14197   0.096   2.786   4.233
 4433SOL    HW114198   0.195   2.782   4.249
 4433SOL    HW214199   0.064   2.698   4.199
 4434SOL     OW14200   5.218   1.539   3.166
 4434SOL    HW114201   5.244   1.534   3.069
 4434SOL    HW214202   5.248   1.626   3.204
 4435SOL     OW14203   4.349   3.603   1.228
 4435SOL    HW114204   4.266   3.588   1.281
 4435SOL    HW214205   4.419   3.538   1.258
 4436SOL     OW14206   4.233   1.167   1.339
 4436SOL    HW114207   4.285   1.252   1.330
 4436SOL    HW214208   4.136   1.189   1.354
 4437SOL     OW14209   1.029   3.027   2.880
 4437SOL    HW114210   1.027   3.076   2.967
 4437SOL    HW214211   0.966   2.950   2.884
 4438SOL     OW14212   4.677   6.718   5.933
 4438SOL    HW114213   4.691   6.815   5.915
 4438SOL    HW214214   4.707   6.697   6.026
 4439SOL     OW14215   0.456   5.063   2.406
 4439SOL    HW114216   0.520   5.048   2.331
 4439SOL    HW214217   0.473   4.996   2.479
 4440SOL     OW14218   2.623   5.393   0.666
 4440SOL    HW114219   2.708   5.369   0.712
 4440SOL    HW214220   2.641   5.467   0.601
 4441SOL     OW14221   6.901   1.332   0.931
 4441SOL    HW114222   6.847   1.249   0.936
 4441SOL    HW214223   6.978   1.326   0.995
 4442SOL     OW14224   1.505   5.668   4.836
 4442SOL    HW114225   1.567   5.640   4.764
 4442SOL    HW214226   1.544   5.645   4.925
 4443SOL     OW14227   0.838   3.720   6.028
 4443SOL    HW114228   0.840   3.626   6.063
 4443SOL    HW214229   0.920   3.769   6.058
 4444SOL     OW14230   4.429   3.393   0.109
 4444SOL    HW114231   4.489   3.366   0.034
 4444SOL    HW214232   4.372   3.470   0.079
 4445SOL     OW14233   1.514   6.236   0.076
 4445SOL    HW114234   1.435   6.212   0.132
 4445SOL    HW214235   1.552   6.153   0.035
 4446SOL     OW14236   5.896   1.944   0.154
 4446SOL    HW114237   5.928   1.876   0.220
 4446SOL    HW214238   5.845   1.898   0.081
 4447SOL     OW14239   5.995   4.026   4.734
 4447SOL    HW114240   6.036   4.001   4.646
 4447SOL    HW214241   5.994   3.946   4.794
 4448SOL     OW14242   2.920   6.209   0.810
 4448SOL    HW114243   2.896   6.239   0.718
 4448SOL    HW214244   3.020   6.205   0.818
 4449SOL     OW14245   5.110   0.705   5.832
 4449SOL    HW114246   5.116   0.778   5.764
 4449SOL    HW214247   5.038   0.641   5.805
 4450SOL     OW14248   2.956   1.774   0.014
 4450SOL    HW114249   2.924   1.824   6.958
 4450SOL    HW214250   3.021   1.831   0.065
 4451SOL     OW14251   4.438   5.009   4.882
 4451SOL    HW114252   4.505   4.973   4.817
 4451SOL    HW214253   4.477   5.008   4.974
 4452SOL     OW14254   6.151   5.316   4.449
 4452SOL    HW114255   6.182   5.230   4.408
 4452SOL    HW214256   6.213   5.390   4.423
 4453SOL     OW14257   1.013   2.672   2.027
 4453SOL    HW114258   1.010   2.698   2.124
 4453SOL    HW214259   1.108   2.652   2.001
 4454SOL     OW14260   1.328   1.525   7.022
 4454SOL    HW114261   1.423   1.555   7.022
 4454SOL    HW214262   1.320   1.443   0.056
 4455SOL     OW14263   5.421   6.070   5.466
 4455SOL    HW114264   5.325   6.041   5.469
 4455SOL    HW214265   5.467   6.041   5.550
 4456SOL     OW14266   2.537   5.720   2.774
 4456SOL    HW114267   2.594   5.713   2.856
 4456SOL    HW214268   2.579   5.784   2.709
 4457SOL     OW14269   2.698   1.710   4.063
 4457SOL    HW114270   2.728   1.692   4.157
 4457SOL    HW214271   2.765   1.769   4.017
 4458SOL     OW14272   2.589   3.805   1.600
 4458SOL    HW114273   2.497   3.766   1.609
 4458SOL    HW214274   2.650   3.737   1.561
 4459SOL     OW14275   3.704   1.888   4.319
 4459SOL    HW114276   3.721   1.932   4.231
 4459SOL    HW214277   3.672   1.956   4.386
 4460SOL     OW14278   1.139   2.821   6.539
 4460SOL    HW114279   1.193   2.823   6.455
 4460SOL    HW214280   1.138   2.912   6.581
 4461SOL     OW14281   1.870   0.688   0.854
 4461SOL    HW114282   1.907   0.737   0.933
 4461SOL    HW214283   1.941   0.628   0.817
 4462SOL     OW14284   5.727   4.356   1.657
 4462SOL    HW114285   5.703   4.273   1.708
 4462SOL    HW214286   5.751   4.331   1.563
 4463SOL     OW14287   4.991   1.059   1.222
 4463SOL    HW114288   5.015   1.070   1.318
 4463SOL    HW214289   5.051   1.115   1.165
 4464SOL     OW14290   0.019   6.507   0.442
 4464SOL    HW114291   7.016   6.543   0.353
 4464SOL    HW214292   0.108   6.545   0.468
 4465SOL     OW14293   2.427   5.083   0.311
 4465SOL    HW114294   2.375   5.166   0.291
 4465SOL    HW214295   2.509   5.108   0.363
 4466SOL     OW14296   1.001   1.662   2.602
 4466SOL    HW114297   1.021   1.698   2.510
 4466SOL    HW214298   1.087   1.653   2.653
 4467SOL     OW14299   2.353   5.233   3.650
 4467SOL    HW114300   2.354   5.135   3.671
 4467SOL    HW214301   2.334   5.247   3.553
 4468SOL     OW14302   1.395   4.446   1.245
 4468SOL    HW114303   1.320   4.382   1.259
 4468SOL    HW214304   1.360   4.531   1.206
 4469SOL     OW14305   3.234   0.840   0.963
 4469SOL    HW114306   3.242   0.789   0.877
 4469SOL    HW214307   3.271   0.784   1.037
 4470SOL     OW14308   0.953   1.713   2.116
 4470SOL    HW114309   1.013   1.665   2.052
 4470SOL    HW214310   0.886   1.649   2.154
 4471SOL     OW14311   1.613   2.552   6.722
 4471SOL    HW114312   1.516   2.569   6.711
 4471SOL    HW214313   1.634   2.458   6.693
 4472SOL     OW14314   0.835   1.930   0.981
 4472SOL    HW114315   0.828   2.005   0.914
 4472SOL    HW214316   0.779   1.853   0.950
 4473SOL     OW14317   5.604   2.586   4.081
 4473SOL    HW114318   5.624   2.560   4.176
 4473SOL    HW214319   5.573   2.681   4.079
 4474SOL     OW14320   3.211   6.624   1.907
 4474SOL    HW114321   3.231   6.712   1.865
 4474SOL    HW214322   3.239   6.550   1.845
 4475SOL     OW14323   1.292   3.770   1.593
 4475SOL    HW114324   1.268   3.762   1.689
 4475SOL    HW214325   1.209   3.777   1.538
 4476SOL     OW14326   6.423   0.603   4.134
 4476SOL    HW114327   6.458   0.684   4.087
 4476SOL    HW214328   6.498   0.556   4.180
 4477SOL     OW14329   1.666   0.529   5.482
 4477SOL    HW114330   1.713   0.440   5.486
 4477SOL    HW214331   1.615   0.544   5.566
 4478SOL     OW14332   2.258   0.112   2.159
 4478SOL    HW114333   2.281   0.015   2.165
 4478SOL    HW214334   2.172   0.130   2.207
 4479SOL     OW14335   1.232   1.920   1.237
 4479SOL    HW114336   1.276   2.009   1.228
 4479SOL    HW214337   1.281   1.865   1.304
 4480SOL     OW14338   0.580   4.566   4.926
 4480SOL    HW114339   0.652   4.589   4.860
 4480SOL    HW214340   0.501   4.626   4.913
 4481SOL     OW14341   2.514   5.212   5.092
 4481SOL    HW114342   2.524   5.287   5.157
 4481SOL    HW214343   2.511   5.249   4.999
 4482SOL     OW14344   2.119   2.637   5.617
 4482SOL    HW114345   2.134   2.730   5.582
 4482SOL    HW214346   2.022   2.615   5.611
 4483SOL     OW14347   0.147   2.568   1.993
 4483SOL    HW114348   0.106   2.522   1.914
 4483SOL    HW214349   0.206   2.642   1.962
 4484SOL     OW14350   2.437   2.331   0.132
 4484SOL    HW114351   2.471   2.276   0.208
 4484SOL    HW214352   2.352   2.376   0.159
 4485SOL     OW14353   4.995   2.638   5.180
 4485SOL    HW114354   4.917   2.698   5.164
 4485SOL    HW214355   4.995   2.564   5.113
 4486SOL     OW14356   6.269   5.258   4.977
 4486SOL    HW114357   6.296   5.351   4.954
 4486SOL    HW214358   6.173   5.257   5.005
 4487SOL     OW14359   2.940   3.171   0.468
 4487SOL    HW114360   2.903   3.263   0.478
 4487SOL    HW214361   2.912   3.132   0.381
 4488SOL     OW14362   0.947   3.618   4.711
 4488SOL    HW114363   1.011   3.621   4.635
 4488SOL    HW214364   0.853   3.610   4.676
 4489SOL     OW14365   4.679   5.489   4.921
 4489SOL    HW114366   4.630   5.575   4.937
 4489SOL    HW214367   4.652   5.422   4.990
 4490SOL     OW14368   5.460   1.566   1.840
 4490SOL    HW114369   5.538   1.562   1.902
 4490SOL    HW214370   5.473   1.641   1.774
 4491SOL     OW14371   0.444   3.473   3.468
 4491SOL    HW114372   0.457   3.374   3.454
 4491SOL    HW214373   0.502   3.504   3.543
 4492SOL     OW14374   6.111   3.344   1.469
 4492SOL    HW114375   6.180   3.285   1.428
 4492SOL    HW214376   6.145   3.378   1.557
 4493SOL     OW14377   4.887   6.439   5.106
 4493SOL    HW114378   4.875   6.459   5.204
 4493SOL    HW214379   4.847   6.513   5.052
 4494SOL     OW14380   1.167   0.815   6.007
 4494SOL    HW114381   1.193   0.871   6.086
 4494SOL    HW214382   1.208   0.853   5.924
 4495SOL     OW14383   4.569   6.938   3.160
 4495SOL    HW114384   4.638   6.881   3.204
 4495SOL    HW214385   4.489   6.882   3.138
 4496SOL     OW14386   5.426   6.255   0.763
 4496SOL    HW114387   5.334   6.280   0.731
 4496SOL    HW214388   5.425   6.161   0.798
 4497SOL     OW14389   4.305   2.451   6.311
 4497SOL    HW114390   4.247   2.370   6.319
 4497SOL    HW214391   4.372   2.437   6.238
 4498SOL     OW14392   6.752   4.632   6.364
 4498SOL    HW114393   6.726   4.536   6.372
 4498SOL    HW214394   6.783   4.666   6.453
 4499SOL     OW14395   6.485   2.670   3.637
 4499SOL    HW114396   6.423   2.700   3.710
 4499SOL    HW214397   6.579   2.690   3.663
 4500SOL     OW14398   4.095   4.022   6.614
 4500SOL    HW114399   4.102   4.105   6.669
 4500SOL    HW214400   3.999   4.005   6.590
 4501SOL     OW14401   6.537   3.032   2.967
 4501SOL    HW114402   6.602   3.093   3.012
 4501SOL    HW214403   6.587   2.956   2.925
 4502SOL     OW14404   1.490   3.740   0.130
 4502SOL    HW114405   1.526   3.759   0.039
 4502SOL    HW214406   1.491   3.823   0.185
 4503SOL     OW14407   3.292   0.048   2.056
 4503SOL    HW114408   3.361   0.114   2.026
 4503SOL    HW214409   3.335   7.000   2.110
 4504SOL     OW14410   6.238   2.064   4.537
 4504SOL    HW114411   6.192   2.055   4.626
 4504SOL    HW214412   6.337   2.060   4.550
 4505SOL     OW14413   6.626   4.615   1.652
 4505SOL    HW114414   6.664   4.523   1.645
 4505SOL    HW214415   6.580   4.638   1.566
 4506SOL     OW14416   5.313   2.441   3.372
 4506SOL    HW114417   5.221   2.473   3.351
 4506SOL    HW214418   5.314   2.342   3.378
 4507SOL     OW14419   0.208   3.181   3.687
 4507SOL    HW114420   0.282   3.240   3.718
 4507SOL    HW214421   0.160   3.143   3.766
 4508SOL     OW14422   1.279   4.688   0.255
 4508SOL    HW114423   1.228   4.657   0.335
 4508SOL    HW214424   1.328   4.772   0.276
 4509SOL     OW14425   4.954   1.836   3.198
 4509SOL    HW114426   4.956   1.793   3.107
 4509SOL    HW214427   4.872   1.807   3.246
 4510SOL     OW14428   4.871   1.067   4.831
 4510SOL    HW114429   4.909   1.122   4.756
 4510SOL    HW214430   4.794   1.117   4.872
 4511SOL     OW14431   6.138   3.580   0.340
 4511SOL    HW114432   6.127   3.481   0.354
 4511SOL    HW214433   6.130   3.626   0.428
 4512SOL     OW14434   3.443   1.617   6.381
 4512SOL    HW114435   3.428   1.533   6.330
 4512SOL    HW214436   3.536   1.650   6.364
 4513SOL     OW14437   1.038   5.826   6.341
 4513SOL    HW114438   0.965   5.768   6.374
 4513SOL    HW214439   1.008   5.922   6.341
 4514SOL     OW14440   3.609   2.595   6.018
 4514SOL    HW114441   3.621   2.690   6.046
 4514SOL    HW214442   3.544   2.550   6.079
 4515SOL     OW14443   5.566   1.892   5.535
 4515SOL    HW114444   5.620   1.909   5.617
 4515SOL    HW214445   5.483   1.841   5.559
 4516SOL     OW14446   2.534   0.089   5.879
 4516SOL    HW114447   2.440   0.056   5.867
 4516SOL    HW214448   2.572   0.113   5.790
 4517SOL     OW14449   4.743   0.029   6.543
 4517SOL    HW114450   4.660   7.016   6.501
 4517SOL    HW214451   4.801   0.068   6.471
 4518SOL     OW14452   0.835   6.799   1.669
 4518SOL    HW114453   0.893   6.751   1.735
 4518SOL    HW214454   0.762   6.846   1.718
 4519SOL     OW14455   4.885   6.690   0.044
 4519SOL    HW114456   4.848   6.605   0.008
 4519SOL    HW214457   4.812   6.758   0.049
 4520SOL     OW14458   3.926   5.643   6.140
 4520SOL    HW114459   3.830   5.616   6.130
 4520SOL    HW214460   3.938   5.738   6.111
 4521SOL     OW14461   4.833   2.089   4.509
 4521SOL    HW114462   4.926   2.050   4.506
 4521SOL    HW214463   4.828   2.156   4.583
 4522SOL     OW14464   5.857   4.334   2.348
 4522SOL    HW114465   5.804   4.368   2.426
 4522SOL    HW214466   5.929   4.272   2.381
 4523SOL     OW14467   1.681   4.030   6.841
 4523SOL    HW114468   1.679   3.936   6.877
 4523SOL    HW214469   1.596   4.077   6.867
 4524SOL     OW14470   6.083   3.284   2.611
 4524SOL    HW114471   6.130   3.233   2.539
 4524SOL    HW214472   6.038   3.363   2.571
 4525SOL     OW14473   3.093   2.079   6.074
 4525SOL    HW114474   3.145   2.084   6.159
 4525SOL    HW214475   3.140   2.018   6.010
 4526SOL     OW14476   6.763   0.332   6.867
 4526SOL    HW114477   6.805   0.305   6.780
 4526SOL    HW214478   6.827   0.312   6.942
 4527SOL     OW14479   6.565   6.615   2.999
 4527SOL    HW114480   6.543   6.695   2.943
 4527SOL    HW214481   6.524   6.626   3.090
 4528SOL     OW14482   4.282   0.677   6.678
 4528SOL    HW114483   4.286   0.584   6.715
 4528SOL    HW214484   4.204   0.726   6.718
 4529SOL     OW14485   2.897   1.260   5.959
 4529SOL    HW114486   2.934   1.260   5.866
 4529SOL    HW214487   2.819   1.197   5.963
 4530SOL     OW14488   2.283   5.790   3.452
 4530SOL    HW114489   2.365   5.847   3.450
 4530SOL    HW214490   2.213   5.835   3.508
 4531SOL     OW14491   1.197   3.800   6.318
 4531SOL    HW114492   1.257   3.879   6.308
 4531SOL    HW214493   1.227   3.727   6.256
 4532SOL     OW14494   5.759   0.357   2.724
 4532SOL    HW114495   5.693   0.323   2.791
 4532SOL    HW214496   5.851   0.354   2.763
 4533SOL     OW14497   1.808   1.369   2.812
 4533SOL    HW114498   1.858   1.405   2.733
 4533SOL    HW214499   1.753   1.291   2.785
 4534SOL     OW14500   4.578   2.301   5.215
 4534SOL    HW114501   4.633   2.243   5.155
 4534SOL    HW214502   4.537   2.375   5.162
 4535SOL     OW14503   3.906   1.254   1.331
 4535SOL    HW114504   3.911   1.300   1.420
 4535SOL    HW214505   3.899   1.323   1.259
 4536SOL     OW14506   3.132   1.578   4.723
 4536SOL    HW114507   3.131   1.531   4.635
 4536SOL    HW214508   3.058   1.543   4.781
 4537SOL     OW14509   4.154   3.485   2.268
 4537SOL    HW114510   4.174   3.503   2.171
 4537SOL    HW214511   4.234   3.508   2.323
 4538SOL     OW14512   2.758   0.897   2.716
 4538SOL    HW114513   2.806   0.840   2.650
 4538SOL    HW214514   2.812   0.904   2.800
 4539SOL     OW14515   2.310   6.199   4.602
 4539SOL    HW114516   2.284   6.236   4.691
 4539SOL    HW214517   2.237   6.216   4.536
 4540SOL     OW14518   2.446   1.241   0.600
 4540SOL    HW114519   2.497   1.156   0.592
 4540SOL    HW214520   2.502   1.309   0.648
 4541SOL     OW14521   5.406   1.032   7.013
 4541SOL    HW114522   5.330   0.989   6.965
 4541SOL    HW214523   5.450   0.964   0.048
 4542SOL     OW14524   6.966   1.637   1.630
 4542SOL    HW114525   6.944   1.680   1.542
 4542SOL    HW214526   6.886   1.588   1.664
 4543SOL     OW14527   5.019   2.127   0.803
 4543SOL    HW114528   5.052   2.131   0.709
 4543SOL    HW214529   4.927   2.089   0.804
 4544SOL     OW14530   4.028   5.132   0.481
 4544SOL    HW114531   4.092   5.135   0.558
 4544SOL    HW214532   3.934   5.136   0.516
 4545SOL     OW14533   0.460   3.763   5.334
 4545SOL    HW114534   0.464   3.720   5.244
 4545SOL    HW214535   0.547   3.750   5.381
 4546SOL     OW14536   2.656   0.357   4.918
 4546SOL    HW114537   2.750   0.382   4.896
 4546SOL    HW214538   2.645   0.258   4.909
 4547SOL     OW14539   6.399   1.184   0.292
 4547SOL    HW114540   6.310   1.150   0.321
 4547SOL    HW214541   6.393   1.220   0.199
 4548SOL     OW14542   2.593   2.385   3.375
 4548SOL    HW114543   2.605   2.386   3.474
 4548SOL    HW214544   2.550   2.470   3.345
 4549SOL     OW14545   5.034   3.968   2.225
 4549SOL    HW114546   4.974   3.948   2.302
 4549SOL    HW214547   5.059   3.883   2.179
 4550SOL     OW14548   1.273   4.292   3.572
 4550SOL    HW114549   1.220   4.305   3.488
 4550SOL    HW214550   1.370   4.304   3.551
 4551SOL     OW14551   0.968   4.068   5.019
 4551SOL    HW114552   0.950   4.133   4.945
 4551SOL    HW214553   0.893   4.001   5.024
 4552SOL     OW14554   5.657   2.495   0.828
 4552SOL    HW114555   5.668   2.452   0.918
 4552SOL    HW214556   5.743   2.537   0.800
 4553SOL     OW14557   5.370   4.856   6.546
 4553SOL    HW114558   5.381   4.856   6.447
 4553SOL    HW214559   5.402   4.768   6.582
 4554SOL     OW14560   0.490   0.187   1.851
 4554SOL    HW114561   0.446   0.109   1.895
 4554SOL    HW214562   0.453   0.198   1.758
 4555SOL     OW14563   1.793   1.188   6.468
 4555SOL    HW114564   1.727   1.177   6.542
 4555SOL    HW214565   1.818   1.284   6.460
 4556SOL     OW14566   6.132   3.067   5.125
 4556SOL    HW114567   6.104   3.028   5.037
 4556SOL    HW214568   6.060   3.129   5.158
 4557SOL     OW14569   6.075   4.902   4.432
 4557SOL    HW114570   5.995   4.916   4.372
 4557SOL    HW214571   6.049   4.921   4.526
 4558SOL     OW14572   6.637   3.367   4.798
 4558SOL    HW114573   6.657   3.278   4.838
 4558SOL    HW214574   6.721   3.404   4.756
 4559SOL     OW14575   7.001   3.626   2.898
 4559SOL    HW114576   6.952   3.609   2.813
 4559SOL    HW214577   0.042   3.701   2.885
 4560SOL     OW14578   6.149   4.479   2.464
 4560SOL    HW114579   6.097   4.417   2.406
 4560SOL    HW214580   6.095   4.561   2.483
 4561SOL     OW14581   3.716   1.443   3.770
 4561SOL    HW114582   3.753   1.474   3.858
 4561SOL    HW214583   3.730   1.514   3.701
 4562SOL     OW14584   1.470   0.386   0.403
 4562SOL    HW114585   1.534   0.340   0.342
 4562SOL    HW214586   1.385   0.406   0.353
 4563SOL     OW14587   6.623   3.689   0.692
 4563SOL    HW114588   6.600   3.785   0.677
 4563SOL    HW214589   6.691   3.661   0.625
 4564SOL     OW14590   0.023   5.455   2.321
 4564SOL    HW114591   0.049   5.398   2.243
 4564SOL    HW214592   6.962   5.504   2.300
 4565SOL     OW14593   1.463   1.196   4.636
 4565SOL    HW114594   1.487   1.182   4.539
 4565SOL    HW214595   1.399   1.273   4.644
 4566SOL     OW14596   0.436   3.586   1.113
 4566SOL    HW114597   0.522   3.535   1.113
 4566SOL    HW214598   0.387   3.569   1.028
 4567SOL     OW14599   6.854   0.890   6.563
 4567SOL    HW114600   6.928   0.876   6.628
 4567SOL    HW214601   6.834   0.804   6.516
 4568SOL     OW14602   1.173   3.963   5.192
 4568SOL    HW114603   1.097   3.999   5.138
 4568SOL    HW214604   1.259   3.991   5.149
 4569SOL     OW14605   3.230   0.579   3.017
 4569SOL    HW114606   3.201   0.523   3.094
 4569SOL    HW214607   3.163   0.571   2.943
 4570SOL     OW14608   6.213   6.366   2.092
 4570SOL    HW114609   6.270   6.320   2.159
 4570SOL    HW214610   6.251   6.353   2.001
 4571SOL     OW14611   4.407   2.878   6.488
 4571SOL    HW114612   4.480   2.842   6.430
 4571SOL    HW214613   4.437   2.961   6.533
 4572SOL     OW14614   2.032   1.195   6.716
 4572SOL    HW114615   1.967   1.266   6.741
 4572SOL    HW214616   1.982   1.113   6.688
 4573SOL     OW14617   0.372   6.942   0.226
 4573SOL    HW114618   0.321   6.858   0.244
 4573SOL    HW214619   0.412   6.937   0.134
 4574SOL     OW14620   5.675   4.355   0.006
 4574SOL    HW114621   5.603   4.418   0.035
 4574SOL    HW214622   5.754   4.364   0.067
 4575SOL     OW14623   5.921   0.495   4.879
 4575SOL    HW114624   5.886   0.513   4.787
 4575SOL    HW214625   5.925   0.581   4.930
 4576SOL     OW14626   2.355   4.556   5.374
 4576SOL    HW114627   2.431   4.561   5.310
 4576SOL    HW214628   2.292   4.484   5.345
 4577SOL     OW14629   2.044   2.673   3.076
 4577SOL    HW114630   2.108   2.732   3.126
 4577SOL    HW214631   1.972   2.729   3.036
 4578SOL     OW14632   0.995   1.349   4.343
 4578SOL    HW114633   0.954   1.382   4.428
 4578SOL    HW214634   0.964   1.406   4.266
 4579SOL     OW14635   4.351   1.154   2.011
 4579SOL    HW114636   4.305   1.136   2.099
 4579SOL    HW214637   4.406   1.075   1.986
 4580SOL     OW14638   5.477   3.979   1.001
 4580SOL    HW114639   5.456   3.949   1.094
 4580SOL    HW214640   5.444   4.072   0.988
 4581SOL     OW14641   2.521   6.309   2.596
 4581SOL    HW114642   2.620   6.321   2.599
 4581SOL    HW214643   2.488   6.325   2.503
 4582SOL     OW14644   4.955   1.211   3.452
 4582SOL    HW114645   4.969   1.283   3.383
 4582SOL    HW214646   4.858   1.196   3.465
 4583SOL     OW14647   2.884   1.227   6.735
 4583SOL    HW114648   2.965   1.190   6.780
 4583SOL    HW214649   2.912   1.295   6.668
 4584SOL     OW14650   1.813   6.152   5.446
 4584SOL    HW114651   1.862   6.119   5.527
 4584SOL    HW214652   1.873   6.213   5.394
 4585SOL     OW14653   1.920   4.193   3.283
 4585SOL    HW114654   1.849   4.186   3.353
 4585SOL    HW214655   1.879   4.224   3.197
 4586SOL     OW14656   4.884   3.861   0.063
 4586SOL    HW114657   4.936   3.807   0.129
 4586SOL    HW214658   4.813   3.804   0.022
 4587SOL     OW14659   3.773   3.608   4.255
 4587SOL    HW114660   3.873   3.603   4.262
 4587SOL    HW214661   3.748   3.672   4.182
 4588SOL     OW14662   3.319   3.151   5.871
 4588SOL    HW114663   3.235   3.097   5.867
 4588SOL    HW214664   3.379   3.125   5.795
 4589SOL     OW14665   5.451   6.885   1.876
 4589SOL    HW114666   5.414   6.800   1.840
 4589SOL    HW214667   5.464   6.877   1.975
 4590SOL     OW14668   3.897   5.643   1.804
 4590SOL    HW114669   3.809   5.596   1.815
 4590SOL    HW214670   3.910   5.667   1.708
 4591SOL     OW14671   1.702   0.702   5.273
 4591SOL    HW114672   1.697   0.647   5.356
 4591SOL    HW214673   1.728   0.644   5.196
 4592SOL     OW14674   3.347   1.193   3.502
 4592SOL    HW114675   3.250   1.179   3.518
 4592SOL    HW214676   3.376   1.281   3.539
 4593SOL     OW14677   5.973   6.112   1.898
 4593SOL    HW114678   5.918   6.030   1.884
 4593SOL    HW214679   6.056   6.107   1.843
 4594SOL     OW14680   3.804   0.569   3.077
 4594SOL    HW114681   3.793   0.608   2.985
 4594SOL    HW214682   3.741   0.615   3.140
 4595SOL     OW14683   4.793   2.973   5.552
 4595SOL    HW114684   4.710   2.935   5.591
 4595SOL    HW214685   4.771   3.049   5.491
 4596SOL     OW14686   6.380   0.555   2.813
 4596SOL    HW114687   6.291   0.564   2.769
 4596SOL    HW214688   6.447   0.613   2.767
 4597SOL     OW14689   2.629   5.729   6.543
 4597SOL    HW114690   2.605   5.640   6.502
 4597SOL    HW214691   2.632   5.799   6.472
 4598SOL     OW14692   1.726   5.570   1.364
 4598SOL    HW114693   1.656   5.626   1.318
 4598SOL    HW214694   1.742   5.605   1.456
 4599SOL     OW14695   1.557   4.615   1.464
 4599SOL    HW114696   1.647   4.632   1.505
 4599SOL    HW214697   1.548   4.518   1.444
 4600SOL     OW14698   0.431   7.007   5.356
 4600SOL    HW114699   0.345   6.963   5.382
 4600SOL    HW214700   0.439   7.010   5.257
 4601SOL     OW14701   0.845   1.774   5.284
 4601SOL    HW114702   0.752   1.768   5.321
 4601SOL    HW214703   0.904   1.708   5.330
 4602SOL     OW14704   3.155   6.857   6.722
 4602SOL    HW114705   3.126   6.937   6.774
 4602SOL    HW214706   3.089   6.838   6.649
 4603SOL     OW14707   3.229   5.771   0.772
 4603SOL    HW114708   3.270   5.838   0.835
 4603SOL    HW214709   3.235   5.806   0.679
 4604SOL     OW14710   5.090   7.020   6.203
 4604SOL    HW114711   5.102   6.920   6.207
 4604SOL    HW214712   5.012   0.022   6.260
 4605SOL     OW14713   2.634   0.167   1.822
 4605SOL    HW114714   2.666   0.104   1.751
 4605SOL    HW214715   2.687   0.252   1.817
 4606SOL     OW14716   6.421   0.219   2.571
 4606SOL    HW114717   6.457   0.237   2.663
 4606SOL    HW214718   6.442   0.125   2.545
 4607SOL     OW14719   2.106   3.790   2.824
 4607SOL    HW114720   2.128   3.812   2.920
 4607SOL    HW214721   2.119   3.872   2.768
 4608SOL     OW14722   0.005   3.976   3.407
 4608SOL    HW114723   0.051   3.923   3.336
 4608SOL    HW214724   7.019   3.921   3.490
 4609SOL     OW14725   4.990   5.041   0.329
 4609SOL    HW114726   4.975   5.013   0.423
 4609SOL    HW214727   5.083   5.074   0.318
 4610SOL     OW14728   4.661   1.832   6.916
 4610SOL    HW114729   4.685   1.852   6.821
 4610SOL    HW214730   4.711   1.894   6.977
 4611SOL     OW14731   0.669   0.677   5.946
 4611SOL    HW114732   0.617   0.623   6.011
 4611SOL    HW214733   0.607   0.718   5.879
 4612SOL     OW14734   2.966   6.974   1.831
 4612SOL    HW114735   2.987   0.047   1.845
 4612SOL    HW214736   2.975   6.925   1.917
 4613SOL     OW14737   1.411   5.643   2.778
 4613SOL    HW114738   1.508   5.619   2.778
 4613SOL    HW214739   1.400   5.740   2.757
 4614SOL     OW14740   6.118   3.236   3.824
 4614SOL    HW114741   6.153   3.324   3.857
 4614SOL    HW214742   6.114   3.238   3.724
 4615SOL     OW14743   1.334   0.592   1.229
 4615SOL    HW114744   1.279   0.512   1.204
 4615SOL    HW214745   1.414   0.597   1.169
 4616SOL     OW14746   5.752   2.090   4.274
 4616SOL    HW114747   5.741   2.136   4.186
 4616SOL    HW214748   5.818   2.016   4.265
 4617SOL     OW14749   1.854   2.215   1.960
 4617SOL    HW114750   1.781   2.161   1.920
 4617SOL    HW214751   1.926   2.155   1.996
 4618SOL     OW14752   2.179   3.251   5.880
 4618SOL    HW114753   2.251   3.260   5.949
 4618SOL    HW214754   2.214   3.202   5.801
 4619SOL     OW14755   3.415   6.538   3.981
 4619SOL    HW114756   3.459   6.545   4.071
 4619SOL    HW214757   3.345   6.610   3.973
 4620SOL     OW14758   0.561   4.265   1.239
 4620SOL    HW114759   0.570   4.345   1.299
 4620SOL    HW214760   0.466   4.233   1.241
 4621SOL     OW14761   4.984   0.951   2.695
 4621SOL    HW114762   5.012   0.928   2.601
 4621SOL    HW214763   5.030   0.890   2.759
 4622SOL     OW14764   3.832   4.986   1.206
 4622SOL    HW114765   3.748   4.934   1.188
 4622SOL    HW214766   3.869   5.021   1.120
 4623SOL     OW14767   3.765   5.076   0.560
 4623SOL    HW114768   3.681   5.076   0.614
 4623SOL    HW214769   3.756   5.012   0.484
 4624SOL     OW14770   3.421   1.027   3.261
 4624SOL    HW114771   3.374   1.075   3.335
 4624SOL    HW214772   3.514   1.003   3.291
 4625SOL     OW14773   2.137   5.285   2.012
 4625SOL    HW114774   2.116   5.230   2.092
 4625SOL    HW214775   2.197   5.361   2.038
 4626SOL     OW14776   3.951   4.611   1.630
 4626SOL    HW114777   4.037   4.655   1.653
 4626SOL    HW214778   3.947   4.595   1.532
 4627SOL     OW14779   1.004   6.080   5.081
 4627SOL    HW114780   1.004   6.072   5.181
 4627SOL    HW214781   0.950   6.159   5.054
 4628SOL     OW14782   4.467   4.520   4.593
 4628SOL    HW114783   4.416   4.587   4.647
 4628SOL    HW214784   4.456   4.429   4.634
 4629SOL     OW14785   2.451   4.897   6.390
 4629SOL    HW114786   2.492   4.839   6.320
 4629SOL    HW214787   2.405   4.975   6.347
 4630SOL     OW14788   2.106   4.915   2.516
 4630SOL    HW114789   2.035   4.852   2.548
 4630SOL    HW214790   2.077   5.009   2.531
 4631SOL     OW14791   0.984   6.513   3.711
 4631SOL    HW114792   1.002   6.427   3.664
 4631SOL    HW214793   0.997   6.501   3.809
 4632SOL     OW14794   2.148   4.817   3.594
 4632SOL    HW114795   2.143   4.861   3.504
 4632SOL    HW214796   2.061   4.828   3.641
 4633SOL     OW14797   5.527   1.047   4.487
 4633SOL    HW114798   5.442   1.074   4.532
 4633SOL    HW214799   5.564   0.965   4.532
 4634SOL     OW14800   2.407   3.972   5.405
 4634SOL    HW114801   2.491   3.984   5.458
 4634SOL    HW214802   2.424   3.995   5.309
 4635SOL     OW14803   4.258   4.364   1.770
 4635SOL    HW114804   4.347   4.345   1.811
 4635SOL    HW214805   4.244   4.462   1.761
 4636SOL     OW14806   2.024   4.818   0.241
 4636SOL    HW114807   2.035   4.873   0.324
 4636SOL    HW214808   2.019   4.878   0.161
 4637SOL     OW14809   0.782   6.552   0.404
 4637SOL    HW114810   0.834   6.468   0.407
 4637SOL    HW214811   0.706   6.547   0.470
 4638SOL     OW14812   3.463   6.246   6.608
 4638SOL    HW114813   3.377   6.195   6.611
 4638SOL    HW214814   3.525   6.212   6.679
 4639SOL     OW14815   2.801   2.659   6.316
 4639SOL    HW114816   2.792   2.563   6.292
 4639SOL    HW214817   2.711   2.699   6.330
 4640SOL     OW14818   6.287   2.952   4.474
 4640SOL    HW114819   6.226   2.883   4.513
 4640SOL    HW214820   6.311   3.019   4.545
 4641SOL     OW14821   2.204   0.378   3.944
 4641SOL    HW114822   2.195   0.464   3.894
 4641SOL    HW214823   2.144   0.379   4.024
 4642SOL     OW14824   1.473   6.887   2.871
 4642SOL    HW114825   1.423   6.904   2.956
 4642SOL    HW214826   1.571   6.895   2.888
 4643SOL     OW14827   6.743   2.542   0.738
 4643SOL    HW114828   6.804   2.517   0.814
 4643SOL    HW214829   6.649   2.519   0.763
 4644SOL     OW14830   0.550   0.829   5.743
 4644SOL    HW114831   0.482   0.797   5.676
 4644SOL    HW214832   0.638   0.843   5.697
 4645SOL     OW14833   1.525   1.112   4.389
 4645SOL    HW114834   1.570   1.045   4.331
 4645SOL    HW214835   1.453   1.159   4.337
 4646SOL     OW14836   2.563   5.013   4.099
 4646SOL    HW114837   2.492   4.969   4.154
 4646SOL    HW214838   2.634   4.947   4.077
 4647SOL     OW14839   1.239   0.333   3.076
 4647SOL    HW114840   1.184   0.296   3.001
 4647SOL    HW214841   1.266   0.427   3.054
 4648SOL     OW14842   2.480   0.904   4.459
 4648SOL    HW114843   2.400   0.852   4.430
 4648SOL    HW214844   2.519   0.862   4.541
 4649SOL     OW14845   6.052   0.799   0.948
 4649SOL    HW114846   6.020   0.729   0.885
 4649SOL    HW214847   5.986   0.874   0.953
 4650SOL     OW14848   4.523   5.492   2.048
 4650SOL    HW114849   4.433   5.528   2.072
 4650SOL    HW214850   4.564   5.447   2.128
 4651SOL     OW14851   5.846   3.677   6.486
 4651SOL    HW114852   5.766   3.679   6.546
 4651SOL    HW214853   5.916   3.616   6.524
 4652SOL     OW14854   6.024   6.579   5.177
 4652SOL    HW114855   6.123   6.565   5.169
 4652SOL    HW214856   6.004   6.676   5.181
 4653SOL     OW14857   5.117   5.924   0.660
 4653SOL    HW114858   5.025   5.902   0.691
 4653SOL    HW214859   5.112   5.982   0.579
 4654SOL     OW14860   0.592   6.210   5.850
 4654SOL    HW114861   0.648   6.129   5.829
 4654SOL    HW214862   0.514   6.212   5.788
 4655SOL     OW14863   5.031   4.078   1.847
 4655SOL    HW114864   4.947   4.107   1.892
 4655SOL    HW214865   5.010   4.011   1.776
 4656SOL     OW14866   0.795   0.587   1.764
 4656SOL    HW114867   0.791   0.503   1.816
 4656SOL    HW214868   0.886   0.628   1.774
 4657SOL     OW14869   4.822   5.741   2.224
 4657SOL    HW114870   4.733   5.760   2.182
 4657SOL    HW214871   4.809   5.712   2.319
 4658SOL     OW14872   2.686   2.213   5.528
 4658SOL    HW114873   2.688   2.298   5.474
 4658SOL    HW214874   2.726   2.139   5.474
 4659SOL     OW14875   2.429   4.501   0.116
 4659SOL    HW114876   2.442   4.474   0.211
 4659SOL    HW214877   2.348   4.456   0.079
 4660SOL     OW14878   1.235   6.490   4.092
 4660SOL    HW114879   1.290   6.571   4.073
 4660SOL    HW214880   1.237   6.471   4.190
 4661SOL     OW14881   2.081   4.232   5.602
 4661SOL    HW114882   2.092   4.283   5.517
 4661SOL    HW214883   2.159   4.169   5.613
 4662SOL     OW14884   3.186   0.122   5.736
 4662SOL    HW114885   3.116   0.108   5.666
 4662SOL    HW214886   3.222   0.033   5.765
 4663SOL     OW14887   0.514   0.531   0.498
 4663SOL    HW114888   0.587   0.549   0.432
 4663SOL    HW214889   0.499   0.433   0.505
 4664SOL     OW14890   0.248   0.572   0.384
 4664SOL    HW114891   0.345   0.565   0.408
 4664SOL    HW214892   0.201   0.629   0.451
 4665SOL     OW14893   2.520   6.759   5.767
 4665SOL    HW114894   2.610   6.725   5.796
 4665SOL    HW214895   2.532   6.832   5.701
 4666SOL     OW14896   2.239   2.059   6.510
 4666SOL    HW114897   2.275   1.984   6.565
 4666SOL    HW214898   2.286   2.144   6.535
 4667SOL     OW14899   6.810   4.005   2.018
 4667SOL    HW114900   6.781   4.096   2.047
 4667SOL    HW214901   6.910   4.002   2.011
 4668SOL     OW14902   5.037   1.389   4.882
 4668SOL    HW114903   5.089   1.462   4.839
 4668SOL    HW214904   4.979   1.427   4.955
 4669SOL     OW14905   5.584   0.319   6.278
 4669SOL    HW114906   5.496   0.330   6.231
 4669SOL    HW214907   5.629   0.236   6.244
 4670SOL     OW14908   0.962   3.036   6.893
 4670SOL    HW114909   0.970   3.092   6.975
 4670SOL    HW214910   0.865   3.023   6.871
 4671SOL     OW14911   0.961   3.176   0.125
 4671SOL    HW114912   0.896   3.175   0.201
 4671SOL    HW214913   1.005   3.265   0.120
 4672SOL     OW14914   3.838   4.778   6.039
 4672SOL    HW114915   3.931   4.792   6.006
 4672SOL    HW214916   3.834   4.693   6.092
 4673SOL     OW14917   5.053   7.012   0.373
 4673SOL    HW114918   5.126   6.973   0.317
 4673SOL    HW214919   4.991   6.940   0.404
 4674SOL     OW14920   5.396   1.612   0.707
 4674SOL    HW114921   5.366   1.699   0.748
 4674SOL    HW214922   5.495   1.614   0.693
 4675SOL     OW14923   3.576   0.514   6.900
 4675SOL    HW114924   3.558   0.512   6.802
 4675SOL    HW214925   3.625   0.598   6.923
 4676SOL     OW14926   0.364   0.189   4.944
 4676SOL    HW114927   0.335   0.097   4.973
 4676SOL    HW214928   0.291   0.232   4.891
 4677SOL     OW14929   2.905   0.352   0.004
 4677SOL    HW114930   2.892   0.408   0.086
 4677SOL    HW214931   2.870   0.400   6.948
 4678SOL     OW14932   1.883   5.187   2.165
 4678SOL    HW114933   1.950   5.212   2.235
 4678SOL    HW214934   1.924   5.122   2.101
 4679SOL     OW14935   3.769   1.296   6.792
 4679SOL    HW114936   3.740   1.391   6.800
 4679SOL    HW214937   3.751   1.249   6.878
 4680SOL     OW14938   2.411   6.540   1.993
 4680SOL    HW114939   2.371   6.449   1.980
 4680SOL    HW214940   2.338   6.609   1.995
 4681SOL     OW14941   6.213   6.174   4.860
 4681SOL    HW114942   6.176   6.145   4.772
 4681SOL    HW214943   6.177   6.264   4.883
 4682SOL     OW14944   4.468   4.873   6.576
 4682SOL    HW114945   4.484   4.804   6.505
 4682SOL    HW214946   4.551   4.926   6.590
 4683SOL     OW14947   4.919   4.531   2.146
 4683SOL    HW114948   4.927   4.434   2.166
 4683SOL    HW214949   4.946   4.584   2.227
 4684SOL     OW14950   0.036   2.425   4.275
 4684SOL    HW114951   0.077   2.333   4.276
 4684SOL    HW214952   0.046   2.464   4.183
 4685SOL     OW14953   0.329   5.415   4.384
 4685SOL    HW114954   0.264   5.373   4.320
 4685SOL    HW214955   0.321   5.515   4.378
 4686SOL     OW14956   5.101   6.006   0.400
 4686SOL    HW114957   5.008   6.006   0.364
 4686SOL    HW214958   5.162   5.961   0.335
 4687SOL     OW14959   6.540   4.892   5.468
 4687SOL    HW114960   6.566   4.926   5.377
 4687SOL    HW214961   6.441   4.900   5.479
 4688SOL     OW14962   0.054   2.516   6.156
 4688SOL    HW114963   6.981   2.503   6.134
 4688SOL    HW214964   0.066   2.513   6.255
 4689SOL     OW14965   5.438   0.517   6.418
 4689SOL    HW114966   5.423   0.487   6.513
 4689SOL    HW214967   5.477   0.441   6.366
 4690SOL     OW14968   1.153   1.693   6.881
 4690SOL    HW114969   1.245   1.662   6.906
 4690SOL    HW214970   1.085   1.626   6.911
 4691SOL     OW14971   3.087   3.947   2.293
 4691SOL    HW114972   3.015   3.879   2.279
 4691SOL    HW214973   3.096   4.003   2.210
 4692SOL     OW14974   6.702   5.241   2.560
 4692SOL    HW114975   6.786   5.207   2.518
 4692SOL    HW214976   6.663   5.312   2.502
 4693SOL     OW14977   0.773   0.964   4.290
 4693SOL    HW114978   0.862   0.966   4.335
 4693SOL    HW214979   0.776   0.901   4.212
 4694SOL     OW14980   2.598   0.544   0.171
 4694SOL    HW114981   2.532   0.480   0.209
 4694SOL    HW214982   2.691   0.512   0.190
 4695SOL     OW14983   3.453   3.303   1.947
 4695SOL    HW114984   3.401   3.366   1.889
 4695SOL    HW214985   3.483   3.350   2.029
 4696SOL     OW14986   1.065   4.812   6.201
 4696SOL    HW114987   1.057   4.850   6.293
 4696SOL    HW214988   1.160   4.787   6.184
 4697SOL     OW14989   1.790   3.519   0.838
 4697SOL    HW114990   1.855   3.508   0.763
 4697SOL    HW214991   1.699   3.539   0.800
 4698SOL     OW14992   4.858   5.260   3.077
 4698SOL    HW114993   4.839   5.162   3.069
 4698SOL    HW214994   4.773   5.309   3.096
 4699SOL     OW14995   1.243   0.227   2.317
 4699SOL    HW114996   1.234   0.150   2.381
 4699SOL    HW214997   1.322   0.282   2.344
 4700SOL     OW14998   5.665   1.320   1.875
 4700SOL    HW114999   5.597   1.390   1.853
 4700SOL    HW215000   5.700   1.336   1.967
 4701SOL     OW15001   1.235   1.792   0.183
 4701SOL    HW115002   1.239   1.693   0.195
 4701SOL    HW215003   1.298   1.836   0.247
 4702SOL     OW15004   5.114   4.770   6.267
 4702SOL    HW115005   5.025   4.780   6.222
 4702SOL    HW215006   5.108   4.801   6.362
 4703SOL     OW15007   0.322   2.488   2.621
 4703SOL    HW115008   0.413   2.449   2.603
 4703SOL    HW215009   0.329   2.587   2.623
 4704SOL     OW15010   6.682   6.583   0.968
 4704SOL    HW115011   6.618   6.609   1.040
 4704SOL    HW215012   6.648   6.617   0.880
 4705SOL     OW15013   3.448   3.499   2.714
 4705SOL    HW115014   3.400   3.572   2.763
 4705SOL    HW215015   3.545   3.519   2.710
 4706SOL     OW15016   4.025   6.540   6.590
 4706SOL    HW115017   4.067   6.587   6.512
 4706SOL    HW215018   3.967   6.465   6.558
 4707SOL     OW15019   2.075   5.875   0.614
 4707SOL    HW115020   2.070   5.933   0.533
 4707SOL    HW215021   2.082   5.779   0.585
 4708SOL     OW15022   1.698   2.878   0.696
 4708SOL    HW115023   1.709   2.909   0.602
 4708SOL    HW215024   1.762   2.928   0.755
 4709SOL     OW15025   3.824   5.283   5.162
 4709SOL    HW115026   3.905   5.335   5.187
 4709SOL    HW215027   3.759   5.342   5.114
 4710SOL     OW15028   4.117   1.418   6.035
 4710SOL    HW115029   4.090   1.514   6.044
 4710SOL    HW215030   4.081   1.366   6.112
 4711SOL     OW15031   4.743   0.458   2.762
 4711SOL    HW115032   4.825   0.447   2.818
 4711SOL    HW215033   4.662   0.460   2.820
 4712SOL     OW15034   2.678   4.863   0.842
 4712SOL    HW115035   2.773   4.886   0.821
 4712SOL    HW215036   2.621   4.875   0.761
 4713SOL     OW15037   2.687   4.017   1.155
 4713SOL    HW115038   2.606   4.010   1.213
 4713SOL    HW215039   2.703   4.113   1.133
 4714SOL     OW15040   2.465   1.759   0.116
 4714SOL    HW115041   2.438   1.770   0.211
 4714SOL    HW215042   2.519   1.839   0.088
 4715SOL     OW15043   6.791   3.553   1.634
 4715SOL    HW115044   6.732   3.543   1.714
 4715SOL    HW215045   6.734   3.571   1.553
 4716SOL     OW15046   3.638   5.613   6.135
 4716SOL    HW115047   3.635   5.709   6.163
 4716SOL    HW215048   3.553   5.590   6.087
 4717SOL     OW15049   1.421   5.799   3.135
 4717SOL    HW115050   1.472   5.714   3.149
 4717SOL    HW215051   1.482   5.877   3.151
 4718SOL     OW15052   5.558   1.527   6.465
 4718SOL    HW115053   5.612   1.443   6.476
 4718SOL    HW215054   5.499   1.540   6.545
 4719SOL     OW15055   4.974   3.071   2.590
 4719SOL    HW115056   5.055   3.050   2.645
 4719SOL    HW215057   4.957   3.169   2.592
 4720SOL     OW15058   3.205   6.302   5.528
 4720SOL    HW115059   3.146   6.364   5.580
 4720SOL    HW215060   3.170   6.293   5.435
 4721SOL     OW15061   6.116   2.201   2.101
 4721SOL    HW115062   6.214   2.205   2.081
 4721SOL    HW215063   6.077   2.119   2.060
 4722SOL     OW15064   1.429   5.900   6.976
 4722SOL    HW115065   1.440   5.808   6.939
 4722SOL    HW215066   1.457   5.901   0.048
 4723SOL     OW15067   1.755   5.330   5.439
 4723SOL    HW115068   1.788   5.240   5.468
 4723SOL    HW215069   1.757   5.392   5.518
 4724SOL     OW15070   4.706   6.343   2.724
 4724SOL    HW115071   4.692   6.430   2.676
 4724SOL    HW215072   4.622   6.290   2.723
 4725SOL     OW15073   5.376   6.431   2.909
 4725SOL    HW115074   5.426   6.360   2.958
 4725SOL    HW215075   5.431   6.464   2.833
 4726SOL     OW15076   2.069   3.561   6.556
 4726SOL    HW115077   2.068   3.463   6.576
 4726SOL    HW215078   2.156   3.587   6.516
 4727SOL     OW15079   6.707   6.402   6.935
 4727SOL    HW115080   6.777   6.359   6.991
 4727SOL    HW215081   6.748   6.439   6.852
 4728SOL     OW15082   4.883   1.822   1.375
 4728SOL    HW115083   4.946   1.806   1.452
 4728SOL    HW215084   4.936   1.843   1.293
 4729SOL     OW15085   2.502   1.048   2.739
 4729SOL    HW115086   2.443   1.057   2.659
 4729SOL    HW215087   2.590   1.010   2.711
 4730SOL     OW15088   2.201   6.001   5.408
 4730SOL    HW115089   2.114   6.007   5.360
 4730SOL    HW215090   2.259   6.078   5.383
 4731SOL     OW15091   5.157   0.191   6.040
 4731SOL    HW115092   5.103   0.270   6.068
 4731SOL    HW215093   5.123   0.109   6.085
 4732SOL     OW15094   6.839   3.158   6.376
 4732SOL    HW115095   6.939   3.163   6.373
 4732SOL    HW215096   6.812   3.077   6.429
 4733SOL     OW15097   0.949   3.962   3.138
 4733SOL    HW115098   0.879   4.007   3.193
 4733SOL    HW215099   1.036   3.964   3.187
 4734SOL     OW15100   5.155   3.251   6.660
 4734SOL    HW115101   5.084   3.238   6.728
 4734SOL    HW215102   5.238   3.285   6.705
 4735SOL     OW15103   0.646   4.989   3.694
 4735SOL    HW115104   0.547   4.993   3.711
 4735SOL    HW215105   0.665   5.021   3.601
 4736SOL     OW15106   0.352   1.569   6.839
 4736SOL    HW115107   0.426   1.503   6.847
 4736SOL    HW215108   0.338   1.593   6.743
 4737SOL     OW15109   1.512   5.382   2.355
 4737SOL    HW115110   1.530   5.289   2.323
 4737SOL    HW215111   1.500   5.443   2.277
 4738SOL     OW15112   6.967   6.029   2.587
 4738SOL    HW115113   6.968   6.093   2.664
 4738SOL    HW215114   7.002   5.941   2.617
 4739SOL     OW15115   4.032   6.875   2.348
 4739SOL    HW115116   3.983   6.836   2.426
 4739SOL    HW215117   4.102   6.811   2.317
 4740SOL     OW15118   6.871   1.545   2.028
 4740SOL    HW115119   6.947   1.608   2.041
 4740SOL    HW215120   6.878   1.470   2.094
 4741SOL     OW15121   3.162   2.389   1.648
 4741SOL    HW115122   3.174   2.323   1.574
 4741SOL    HW215123   3.251   2.425   1.675
 4742SOL     OW15124   1.861   6.789   6.464
 4742SOL    HW115125   1.879   6.870   6.408
 4742SOL    HW215126   1.770   6.754   6.444
 4743SOL     OW15127   2.150   3.574   2.657
 4743SOL    HW115128   2.129   3.632   2.578
 4743SOL    HW215129   2.134   3.625   2.741
 4744SOL     OW15130   2.236   4.851   0.639
 4744SOL    HW115131   2.265   4.780   0.575
 4744SOL    HW215132   2.314   4.909   0.664
 4745SOL     OW15133   3.386   3.990   0.321
 4745SOL    HW115134   3.432   3.967   0.406
 4745SOL    HW215135   3.327   4.070   0.335
 4746SOL     OW15136   4.477   6.319   3.926
 4746SOL    HW115137   4.475   6.414   3.896
 4746SOL    HW215138   4.558   6.303   3.983
 4747SOL     OW15139   1.378   3.343   0.465
 4747SOL    HW115140   1.354   3.439   0.479
 4747SOL    HW215141   1.341   3.312   0.377
 4748SOL     OW15142   1.177   6.718   1.695
 4748SOL    HW115143   1.148   6.813   1.684
 4748SOL    HW215144   1.268   6.716   1.736
 4749SOL     OW15145   1.912   6.724   6.110
 4749SOL    HW115146   2.000   6.681   6.126
 4749SOL    HW215147   1.840   6.655   6.115
 4750SOL     OW15148   6.393   4.186   5.285
 4750SOL    HW115149   6.438   4.222   5.204
 4750SOL    HW215150   6.398   4.253   5.359
 4751SOL     OW15151   4.586   2.599   3.195
 4751SOL    HW115152   4.648   2.677   3.186
 4751SOL    HW215153   4.576   2.576   3.292
 4752SOL     OW15154   4.686   0.646   0.302
 4752SOL    HW115155   4.695   0.548   0.318
 4752SOL    HW215156   4.755   0.695   0.355
 4753SOL     OW15157   1.123   0.135   4.300
 4753SOL    HW115158   1.128   0.096   4.392
 4753SOL    HW215159   1.190   0.090   4.241
 4754SOL     OW15160   4.887   3.823   5.185
 4754SOL    HW115161   4.811   3.778   5.138
 4754SOL    HW215162   4.890   3.792   5.280
 4755SOL     OW15163   2.339   0.359   0.972
 4755SOL    HW115164   2.272   0.344   1.045
 4755SOL    HW215165   2.309   0.313   0.889
 4756SOL     OW15166   0.013   3.956   5.956
 4756SOL    HW115167   0.077   3.880   5.945
 4756SOL    HW215168   0.064   4.038   5.984
 4757SOL     OW15169   1.398   2.812   1.411
 4757SOL    HW115170   1.383   2.910   1.407
 4757SOL    HW215171   1.320   2.764   1.372
 4758SOL     OW15172   1.329   6.648   3.137
 4758SOL    HW115173   1.376   6.720   3.187
 4758SOL    HW215174   1.391   6.611   3.067
 4759SOL     OW15175   0.551   6.183   7.002
 4759SOL    HW115176   0.465   6.132   6.995
 4759SOL    HW215177   0.590   6.194   6.910
 4760SOL     OW15178   0.797   0.387   0.387
 4760SOL    HW115179   0.890   0.417   0.409
 4760SOL    HW215180   0.801   0.303   0.333
 4761SOL     OW15181   1.077   0.382   0.445
 4761SOL    HW115182   1.143   0.360   0.517
 4761SOL    HW215183   1.125   0.390   0.358
 4762SOL     OW15184   1.611   5.629   2.444
 4762SOL    HW115185   1.556   5.693   2.497
 4762SOL    HW215186   1.554   5.555   2.409
 4763SOL     OW15187   4.967   6.941   2.444
 4763SOL    HW115188   4.947   6.989   2.359
 4763SOL    HW215189   4.950   7.002   2.522
 4764SOL     OW15190   4.586   3.487   5.353
 4764SOL    HW115191   4.632   3.526   5.274
 4764SOL    HW215192   4.490   3.470   5.331
 4765SOL     OW15193   3.762   0.605   6.432
 4765SOL    HW115194   3.721   0.683   6.384
 4765SOL    HW215195   3.727   0.520   6.392
 4766SOL     OW15196   6.140   6.045   4.604
 4766SOL    HW115197   6.117   5.973   4.539
 4766SOL    HW215198   6.193   6.116   4.558
 4767SOL     OW15199   2.479   5.440   5.267
 4767SOL    HW115200   2.454   5.513   5.203
 4767SOL    HW215201   2.414   5.440   5.343
 4768SOL     OW15202   4.603   3.472   6.200
 4768SOL    HW115203   4.578   3.523   6.282
 4768SOL    HW215204   4.610   3.375   6.223
 4769SOL     OW15205   3.467   6.176   0.294
 4769SOL    HW115206   3.432   6.266   0.267
 4769SOL    HW215207   3.435   6.108   0.228
 4770SOL     OW15208   6.864   2.166   4.509
 4770SOL    HW115209   6.945   2.226   4.509
 4770SOL    HW215210   6.784   2.219   4.534
 4771SOL     OW15211   2.463   6.457   5.453
 4771SOL    HW115212   2.427   6.459   5.547
 4771SOL    HW215213   2.534   6.387   5.447
 4772SOL     OW15214   2.895   5.417   0.815
 4772SOL    HW115215   2.879   5.329   0.860
 4772SOL    HW215216   2.974   5.462   0.858
 4773SOL     OW15217   1.273   6.102   4.688
 4773SOL    HW115218   1.200   6.132   4.627
 4773SOL    HW215219   1.243   6.113   4.783
 4774SOL     OW15220   1.423   4.061   0.981
 4774SOL    HW115221   1.428   4.119   0.899
 4774SOL    HW215222   1.493   3.990   0.975
 4775SOL     OW15223   4.584   6.962   4.657
 4775SOL    HW115224   4.616   6.868   4.665
 4775SOL    HW215225   4.590   6.992   4.562
 4776SOL     OW15226   1.288   1.079   4.930
 4776SOL    HW115227   1.266   0.985   4.957
 4776SOL    HW215228   1.369   1.079   4.871
 4777SOL     OW15229   1.612   5.631   0.984
 4777SOL    HW115230   1.602   5.730   0.972
 4777SOL    HW215231   1.522   5.588   0.987
 4778SOL     OW15232   0.780   2.718   4.693
 4778SOL    HW115233   0.844   2.778   4.644
 4778SOL    HW215234   0.707   2.691   4.631
 4779SOL     OW15235   5.871   6.119   4.003
 4779SOL    HW115236   5.847   6.192   4.066
 4779SOL    HW215237   5.970   6.109   3.999
 4780SOL     OW15238   5.726   2.686   5.841
 4780SOL    HW115239   5.778   2.614   5.888
 4780SOL    HW215240   5.644   2.646   5.800
 4781SOL     OW15241   2.741   5.414   2.734
 4781SOL    HW115242   2.832   5.380   2.708
 4781SOL    HW215243   2.704   5.357   2.807
 4782SOL     OW15244   6.284   5.896   6.072
 4782SOL    HW115245   6.215   5.969   6.066
 4782SOL    HW215246   6.252   5.825   6.134
 4783SOL     OW15247   6.011   3.860   0.072
 4783SOL    HW115248   6.089   3.913   0.104
 4783SOL    HW215249   5.926   3.908   0.093
 4784SOL     OW15250   5.966   1.888   5.822
 4784SOL    HW115251   5.968   1.976   5.775
 4784SOL    HW215252   5.994   1.816   5.760
 4785SOL     OW15253   0.197   6.603   2.692
 4785SOL    HW115254   0.229   6.633   2.603
 4785SOL    HW215255   0.197   6.503   2.695
 4786SOL     OW15256   2.909   0.156   0.256
 4786SOL    HW115257   2.943   0.162   0.162
 4786SOL    HW215258   2.935   0.238   0.307
 4787SOL     OW15259   3.917   2.106   4.424
 4787SOL    HW115260   3.944   2.182   4.364
 4787SOL    HW215261   3.968   2.024   4.398
 4788SOL     OW15262   6.057   6.068   0.547
 4788SOL    HW115263   6.043   6.003   0.472
 4788SOL    HW215264   6.149   6.058   0.584
 4789SOL     OW15265   5.148   1.357   2.025
 4789SOL    HW115266   5.075   1.421   2.048
 4789SOL    HW215267   5.182   1.377   1.933
 4790SOL     OW15268   4.969   1.766   5.558
 4790SOL    HW115269   4.902   1.694   5.544
 4790SOL    HW215270   5.010   1.792   5.471
 4791SOL     OW15271   0.563   2.661   1.229
 4791SOL    HW115272   0.574   2.600   1.307
 4791SOL    HW215273   0.580   2.610   1.144
 4792SOL     OW15274   2.020   4.345   4.413
 4792SOL    HW115275   1.939   4.313   4.462
 4792SOL    HW215276   2.089   4.376   4.479
 4793SOL     OW15277   1.253   3.704   5.620
 4793SOL    HW115278   1.229   3.705   5.523
 4793SOL    HW215279   1.170   3.717   5.675
 4794SOL     OW15280   4.749   0.010   4.023
 4794SOL    HW115281   4.670   6.996   4.071
 4794SOL    HW215282   4.726   0.099   3.984
 4795SOL     OW15283   0.121   1.759   4.641
 4795SOL    HW115284   0.099   1.795   4.732
 4795SOL    HW215285   0.047   1.782   4.578
 4796SOL     OW15286   3.705   0.494   6.097
 4796SOL    HW115287   3.684   0.574   6.039
 4796SOL    HW215288   3.802   0.472   6.089
 4797SOL     OW15289   0.498   5.448   4.580
 4797SOL    HW115290   0.433   5.402   4.520
 4797SOL    HW215291   0.499   5.401   4.669
 4798SOL     OW15292   5.665   5.082   5.795
 4798SOL    HW115293   5.635   5.177   5.806
 4798SOL    HW215294   5.712   5.051   5.877
 4799SOL     OW15295   4.088   1.534   0.044
 4799SOL    HW115296   4.032   1.549   6.986
 4799SOL    HW215297   4.041   1.472   0.107
 4800SOL     OW15298   1.840   4.466   6.762
 4800SOL    HW115299   1.877   4.512   6.842
 4800SOL    HW215300   1.911   4.462   6.691
 4801SOL     OW15301   3.820   2.665   0.475
 4801SOL    HW115302   3.871   2.750   0.479
 4801SOL    HW215303   3.834   2.621   0.386
 4802SOL     OW15304   0.029   6.602   1.969
 4802SOL    HW115305   0.006   6.590   1.873
 4802SOL    HW215306   0.086   6.526   2.000
 4803SOL     OW15307   5.718   4.801   0.902
 4803SOL    HW115308   5.808   4.837   0.924
 4803SOL    HW215309   5.648   4.872   0.915
 4804SOL     OW15310   5.814   1.209   0.874
 4804SOL    HW115311   5.798   1.153   0.793
 4804SOL    HW215312   5.848   1.152   0.948
 4805SOL     OW15313   6.765   1.055   1.861
 4805SOL    HW115314   6.706   1.066   1.941
 4805SOL    HW215315   6.794   1.145   1.828
 4806SOL     OW15316   1.221   4.003   2.975
 4806SOL    HW115317   1.216   3.906   2.997
 4806SOL    HW215318   1.218   4.057   3.060
 4807SOL     OW15319   1.956   3.284   6.616
 4807SOL    HW115320   1.956   3.257   6.713
 4807SOL    HW215321   1.936   3.204   6.559
 4808SOL     OW15322   3.625   5.514   0.955
 4808SOL    HW115323   3.721   5.534   0.975
 4808SOL    HW215324   3.601   5.553   0.866
 4809SOL     OW15325   3.607   4.571   1.585
 4809SOL    HW115326   3.617   4.634   1.508
 4809SOL    HW215327   3.586   4.622   1.668
 4810SOL     OW15328   1.328   4.264   3.978
 4810SOL    HW115329   1.263   4.278   3.904
 4810SOL    HW215330   1.335   4.348   4.033
 4811SOL     OW15331   3.637   3.894   4.685
 4811SOL    HW115332   3.635   3.865   4.781
 4811SOL    HW215333   3.705   3.840   4.635
 4812SOL     OW15334   0.716   6.861   2.026
 4812SOL    HW115335   0.801   6.841   2.076
 4812SOL    HW215336   0.688   6.955   2.045
 4813SOL     OW15337   5.693   1.926   5.773
 4813SOL    HW115338   5.778   1.875   5.789
 4813SOL    HW215339   5.703   2.020   5.806
 4814SOL     OW15340   0.057   3.361   2.349
 4814SOL    HW115341   0.048   3.458   2.367
 4814SOL    HW215342   6.992   3.316   2.357
 4815SOL     OW15343   5.310   4.783   2.752
 4815SOL    HW115344   5.230   4.779   2.812
 4815SOL    HW215345   5.281   4.770   2.657
 4816SOL     OW15346   2.068   6.854   1.553
 4816SOL    HW115347   2.094   6.915   1.627
 4816SOL    HW215348   2.032   6.768   1.591
 4817SOL     OW15349   3.610   1.409   1.736
 4817SOL    HW115350   3.541   1.431   1.805
 4817SOL    HW215351   3.571   1.422   1.645
 4818SOL     OW15352   1.619   0.925   4.234
 4818SOL    HW115353   1.582   0.959   4.148
 4818SOL    HW215354   1.611   0.825   4.236
 4819SOL     OW15355   3.224   1.891   1.597
 4819SOL    HW115356   3.235   1.867   1.500
 4819SOL    HW215357   3.301   1.947   1.627
 4820SOL     OW15358   6.338   2.920   1.161
 4820SOL    HW115359   6.265   2.911   1.228
 4820SOL    HW215360   6.424   2.887   1.200
 4821SOL     OW15361   6.389   5.615   1.515
 4821SOL    HW115362   6.354   5.561   1.592
 4821SOL    HW215363   6.330   5.695   1.501
 4822SOL     OW15364   1.627   3.143   3.673
 4822SOL    HW115365   1.530   3.164   3.682
 4822SOL    HW215366   1.673   3.158   3.761
 4823SOL     OW15367   0.147   0.408   3.510
 4823SOL    HW115368   0.133   0.377   3.605
 4823SOL    HW215369   0.242   0.390   3.484
 4824SOL     OW15370   5.500   1.842   3.964
 4824SOL    HW115371   5.455   1.763   3.922
 4824SOL    HW215372   5.510   1.826   4.062
 4825SOL     OW15373   2.113   2.703   4.170
 4825SOL    HW115374   2.196   2.684   4.117
 4825SOL    HW215375   2.130   2.779   4.232
 4826SOL     OW15376   0.087   6.836   1.076
 4826SOL    HW115377   0.091   6.775   0.996
 4826SOL    HW215378   0.175   6.884   1.085
 4827SOL     OW15379   5.434   0.930   2.039
 4827SOL    HW115380   5.526   0.934   2.078
 4827SOL    HW215381   5.414   1.016   1.992
 4828SOL     OW15382   6.032   3.760   1.507
 4828SOL    HW115383   6.101   3.751   1.579
 4828SOL    HW215384   5.951   3.806   1.543
 4829SOL     OW15385   3.349   6.727   6.056
 4829SOL    HW115386   3.341   6.751   5.959
 4829SOL    HW215387   3.306   6.798   6.112
 4830SOL     OW15388   5.324   5.131   3.879
 4830SOL    HW115389   5.245   5.115   3.819
 4830SOL    HW215390   5.306   5.210   3.937
 4831SOL     OW15391   6.672   5.406   5.753
 4831SOL    HW115392   6.706   5.496   5.780
 4831SOL    HW215393   6.737   5.336   5.780
 4832SOL     OW15394   3.259   2.517   6.496
 4832SOL    HW115395   3.323   2.461   6.549
 4832SOL    HW215396   3.285   2.614   6.504
 4833SOL     OW15397   4.829   2.166   3.050
 4833SOL    HW115398   4.740   2.199   3.016
 4833SOL    HW215399   4.841   2.070   3.024
 4834SOL     OW15400   3.670   0.321   0.322
 4834SOL    HW115401   3.712   0.402   0.361
 4834SOL    HW215402   3.626   0.344   0.235
 4835SOL     OW15403   1.893   0.256   6.827
 4835SOL    HW115404   1.858   0.165   6.849
 4835SOL    HW215405   1.971   0.277   6.887
 4836SOL     OW15406   4.320   2.414   3.572
 4836SOL    HW115407   4.269   2.328   3.575
 4836SOL    HW215408   4.328   2.451   3.665
 4837SOL     OW15409   3.865   2.918   1.797
 4837SOL    HW115410   3.803   2.929   1.875
 4837SOL    HW215411   3.943   2.980   1.807
 4838SOL     OW15412   2.351   5.035   2.402
 4838SOL    HW115413   2.400   4.961   2.356
 4838SOL    HW215414   2.281   4.998   2.462
 4839SOL     OW15415   0.494   3.523   5.789
 4839SOL    HW115416   0.503   3.619   5.816
 4839SOL    HW215417   0.521   3.464   5.865
 4840SOL     OW15418   6.921   0.306   5.900
 4840SOL    HW115419   6.978   0.251   5.961
 4840SOL    HW215420   6.851   0.248   5.859
 4841SOL     OW15421   3.196   5.550   1.699
 4841SOL    HW115422   3.247   5.559   1.785
 4841SOL    HW215423   3.151   5.461   1.697
 4842SOL     OW15424   3.386   4.874   1.946
 4842SOL    HW115425   3.303   4.823   1.968
 4842SOL    HW215426   3.466   4.825   1.981
 4843SOL     OW15427   6.364   4.096   0.354
 4843SOL    HW115428   6.338   4.111   0.450
 4843SOL    HW215429   6.436   4.161   0.329
 4844SOL     OW15430   6.989   3.890   6.423
 4844SOL    HW115431   6.955   3.865   6.332
 4844SOL    HW215432   6.916   3.877   6.490
 4845SOL     OW15433   6.510   5.653   4.488
 4845SOL    HW115434   6.461   5.739   4.502
 4845SOL    HW215435   6.608   5.669   4.494
 4846SOL     OW15436   6.455   3.354   1.796
 4846SOL    HW115437   6.414   3.300   1.869
 4846SOL    HW215438   6.527   3.301   1.751
 4847SOL     OW15439   3.252   1.829   5.917
 4847SOL    HW115440   3.294   1.824   6.008
 4847SOL    HW215441   3.297   1.765   5.856
 4848SOL     OW15442   1.529   0.958   4.712
 4848SOL    HW115443   1.492   1.050   4.694
 4848SOL    HW215444   1.616   0.966   4.760
 4849SOL     OW15445   0.996   0.368   0.050
 4849SOL    HW115446   0.940   0.441   0.090
 4849SOL    HW215447   1.090   0.400   0.040
 4850SOL     OW15448   4.287   0.857   1.999
 4850SOL    HW115449   4.219   0.896   2.061
 4850SOL    HW215450   4.361   0.817   2.053
 4851SOL     OW15451   3.754   5.567   5.086
 4851SOL    HW115452   3.674   5.601   5.038
 4851SOL    HW215453   3.749   5.594   5.182
 4852SOL     OW15454   0.938   0.048   6.299
 4852SOL    HW115455   1.035   0.053   6.323
 4852SOL    HW215456   0.901   6.985   6.330
 4853SOL     OW15457   3.407   1.077   2.355
 4853SOL    HW115458   3.445   1.081   2.263
 4853SOL    HW215459   3.328   1.138   2.361
 4854SOL     OW15460   5.264   6.212   2.572
 4854SOL    HW115461   5.319   6.140   2.614
 4854SOL    HW215462   5.226   6.272   2.643
 4855SOL     OW15463   6.114   2.826   2.514
 4855SOL    HW115464   6.019   2.822   2.545
 4855SOL    HW215465   6.136   2.744   2.463
 4856SOL     OW15466   1.588   4.172   2.404
 4856SOL    HW115467   1.574   4.267   2.377
 4856SOL    HW215468   1.556   4.111   2.331
 4857SOL     OW15469   1.748   2.237   5.355
 4857SOL    HW115470   1.779   2.148   5.387
 4857SOL    HW215471   1.777   2.251   5.260
 4858SOL     OW15472   1.755   1.161   4.661
 4858SOL    HW115473   1.811   1.192   4.737
 4858SOL    HW215474   1.661   1.194   4.672
 4859SOL     OW15475   0.858   0.681   3.836
 4859SOL    HW115476   0.796   0.611   3.801
 4859SOL    HW215477   0.809   0.768   3.846
 4860SOL     OW15478   3.492   4.921   2.305
 4860SOL    HW115479   3.587   4.889   2.302
 4860SOL    HW215480   3.459   4.917   2.400
 4861SOL     OW15481   4.975   5.568   0.207
 4861SOL    HW115482   4.913   5.631   0.161
 4861SOL    HW215483   4.979   5.590   0.305
 4862SOL     OW15484   2.389   4.831   4.174
 4862SOL    HW115485   2.301   4.804   4.137
 4862SOL    HW215486   2.450   4.752   4.178
 4863SOL     OW15487   5.580   4.731   0.598
 4863SOL    HW115488   5.575   4.828   0.575
 4863SOL    HW215489   5.503   4.683   0.557
 4864SOL     OW15490   3.328   1.361   4.172
 4864SOL    HW115491   3.410   1.409   4.141
 4864SOL    HW215492   3.308   1.285   4.111
 4865SOL     OW15493   1.590   0.753   5.640
 4865SOL    HW115494   1.560   0.755   5.545
 4865SOL    HW215495   1.656   0.826   5.656
 4866SOL     OW15496   6.295   3.579   0.963
 4866SOL    HW115497   6.373   3.640   0.977
 4866SOL    HW215498   6.290   3.514   1.039
 4867SOL     OW15499   4.318   5.745   2.715
 4867SOL    HW115500   4.388   5.697   2.663
 4867SOL    HW215501   4.263   5.679   2.765
 4868SOL     OW15502   6.460   4.773   3.025
 4868SOL    HW115503   6.497   4.692   3.071
 4868SOL    HW215504   6.373   4.750   2.981
 4869SOL     OW15505   1.601   1.524   0.950
 4869SOL    HW115506   1.695   1.559   0.946
 4869SOL    HW215507   1.598   1.432   0.911
 4870SOL     OW15508   0.691   6.108   1.091
 4870SOL    HW115509   0.757   6.129   1.163
 4870SOL    HW215510   0.709   6.166   1.012
 4871SOL     OW15511   0.596   0.806   3.882
 4871SOL    HW115512   0.620   0.847   3.794
 4871SOL    HW215513   0.563   0.713   3.867
 4872SOL     OW15514   6.389   0.536   3.510
 4872SOL    HW115515   6.300   0.492   3.500
 4872SOL    HW215516   6.417   0.533   3.606
 4873SOL     OW15517   6.288   5.818   4.546
 4873SOL    HW115518   6.251   5.873   4.621
 4873SOL    HW215519   6.287   5.722   4.572
 4874SOL     OW15520   4.858   3.218   2.311
 4874SOL    HW115521   4.909   3.253   2.232
 4874SOL    HW215522   4.789   3.152   2.279
 4875SOL     OW15523   5.973   1.209   0.252
 4875SOL    HW115524   6.009   1.301   0.240
 4875SOL    HW215525   6.047   1.147   0.280
 4876SOL     OW15526   6.997   1.104   3.757
 4876SOL    HW115527   0.007   1.180   3.703
 4876SOL    HW215528   0.023   1.099   3.843
 4877SOL     OW15529   0.429   2.028   5.421
 4877SOL    HW115530   0.382   2.032   5.333
 4877SOL    HW215531   0.505   2.093   5.421
 4878SOL     OW15532   6.296   1.145   2.091
 4878SOL    HW115533   6.348   1.217   2.136
 4878SOL    HW215534   6.202   1.176   2.077
 4879SOL     OW15535   4.403   1.969   1.952
 4879SOL    HW115536   4.392   1.946   2.048
 4879SOL    HW215537   4.464   2.047   1.943
 4880SOL     OW15538   6.000   3.598   0.105
 4880SOL    HW115539   6.059   3.585   0.185
 4880SOL    HW215540   6.014   3.691   0.069
 4881SOL     OW15541   1.871   0.868   0.254
 4881SOL    HW115542   1.971   0.865   0.245
 4881SOL    HW215543   1.844   0.961   0.281
 4882SOL     OW15544   4.430   1.192   5.694
 4882SOL    HW115545   4.365   1.226   5.762
 4882SOL    HW215546   4.523   1.196   5.732
 4883SOL     OW15547   4.872   4.211   0.762
 4883SOL    HW115548   4.852   4.210   0.664
 4883SOL    HW215549   4.792   4.244   0.812
 4884SOL     OW15550   2.897   5.207   1.483
 4884SOL    HW115551   2.813   5.187   1.434
 4884SOL    HW215552   2.901   5.305   1.503
 4885SOL     OW15553   2.249   4.860   1.483
 4885SOL    HW115554   2.239   4.940   1.423
 4885SOL    HW215555   2.199   4.876   1.568
 4886SOL     OW15556   3.052   6.302   1.478
 4886SOL    HW115557   3.021   6.385   1.524
 4886SOL    HW215558   2.981   6.232   1.485
 4887SOL     OW15559   0.199   6.407   1.598
 4887SOL    HW115560   0.187   6.338   1.526
 4887SOL    HW215561   0.110   6.447   1.621
 4888SOL     OW15562   3.114   0.180   3.274
 4888SOL    HW115563   3.065   0.097   3.246
 4888SOL    HW215564   3.054   0.259   3.263
 4889SOL     OW15565   6.770   2.360   5.066
 4889SOL    HW115566   6.684   2.402   5.095
 4889SOL    HW215567   6.846   2.399   5.118
 4890SOL     OW15568   6.791   1.735   5.324
 4890SOL    HW115569   6.786   1.686   5.411
 4890SOL    HW215570   6.726   1.695   5.260
 4891SOL     OW15571   2.178   5.511   0.137
 4891SOL    HW115572   2.255   5.566   0.171
 4891SOL    HW215573   2.095   5.567   0.139
 4892SOL     OW15574   4.704   5.766   2.491
 4892SOL    HW115575   4.623   5.822   2.468
 4892SOL    HW215576   4.748   5.803   2.572
 4893SOL     OW15577   6.343   3.391   2.275
 4893SOL    HW115578   6.428   3.415   2.227
 4893SOL    HW215579   6.268   3.445   2.237
 4894SOL     OW15580   3.693   0.634   2.826
 4894SOL    HW115581   3.626   0.630   2.900
 4894SOL    HW215582   3.700   0.545   2.782
 4895SOL     OW15583   0.571   4.740   3.796
 4895SOL    HW115584   0.616   4.827   3.776
 4895SOL    HW215585   0.640   4.672   3.821
 4896SOL     OW15586   2.487   4.483   2.683
 4896SOL    HW115587   2.434   4.568   2.684
 4896SOL    HW215588   2.579   4.501   2.649
 4897SOL     OW15589   2.005   5.940   5.209
 4897SOL    HW115590   1.980   6.026   5.166
 4897SOL    HW215591   2.057   5.884   5.144
 4898SOL     OW15592   3.450   1.292   4.998
 4898SOL    HW115593   3.518   1.360   4.970
 4898SOL    HW215594   3.374   1.292   4.933
 4899SOL     OW15595   5.828   4.651   3.177
 4899SOL    HW115596   5.901   4.636   3.111
 4899SOL    HW215597   5.857   4.720   3.244
 4900SOL     OW15598   3.489   5.860   5.217
 4900SOL    HW115599   3.508   5.958   5.225
 4900SOL    HW215600   3.392   5.847   5.198
 4901SOL     OW15601   2.239   1.512   5.646
 4901SOL    HW115602   2.179   1.588   5.672
 4901SOL    HW215603   2.265   1.461   5.729
 4902SOL     OW15604   1.063   1.571   4.723
 4902SOL    HW115605   1.099   1.628   4.796
 4902SOL    HW215606   1.077   1.615   4.635
 4903SOL     OW15607   4.604   5.795   0.360
 4903SOL    HW115608   4.514   5.822   0.395
 4903SOL    HW215609   4.658   5.755   0.434
 4904SOL     OW15610   2.117   0.262   5.446
 4904SOL    HW115611   2.040   0.250   5.508
 4904SOL    HW215612   2.084   0.264   5.351
 4905SOL     OW15613   2.854   0.902   3.787
 4905SOL    HW115614   2.765   0.875   3.750
 4905SOL    HW215615   2.926   0.854   3.738
 4906SOL     OW15616   4.714   2.223   6.152
 4906SOL    HW115617   4.749   2.254   6.063
 4906SOL    HW215618   4.669   2.135   6.141
 4907SOL     OW15619   4.701   0.291   1.602
 4907SOL    HW115620   4.746   0.301   1.514
 4907SOL    HW215621   4.665   0.380   1.631
 4908SOL     OW15622   5.169   6.555   6.931
 4908SOL    HW115623   5.183   6.493   7.008
 4908SOL    HW215624   5.072   6.558   6.907
 4909SOL     OW15625   0.095   5.467   3.099
 4909SOL    HW115626   0.094   5.388   3.038
 4909SOL    HW215627   0.146   5.445   3.182
 4910SOL     OW15628   5.559   0.284   4.278
 4910SOL    HW115629   5.540   0.348   4.203
 4910SOL    HW215630   5.473   0.263   4.325
 4911SOL     OW15631   1.511   3.689   3.001
 4911SOL    HW115632   1.607   3.668   2.981
 4911SOL    HW215633   1.505   3.731   3.092
 4912SOL     OW15634   5.525   1.740   5.899
 4912SOL    HW115635   5.576   1.813   5.852
 4912SOL    HW215636   5.506   1.769   5.992
 4913SOL     OW15637   4.808   3.697   5.577
 4913SOL    HW115638   4.709   3.690   5.585
 4913SOL    HW215639   4.838   3.654   5.492
 4914SOL     OW15640   4.209   6.785   5.482
 4914SOL    HW115641   4.194   6.880   5.509
 4914SOL    HW215642   4.127   6.752   5.435
 4915SOL     OW15643   2.769   6.249   5.113
 4915SOL    HW115644   2.806   6.156   5.107
 4915SOL    HW215645   2.694   6.251   5.179
 4916SOL     OW15646   0.754   1.137   3.788
 4916SOL    HW115647   0.768   1.041   3.763
 4916SOL    HW215648   0.711   1.142   3.878
 4917SOL     OW15649   3.502   5.489   1.456
 4917SOL    HW115650   3.483   5.409   1.514
 4917SOL    HW215651   3.420   5.512   1.404
 4918SOL     OW15652   5.628   6.612   1.819
 4918SOL    HW115653   5.713   6.661   1.836
 4918SOL    HW215654   5.641   6.550   1.741
 4919SOL     OW15655   2.854   3.457   2.241
 4919SOL    HW115656   2.885   3.384   2.180
 4919SOL    HW215657   2.755   3.468   2.233
 4920SOL     OW15658   5.531   6.722   4.908
 4920SOL    HW115659   5.474   6.720   4.990
 4920SOL    HW215660   5.594   6.800   4.913
 4921SOL     OW15661   1.295   5.211   0.065
 4921SOL    HW115662   1.255   5.185   7.002
 4921SOL    HW215663   1.256   5.298   0.095
 4922SOL     OW15664   2.999   2.186   4.378
 4922SOL    HW115665   3.016   2.283   4.363
 4922SOL    HW215666   2.949   2.148   4.301
 4923SOL     OW15667   2.733   1.022   2.201
 4923SOL    HW115668   2.698   0.929   2.193
 4923SOL    HW215669   2.829   1.019   2.229
 4924SOL     OW15670   3.122   1.490   4.450
 4924SOL    HW115671   3.112   1.580   4.407
 4924SOL    HW215672   3.165   1.427   4.385
 4925SOL     OW15673   5.334   0.311   2.690
 4925SOL    HW115674   5.237   0.313   2.666
 4925SOL    HW215675   5.389   0.312   2.607
 4926SOL     OW15676   5.713   1.674   2.005
 4926SOL    HW115677   5.763   1.617   2.071
 4926SOL    HW215678   5.669   1.750   2.053
 4927SOL     OW15679   3.046   3.259   5.670
 4927SOL    HW115680   3.055   3.268   5.770
 4927SOL    HW215681   3.078   3.343   5.626
 4928SOL     OW15682   1.484   0.812   6.517
 4928SOL    HW115683   1.480   0.716   6.490
 4928SOL    HW215684   1.398   0.858   6.495
 4929SOL     OW15685   6.143   0.243   4.189
 4929SOL    HW115686   6.062   0.252   4.246
 4929SOL    HW215687   6.225   0.263   4.244
 4930SOL     OW15688   5.565   6.952   2.582
 4930SOL    HW115689   5.479   6.975   2.536
 4930SOL    HW215690   5.639   7.007   2.544
 4931SOL     OW15691   6.493   6.677   1.585
 4931SOL    HW115692   6.575   6.680   1.527
 4931SOL    HW215693   6.517   6.638   1.674
 4932SOL     OW15694   4.022   3.303   3.172
 4932SOL    HW115695   4.076   3.375   3.215
 4932SOL    HW215696   3.981   3.245   3.243
 4933SOL     OW15697   2.353   6.906   2.251
 4933SOL    HW115698   2.343   6.899   2.350
 4933SOL    HW215699   2.426   6.845   2.221
 4934SOL     OW15700   3.466   6.167   2.854
 4934SOL    HW115701   3.413   6.215   2.924
 4934SOL    HW215702   3.449   6.069   2.860
 4935SOL     OW15703   1.736   2.125   6.173
 4935SOL    HW115704   1.785   2.181   6.240
 4935SOL    HW215705   1.684   2.184   6.112
 4936SOL     OW15706   3.173   4.924   1.080
 4936SOL    HW115707   3.177   4.833   1.040
 4936SOL    HW215708   3.193   4.992   1.010
 4937SOL     OW15709   5.405   2.881   5.620
 4937SOL    HW115710   5.361   2.924   5.699
 4937SOL    HW215711   5.457   2.802   5.650
 4938SOL     OW15712   2.775   5.618   6.027
 4938SOL    HW115713   2.736   5.598   5.938
 4938SOL    HW215714   2.726   5.694   6.069
 4939SOL     OW15715   5.067   2.053   5.051
 4939SOL    HW115716   5.117   1.966   5.053
 4939SOL    HW215717   4.991   2.046   4.986
 4940SOL     OW15718   1.188   1.088   4.604
 4940SOL    HW115719   1.214   1.181   4.632
 4940SOL    HW215720   1.235   1.022   4.662
 4941SOL     OW15721   3.824   2.234   6.226
 4941SOL    HW115722   3.912   2.189   6.242
 4941SOL    HW215723   3.789   2.208   6.136
 4942SOL     OW15724   5.212   3.577   5.659
 4942SOL    HW115725   5.302   3.598   5.619
 4942SOL    HW215726   5.205   3.478   5.675
 4943SOL     OW15727   3.853   3.284   1.062
 4943SOL    HW115728   3.939   3.326   1.035
 4943SOL    HW215729   3.850   3.189   1.029
 4944SOL     OW15730   1.826   4.124   2.546
 4944SOL    HW115731   1.896   4.191   2.521
 4944SOL    HW215732   1.744   4.139   2.492
 4945SOL     OW15733   1.208   1.178   3.697
 4945SOL    HW115734   1.170   1.086   3.684
 4945SOL    HW215735   1.304   1.180   3.669
 4946SOL     OW15736   0.860   3.113   1.936
 4946SOL    HW115737   0.845   3.038   2.000
 4946SOL    HW215738   0.771   3.149   1.906
 4947SOL     OW15739   1.304   6.886   0.914
 4947SOL    HW115740   1.298   6.895   1.013
 4947SOL    HW215741   1.356   6.963   0.876
 4948SOL     OW15742   2.800   0.545   2.324
 4948SOL    HW115743   2.891   0.547   2.282
 4948SOL    HW215744   2.734   0.511   2.257
 4949SOL     OW15745   4.941   0.679   5.507
 4949SOL    HW115746   5.034   0.642   5.502
 4949SOL    HW215747   4.875   0.606   5.486
 4950SOL     OW15748   3.051   5.689   3.476
 4950SOL    HW115749   3.019   5.640   3.395
 4950SOL    HW215750   2.996   5.663   3.555
 4951SOL     OW15751   5.716   1.340   4.932
 4951SOL    HW115752   5.763   1.258   4.899
 4951SOL    HW215753   5.768   1.421   4.905
 4952SOL     OW15754   0.626   0.945   4.792
 4952SOL    HW115755   0.526   0.943   4.787
 4952SOL    HW215756   0.655   1.033   4.829
 4953SOL     OW15757   2.207   6.035   2.302
 4953SOL    HW115758   2.108   6.036   2.316
 4953SOL    HW215759   2.231   6.106   2.235
 4954SOL     OW15760   4.513   4.360   6.455
 4954SOL    HW115761   4.520   4.317   6.545
 4954SOL    HW215762   4.424   4.404   6.446
 4955SOL     OW15763   1.539   6.042   6.763
 4955SOL    HW115764   1.480   6.001   6.833
 4955SOL    HW215765   1.610   6.097   6.807
 4956SOL     OW15766   3.159   6.880   5.018
 4956SOL    HW115767   3.181   6.881   4.920
 4956SOL    HW215768   3.204   6.957   5.063
 4957SOL     OW15769   6.873   1.000   3.355
 4957SOL    HW115770   6.806   1.001   3.429
 4957SOL    HW215771   6.870   0.912   3.308
 4958SOL     OW15772   0.110   6.372   5.923
 4958SOL    HW115773   0.176   6.302   5.895
 4958SOL    HW215774   0.127   6.397   6.018
 4959SOL     OW15775   6.896   1.258   6.899
 4959SOL    HW115776   6.865   1.170   6.935
 4959SOL    HW215777   6.875   1.263   6.801
 4960SOL     OW15778   3.237   6.543   3.648
 4960SOL    HW115779   3.281   6.551   3.558
 4960SOL    HW215780   3.234   6.446   3.675
 4961SOL     OW15781   5.342   1.155   5.138
 4961SOL    HW115782   5.242   1.145   5.140
 4961SOL    HW215783   5.370   1.222   5.206
 4962SOL     OW15784   5.729   2.775   1.469
 4962SOL    HW115785   5.797   2.796   1.398
 4962SOL    HW215786   5.638   2.800   1.436
 4963SOL     OW15787   5.843   6.045   1.183
 4963SOL    HW115788   5.873   5.989   1.105
 4963SOL    HW215789   5.922   6.066   1.241
 4964SOL     OW15790   3.704   6.516   3.162
 4964SOL    HW115791   3.683   6.540   3.257
 4964SOL    HW215792   3.710   6.417   3.154
 4965SOL     OW15793   0.295   6.841   4.043
 4965SOL    HW115794   0.313   6.824   3.946
 4965SOL    HW215795   0.377   6.822   4.096
 4966SOL     OW15796   2.453   6.734   4.604
 4966SOL    HW115797   2.491   6.642   4.617
 4966SOL    HW215798   2.377   6.748   4.666
 4967SOL     OW15799   4.460   3.130   6.563
 4967SOL    HW115800   4.364   3.160   6.558
 4967SOL    HW215801   4.498   3.154   6.652
 4968SOL     OW15802   5.255   2.820   3.367
 4968SOL    HW115803   5.214   2.765   3.439
 4968SOL    HW215804   5.333   2.771   3.327
 4969SOL     OW15805   1.581   0.942   2.571
 4969SOL    HW115806   1.597   0.846   2.596
 4969SOL    HW215807   1.541   0.946   2.479
 4970SOL     OW15808   1.740   2.585   4.827
 4970SOL    HW115809   1.773   2.679   4.838
 4970SOL    HW215810   1.703   2.573   4.734
 4971SOL     OW15811   6.272   5.938   3.820
 4971SOL    HW115812   6.335   5.998   3.770
 4971SOL    HW215813   6.239   5.985   3.902
 4972SOL     OW15814   2.124   3.636   0.962
 4972SOL    HW115815   2.119   3.585   0.877
 4972SOL    HW215816   2.060   3.597   1.028
 4973SOL     OW15817   0.154   0.030   1.823
 4973SOL    HW115818   0.090   0.106   1.832
 4973SOL    HW215819   0.126   6.995   1.747
 4974SOL     OW15820   6.678   4.568   0.665
 4974SOL    HW115821   6.667   4.659   0.705
 4974SOL    HW215822   6.722   4.508   0.731
 4975SOL     OW15823   6.074   5.757   0.566
 4975SOL    HW115824   6.150   5.693   0.552
 4975SOL    HW215825   6.109   5.845   0.596
 4976SOL     OW15826   2.803   0.383   4.379
 4976SOL    HW115827   2.706   0.404   4.381
 4976SOL    HW215828   2.840   0.405   4.289
 4977SOL     OW15829   5.132   4.175   0.661
 4977SOL    HW115830   5.037   4.182   0.692
 4977SOL    HW215831   5.177   4.264   0.673
 4978SOL     OW15832   6.907   3.531   5.489
 4978SOL    HW115833   6.976   3.507   5.420
 4978SOL    HW215834   6.816   3.518   5.451
 4979SOL     OW15835   0.206   2.019   4.904
 4979SOL    HW115836   0.180   2.116   4.908
 4979SOL    HW215837   0.292   2.010   4.855
 4980SOL     OW15838   4.746   6.783   3.286
 4980SOL    HW115839   4.697   6.697   3.297
 4980SOL    HW215840   4.828   6.768   3.232
 4981SOL     OW15841   5.037   5.828   5.631
 4981SOL    HW115842   4.944   5.864   5.641
 4981SOL    HW215843   5.051   5.753   5.696
 4982SOL     OW15844   2.474   1.485   6.870
 4982SOL    HW115845   2.506   1.424   6.943
 4982SOL    HW215846   2.386   1.452   6.836
 4983SOL     OW15847   4.827   3.174   4.385
 4983SOL    HW115848   4.872   3.233   4.453
 4983SOL    HW215849   4.729   3.193   4.385
 4984SOL     OW15850   5.516   3.385   4.287
 4984SOL    HW115851   5.483   3.292   4.305
 4984SOL    HW215852   5.530   3.397   4.189
 4985SOL     OW15853   6.710   6.432   3.612
 4985SOL    HW115854   6.757   6.385   3.537
 4985SOL    HW215855   6.613   6.439   3.590
 4986SOL     OW15856   6.531   4.550   3.161
 4986SOL    HW115857   6.524   4.578   3.256
 4986SOL    HW215858   6.486   4.462   3.147
 4987SOL     OW15859   0.898   2.093   1.196
 4987SOL    HW115860   0.878   2.023   1.128
 4987SOL    HW215861   0.970   2.153   1.161
 4988SOL     OW15862   6.769   1.348   3.903
 4988SOL    HW115863   6.698   1.279   3.892
 4988SOL    HW215864   6.813   1.338   3.992
 4989SOL     OW15865   6.033   1.442   1.754
 4989SOL    HW115866   6.119   1.422   1.800
 4989SOL    HW215867   5.972   1.363   1.761
 4990SOL     OW15868   1.086   2.195   6.087
 4990SOL    HW115869   1.103   2.166   5.993
 4990SOL    HW215870   1.141   2.139   6.149
 4991SOL     OW15871   0.838   3.214   3.965
 4991SOL    HW115872   0.752   3.170   3.940
 4991SOL    HW215873   0.914   3.165   3.923
 4992SOL     OW15874   4.425   1.056   4.280
 4992SOL    HW115875   4.477   0.982   4.236
 4992SOL    HW215876   4.477   1.090   4.359
 4993SOL     OW15877   2.569   4.618   3.863
 4993SOL    HW115878   2.664   4.603   3.838
 4993SOL    HW215879   2.519   4.656   3.785
 4994SOL     OW15880   1.624   0.003   2.484
 4994SOL    HW115881   1.528   0.029   2.487
 4994SOL    HW215882   1.672   0.062   2.419
 4995SOL     OW15883   6.870   3.405   5.745
 4995SOL    HW115884   6.895   3.308   5.738
 4995SOL    HW215885   6.891   3.452   5.660
 4996SOL     OW15886   0.993   0.338   2.359
 4996SOL    HW115887   1.023   0.406   2.425
 4996SOL    HW215888   1.055   0.260   2.359
 4997SOL     OW15889   6.605   2.061   2.906
 4997SOL    HW115890   6.634   2.017   2.991
 4997SOL    HW215891   6.529   2.010   2.866
 4998SOL     OW15892   1.889   4.238   4.778
 4998SOL    HW115893   1.881   4.249   4.679
 4998SOL    HW215894   1.946   4.312   4.815
 4999SOL     OW15895   4.633   5.684   1.413
 4999SOL    HW115896   4.692   5.635   1.477
 4999SOL    HW215897   4.615   5.776   1.447
 5000SOL     OW15898   1.575   0.446   3.998
 5000SOL    HW115899   1.645   0.515   3.984
 5000SOL    HW215900   1.487   0.491   4.016
 5001SOL     OW15901   1.778   3.989   6.164
 5001SOL    HW115902   1.724   3.960   6.085
 5001SOL    HW215903   1.871   3.952   6.156
 5002SOL     OW15904   1.263   2.820   2.885
 5002SOL    HW115905   1.191   2.890   2.887
 5002SOL    HW215906   1.235   2.743   2.942
 5003SOL     OW15907   1.143   6.541   3.324
 5003SOL    HW115908   1.058   6.593   3.334
 5003SOL    HW215909   1.203   6.589   3.260
 5004SOL     OW15910   2.481   5.778   5.881
 5004SOL    HW115911   2.493   5.701   5.944
 5004SOL    HW215912   2.502   5.864   5.929
 5005SOL     OW15913   3.814   2.148   0.671
 5005SOL    HW115914   3.812   2.096   0.756
 5005SOL    HW215915   3.846   2.241   0.690
 5006SOL     OW15916   5.591   6.905   6.348
 5006SOL    HW115917   5.565   6.904   6.252
 5006SOL    HW215918   5.676   6.955   6.360
 5007SOL     OW15919   2.708   0.475   6.205
 5007SOL    HW115920   2.647   0.423   6.145
 5007SOL    HW215921   2.799   0.481   6.164
 5008SOL     OW15922   6.456   0.481   3.770
 5008SOL    HW115923   6.395   0.483   3.848
 5008SOL    HW215924   6.548   0.453   3.799
 5009SOL     OW15925   1.595   5.882   1.718
 5009SOL    HW115926   1.575   5.917   1.809
 5009SOL    HW215927   1.540   5.933   1.651
 5010SOL     OW15928   4.046   3.569   3.987
 5010SOL    HW115929   3.957   3.526   3.977
 5010SOL    HW215930   4.096   3.525   4.062
 5011SOL     OW15931   2.146   3.156   1.940
 5011SOL    HW115932   2.131   3.138   2.037
 5011SOL    HW215933   2.198   3.242   1.930
 5012SOL     OW15934   5.809   2.742   6.498
 5012SOL    HW115935   5.787   2.819   6.438
 5012SOL    HW215936   5.828   2.776   6.591
 5013SOL     OW15937   5.035   0.640   6.718
 5013SOL    HW115938   4.959   0.642   6.783
 5013SOL    HW215939   5.121   0.657   6.766
 5014SOL     OW15940   6.513   5.475   0.447
 5014SOL    HW115941   6.601   5.518   0.465
 5014SOL    HW215942   6.473   5.512   0.363
 5015SOL     OW15943   3.991   1.910   3.821
 5015SOL    HW115944   4.027   1.868   3.738
 5015SOL    HW215945   3.962   2.004   3.802
 5016SOL     OW15946   2.217   1.010   2.252
 5016SOL    HW115947   2.258   0.994   2.162
 5016SOL    HW215948   2.241   1.102   2.284
 5017SOL     OW15949   2.416   2.453   0.677
 5017SOL    HW115950   2.507   2.468   0.715
 5017SOL    HW215951   2.379   2.540   0.643
 5018SOL     OW15952   0.829   4.511   1.447
 5018SOL    HW115953   0.875   4.489   1.361
 5018SOL    HW215954   0.748   4.566   1.427
 5019SOL     OW15955   2.533   4.497   0.705
 5019SOL    HW115956   2.550   4.567   0.774
 5019SOL    HW215957   2.469   4.533   0.637
 5020SOL     OW15958   5.576   6.468   5.038
 5020SOL    HW115959   5.552   6.456   5.135
 5020SOL    HW215960   5.549   6.560   5.008
 5021SOL     OW15961   0.935   3.518   6.233
 5021SOL    HW115962   0.933   3.451   6.159
 5021SOL    HW215963   0.986   3.481   6.310
 5022SOL     OW15964   1.596   0.265   0.957
 5022SOL    HW115965   1.671   0.314   1.001
 5022SOL    HW215966   1.549   0.327   0.893
 5023SOL     OW15967   6.403   3.230   0.719
 5023SOL    HW115968   6.364   3.207   0.808
 5023SOL    HW215969   6.388   3.327   0.699
 5024SOL     OW15970   0.294   4.316   2.466
 5024SOL    HW115971   0.369   4.344   2.405
 5024SOL    HW215972   0.301   4.366   2.552
 5025SOL     OW15973   4.575   2.212   2.325
 5025SOL    HW115974   4.641   2.205   2.250
 5025SOL    HW215975   4.532   2.302   2.324
 5026SOL     OW15976   6.313   6.208   6.296
 5026SOL    HW115977   6.230   6.256   6.325
 5026SOL    HW215978   6.289   6.138   6.229
 5027SOL     OW15979   1.114   6.612   2.964
 5027SOL    HW115980   1.197   6.631   3.017
 5027SOL    HW215981   1.140   6.581   2.872
 5028SOL     OW15982   0.193   6.073   1.818
 5028SOL    HW115983   0.157   5.983   1.845
 5028SOL    HW215984   0.201   6.076   1.718
 5029SOL     OW15985   6.892   3.303   3.031
 5029SOL    HW115986   6.835   3.375   2.990
 5029SOL    HW215987   6.965   3.278   2.968
 5030SOL     OW15988   6.832   0.675   6.926
 5030SOL    HW115989   6.743   0.649   6.888
 5030SOL    HW215990   6.897   0.689   6.852
 5031SOL     OW15991   6.289   1.202   4.293
 5031SOL    HW115992   6.209   1.185   4.350
 5031SOL    HW215993   6.261   1.251   4.210
 5032SOL     OW15994   0.990   4.345   0.977
 5032SOL    HW115995   1.046   4.274   0.935
 5032SOL    HW215996   1.032   4.434   0.963
 5033SOL     OW15997   2.079   5.064   5.965
 5033SOL    HW115998   1.995   5.106   5.998
 5033SOL    HW215999   2.156   5.127   5.980
 5034SOL     OW16000   6.654   3.214   1.642
 5034SOL    HW116001   6.742   3.255   1.616
 5034SOL    HW216002   6.670   3.129   1.692
 5035SOL     OW16003   5.852   4.557   1.264
 5035SOL    HW116004   5.926   4.605   1.312
 5035SOL    HW216005   5.786   4.623   1.231
 5036SOL     OW16006   0.398   5.892   6.377
 5036SOL    HW116007   0.459   5.955   6.426
 5036SOL    HW216008   0.350   5.835   6.443
 5037SOL     OW16009   4.851   2.531   3.234
 5037SOL    HW116010   4.870   2.613   3.289
 5037SOL    HW216011   4.752   2.518   3.227
 5038SOL     OW16012   2.068   5.941   5.650
 5038SOL    HW116013   2.117   5.967   5.567
 5038SOL    HW216014   2.051   5.843   5.648
 5039SOL     OW16015   1.870   3.691   4.957
 5039SOL    HW116016   1.908   3.775   4.995
 5039SOL    HW216017   1.930   3.658   4.883
 5040SOL     OW16018   2.765   3.602   6.616
 5040SOL    HW116019   2.811   3.548   6.545
 5040SOL    HW216020   2.775   3.555   6.704
 5041SOL     OW16021   0.648   3.446   1.124
 5041SOL    HW116022   0.701   3.404   1.050
 5041SOL    HW216023   0.616   3.375   1.187
 5042SOL     OW16024   6.722   3.259   6.770
 5042SOL    HW116025   6.786   3.311   6.714
 5042SOL    HW216026   6.738   3.161   6.756
 5043SOL     OW16027   3.460   1.214   5.521
 5043SOL    HW116028   3.417   1.215   5.431
 5043SOL    HW216029   3.494   1.305   5.544
 5044SOL     OW16030   6.173   6.245   3.427
 5044SOL    HW116031   6.264   6.268   3.392
 5044SOL    HW216032   6.173   6.150   3.458
 5045SOL     OW16033   4.861   3.442   0.225
 5045SOL    HW116034   4.895   3.442   0.131
 5045SOL    HW216035   4.807   3.358   0.240
 5046SOL     OW16036   3.636   2.939   4.962
 5046SOL    HW116037   3.573   2.985   5.025
 5046SOL    HW216038   3.710   2.897   5.014
 5047SOL     OW16039   6.105   1.500   2.419
 5047SOL    HW116040   6.067   1.590   2.436
 5047SOL    HW216041   6.077   1.436   2.491
 5048SOL     OW16042   6.400   2.206   2.072
 5048SOL    HW116043   6.446   2.119   2.091
 5048SOL    HW216044   6.452   2.257   2.003
 5049SOL     OW16045   6.339   1.110   2.812
 5049SOL    HW116046   6.310   1.139   2.721
 5049SOL    HW216047   6.439   1.110   2.817
 5050SOL     OW16048   0.684   1.694   1.842
 5050SOL    HW116049   0.713   1.788   1.858
 5050SOL    HW216050   0.589   1.682   1.872
 5051SOL     OW16051   3.654   3.359   0.674
 5051SOL    HW116052   3.581   3.315   0.623
 5051SOL    HW216053   3.620   3.392   0.762
 5052SOL     OW16054   2.914   4.631   0.123
 5052SOL    HW116055   2.913   4.617   0.024
 5052SOL    HW216056   3.004   4.604   0.159
 5053SOL     OW16057   1.977   3.767   2.157
 5053SOL    HW116058   2.046   3.838   2.146
 5053SOL    HW216059   1.908   3.775   2.085
 5054SOL     OW16060   3.742   6.061   5.583
 5054SOL    HW116061   3.792   6.112   5.513
 5054SOL    HW216062   3.659   6.111   5.608
 5055SOL     OW16063   0.513   1.597   4.915
 5055SOL    HW116064   0.445   1.606   4.987
 5055SOL    HW216065   0.605   1.609   4.955
 5056SOL     OW16066   6.970   4.329   6.516
 5056SOL    HW116067   7.001   4.295   6.605
 5056SOL    HW216068   0.013   4.304   6.445
 5057SOL     OW16069   0.868   5.326   3.438
 5057SOL    HW116070   0.844   5.409   3.387
 5057SOL    HW216071   0.967   5.310   3.431
 5058SOL     OW16072   3.914   3.776   6.525
 5058SOL    HW116073   3.967   3.693   6.541
 5058SOL    HW216074   3.830   3.753   6.476
 5059SOL     OW16075   4.715   2.796   4.976
 5059SOL    HW116076   4.676   2.764   4.890
 5059SOL    HW216077   4.796   2.853   4.958
 5060SOL     OW16078   6.917   3.295   4.771
 5060SOL    HW116079   6.936   3.217   4.711
 5060SOL    HW216080   6.931   3.380   4.720
 5061SOL     OW16081   3.056   3.131   4.263
 5061SOL    HW116082   2.994   3.054   4.275
 5061SOL    HW216083   3.101   3.124   4.173
 5062SOL     OW16084   5.023   1.651   2.624
 5062SOL    HW116085   4.992   1.613   2.711
 5062SOL    HW216086   5.110   1.608   2.599
 5063SOL     OW16087   1.165   6.342   1.503
 5063SOL    HW116088   1.099   6.374   1.570
 5063SOL    HW216089   1.257   6.341   1.543
 5064SOL     OW16090   4.667   5.239   0.900
 5064SOL    HW116091   4.731   5.263   0.826
 5064SOL    HW216092   4.662   5.139   0.907
 5065SOL     OW16093   1.950   0.743   2.891
 5065SOL    HW116094   1.904   0.791   2.816
 5065SOL    HW216095   2.013   0.676   2.853
 5066SOL     OW16096   2.284   4.098   1.725
 5066SOL    HW116097   2.366   4.055   1.688
 5066SOL    HW216098   2.272   4.188   1.683
 5067SOL     OW16099   4.159   2.108   1.874
 5067SOL    HW116100   4.237   2.062   1.916
 5067SOL    HW216101   4.192   2.177   1.810
 5068SOL     OW16102   3.193   5.769   0.269
 5068SOL    HW116103   3.255   5.713   0.214
 5068SOL    HW216104   3.099   5.744   0.250
 5069SOL     OW16105   2.287   3.135   5.612
 5069SOL    HW116106   2.224   3.057   5.610
 5069SOL    HW216107   2.296   3.173   5.520
 5070SOL     OW16108   6.019   4.314   3.801
 5070SOL    HW116109   5.978   4.325   3.711
 5070SOL    HW216110   6.028   4.403   3.845
 5071SOL     OW16111   3.534   1.811   3.469
 5071SOL    HW116112   3.610   1.755   3.437
 5071SOL    HW216113   3.510   1.784   3.563
 5072SOL     OW16114   2.142   1.006   1.178
 5072SOL    HW116115   2.152   1.073   1.251
 5072SOL    HW216116   2.228   0.957   1.166
 5073SOL     OW16117   2.121   6.345   1.845
 5073SOL    HW116118   2.080   6.261   1.880
 5073SOL    HW216119   2.182   6.323   1.769
 5074SOL     OW16120   3.604   1.728   1.600
 5074SOL    HW116121   3.568   1.819   1.582
 5074SOL    HW216122   3.546   1.681   1.666
 5075SOL     OW16123   1.588   2.497   0.023
 5075SOL    HW116124   1.592   2.415   0.079
 5075SOL    HW216125   1.583   2.471   6.950
 5076SOL     OW16126   5.423   0.463   6.914
 5076SOL    HW116127   5.519   0.473   6.937
 5076SOL    HW216128   5.380   0.400   6.979
 5077SOL     OW16129   1.662   3.706   6.268
 5077SOL    HW116130   1.738   3.771   6.260
 5077SOL    HW216131   1.673   3.635   6.199
 5078SOL     OW16132   0.588   1.044   4.447
 5078SOL    HW116133   0.653   1.030   4.372
 5078SOL    HW216134   0.539   0.959   4.466
 5079SOL     OW16135   2.117   2.380   5.900
 5079SOL    HW116136   2.080   2.457   5.952
 5079SOL    HW216137   2.042   2.316   5.880
 5080SOL     OW16138   5.925   5.700   5.775
 5080SOL    HW116139   5.902   5.653   5.690
 5080SOL    HW216140   5.896   5.795   5.770
 5081SOL     OW16141   2.467   4.966   5.192
 5081SOL    HW116142   2.476   5.056   5.148
 5081SOL    HW216143   2.506   4.971   5.284
 5082SOL     OW16144   4.657   6.861   0.120
 5082SOL    HW116145   4.634   6.878   0.024
 5082SOL    HW216146   4.574   6.858   0.174
 5083SOL     OW16147   3.387   0.504   1.397
 5083SOL    HW116148   3.351   0.444   1.468
 5083SOL    HW216149   3.328   0.500   1.316
 5084SOL     OW16150   0.686   4.899   4.827
 5084SOL    HW116151   0.601   4.953   4.835
 5084SOL    HW216152   0.669   4.821   4.766
 5085SOL     OW16153   0.978   2.839   5.809
 5085SOL    HW116154   0.957   2.865   5.715
 5085SOL    HW216155   0.901   2.862   5.868
 5086SOL     OW16156   0.539   4.184   2.095
 5086SOL    HW116157   0.574   4.103   2.048
 5086SOL    HW216158   0.591   4.264   2.064
 5087SOL     OW16159   6.659   5.119   2.217
 5087SOL    HW116160   6.672   5.203   2.269
 5087SOL    HW216161   6.721   5.049   2.252
 5088SOL     OW16162   4.599   6.654   2.883
 5088SOL    HW116163   4.659   6.607   2.818
 5088SOL    HW216164   4.504   6.627   2.867
 5089SOL     OW16165   5.792   4.019   3.948
 5089SOL    HW116166   5.794   4.118   3.936
 5089SOL    HW216167   5.733   3.978   3.878
 5090SOL     OW16168   2.112   1.196   2.811
 5090SOL    HW116169   2.176   1.150   2.873
 5090SOL    HW216170   2.151   1.282   2.781
 5091SOL     OW16171   6.740   0.412   0.815
 5091SOL    HW116172   6.674   0.483   0.839
 5091SOL    HW216173   6.719   0.328   0.864
 5092SOL     OW16174   3.925   3.106   4.001
 5092SOL    HW116175   3.856   3.059   3.946
 5092SOL    HW216176   4.016   3.090   3.961
 5093SOL     OW16177   2.820   1.732   1.756
 5093SOL    HW116178   2.893   1.680   1.803
 5093SOL    HW216179   2.854   1.823   1.734
 5094SOL     OW16180   2.211   5.878   6.861
 5094SOL    HW116181   2.142   5.934   6.815
 5094SOL    HW216182   2.228   5.795   6.808
 5095SOL     OW16183   0.434   1.505   2.937
 5095SOL    HW116184   0.339   1.485   2.917
 5095SOL    HW216185   0.493   1.441   2.887
 5096SOL     OW16186   5.525   4.484   6.213
 5096SOL    HW116187   5.546   4.530   6.127
 5096SOL    HW216188   5.441   4.524   6.252
 5097SOL     OW16189   6.362   0.557   7.006
 5097SOL    HW116190   6.436   0.537   6.941
 5097SOL    HW216191   6.276   0.517   6.972
 5098SOL     OW16192   3.725   2.410   1.415
 5098SOL    HW116193   3.694   2.497   1.377
 5098SOL    HW216194   3.824   2.405   1.410
 5099SOL     OW16195   0.240   6.243   1.359
 5099SOL    HW116196   0.165   6.250   1.294
 5099SOL    HW216197   0.312   6.308   1.335
 5100SOL     OW16198   3.412   5.276   3.219
 5100SOL    HW116199   3.505   5.302   3.243
 5100SOL    HW216200   3.348   5.319   3.283
 5101SOL     OW16201   3.767   0.335   4.429
 5101SOL    HW116202   3.798   0.258   4.486
 5101SOL    HW216203   3.738   0.410   4.489
 5102SOL     OW16204   5.011   5.793   4.501
 5102SOL    HW116205   4.948   5.738   4.446
 5102SOL    HW216206   5.105   5.768   4.479
 5103SOL     OW16207   0.609   1.422   4.529
 5103SOL    HW116208   0.520   1.377   4.521
 5103SOL    HW216209   0.640   1.450   4.438
 5104SOL     OW16210   3.191   5.843   1.771
 5104SOL    HW116211   3.148   5.811   1.855
 5104SOL    HW216212   3.172   5.778   1.697
 5105SOL     OW16213   3.367   3.242   6.322
 5105SOL    HW116214   3.352   3.253   6.421
 5105SOL    HW216215   3.363   3.331   6.277
 5106SOL     OW16216   4.016   1.756   1.183
 5106SOL    HW116217   4.002   1.716   1.274
 5106SOL    HW216218   4.010   1.856   1.189
 5107SOL     OW16219   5.101   2.201   1.058
 5107SOL    HW116220   5.087   2.172   0.963
 5107SOL    HW216221   5.169   2.275   1.061
 5108SOL     OW16222   4.258   3.991   5.306
 5108SOL    HW116223   4.203   4.058   5.257
 5108SOL    HW216224   4.252   4.008   5.404
 5109SOL     OW16225   1.106   2.816   0.863
 5109SOL    HW116226   1.106   2.751   0.787
 5109SOL    HW216227   1.015   2.853   0.876
 5110SOL     OW16228   0.123   0.427   6.229
 5110SOL    HW116229   0.219   0.454   6.224
 5110SOL    HW216230   0.064   0.507   6.211
 5111SOL     OW16231   1.419   6.984   4.179
 5111SOL    HW116232   1.455   0.053   4.170
 5111SOL    HW216233   1.436   6.934   4.094
 5112SOL     OW16234   0.147   0.301   2.780
 5112SOL    HW116235   0.109   0.392   2.792
 5112SOL    HW216236   0.103   0.238   2.843
 5113SOL     OW16237   1.385   5.990   1.374
 5113SOL    HW116238   1.348   5.940   1.453
 5113SOL    HW216239   1.484   5.976   1.369
 5114SOL     OW16240   3.884   6.765   0.290
 5114SOL    HW116241   3.887   6.764   0.190
 5114SOL    HW216242   3.790   6.780   0.320
 5115SOL     OW16243   1.867   4.094   2.146
 5115SOL    HW116244   1.886   4.124   2.053
 5115SOL    HW216245   1.773   4.059   2.152
 5116SOL     OW16246   2.100   6.740   6.844
 5116SOL    HW116247   2.084   6.700   6.935
 5116SOL    HW216248   2.191   6.783   6.842
 5117SOL     OW16249   1.090   3.648   3.774
 5117SOL    HW116250   1.176   3.617   3.815
 5117SOL    HW216251   1.019   3.580   3.789
 5118SOL     OW16252   5.700   6.813   0.122
 5118SOL    HW116253   5.696   6.829   0.024
 5118SOL    HW216254   5.767   6.875   0.163
 5119SOL     OW16255   4.693   1.654   1.458
 5119SOL    HW116256   4.741   1.567   1.449
 5119SOL    HW216257   4.757   1.729   1.443
 5120SOL     OW16258   4.502   6.861   5.428
 5120SOL    HW116259   4.415   6.857   5.379
 5120SOL    HW216260   4.520   6.773   5.470
 5121SOL     OW16261   3.474   3.350   0.257
 5121SOL    HW116262   3.427   3.400   0.330
 5121SOL    HW216263   3.512   3.414   0.191
 5122SOL     OW16264   3.848   5.989   2.960
 5122SOL    HW116265   3.869   5.934   2.879
 5122SOL    HW216266   3.931   6.033   2.993
 5123SOL     OW16267   5.487   2.380   3.674
 5123SOL    HW116268   5.403   2.391   3.726
 5123SOL    HW216269   5.493   2.451   3.604
 5124SOL     OW16270   2.048   6.733   3.566
 5124SOL    HW116271   2.104   6.683   3.500
 5124SOL    HW216272   2.063   6.831   3.556
 5125SOL     OW16273   0.415   2.238   2.982
 5125SOL    HW116274   0.363   2.260   2.900
 5125SOL    HW216275   0.501   2.195   2.957
 5126SOL     OW16276   1.057   6.278   0.070
 5126SOL    HW116277   1.109   6.202   0.109
 5126SOL    HW216278   1.083   6.363   0.116
 5127SOL     OW16279   0.771   5.489   6.719
 5127SOL    HW116280   0.787   5.430   6.639
 5127SOL    HW216281   0.816   5.577   6.705
 5128SOL     OW16282   6.515   6.675   0.784
 5128SOL    HW116283   6.511   6.653   0.686
 5128SOL    HW216284   6.530   6.774   0.795
 5129SOL     OW16285   4.791   6.373   2.391
 5129SOL    HW116286   4.763   6.309   2.462
 5129SOL    HW216287   4.884   6.351   2.360
 5130SOL     OW16288   0.043   5.294   2.555
 5130SOL    HW116289   0.028   5.332   2.646
 5130SOL    HW216290   0.039   5.367   2.487
 5131SOL     OW16291   1.827   3.459   4.243
 5131SOL    HW116292   1.927   3.467   4.241
 5131SOL    HW216293   1.786   3.548   4.225
 5132SOL     OW16294   4.341   2.583   5.803
 5132SOL    HW116295   4.439   2.602   5.789
 5132SOL    HW216296   4.329   2.533   5.889
 5133SOL     OW16297   2.792   4.799   0.542
 5133SOL    HW116298   2.821   4.710   0.507
 5133SOL    HW216299   2.845   4.871   0.497
 5134SOL     OW16300   6.910   2.605   2.053
 5134SOL    HW116301   6.882   2.699   2.072
 5134SOL    HW216302   7.009   2.600   2.045
 5135SOL     OW16303   6.424   2.200   5.301
 5135SOL    HW116304   6.398   2.245   5.216
 5135SOL    HW216305   6.363   2.122   5.317
 5136SOL     OW16306   5.004   0.095   5.768
 5136SOL    HW116307   5.072   0.078   5.839
 5136SOL    HW216308   4.922   0.040   5.785
 5137SOL     OW16309   6.063   3.040   6.244
 5137SOL    HW116310   6.145   3.079   6.201
 5137SOL    HW216311   5.992   3.110   6.251
 5138SOL     OW16312   3.089   2.985   5.865
 5138SOL    HW116313   3.124   2.893   5.886
 5138SOL    HW216314   3.004   2.976   5.812
 5139SOL     OW16315   1.529   0.005   3.579
 5139SOL    HW116316   1.586   6.962   3.532
 5139SOL    HW216317   1.566   0.097   3.564
 5140SOL     OW16318   2.974   1.623   0.250
 5140SOL    HW116319   2.922   1.537   0.253
 5140SOL    HW216320   2.944   1.678   0.172
 5141SOL     OW16321   6.744   3.639   0.418
 5141SOL    HW116322   6.765   3.706   0.346
 5141SOL    HW216323   6.645   3.626   0.421
 5142SOL     OW16324   6.140   1.339   3.798
 5142SOL    HW116325   6.050   1.356   3.838
 5142SOL    HW216326   6.138   1.253   3.746
 5143SOL     OW16327   0.595   4.275   3.736
 5143SOL    HW116328   0.677   4.218   3.731
 5143SOL    HW216329   0.581   4.320   3.647
 5144SOL     OW16330   0.983   6.095   6.380
 5144SOL    HW116331   1.004   6.175   6.323
 5144SOL    HW216332   1.020   6.110   6.472
 5145SOL     OW16333   2.051   5.514   6.076
 5145SOL    HW116334   1.968   5.460   6.064
 5145SOL    HW216335   2.124   5.476   6.020
 5146SOL     OW16336   4.508   3.696   5.555
 5146SOL    HW116337   4.535   3.701   5.459
 5146SOL    HW216338   4.490   3.601   5.579
 5147SOL     OW16339   0.126   4.349   2.140
 5147SOL    HW116340   0.194   4.399   2.086
 5147SOL    HW216341   0.156   4.255   2.152
 5148SOL     OW16342   0.696   6.275   0.871
 5148SOL    HW116343   0.688   6.230   0.782
 5148SOL    HW216344   0.682   6.374   0.860
 5149SOL     OW16345   5.894   5.941   4.666
 5149SOL    HW116346   5.839   5.946   4.750
 5149SOL    HW216347   5.976   5.997   4.677
 5150SOL     OW16348   2.241   4.618   3.064
 5150SOL    HW116349   2.315   4.551   3.060
 5150SOL    HW216350   2.154   4.574   3.045
 5151SOL     OW16351   5.375   1.254   0.478
 5151SOL    HW116352   5.322   1.234   0.561
 5151SOL    HW216353   5.351   1.189   0.406
 5152SOL     OW16354   2.014   5.084   6.411
 5152SOL    HW116355   1.918   5.112   6.410
 5152SOL    HW216356   2.040   5.052   6.320
 5153SOL     OW16357   2.019   1.043   6.199
 5153SOL    HW116358   1.943   1.103   6.175
 5153SOL    HW216359   2.098   1.098   6.227
 5154SOL     OW16360   2.033   2.718   6.400
 5154SOL    HW116361   2.121   2.670   6.389
 5154SOL    HW216362   1.993   2.694   6.488
 5155SOL     OW16363   3.440   6.358   2.144
 5155SOL    HW116364   3.469   6.284   2.084
 5155SOL    HW216365   3.510   6.374   2.214
 5156SOL     OW16366   6.920   3.137   5.672
 5156SOL    HW116367   7.013   3.128   5.639
 5156SOL    HW216368   6.856   3.130   5.596
 5157SOL     OW16369   4.561   2.524   3.811
 5157SOL    HW116370   4.518   2.469   3.883
 5157SOL    HW216371   4.621   2.465   3.755
 5158SOL     OW16372   3.194   1.797   1.359
 5158SOL    HW116373   3.121   1.729   1.364
 5158SOL    HW216374   3.163   1.875   1.304
 5159SOL     OW16375   0.465   3.368   4.697
 5159SOL    HW116376   0.387   3.401   4.643
 5159SOL    HW216377   0.469   3.268   4.691
 5160SOL     OW16378   0.582   3.864   3.805
 5160SOL    HW116379   0.541   3.775   3.783
 5160SOL    HW216380   0.509   3.928   3.832
 5161SOL     OW16381   1.295   3.546   4.665
 5161SOL    HW116382   1.333   3.460   4.698
 5161SOL    HW216383   1.271   3.537   4.568
 5162SOL     OW16384   1.030   5.146   4.180
 5162SOL    HW116385   1.030   5.052   4.212
 5162SOL    HW216386   0.946   5.192   4.210
 5163SOL     OW16387   4.125   5.303   1.159
 5163SOL    HW116388   4.035   5.289   1.119
 5163SOL    HW216389   4.176   5.217   1.156
 5164SOL     OW16390   6.101   2.194   6.344
 5164SOL    HW116391   6.082   2.146   6.258
 5164SOL    HW216392   6.016   2.229   6.383
 5165SOL     OW16393   5.974   3.669   5.197
 5165SOL    HW116394   5.941   3.761   5.216
 5165SOL    HW216395   5.920   3.629   5.122
 5166SOL     OW16396   1.356   5.191   1.709
 5166SOL    HW116397   1.327   5.095   1.707
 5166SOL    HW216398   1.423   5.207   1.636
 5167SOL     OW16399   6.251   0.431   5.827
 5167SOL    HW116400   6.234   0.503   5.895
 5167SOL    HW216401   6.218   0.462   5.738
 5168SOL     OW16402   5.098   2.642   3.503
 5168SOL    HW116403   5.100   2.567   3.569
 5168SOL    HW216404   5.003   2.664   3.480
 5169SOL     OW16405   3.317   2.493   5.808
 5169SOL    HW116406   3.238   2.449   5.852
 5169SOL    HW216407   3.358   2.429   5.744
 5170SOL     OW16408   0.006   4.099   5.678
 5170SOL    HW116409   6.991   4.080   5.768
 5170SOL    HW216410   0.040   4.193   5.676
 5171SOL     OW16411   2.551   5.308   4.833
 5171SOL    HW116412   2.643   5.346   4.831
 5171SOL    HW216413   2.519   5.293   4.740
 5172SOL     OW16414   0.430   3.013   2.166
 5172SOL    HW116415   0.451   2.920   2.195
 5172SOL    HW216416   0.336   3.016   2.132
 5173SOL     OW16417   5.741   4.621   6.384
 5173SOL    HW116418   5.710   4.712   6.414
 5173SOL    HW216419   5.669   4.578   6.330
 5174SOL     OW16420   1.943   4.817   4.497
 5174SOL    HW116421   1.965   4.901   4.547
 5174SOL    HW216422   2.027   4.779   4.458
 5175SOL     OW16423   2.362   3.979   6.780
 5175SOL    HW116424   2.420   3.968   6.860
 5175SOL    HW216425   2.419   3.986   6.698
 5176SOL     OW16426   4.184   3.421   1.420
 5176SOL    HW116427   4.092   3.449   1.396
 5176SOL    HW216428   4.202   3.330   1.381
 5177SOL     OW16429   4.769   6.993   5.839
 5177SOL    HW116430   4.712   7.018   5.917
 5177SOL    HW216431   4.714   6.995   5.756
 5178SOL     OW16432   2.232   2.347   1.456
 5178SOL    HW116433   2.256   2.258   1.493
 5178SOL    HW216434   2.215   2.411   1.531
 5179SOL     OW16435   4.185   5.643   5.591
 5179SOL    HW116436   4.162   5.644   5.689
 5179SOL    HW216437   4.265   5.585   5.577
 5180SOL     OW16438   3.029   2.835   6.316
 5180SOL    HW116439   2.963   2.760   6.319
 5180SOL    HW216440   3.004   2.897   6.242
 5181SOL     OW16441   4.991   1.216   2.647
 5181SOL    HW116442   4.964   1.238   2.553
 5181SOL    HW216443   4.987   1.117   2.660
 5182SOL     OW16444   5.012   5.492   1.375
 5182SOL    HW116445   5.079   5.555   1.414
 5182SOL    HW216446   4.927   5.498   1.427
 5183SOL     OW16447   4.414   0.246   2.542
 5183SOL    HW116448   4.337   0.247   2.605
 5183SOL    HW216449   4.381   0.261   2.449
 5184SOL     OW16450   0.900   1.774   3.734
 5184SOL    HW116451   0.803   1.795   3.720
 5184SOL    HW216452   0.911   1.726   3.821
 5185SOL     OW16453   4.901   6.877   2.822
 5185SOL    HW116454   4.858   6.946   2.880
 5185SOL    HW216455   4.988   6.912   2.786
 5186SOL     OW16456   6.050   3.580   0.807
 5186SOL    HW116457   6.125   3.525   0.844
 5186SOL    HW216458   6.083   3.631   0.728
 5187SOL     OW16459   6.351   1.187   3.468
 5187SOL    HW116460   6.269   1.182   3.411
 5187SOL    HW216461   6.355   1.106   3.527
 5188SOL     OW16462   0.707   4.908   0.700
 5188SOL    HW116463   0.796   4.933   0.738
 5188SOL    HW216464   0.704   4.931   0.602
 5189SOL     OW16465   4.539   5.742   1.038
 5189SOL    HW116466   4.628   5.785   1.025
 5189SOL    HW216467   4.504   5.709   0.950
 5190SOL     OW16468   0.683   2.334   4.598
 5190SOL    HW116469   0.615   2.268   4.567
 5190SOL    HW216470   0.756   2.287   4.647
 5191SOL     OW16471   3.748   0.564   1.708
 5191SOL    HW116472   3.838   0.535   1.739
 5191SOL    HW216473   3.746   0.564   1.608
 5192SOL     OW16474   4.283   5.710   2.402
 5192SOL    HW116475   4.271   5.683   2.307
 5192SOL    HW216476   4.355   5.654   2.443
 5193SOL     OW16477   4.858   4.604   3.712
 5193SOL    HW116478   4.807   4.633   3.631
 5193SOL    HW216479   4.904   4.684   3.752
 5194SOL     OW16480   4.616   7.005   6.078
 5194SOL    HW116481   4.637   0.049   6.149
 5194SOL    HW216482   4.579   6.922   6.121
 5195SOL     OW16483   6.312   6.219   4.396
 5195SOL    HW116484   6.247   6.271   4.340
 5195SOL    HW216485   6.340   6.137   4.346
 5196SOL     OW16486   1.153   3.554   0.819
 5196SOL    HW116487   1.188   3.515   0.904
 5196SOL    HW216488   1.129   3.480   0.756
 5197SOL     OW16489   2.004   6.221   4.225
 5197SOL    HW116490   2.038   6.227   4.319
 5197SOL    HW216491   1.910   6.188   4.225
 5198SOL     OW16492   3.175   0.146   4.490
 5198SOL    HW116493   3.252   0.102   4.445
 5198SOL    HW216494   3.208   0.213   4.556
 5199SOL     OW16495   2.203   6.259   0.986
 5199SOL    HW116496   2.118   6.311   0.981
 5199SOL    HW216497   2.212   6.218   1.076
 5200SOL     OW16498   0.900   2.157   5.032
 5200SOL    HW116499   0.801   2.163   5.045
 5200SOL    HW216500   0.946   2.165   5.120
 5201SOL     OW16501   5.423   5.652   4.149
 5201SOL    HW116502   5.401   5.747   4.172
 5201SOL    HW216503   5.502   5.650   4.088
 5202SOL     OW16504   5.472   3.707   6.383
 5202SOL    HW116505   5.418   3.623   6.380
 5202SOL    HW216506   5.417   3.783   6.347
 5203SOL     OW16507   1.682   0.872   6.339
 5203SOL    HW116508   1.737   0.943   6.380
 5203SOL    HW216509   1.652   0.807   6.410
 5204SOL     OW16510   3.159   6.510   6.924
 5204SOL    HW116511   3.110   6.597   6.926
 5204SOL    HW216512   3.173   6.480   6.830
 5205SOL     OW16513   0.037   5.682   6.943
 5205SOL    HW116514   0.096   5.757   6.914
 5205SOL    HW216515   0.036   5.678   0.019
 5206SOL     OW16516   0.271   5.317   5.665
 5206SOL    HW116517   0.267   5.219   5.684
 5206SOL    HW216518   0.294   5.331   5.568
 5207SOL     OW16519   0.419   0.668   3.607
 5207SOL    HW116520   0.505   0.635   3.647
 5207SOL    HW216521   0.438   0.702   3.514
 5208SOL     OW16522   4.932   2.221   0.130
 5208SOL    HW116523   5.014   2.278   0.131
 5208SOL    HW216524   4.863   2.261   0.191
 5209SOL     OW16525   5.182   0.451   2.177
 5209SOL    HW116526   5.231   0.482   2.258
 5209SOL    HW216527   5.239   0.387   2.125
 5210SOL     OW16528   5.305   4.191   0.954
 5210SOL    HW116529   5.341   4.230   0.869
 5210SOL    HW216530   5.210   4.164   0.940
 5211SOL     OW16531   5.412   1.686   4.482
 5211SOL    HW116532   5.424   1.630   4.564
 5211SOL    HW216533   5.315   1.707   4.470
 5212SOL     OW16534   1.101   2.607   0.692
 5212SOL    HW116535   1.153   2.581   0.612
 5212SOL    HW216536   1.042   2.531   0.720
 5213SOL     OW16537   4.088   3.902   1.825
 5213SOL    HW116538   4.011   3.963   1.808
 5213SOL    HW216539   4.169   3.936   1.777
 5214SOL     OW16540   4.913   4.205   6.041
 5214SOL    HW116541   4.893   4.165   6.130
 5214SOL    HW216542   4.995   4.162   6.003
 5215SOL     OW16543   7.019   4.001   3.945
 5215SOL    HW116544   6.938   4.052   3.973
 5215SOL    HW216545   0.022   3.939   4.018
 5216SOL     OW16546   4.838   5.630   1.159
 5216SOL    HW116547   4.809   5.698   1.092
 5216SOL    HW216548   4.781   5.638   1.241
 5217SOL     OW16549   3.798   5.571   4.421
 5217SOL    HW116550   3.714   5.575   4.367
 5217SOL    HW216551   3.866   5.635   4.384
 5218SOL     OW16552   0.322   1.446   0.932
 5218SOL    HW116553   0.262   1.464   0.854
 5218SOL    HW216554   0.293   1.501   1.010
 5219SOL     OW16555   3.379   1.329   4.648
 5219SOL    HW116556   3.448   1.401   4.635
 5219SOL    HW216557   3.324   1.351   4.729
 5220SOL     OW16558   1.489   4.905   3.142
 5220SOL    HW116559   1.471   4.861   3.230
 5220SOL    HW216560   1.547   4.845   3.086
 5221SOL     OW16561   0.282   0.417   1.854
 5221SOL    HW116562   0.303   0.368   1.769
 5221SOL    HW216563   0.283   0.354   1.931
 5222SOL     OW16564   3.889   5.629   2.518
 5222SOL    HW116565   3.805   5.646   2.466
 5222SOL    HW216566   3.960   5.692   2.488
 5223SOL     OW16567   6.746   2.529   1.033
 5223SOL    HW116568   6.819   2.589   0.999
 5223SOL    HW216569   6.786   2.442   1.062
 5224SOL     OW16570   0.482   2.173   4.518
 5224SOL    HW116571   0.397   2.139   4.556
 5224SOL    HW216572   0.466   2.210   4.427
 5225SOL     OW16573   0.162   1.110   4.403
 5225SOL    HW116574   0.202   1.046   4.338
 5225SOL    HW216575   0.096   1.062   4.461
 5226SOL     OW16576   0.020   5.952   3.344
 5226SOL    HW116577   0.080   6.013   3.397
 5226SOL    HW216578   6.983   5.903   3.406
 5227SOL     OW16579   0.048   3.443   5.947
 5227SOL    HW116580   0.016   3.401   5.862
 5227SOL    HW216581   0.052   3.542   5.936
 5228SOL     OW16582   0.853   2.486   6.786
 5228SOL    HW116583   0.860   2.388   6.806
 5228SOL    HW216584   0.765   2.505   6.743
 5229SOL     OW16585   3.027   6.222   6.510
 5229SOL    HW116586   2.962   6.271   6.568
 5229SOL    HW216587   3.068   6.147   6.562
 5230SOL     OW16588   6.454   0.288   2.811
 5230SOL    HW116589   6.421   0.381   2.797
 5230SOL    HW216590   6.479   0.276   2.907
 5231SOL     OW16591   4.912   2.002   3.435
 5231SOL    HW116592   4.939   1.957   3.350
 5231SOL    HW216593   4.903   2.100   3.420
 5232SOL     OW16594   1.515   4.262   6.067
 5232SOL    HW116595   1.418   4.256   6.045
 5232SOL    HW216596   1.534   4.210   6.150
 5233SOL     OW16597   3.344   1.171   1.893
 5233SOL    HW116598   3.262   1.123   1.923
 5233SOL    HW216599   3.331   1.270   1.904
 5234SOL     OW16600   3.407   3.279   6.596
 5234SOL    HW116601   3.466   3.351   6.632
 5234SOL    HW216602   3.407   3.201   6.658
 5235SOL     OW16603   1.983   2.029   0.469
 5235SOL    HW116604   1.961   2.108   0.526
 5235SOL    HW216605   2.043   1.967   0.520
 5236SOL     OW16606   3.171   4.976   1.827
 5236SOL    HW116607   3.107   4.955   1.901
 5236SOL    HW216608   3.255   4.924   1.840
 5237SOL     OW16609   2.404   1.336   4.781
 5237SOL    HW116610   2.398   1.287   4.694
 5237SOL    HW216611   2.470   1.291   4.841
 5238SOL     OW16612   1.062   4.894   1.507
 5238SOL    HW116613   1.129   4.820   1.510
 5238SOL    HW216614   1.097   4.968   1.450
 5239SOL     OW16615   3.337   3.513   1.069
 5239SOL    HW116616   3.251   3.545   1.109
 5239SOL    HW216617   3.394   3.471   1.139
 5240SOL     OW16618   2.755   2.475   5.464
 5240SOL    HW116619   2.733   2.570   5.444
 5240SOL    HW216620   2.829   2.444   5.403
 5241SOL     OW16621   0.695   5.869   2.356
 5241SOL    HW116622   0.681   5.807   2.279
 5241SOL    HW216623   0.746   5.949   2.326
 5242SOL     OW16624   4.913   0.302   1.833
 5242SOL    HW116625   4.979   0.228   1.827
 5242SOL    HW216626   4.839   0.286   1.767
 5243SOL     OW16627   2.060   6.125   2.027
 5243SOL    HW116628   1.975   6.078   2.051
 5243SOL    HW216629   2.134   6.058   2.021
 5244SOL     OW16630   5.215   3.535   0.309
 5244SOL    HW116631   5.207   3.546   0.408
 5244SOL    HW216632   5.124   3.539   0.267
 5245SOL     OW16633   4.138   4.155   0.625
 5245SOL    HW116634   4.073   4.084   0.596
 5245SOL    HW216635   4.102   4.202   0.705
 5246SOL     OW16636   5.826   2.600   2.258
 5246SOL    HW116637   5.754   2.640   2.201
 5246SOL    HW216638   5.894   2.556   2.200
 5247SOL     OW16639   3.720   1.206   5.672
 5247SOL    HW116640   3.634   1.165   5.641
 5247SOL    HW216641   3.773   1.237   5.593
 5248SOL     OW16642   0.259   1.831   3.077
 5248SOL    HW116643   0.275   1.767   3.152
 5248SOL    HW216644   0.347   1.856   3.036
 5249SOL     OW16645   1.777   5.600   6.731
 5249SOL    HW116646   1.683   5.572   6.708
 5249SOL    HW216647   1.775   5.688   6.778
 5250SOL     OW16648   1.243   5.830   0.358
 5250SOL    HW116649   1.221   5.795   0.449
 5250SOL    HW216650   1.341   5.823   0.342
 5251SOL     OW16651   0.686   4.675   0.829
 5251SOL    HW116652   0.722   4.762   0.795
 5251SOL    HW216653   0.716   4.601   0.770
 5252SOL     OW16654   3.009   6.817   2.049
 5252SOL    HW116655   3.054   6.739   2.005
 5252SOL    HW216656   3.068   6.853   2.121
 5253SOL     OW16657   6.712   4.094   4.813
 5253SOL    HW116658   6.668   4.145   4.739
 5253SOL    HW216659   6.810   4.112   4.812
 5254SOL     OW16660   6.070   0.433   3.727
 5254SOL    HW116661   6.078   0.528   3.697
 5254SOL    HW216662   6.115   0.423   3.816
 5255SOL     OW16663   5.565   2.262   4.886
 5255SOL    HW116664   5.505   2.216   4.952
 5255SOL    HW216665   5.513   2.283   4.803
 5256SOL     OW16666   5.110   1.619   3.973
 5256SOL    HW116667   5.050   1.582   3.902
 5256SOL    HW216668   5.081   1.584   4.062
 5257SOL     OW16669   4.851   6.741   1.054
 5257SOL    HW116670   4.906   6.688   0.990
 5257SOL    HW216671   4.906   6.814   1.093
 5258SOL     OW16672   5.372   1.853   3.211
 5258SOL    HW116673   5.346   1.818   3.121
 5258SOL    HW216674   5.433   1.931   3.201
 5259SOL     OW16675   4.902   5.265   2.792
 5259SOL    HW116676   4.903   5.258   2.892
 5259SOL    HW216677   4.974   5.207   2.754
 5260SOL     OW16678   3.757   5.664   0.526
 5260SOL    HW116679   3.848   5.675   0.567
 5260SOL    HW216680   3.745   5.569   0.497
 5261SOL     OW16681   0.474   4.185   6.975
 5261SOL    HW116682   0.530   4.268   6.968
 5261SOL    HW216683   0.533   4.106   6.988
 5262SOL     OW16684   2.428   0.801   3.409
 5262SOL    HW116685   2.454   0.876   3.470
 5262SOL    HW216686   2.374   0.734   3.459
 5263SOL     OW16687   1.738   1.175   2.574
 5263SOL    HW116688   1.831   1.169   2.539
 5263SOL    HW216689   1.691   1.088   2.560
 5264SOL     OW16690   6.749   2.236   1.805
 5264SOL    HW116691   6.763   2.225   1.904
 5264SOL    HW216692   6.657   2.205   1.781
 5265SOL     OW16693   6.309   3.101   4.718
 5265SOL    HW116694   6.310   3.068   4.813
 5265SOL    HW216695   6.328   3.199   4.717
 5266SOL     OW16696   2.774   5.895   0.899
 5266SOL    HW116697   2.721   5.973   0.934
 5266SOL    HW216698   2.785   5.827   0.971
 5267SOL     OW16699   4.757   2.323   4.696
 5267SOL    HW116700   4.820   2.388   4.740
 5267SOL    HW216701   4.698   2.371   4.632
 5268SOL     OW16702   5.061   0.407   6.573
 5268SOL    HW116703   5.015   0.433   6.488
 5268SOL    HW216704   5.057   0.483   6.638
 5269SOL     OW16705   0.926   6.481   2.116
 5269SOL    HW116706   0.902   6.400   2.064
 5269SOL    HW216707   0.937   6.559   2.054
 5270SOL     OW16708   5.533   1.766   1.635
 5270SOL    HW116709   5.583   1.790   1.552
 5270SOL    HW216710   5.435   1.762   1.615
 5271SOL     OW16711   6.129   4.670   5.420
 5271SOL    HW116712   6.053   4.698   5.480
 5271SOL    HW216713   6.147   4.573   5.432
 5272SOL     OW16714   3.278   5.583   1.329
 5272SOL    HW116715   3.278   5.633   1.242
 5272SOL    HW216716   3.184   5.569   1.360
 5273SOL     OW16717   0.572   3.439   2.248
 5273SOL    HW116718   0.613   3.519   2.205
 5273SOL    HW216719   0.519   3.467   2.327
 5274SOL     OW16720   5.200   6.876   2.816
 5274SOL    HW116721   5.258   6.873   2.898
 5274SOL    HW216722   5.215   6.793   2.762
 5275SOL     OW16723   3.538   1.250   0.815
 5275SOL    HW116724   3.525   1.222   0.910
 5275SOL    HW216725   3.541   1.350   0.809
 5276SOL     OW16726   2.179   0.533   1.395
 5276SOL    HW116727   2.229   0.458   1.351
 5276SOL    HW216728   2.108   0.566   1.334
 5277SOL     OW16729   2.822   0.876   3.033
 5277SOL    HW116730   2.825   0.900   3.130
 5277SOL    HW216731   2.727   0.874   3.002
 5278SOL     OW16732   5.016   5.291   3.823
 5278SOL    HW116733   4.986   5.317   3.915
 5278SOL    HW216734   4.988   5.197   3.804
 5279SOL     OW16735   2.491   6.115   1.167
 5279SOL    HW116736   2.407   6.132   1.218
 5279SOL    HW216737   2.569   6.115   1.230
 5280SOL     OW16738   2.935   6.154   4.707
 5280SOL    HW116739   3.007   6.124   4.645
 5280SOL    HW216740   2.932   6.254   4.709
 5281SOL     OW16741   6.002   2.244   2.347
 5281SOL    HW116742   6.016   2.175   2.417
 5281SOL    HW216743   6.066   2.229   2.272
 5282SOL     OW16744   2.641   1.635   3.782
 5282SOL    HW116745   2.696   1.697   3.726
 5282SOL    HW216746   2.613   1.682   3.866
 5283SOL     OW16747   4.867   6.706   1.894
 5283SOL    HW116748   4.940   6.756   1.847
 5283SOL    HW216749   4.906   6.627   1.941
 5284SOL     OW16750   5.385   4.370   2.996
 5284SOL    HW116751   5.369   4.272   2.982
 5284SOL    HW216752   5.360   4.394   3.090
 5285SOL     OW16753   3.176   4.914   4.188
 5285SOL    HW116754   3.192   4.902   4.090
 5285SOL    HW216755   3.257   4.954   4.231
 5286SOL     OW16756   2.430   4.033   1.280
 5286SOL    HW116757   2.403   3.946   1.237
 5286SOL    HW216758   2.376   4.107   1.240
 5287SOL     OW16759   2.693   1.217   0.909
 5287SOL    HW116760   2.715   1.244   1.003
 5287SOL    HW216761   2.700   1.296   0.848
 5288SOL     OW16762   4.199   0.484   1.420
 5288SOL    HW116763   4.192   0.557   1.488
 5288SOL    HW216764   4.128   0.416   1.436
 5289SOL     OW16765   1.398   4.911   0.364
 5289SOL    HW116766   1.309   4.956   0.357
 5289SOL    HW216767   1.461   4.971   0.413
 5290SOL     OW16768   3.244   5.659   6.791
 5290SOL    HW116769   3.295   5.579   6.821
 5290SOL    HW216770   3.260   5.735   6.854
 5291SOL     OW16771   2.361   5.434   5.537
 5291SOL    HW116772   2.354   5.500   5.611
 5291SOL    HW216773   2.439   5.373   5.553
 5292SOL     OW16774   5.920   3.178   0.171
 5292SOL    HW116775   5.999   3.145   0.118
 5292SOL    HW216776   5.865   3.099   0.199
 5293SOL     OW16777   0.601   1.205   5.060
 5293SOL    HW116778   0.541   1.236   4.987
 5293SOL    HW216779   0.689   1.176   5.021
 5294SOL     OW16780   5.928   3.189   6.575
 5294SOL    HW116781   5.975   3.237   6.500
 5294SOL    HW216782   5.901   3.255   6.645
 5295SOL     OW16783   5.496   1.214   3.016
 5295SOL    HW116784   5.434   1.147   2.975
 5295SOL    HW216785   5.469   1.306   2.987
 5296SOL     OW16786   1.632   4.909   0.031
 5296SOL    HW116787   1.687   4.847   6.998
 5296SOL    HW216788   1.535   4.894   0.013
 5297SOL     OW16789   2.311   1.996   0.761
 5297SOL    HW116790   2.366   1.917   0.787
 5297SOL    HW216791   2.370   2.065   0.718
 5298SOL     OW16792   6.417   5.242   2.100
 5298SOL    HW116793   6.408   5.299   2.182
 5298SOL    HW216794   6.514   5.219   2.086
 5299SOL     OW16795   2.666   0.771   1.600
 5299SOL    HW116796   2.654   0.672   1.614
 5299SOL    HW216797   2.760   0.796   1.623
 5300SOL     OW16798   0.477   5.408   3.149
 5300SOL    HW116799   0.535   5.419   3.230
 5300SOL    HW216800   0.464   5.311   3.130
 5301SOL     OW16801   4.164   1.725   6.811
 5301SOL    HW116802   4.119   1.635   6.808
 5301SOL    HW216803   4.226   1.728   6.890
 5302SOL     OW16804   6.636   4.007   2.460
 5302SOL    HW116805   6.604   4.007   2.366
 5302SOL    HW216806   6.655   4.101   2.489
 5303SOL     OW16807   6.424   5.196   3.799
 5303SOL    HW116808   6.327   5.173   3.791
 5303SOL    HW216809   6.442   5.281   3.748
 5304SOL     OW16810   5.190   2.188   6.224
 5304SOL    HW116811   5.133   2.261   6.187
 5304SOL    HW216812   5.273   2.227   6.265
 5305SOL     OW16813   1.792   0.645   4.072
 5305SOL    HW116814   1.739   0.642   4.157
 5305SOL    HW216815   1.788   0.738   4.034
 5306SOL     OW16816   2.579   5.719   5.609
 5306SOL    HW116817   2.512   5.729   5.535
 5306SOL    HW216818   2.559   5.785   5.681
 5307SOL     OW16819   4.466   6.417   6.193
 5307SOL    HW116820   4.449   6.464   6.280
 5307SOL    HW216821   4.453   6.481   6.117
 5308SOL     OW16822   0.424   0.532   3.981
 5308SOL    HW116823   0.384   0.474   4.052
 5308SOL    HW216824   0.352   0.582   3.934
 5309SOL     OW16825   3.844   3.990   3.218
 5309SOL    HW116826   3.771   3.924   3.236
 5309SOL    HW216827   3.811   4.058   3.153
 5310SOL     OW16828   5.026   2.649   1.673
 5310SOL    HW116829   5.097   2.701   1.721
 5310SOL    HW216830   4.998   2.699   1.591
 5311SOL     OW16831   1.556   5.483   0.021
 5311SOL    HW116832   1.583   5.426   6.967
 5311SOL    HW216833   1.606   5.454   0.103
 5312SOL     OW16834   0.986   4.870   2.289
 5312SOL    HW116835   0.935   4.917   2.217
 5312SOL    HW216836   0.929   4.860   2.370
 5313SOL     OW16837   0.997   6.145   6.846
 5313SOL    HW116838   0.905   6.114   6.869
 5313SOL    HW216839   1.028   6.210   6.915
 5314SOL     OW16840   4.523   5.191   0.405
 5314SOL    HW116841   4.529   5.275   0.351
 5314SOL    HW216842   4.580   5.120   0.364
 5315SOL     OW16843   4.805   4.230   1.914
 5315SOL    HW116844   4.727   4.178   1.881
 5315SOL    HW216845   4.797   4.325   1.882
 5316SOL     OW16846   6.704   5.188   4.779
 5316SOL    HW116847   6.744   5.252   4.714
 5316SOL    HW216848   6.623   5.146   4.738
 5317SOL     OW16849   5.747   1.130   3.098
 5317SOL    HW116850   5.657   1.148   3.058
 5317SOL    HW216851   5.814   1.193   3.060
 5318SOL     OW16852   6.984   2.744   4.867
 5318SOL    HW116853   6.993   2.743   4.967
 5318SOL    HW216854   6.922   2.672   4.839
 5319SOL     OW16855   5.509   6.938   6.833
 5319SOL    HW116856   5.498   6.855   6.778
 5319SOL    HW216857   5.425   6.956   6.884
 5320SOL     OW16858   6.245   3.993   6.438
 5320SOL    HW116859   6.241   4.091   6.456
 5320SOL    HW216860   6.152   3.958   6.425
 5321SOL     OW16861   1.748   4.948   4.313
 5321SOL    HW116862   1.825   4.907   4.363
 5321SOL    HW216863   1.692   5.001   4.375
 5322SOL     OW16864   3.909   6.281   6.699
 5322SOL    HW116865   3.988   6.266   6.639
 5322SOL    HW216866   3.940   6.284   6.794
 5323SOL     OW16867   4.367   2.217   0.512
 5323SOL    HW116868   4.368   2.317   0.512
 5323SOL    HW216869   4.430   2.182   0.581
 5324SOL     OW16870   3.926   2.370   1.734
 5324SOL    HW116871   3.939   2.466   1.707
 5324SOL    HW216872   3.836   2.359   1.775
 5325SOL     OW16873   4.773   6.646   2.316
 5325SOL    HW116874   4.783   6.547   2.310
 5325SOL    HW216875   4.819   6.679   2.399
 5326SOL     OW16876   6.899   5.511   1.543
 5326SOL    HW116877   6.986   5.465   1.563
 5326SOL    HW216878   6.906   5.559   1.455
 5327SOL     OW16879   0.172   6.872   4.637
 5327SOL    HW116880   0.207   6.949   4.691
 5327SOL    HW216881   0.249   6.817   4.604
 5328SOL     OW16882   4.067   3.545   6.589
 5328SOL    HW116883   4.143   3.582   6.643
 5328SOL    HW216884   4.036   3.459   6.630
 5329SOL     OW16885   0.588   4.562   0.106
 5329SOL    HW116886   0.583   4.475   0.056
 5329SOL    HW216887   0.497   4.586   0.139
 5330SOL     OW16888   3.895   3.490   0.647
 5330SOL    HW116889   3.871   3.584   0.673
 5330SOL    HW216890   3.812   3.434   0.646
 5331SOL     OW16891   4.715   2.110   0.498
 5331SOL    HW116892   4.642   2.139   0.560
 5331SOL    HW216893   4.766   2.034   0.538
 5332SOL     OW16894   6.364   4.991   0.323
 5332SOL    HW116895   6.358   4.943   0.411
 5332SOL    HW216896   6.396   4.928   0.253
 5333SOL     OW16897   2.154   1.314   3.424
 5333SOL    HW116898   2.152   1.383   3.353
 5333SOL    HW216899   2.131   1.356   3.512
 5334SOL     OW16900   4.576   4.881   3.374
 5334SOL    HW116901   4.499   4.919   3.425
 5334SOL    HW216902   4.541   4.831   3.294
 5335SOL     OW16903   6.870   4.418   2.418
 5335SOL    HW116904   6.862   4.501   2.473
 5335SOL    HW216905   6.893   4.443   2.324
 5336SOL     OW16906   1.981   1.837   4.030
 5336SOL    HW116907   1.901   1.802   3.982
 5336SOL    HW216908   1.968   1.825   4.129
 5337SOL     OW16909   6.158   4.198   1.574
 5337SOL    HW116910   6.197   4.230   1.488
 5337SOL    HW216911   6.232   4.177   1.638
 5338SOL     OW16912   6.035   2.905   6.905
 5338SOL    HW116913   6.061   2.951   6.990
 5338SOL    HW216914   6.108   2.916   6.837
 5339SOL     OW16915   5.890   2.456   2.505
 5339SOL    HW116916   5.875   2.540   2.452
 5339SOL    HW216917   5.920   2.384   2.443
 5340SOL     OW16918   5.557   3.026   2.129
 5340SOL    HW116919   5.616   3.014   2.210
 5340SOL    HW216920   5.585   2.961   2.058
 5341SOL     OW16921   4.694   4.673   3.476
 5341SOL    HW116922   4.638   4.591   3.468
 5341SOL    HW216923   4.650   4.748   3.427
 5342SOL     OW16924   5.826   6.797   5.728
 5342SOL    HW116925   5.741   6.824   5.683
 5342SOL    HW216926   5.808   6.777   5.824
 5343SOL     OW16927   3.776   3.651   5.571
 5343SOL    HW116928   3.686   3.693   5.559
 5343SOL    HW216929   3.840   3.719   5.608
 5344SOL     OW16930   0.679   1.332   0.014
 5344SOL    HW116931   0.632   1.265   0.072
 5344SOL    HW216932   0.740   1.388   0.070
 5345SOL     OW16933   4.891   1.529   6.764
 5345SOL    HW116934   4.810   1.578   6.795
 5345SOL    HW216935   4.865   1.439   6.731
 5346SOL     OW16936   2.903   5.118   3.981
 5346SOL    HW116937   2.950   5.125   4.069
 5346SOL    HW216938   2.861   5.206   3.958
 5347SOL     OW16939   6.576   2.362   3.743
 5347SOL    HW116940   6.482   2.394   3.757
 5347SOL    HW216941   6.632   2.438   3.711
 5348SOL     OW16942   5.547   1.821   4.241
 5348SOL    HW116943   5.523   1.912   4.275
 5348SOL    HW216944   5.487   1.753   4.283
 5349SOL     OW16945   0.768   2.872   1.993
 5349SOL    HW116946   0.853   2.874   1.941
 5349SOL    HW216947   0.695   2.914   1.938
 5350SOL     OW16948   1.774   6.770   5.667
 5350SOL    HW116949   1.693   6.818   5.631
 5350SOL    HW216950   1.780   6.786   5.765
 5351SOL     OW16951   0.338   5.360   1.409
 5351SOL    HW116952   0.296   5.272   1.430
 5351SOL    HW216953   0.438   5.351   1.412
 5352SOL     OW16954   1.819   3.977   3.489
 5352SOL    HW116955   1.742   4.027   3.529
 5352SOL    HW216956   1.796   3.951   3.395
 5353SOL     OW16957   4.427   5.294   3.602
 5353SOL    HW116958   4.506   5.272   3.545
 5353SOL    HW216959   4.436   5.387   3.638
 5354SOL     OW16960   3.573   5.131   0.771
 5354SOL    HW116961   3.593   5.166   0.863
 5354SOL    HW216962   3.580   5.031   0.772
 5355SOL     OW16963   5.399   5.369   5.194
 5355SOL    HW116964   5.303   5.376   5.219
 5355SOL    HW216965   5.431   5.275   5.211
 5356SOL     OW16966   0.208   4.316   1.771
 5356SOL    HW116967   0.284   4.257   1.745
 5356SOL    HW216968   0.131   4.260   1.801
 5357SOL     OW16969   4.642   4.981   2.048
 5357SOL    HW116970   4.554   4.989   2.094
 5357SOL    HW216971   4.648   4.892   2.003
 5358SOL     OW16972   4.389   1.729   6.977
 5358SOL    HW116973   4.382   1.719   6.878
 5358SOL    HW216974   4.469   1.783   7.000
 5359SOL     OW16975   1.903   1.524   0.277
 5359SOL    HW116976   1.826   1.587   0.271
 5359SOL    HW216977   1.872   1.431   0.257
 5360SOL     OW16978   5.452   5.043   4.238
 5360SOL    HW116979   5.480   4.997   4.154
 5360SOL    HW216980   5.530   5.049   4.300
 5361SOL     OW16981   3.642   6.172   2.522
 5361SOL    HW116982   3.544   6.181   2.538
 5361SOL    HW216983   3.679   6.100   2.581
 5362SOL     OW16984   5.158   6.583   2.272
 5362SOL    HW116985   5.174   6.618   2.179
 5362SOL    HW216986   5.069   6.539   2.276
 5363SOL     OW16987   5.573   5.999   4.791
 5363SOL    HW116988   5.648   5.970   4.851
 5363SOL    HW216989   5.545   6.092   4.816
 5364SOL     OW16990   5.158   0.588   2.720
 5364SOL    HW116991   5.188   0.661   2.781
 5364SOL    HW216992   5.084   0.622   2.662
 5365SOL     OW16993   3.182   3.080   3.629
 5365SOL    HW116994   3.167   3.137   3.710
 5365SOL    HW216995   3.164   3.134   3.546
 5366SOL     OW16996   6.747   0.119   1.635
 5366SOL    HW116997   6.739   0.199   1.576
 5366SOL    HW216998   6.680   0.050   1.608
 5367SOL     OW16999   6.506   6.959   0.801
 5367SOL    HW117000   6.409   6.936   0.795
 5367SOL    HW217001   6.535   7.006   0.718
 5368SOL     OW17002   6.735   5.964   2.106
 5368SOL    HW117003   6.686   5.983   2.021
 5368SOL    HW217004   6.784   5.877   2.099
 5369SOL     OW17005   2.696   5.011   1.896
 5369SOL    HW117006   2.778   4.959   1.873
 5369SOL    HW217007   2.700   5.038   1.992
 5370SOL     OW17008   3.894   3.877   1.526
 5370SOL    HW117009   3.920   3.970   1.500
 5370SOL    HW217010   3.794   3.870   1.528
 5371SOL     OW17011   6.876   5.038   5.177
 5371SOL    HW117012   6.840   5.019   5.268
 5371SOL    HW217013   6.966   5.080   5.184
 5372SOL     OW17014   1.564   0.442   2.790
 5372SOL    HW117015   1.598   0.410   2.879
 5372SOL    HW217016   1.465   0.430   2.787
 5373SOL     OW17017   4.026   6.646   5.870
 5373SOL    HW117018   4.059   6.595   5.949
 5373SOL    HW217019   4.085   6.629   5.791
 5374SOL     OW17020   2.571   5.555   1.442
 5374SOL    HW117021   2.598   5.623   1.374
 5374SOL    HW217022   2.653   5.518   1.485
 5375SOL     OW17023   0.487   6.411   5.239
 5375SOL    HW117024   0.584   6.397   5.218
 5375SOL    HW217025   0.431   6.360   5.175
 5376SOL     OW17026   1.155   1.881   0.521
 5376SOL    HW117027   1.079   1.909   0.463
 5376SOL    HW217028   1.160   1.942   0.600
 5377SOL     OW17029   2.033   0.852   2.548
 5377SOL    HW117030   1.993   0.887   2.632
 5377SOL    HW217031   1.971   0.869   2.471
 5378SOL     OW17032   5.852   0.770   1.341
 5378SOL    HW117033   5.802   0.775   1.427
 5378SOL    HW217034   5.790   0.738   1.269
 5379SOL     OW17035   1.348   2.990   5.662
 5379SOL    HW117036   1.360   3.015   5.758
 5379SOL    HW217037   1.300   2.902   5.656
 5380SOL     OW17038   3.971   0.236   1.494
 5380SOL    HW117039   3.930   0.176   1.426
 5380SOL    HW217040   4.067   0.212   1.507
 5381SOL     OW17041   5.301   6.588   3.102
 5381SOL    HW117042   5.201   6.587   3.102
 5381SOL    HW217043   5.335   6.549   3.016
 5382SOL     OW17044   3.916   1.537   3.074
 5382SOL    HW117045   3.905   1.634   3.051
 5382SOL    HW217046   3.964   1.490   3.000
 5383SOL     OW17047   1.243   2.959   4.005
 5383SOL    HW117048   1.228   2.870   3.963
 5383SOL    HW217049   1.219   2.956   4.102
 5384SOL     OW17050   4.532   5.884   5.499
 5384SOL    HW117051   4.516   5.954   5.429
 5384SOL    HW217052   4.530   5.793   5.456
 5385SOL     OW17053   6.644   2.802   5.982
 5385SOL    HW117054   6.599   2.829   6.067
 5385SOL    HW217055   6.596   2.843   5.905
 5386SOL     OW17056   6.396   3.176   3.977
 5386SOL    HW117057   6.340   3.172   3.894
 5386SOL    HW217058   6.480   3.123   3.963
 5387SOL     OW17059   2.613   0.398   2.137
 5387SOL    HW117060   2.565   0.445   2.062
 5387SOL    HW217061   2.564   0.314   2.160
 5388SOL     OW17062   0.604   6.450   2.792
 5388SOL    HW117063   0.670   6.480   2.861
 5388SOL    HW217064   0.565   6.529   2.745
 5389SOL     OW17065   4.283   1.731   4.669
 5389SOL    HW117066   4.363   1.753   4.613
 5389SOL    HW217067   4.200   1.741   4.614
 5390SOL     OW17068   6.534   3.495   3.988
 5390SOL    HW117069   6.501   3.582   3.950
 5390SOL    HW217070   6.466   3.460   4.053
 5391SOL     OW17071   2.262   1.914   6.948
 5391SOL    HW117072   2.231   2.001   6.986
 5391SOL    HW217073   2.362   1.912   6.948
 5392SOL     OW17074   4.442   2.025   3.499
 5392SOL    HW117075   4.358   2.016   3.554
 5392SOL    HW217076   4.521   1.999   3.555
 5393SOL     OW17077   4.117   0.758   5.415
 5393SOL    HW117078   4.198   0.771   5.358
 5393SOL    HW217079   4.096   0.842   5.464
 5394SOL     OW17080   1.789   7.010   0.786
 5394SOL    HW117081   1.818   0.072   0.829
 5394SOL    HW217082   1.696   6.988   0.814
 5395SOL     OW17083   5.273   1.737   1.638
 5395SOL    HW117084   5.258   1.775   1.730
 5395SOL    HW217085   5.191   1.689   1.609
 5396SOL     OW17086   6.048   5.526   2.689
 5396SOL    HW117087   5.979   5.592   2.717
 5396SOL    HW217088   6.048   5.517   2.589
 5397SOL     OW17089   5.910   1.548   3.129
 5397SOL    HW117090   5.895   1.463   3.078
 5397SOL    HW217091   5.939   1.526   3.222
 5398SOL     OW17092   4.535   2.154   3.953
 5398SOL    HW117093   4.525   2.061   3.988
 5398SOL    HW217094   4.630   2.170   3.927
 5399SOL     OW17095   1.877   0.038   5.517
 5399SOL    HW117096   1.907   0.098   5.591
 5399SOL    HW217097   1.946   6.993   5.499
 5400SOL     OW17098   3.294   3.205   1.398
 5400SOL    HW117099   3.275   3.163   1.486
 5400SOL    HW217100   3.357   3.148   1.346
 5401SOL     OW17101   5.183   4.418   2.623
 5401SOL    HW117102   5.183   4.452   2.717
 5401SOL    HW217103   5.131   4.332   2.619
 5402SOL     OW17104   2.244   0.058   0.805
 5402SOL    HW117105   2.325   0.004   0.781
 5402SOL    HW217106   2.207   0.024   0.892
 5403SOL     OW17107   5.199   3.231   0.005
 5403SOL    HW117108   5.205   3.153   6.966
 5403SOL    HW217109   5.288   3.245   0.048
 5404SOL     OW17110   0.079   0.614   1.147
 5404SOL    HW117111   0.110   0.548   1.215
 5404SOL    HW217112   0.138   0.607   1.066
 5405SOL     OW17113   5.260   5.513   0.350
 5405SOL    HW117114   5.271   5.417   0.377
 5405SOL    HW217115   5.177   5.550   0.391
 5406SOL     OW17116   2.319   0.784   4.752
 5406SOL    HW117117   2.259   0.854   4.716
 5406SOL    HW217118   2.414   0.818   4.754
 5407SOL     OW17119   2.579   0.425   1.417
 5407SOL    HW117120   2.536   0.498   1.471
 5407SOL    HW217121   2.634   0.466   1.344
 5408SOL     OW17122   2.686   2.246   4.544
 5408SOL    HW117123   2.777   2.211   4.564
 5408SOL    HW217124   2.622   2.169   4.536
 5409SOL     OW17125   6.905   2.728   1.517
 5409SOL    HW117126   6.988   2.701   1.564
 5409SOL    HW217127   6.888   2.667   1.440
 5410SOL     OW17128   0.696   2.024   1.375
 5410SOL    HW117129   0.772   2.049   1.314
 5410SOL    HW217130   0.732   2.006   1.467
 5411SOL     OW17131   4.677   5.040   6.581
 5411SOL    HW117132   4.767   5.035   6.539
 5411SOL    HW217133   4.687   5.038   6.681
 5412SOL     OW17134   0.932   1.684   6.427
 5412SOL    HW117135   0.936   1.782   6.446
 5412SOL    HW217136   0.876   1.669   6.345
 5413SOL     OW17137   6.620   6.860   5.406
 5413SOL    HW117138   6.530   6.854   5.363
 5413SOL    HW217139   6.663   6.947   5.380
 5414SOL     OW17140   6.764   4.690   5.800
 5414SOL    HW117141   6.667   4.683   5.775
 5414SOL    HW217142   6.779   4.639   5.885
 5415SOL     OW17143   3.282   0.266   0.232
 5415SOL    HW117144   3.223   0.242   0.309
 5415SOL    HW217145   3.283   0.365   0.220
 5416SOL     OW17146   2.792   4.991   5.675
 5416SOL    HW117147   2.782   5.033   5.585
 5416SOL    HW217148   2.883   5.013   5.711
 5417SOL     OW17149   4.983   5.633   3.478
 5417SOL    HW117150   5.022   5.723   3.461
 5417SOL    HW217151   5.028   5.591   3.557
 5418SOL     OW17152   5.987   4.447   4.384
 5418SOL    HW117153   5.972   4.475   4.478
 5418SOL    HW217154   5.962   4.521   4.322
 5419SOL     OW17155   4.159   0.014   6.896
 5419SOL    HW117156   4.231   0.049   6.956
 5419SOL    HW217157   4.082   0.077   6.896
 5420SOL     OW17158   1.657   1.532   1.220
 5420SOL    HW117159   1.582   1.488   1.170
 5420SOL    HW217160   1.729   1.465   1.237
 5421SOL     OW17161   3.406   5.237   1.969
 5421SOL    HW117162   3.456   5.301   2.026
 5421SOL    HW217163   3.370   5.285   1.889
 5422SOL     OW17164   1.865   5.855   3.783
 5422SOL    HW117165   1.833   5.805   3.702
 5422SOL    HW217166   1.850   5.800   3.864
 5423SOL     OW17167   6.527   6.194   2.127
 5423SOL    HW117168   6.461   6.127   2.163
 5423SOL    HW217169   6.575   6.237   2.204
 5424SOL     OW17170   4.793   4.094   5.170
 5424SOL    HW117171   4.846   4.010   5.181
 5424SOL    HW217172   4.703   4.082   5.212
 5425SOL     OW17173   0.322   3.457   6.056
 5425SOL    HW117174   0.377   3.536   6.029
 5425SOL    HW217175   0.241   3.450   5.998
 5426SOL     OW17176   5.374   5.257   1.994
 5426SOL    HW117177   5.391   5.345   1.949
 5426SOL    HW217178   5.296   5.212   1.949
 5427SOL     OW17179   4.807   2.399   6.937
 5427SOL    HW117180   4.887   2.430   6.885
 5427SOL    HW217181   4.836   2.331   7.005
 5428SOL     OW17182   6.583   5.414   3.046
 5428SOL    HW117183   6.547   5.371   2.963
 5428SOL    HW217184   6.507   5.454   3.097
 5429SOL     OW17185   2.802   0.603   3.911
 5429SOL    HW117186   2.728   0.642   3.856
 5429SOL    HW217187   2.778   0.509   3.936
 5430SOL     OW17188   2.565   3.786   6.342
 5430SOL    HW117189   2.523   3.857   6.399
 5430SOL    HW217190   2.571   3.819   6.248
 5431SOL     OW17191   3.013   4.830   6.727
 5431SOL    HW117192   2.987   4.926   6.739
 5431SOL    HW217193   3.084   4.823   6.657
 5432SOL     OW17194   5.487   5.705   1.307
 5432SOL    HW117195   5.431   5.644   1.364
 5432SOL    HW217196   5.583   5.694   1.332
 5433SOL     OW17197   1.407   0.239   1.166
 5433SOL    HW117198   1.476   0.229   1.095
 5433SOL    HW217199   1.320   0.266   1.125
 5434SOL     OW17200   4.837   1.497   5.055
 5434SOL    HW117201   4.766   1.558   5.022
 5434SOL    HW217202   4.795   1.416   5.097
 5435SOL     OW17203   6.377   4.020   0.832
 5435SOL    HW117204   6.333   3.939   0.871
 5435SOL    HW217205   6.440   3.991   0.760
 5436SOL     OW17206   1.408   5.270   2.609
 5436SOL    HW117207   1.466   5.196   2.645
 5436SOL    HW217208   1.458   5.320   2.538
 5437SOL     OW17209   3.723   5.534   0.039
 5437SOL    HW117210   3.811   5.489   0.051
 5437SOL    HW217211   3.656   5.497   0.104
 5438SOL     OW17212   4.794   4.155   2.456
 5438SOL    HW117213   4.802   4.056   2.444
 5438SOL    HW217214   4.782   4.199   2.367
 5439SOL     OW17215   0.923   3.880   1.221
 5439SOL    HW117216   0.905   3.838   1.133
 5439SOL    HW217217   0.836   3.905   1.265
 5440SOL     OW17218   5.662   6.113   3.278
 5440SOL    HW117219   5.678   6.014   3.277
 5440SOL    HW217220   5.606   6.136   3.358
 5441SOL     OW17221   4.716   2.718   3.943
 5441SOL    HW117222   4.697   2.645   3.877
 5441SOL    HW217223   4.632   2.741   3.993
 5442SOL     OW17224   5.268   7.016   4.491
 5442SOL    HW117225   5.278   0.078   4.440
 5442SOL    HW217226   5.350   7.001   4.546
 5443SOL     OW17227   4.359   6.384   5.121
 5443SOL    HW117228   4.362   6.469   5.068
 5443SOL    HW217229   4.412   6.395   5.205
 5444SOL     OW17230   0.251   0.902   3.883
 5444SOL    HW117231   0.348   0.910   3.906
 5444SOL    HW217232   0.236   0.819   3.830
 5445SOL     OW17233   5.074   5.583   5.947
 5445SOL    HW117234   4.985   5.624   5.967
 5445SOL    HW217235   5.063   5.485   5.929
 5446SOL     OW17236   0.156   4.591   5.478
 5446SOL    HW117237   0.120   4.607   5.386
 5446SOL    HW217238   0.149   4.676   5.532
 5447SOL     OW17239   1.417   1.823   0.448
 5447SOL    HW117240   1.502   1.874   0.463
 5447SOL    HW217241   1.344   1.866   0.500
 5448SOL     OW17242   4.474   5.860   3.710
 5448SOL    HW117243   4.531   5.798   3.656
 5448SOL    HW217244   4.426   5.808   3.781
 5449SOL     OW17245   2.984   1.632   2.182
 5449SOL    HW117246   2.888   1.660   2.170
 5449SOL    HW217247   2.993   1.583   2.269
 5450SOL     OW17248   4.094   6.204   1.864
 5450SOL    HW117249   4.128   6.210   1.770
 5450SOL    HW217250   4.168   6.174   1.925
 5451SOL     OW17251   1.423   0.260   3.239
 5451SOL    HW117252   1.339   0.268   3.185
 5451SOL    HW217253   1.465   0.350   3.248
 5452SOL     OW17254   1.801   4.763   1.961
 5452SOL    HW117255   1.708   4.794   1.945
 5452SOL    HW217256   1.800   4.672   2.003
 5453SOL     OW17257   6.138   3.916   3.305
 5453SOL    HW117258   6.062   3.853   3.318
 5453SOL    HW217259   6.121   4.000   3.358
 5454SOL     OW17260   6.336   5.479   3.127
 5454SOL    HW117261   6.268   5.445   3.191
 5454SOL    HW217262   6.290   5.522   3.049
 5455SOL     OW17263   6.591   1.849   2.228
 5455SOL    HW117264   6.608   1.918   2.298
 5455SOL    HW217265   6.614   1.759   2.264
 5456SOL     OW17266   4.667   0.916   6.587
 5456SOL    HW117267   4.751   0.953   6.548
 5456SOL    HW217268   4.654   0.952   6.680
 5457SOL     OW17269   6.276   2.608   0.753
 5457SOL    HW117270   6.259   2.670   0.676
 5457SOL    HW217271   6.222   2.637   0.831
 5458SOL     OW17272   6.151   4.353   1.328
 5458SOL    HW117273   6.105   4.281   1.275
 5458SOL    HW217274   6.222   4.395   1.272
 5459SOL     OW17275   1.591   4.690   5.860
 5459SOL    HW117276   1.497   4.723   5.868
 5459SOL    HW217277   1.653   4.753   5.905
 5460SOL     OW17278   1.660   0.817   0.695
 5460SOL    HW117279   1.619   0.756   0.627
 5460SOL    HW217280   1.732   0.769   0.744
 5461SOL     OW17281   0.218   1.496   6.137
 5461SOL    HW117282   0.160   1.445   6.200
 5461SOL    HW217283   0.257   1.575   6.184
 5462SOL     OW17284   5.219   6.043   6.640
 5462SOL    HW117285   5.261   5.997   6.719
 5462SOL    HW217286   5.221   5.982   6.561
 5463SOL     OW17287   0.353   2.576   6.523
 5463SOL    HW117288   0.383   2.664   6.485
 5463SOL    HW217289   0.417   2.504   6.495
 5464SOL     OW17290   5.996   6.504   5.445
 5464SOL    HW117291   6.028   6.410   5.451
 5464SOL    HW217292   5.996   6.533   5.349
 5465SOL     OW17293   6.426   6.332   3.358
 5465SOL    HW117294   6.407   6.414   3.304
 5465SOL    HW217295   6.444   6.358   3.453
 5466SOL     OW17296   5.497   2.342   5.311
 5466SOL    HW117297   5.482   2.244   5.324
 5466SOL    HW217298   5.591   2.366   5.335
 5467SOL     OW17299   5.836   3.770   3.342
 5467SOL    HW117300   5.779   3.803   3.267
 5467SOL    HW217301   5.778   3.731   3.413
 5468SOL     OW17302   6.474   1.697   2.608
 5468SOL    HW117303   6.432   1.722   2.521
 5468SOL    HW217304   6.535   1.771   2.637
 5469SOL     OW17305   1.974   0.829   5.905
 5469SOL    HW117306   1.937   0.790   5.990
 5469SOL    HW217307   1.990   0.756   5.839
 5470SOL     OW17308   4.082   5.331   4.700
 5470SOL    HW117309   4.034   5.269   4.762
 5470SOL    HW217310   4.175   5.346   4.734
 5471SOL     OW17311   5.234   6.731   1.967
 5471SOL    HW117312   5.196   6.729   1.875
 5471SOL    HW217313   5.216   6.819   2.009
 5472SOL     OW17314   2.980   2.073   6.404
 5472SOL    HW117315   3.039   2.140   6.360
 5472SOL    HW217316   2.886   2.086   6.373
 5473SOL     OW17317   1.603   4.875   1.015
 5473SOL    HW117318   1.598   4.831   1.105
 5473SOL    HW217319   1.693   4.856   0.974
 5474SOL     OW17320   0.822   5.604   3.769
 5474SOL    HW117321   0.909   5.629   3.725
 5474SOL    HW217322   0.837   5.588   3.866
 5475SOL     OW17323   1.408   2.087   0.077
 5475SOL    HW117324   1.327   2.089   0.018
 5475SOL    HW217325   1.459   2.002   0.061
 5476SOL     OW17326   2.415   5.823   5.421
 5476SOL    HW117327   2.323   5.862   5.428
 5476SOL    HW217328   2.434   5.799   5.326
 5477SOL     OW17329   1.870   4.723   3.683
 5477SOL    HW117330   1.888   4.642   3.628
 5477SOL    HW217331   1.818   4.698   3.765
 5478SOL     OW17332   5.445   5.345   6.663
 5478SOL    HW117333   5.426   5.248   6.674
 5478SOL    HW217334   5.457   5.366   6.566
 5479SOL     OW17335   4.570   1.419   4.817
 5479SOL    HW117336   4.498   1.350   4.810
 5479SOL    HW217337   4.561   1.468   4.903
 5480SOL     OW17338   6.191   4.487   4.951
 5480SOL    HW117339   6.288   4.474   4.973
 5480SOL    HW217340   6.156   4.405   4.906
 5481SOL     OW17341   3.981   0.903   6.168
 5481SOL    HW117342   3.990   0.954   6.253
 5481SOL    HW217343   3.885   0.903   6.140
 5482SOL     OW17344   3.542   3.708   2.166
 5482SOL    HW117345   3.460   3.705   2.224
 5482SOL    HW217346   3.565   3.615   2.136
 5483SOL     OW17347   6.355   3.193   5.702
 5483SOL    HW117348   6.434   3.251   5.720
 5483SOL    HW217349   6.296   3.237   5.634
 5484SOL     OW17350   0.006   6.827   3.942
 5484SOL    HW117351   6.958   6.763   3.970
 5484SOL    HW217352   6.990   6.915   3.918
 5485SOL     OW17353   3.074   0.153   4.765
 5485SOL    HW117354   3.113   0.061   4.770
 5485SOL    HW217355   3.000   0.155   4.699
 5486SOL     OW17356   1.614   0.278   3.488
 5486SOL    HW117357   1.602   0.339   3.410
 5486SOL    HW217358   1.711   0.275   3.514
 5487SOL     OW17359   6.285   4.011   0.100
 5487SOL    HW117360   6.314   4.034   0.193
 5487SOL    HW217361   6.350   4.050   0.035
 5488SOL     OW17362   4.449   2.356   0.230
 5488SOL    HW117363   4.391   2.282   0.264
 5488SOL    HW217364   4.404   2.403   0.155
 5489SOL     OW17365   1.314   4.444   1.979
 5489SOL    HW117366   1.411   4.438   1.960
 5489SOL    HW217367   1.279   4.533   1.949
 5490SOL     OW17368   3.465   0.080   0.372
 5490SOL    HW117369   3.411   0.156   0.336
 5490SOL    HW217370   3.562   0.095   0.353
 5491SOL     OW17371   1.606   4.569   6.715
 5491SOL    HW117372   1.548   4.494   6.682
 5491SOL    HW217373   1.702   4.541   6.711
 5492SOL     OW17374   1.167   1.311   6.075
 5492SOL    HW117375   1.205   1.290   5.985
 5492SOL    HW217376   1.068   1.320   6.068
 5493SOL     OW17377   3.645   3.207   5.412
 5493SOL    HW117378   3.743   3.189   5.404
 5493SOL    HW217379   3.602   3.199   5.321
 5494SOL     OW17380   6.718   3.188   0.651
 5494SOL    HW117381   6.752   3.104   0.608
 5494SOL    HW217382   6.623   3.174   0.680
 5495SOL     OW17383   3.444   3.420   1.308
 5495SOL    HW117384   3.402   3.333   1.332
 5495SOL    HW217385   3.431   3.485   1.383
 5496SOL     OW17386   3.703   6.054   1.665
 5496SOL    HW117387   3.607   6.027   1.675
 5496SOL    HW217388   3.752   5.986   1.611
 5497SOL     OW17389   0.623   1.929   2.988
 5497SOL    HW117390   0.691   2.003   2.992
 5497SOL    HW217391   0.642   1.862   3.060
 5498SOL     OW17392   4.487   1.395   6.649
 5498SOL    HW117393   4.510   1.416   6.744
 5498SOL    HW217394   4.424   1.464   6.614
 5499SOL     OW17395   0.279   0.494   3.080
 5499SOL    HW117396   0.301   0.527   2.988
 5499SOL    HW217397   0.185   0.520   3.103
 5500SOL     OW17398   1.807   5.870   0.164
 5500SOL    HW117399   1.885   5.931   0.157
 5500SOL    HW217400   1.774   5.868   0.258
 5501SOL     OW17401   3.049   0.226   1.866
 5501SOL    HW117402   3.013   0.269   1.949
 5501SOL    HW217403   3.025   0.282   1.787
 5502SOL     OW17404   6.068   4.061   5.932
 5502SOL    HW117405   6.154   4.013   5.948
 5502SOL    HW217406   5.992   3.997   5.942
 5503SOL     OW17407   1.046   5.220   3.190
 5503SOL    HW117408   0.970   5.169   3.149
 5503SOL    HW217409   1.101   5.262   3.117
 5504SOL     OW17410   2.762   1.034   4.902
 5504SOL    HW117411   2.676   0.987   4.923
 5504SOL    HW217412   2.744   1.111   4.841
 5505SOL     OW17413   1.895   6.147   5.057
 5505SOL    HW117414   1.818   6.137   4.995
 5505SOL    HW217415   1.974   6.183   5.007
 5506SOL     OW17416   6.985   0.561   4.712
 5506SOL    HW117417   6.998   0.619   4.792
 5506SOL    HW217418   6.963   0.617   4.632
 5507SOL     OW17419   2.752   6.646   2.943
 5507SOL    HW117420   2.655   6.645   2.969
 5507SOL    HW217421   2.796   6.727   2.981
 5508SOL     OW17422   2.462   1.176   6.937
 5508SOL    HW117423   2.523   1.168   6.859
 5508SOL    HW217424   2.375   1.132   6.916
 5509SOL     OW17425   6.559   6.058   0.531
 5509SOL    HW117426   6.503   6.141   0.531
 5509SOL    HW217427   6.641   6.073   0.587
 5510SOL     OW17428   4.502   6.549   6.901
 5510SOL    HW117429   4.408   6.551   6.867
 5510SOL    HW217430   4.547   6.636   6.878
 5511SOL     OW17431   1.350   0.602   3.042
 5511SOL    HW117432   1.330   0.651   3.127
 5511SOL    HW217433   1.393   0.664   2.977
 5512SOL     OW17434   6.536   2.363   0.458
 5512SOL    HW117435   6.568   2.439   0.401
 5512SOL    HW217436   6.470   2.308   0.407
 5513SOL     OW17437   4.791   4.268   4.967
 5513SOL    HW117438   4.720   4.336   4.954
 5513SOL    HW217439   4.775   4.219   5.053
 5514SOL     OW17440   5.545   5.117   2.983
 5514SOL    HW117441   5.462   5.130   3.038
 5514SOL    HW217442   5.547   5.024   2.947
 5515SOL     OW17443   5.827   3.479   1.172
 5515SOL    HW117444   5.808   3.381   1.173
 5515SOL    HW217445   5.905   3.499   1.232
 5516SOL     OW17446   1.824   2.312   0.126
 5516SOL    HW117447   1.727   2.288   0.131
 5516SOL    HW217448   1.852   2.356   0.212
 5517SOL     OW17449   3.329   2.064   2.288
 5517SOL    HW117450   3.252   2.128   2.281
 5517SOL    HW217451   3.327   2.019   2.378
 5518SOL     OW17452   6.254   5.698   6.260
 5518SOL    HW117453   6.281   5.738   6.347
 5518SOL    HW217454   6.334   5.661   6.213
 5519SOL     OW17455   5.287   3.881   3.028
 5519SOL    HW117456   5.217   3.822   2.988
 5519SOL    HW217457   5.330   3.834   3.105
 5520SOL     OW17458   1.149   4.271   3.021
 5520SOL    HW117459   1.150   4.355   2.968
 5520SOL    HW217460   1.150   4.192   2.958
 5521SOL     OW17461   4.677   5.921   1.981
 5521SOL    HW117462   4.775   5.912   1.964
 5521SOL    HW217463   4.627   5.850   1.931
 5522SOL     OW17464   2.075   3.928   1.325
 5522SOL    HW117465   2.156   3.880   1.293
 5522SOL    HW217466   2.029   3.972   1.248
 5523SOL     OW17467   3.560   6.801   2.754
 5523SOL    HW117468   3.526   6.707   2.745
 5523SOL    HW217469   3.498   6.853   2.813
 5524SOL     OW17470   0.243   6.133   4.934
 5524SOL    HW117471   0.218   6.043   4.898
 5524SOL    HW217472   0.286   6.122   5.024
 5525SOL     OW17473   0.280   4.407   0.273
 5525SOL    HW117474   0.297   4.500   0.238
 5525SOL    HW217475   0.261   4.346   0.196
 5526SOL     OW17476   6.003   3.392   4.603
 5526SOL    HW117477   5.922   3.431   4.648
 5526SOL    HW217478   6.012   3.296   4.629
 5527SOL     OW17479   0.673   3.108   2.454
 5527SOL    HW117480   0.715   3.170   2.388
 5527SOL    HW217481   0.662   3.017   2.412
 5528SOL     OW17482   0.663   2.054   6.056
 5528SOL    HW117483   0.584   1.996   6.073
 5528SOL    HW217484   0.712   2.071   6.141
 5529SOL     OW17485   2.079   0.110   4.513
 5529SOL    HW117486   2.107   0.204   4.493
 5529SOL    HW217487   1.982   0.108   4.536
 5530SOL     OW17488   0.089   2.072   2.095
 5530SOL    HW117489   0.170   2.110   2.140
 5530SOL    HW217490   0.028   2.031   2.163
 5531SOL     OW17491   4.050   3.289   4.461
 5531SOL    HW117492   3.992   3.251   4.388
 5531SOL    HW217493   4.052   3.226   4.538
 5532SOL     OW17494   1.967   1.037   0.756
 5532SOL    HW117495   1.970   0.971   0.831
 5532SOL    HW217496   1.885   1.020   0.700
 5533SOL     OW17497   3.111   0.817   2.303
 5533SOL    HW117498   3.101   0.720   2.283
 5533SOL    HW217499   3.189   0.831   2.363
 5534SOL     OW17500   1.278   3.279   6.588
 5534SOL    HW117501   1.363   3.237   6.622
 5534SOL    HW217502   1.300   3.362   6.536
 5535SOL     OW17503   0.224   3.248   2.844
 5535SOL    HW117504   0.290   3.314   2.807
 5535SOL    HW217505   0.214   3.263   2.942
 5536SOL     OW17506   2.393   0.810   3.940
 5536SOL    HW117507   2.462   0.865   3.986
 5536SOL    HW217508   2.304   0.855   3.948
 5537SOL     OW17509   3.467   1.075   4.690
 5537SOL    HW117510   3.387   1.018   4.669
 5537SOL    HW217511   3.449   1.169   4.659
 5538SOL     OW17512   3.658   0.077   4.978
 5538SOL    HW117513   3.737   0.080   4.917
 5538SOL    HW217514   3.657   0.160   5.034
 5539SOL     OW17515   0.517   1.990   1.091
 5539SOL    HW117516   0.556   2.004   1.182
 5539SOL    HW217517   0.571   1.920   1.043
 5540SOL     OW17518   5.361   3.097   1.653
 5540SOL    HW117519   5.285   3.133   1.707
 5540SOL    HW217520   5.389   3.008   1.688
 5541SOL     OW17521   5.103   3.324   5.763
 5541SOL    HW117522   5.113   3.276   5.850
 5541SOL    HW217523   5.009   3.356   5.753
 5542SOL     OW17524   5.921   6.026   5.826
 5542SOL    HW117525   6.014   6.028   5.788
 5542SOL    HW217526   5.856   6.061   5.759
 5543SOL     OW17527   1.874   5.592   6.458
 5543SOL    HW117528   1.828   5.624   6.541
 5543SOL    HW217529   1.922   5.669   6.416
 5544SOL     OW17530   5.446   5.726   5.582
 5544SOL    HW117531   5.505   5.803   5.604
 5544SOL    HW217532   5.379   5.714   5.655
 5545SOL     OW17533   5.013   0.618   2.498
 5545SOL    HW117534   5.097   0.567   2.479
 5545SOL    HW217535   4.950   0.610   2.421
 5546SOL     OW17536   0.877   6.284   4.113
 5546SOL    HW117537   0.838   6.297   4.204
 5546SOL    HW217538   0.953   6.220   4.118
 5547SOL     OW17539   4.121   1.076   4.928
 5547SOL    HW117540   4.131   1.045   4.834
 5547SOL    HW217541   4.031   1.118   4.940
 5548SOL     OW17542   6.480   3.895   5.669
 5548SOL    HW117543   6.406   3.955   5.699
 5548SOL    HW217544   6.506   3.918   5.576
 5549SOL     OW17545   3.917   4.063   1.027
 5549SOL    HW117546   3.912   4.004   1.108
 5549SOL    HW217547   3.825   4.095   1.004
 5550SOL     OW17548   2.403   4.368   2.100
 5550SOL    HW117549   2.342   4.388   2.177
 5550SOL    HW217550   2.491   4.413   2.115
 5551SOL     OW17551   1.691   6.055   2.659
 5551SOL    HW117552   1.702   6.151   2.633
 5551SOL    HW217553   1.703   6.046   2.757
 5552SOL     OW17554   6.022   0.991   6.873
 5552SOL    HW117555   6.071   0.943   6.945
 5552SOL    HW217556   6.073   1.073   6.846
 5553SOL     OW17557   4.152   6.494   6.040
 5553SOL    HW117558   4.091   6.422   6.007
 5553SOL    HW217559   4.242   6.484   5.999
 5554SOL     OW17560   4.744   2.840   1.169
 5554SOL    HW117561   4.824   2.789   1.201
 5554SOL    HW217562   4.711   2.900   1.242
 5555SOL     OW17563   1.222   3.487   2.159
 5555SOL    HW117564   1.142   3.485   2.099
 5555SOL    HW217565   1.246   3.394   2.185
 5556SOL     OW17566   6.454   1.659   3.687
 5556SOL    HW117567   6.437   1.724   3.614
 5556SOL    HW217568   6.415   1.570   3.663
 5557SOL     OW17569   4.145   5.834   2.004
 5557SOL    HW117570   4.047   5.824   2.020
 5557SOL    HW217571   4.160   5.898   1.929
 5558SOL     OW17572   3.149   3.478   6.366
 5558SOL    HW117573   3.198   3.487   6.279
 5558SOL    HW217574   3.182   3.547   6.431
 5559SOL     OW17575   1.922   0.399   2.158
 5559SOL    HW117576   1.945   0.372   2.065
 5559SOL    HW217577   1.891   0.494   2.160
 5560SOL     OW17578   6.897   5.319   1.113
 5560SOL    HW117579   6.972   5.379   1.140
 5560SOL    HW217580   6.857   5.277   1.194
 5561SOL     OW17581   2.240   0.763   4.400
 5561SOL    HW117582   2.193   0.691   4.450
 5561SOL    HW217583   2.269   0.729   4.311
 5562SOL     OW17584   4.218   2.840   6.892
 5562SOL    HW117585   4.304   2.796   6.918
 5562SOL    HW217586   4.231   2.939   6.887
 5563SOL     OW17587   2.900   5.169   2.867
 5563SOL    HW117588   2.806   5.147   2.897
 5563SOL    HW217589   2.957   5.088   2.877
 5564SOL     OW17590   4.808   0.057   0.224
 5564SOL    HW117591   4.904   0.054   0.253
 5564SOL    HW217592   4.782   6.992   0.188
 5565SOL     OW17593   3.820   2.403   5.923
 5565SOL    HW117594   3.798   2.307   5.904
 5565SOL    HW217595   3.736   2.457   5.922
 5566SOL     OW17596   1.748   4.490   0.182
 5566SOL    HW117597   1.709   4.477   0.092
 5566SOL    HW217598   1.744   4.586   0.208
 5567SOL     OW17599   6.931   3.831   1.540
 5567SOL    HW117600   6.937   3.764   1.466
 5567SOL    HW217601   6.873   3.794   1.613
 5568SOL     OW17602   5.381   1.350   3.733
 5568SOL    HW117603   5.328   1.299   3.666
 5568SOL    HW217604   5.460   1.392   3.689
 5569SOL     OW17605   2.039   2.052   2.063
 5569SOL    HW117606   2.052   2.133   2.119
 5569SOL    HW217607   2.119   2.038   2.005
 5570SOL     OW17608   5.806   3.691   4.241
 5570SOL    HW117609   5.726   3.746   4.266
 5570SOL    HW217610   5.888   3.732   4.280
 5571SOL     OW17611   6.246   5.824   1.441
 5571SOL    HW117612   6.300   5.869   1.513
 5571SOL    HW217613   6.239   5.885   1.362
 5572SOL     OW17614   1.301   4.029   4.862
 5572SOL    HW117615   1.291   3.950   4.801
 5572SOL    HW217616   1.223   4.090   4.850
 5573SOL     OW17617   1.757   5.879   5.351
 5573SOL    HW117618   1.830   5.902   5.287
 5573SOL    HW217619   1.741   5.957   5.412
 5574SOL     OW17620   0.456   2.189   1.987
 5574SOL    HW117621   0.494   2.277   2.013
 5574SOL    HW217622   0.400   2.153   2.062
 5575SOL     OW17623   6.558   1.227   0.948
 5575SOL    HW117624   6.488   1.197   1.012
 5575SOL    HW217625   6.646   1.188   0.975
 5576SOL     OW17626   0.898   4.488   1.870
 5576SOL    HW117627   0.928   4.409   1.923
 5576SOL    HW217628   0.952   4.496   1.786
 5577SOL     OW17629   2.776   2.643   0.063
 5577SOL    HW117630   2.854   2.694   0.027
 5577SOL    HW217631   2.790   2.546   0.048
 5578SOL     OW17632   3.416   3.843   1.950
 5578SOL    HW117633   3.485   3.811   1.886
 5578SOL    HW217634   3.432   3.802   2.040
 5579SOL     OW17635   0.316   3.399   0.283
 5579SOL    HW117636   0.308   3.427   0.187
 5579SOL    HW217637   0.226   3.373   0.318
 5580SOL     OW17638   4.660   2.557   5.658
 5580SOL    HW117639   4.635   2.533   5.564
 5580SOL    HW217640   4.738   2.503   5.687
 5581SOL     OW17641   1.929   6.858   1.990
 5581SOL    HW117642   1.862   6.805   1.939
 5581SOL    HW217643   1.949   6.813   2.077
 5582SOL     OW17644   4.013   3.612   6.945
 5582SOL    HW117645   3.967   3.695   6.914
 5582SOL    HW217646   3.963   3.532   6.912
 5583SOL     OW17647   4.753   1.099   2.765
 5583SOL    HW117648   4.847   1.071   2.744
 5583SOL    HW217649   4.696   1.017   2.776
 5584SOL     OW17650   6.904   4.154   4.570
 5584SOL    HW117651   6.938   4.201   4.651
 5584SOL    HW217652   6.906   4.215   4.491
 5585SOL     OW17653   5.994   5.174   3.230
 5585SOL    HW117654   5.895   5.169   3.215
 5585SOL    HW217655   6.041   5.135   3.151
 5586SOL     OW17656   0.335   3.101   6.174
 5586SOL    HW117657   0.260   3.157   6.140
 5586SOL    HW217658   0.364   3.136   6.263
 5587SOL     OW17659   4.322   6.454   0.513
 5587SOL    HW117660   4.314   6.549   0.544
 5587SOL    HW217661   4.254   6.437   0.442
 5588SOL     OW17662   2.122   5.331   3.081
 5588SOL    HW117663   2.091   5.329   3.176
 5588SOL    HW217664   2.069   5.399   3.030
 5589SOL     OW17665   6.415   3.605   5.720
 5589SOL    HW117666   6.487   3.536   5.711
 5589SOL    HW217667   6.446   3.691   5.679
 5590SOL     OW17668   0.134   6.290   3.822
 5590SOL    HW117669   0.153   6.386   3.838
 5590SOL    HW217670   0.210   6.249   3.771
 5591SOL     OW17671   5.699   2.088   1.349
 5591SOL    HW117672   5.771   2.060   1.413
 5591SOL    HW217673   5.632   2.014   1.339
 5592SOL     OW17674   1.948   5.478   2.933
 5592SOL    HW117675   2.025   5.485   2.870
 5592SOL    HW217676   1.872   5.431   2.888
 5593SOL     OW17677   0.578   2.666   0.622
 5593SOL    HW117678   0.486   2.625   0.620
 5593SOL    HW217679   0.595   2.703   0.713
 5594SOL     OW17680   5.058   0.846   6.073
 5594SOL    HW117681   5.079   0.801   5.986
 5594SOL    HW217682   4.986   0.913   6.059
 5595SOL     OW17683   0.260   1.539   4.561
 5595SOL    HW117684   0.207   1.622   4.578
 5595SOL    HW217685   0.321   1.554   4.483
 5596SOL     OW17686   4.526   0.701   2.509
 5596SOL    HW117687   4.621   0.720   2.535
 5596SOL    HW217688   4.484   0.643   2.579
 5597SOL     OW17689   4.873   2.897   4.398
 5597SOL    HW117690   4.865   2.991   4.366
 5597SOL    HW217691   4.960   2.858   4.368
 5598SOL     OW17692   5.260   3.612   4.210
 5598SOL    HW117693   5.235   3.681   4.142
 5598SOL    HW217694   5.336   3.645   4.265
 5599SOL     OW17695   0.859   2.081   3.332
 5599SOL    HW117696   0.947   2.039   3.349
 5599SOL    HW217697   0.787   2.030   3.380
 5600SOL     OW17698   1.393   1.432   1.740
 5600SOL    HW117699   1.410   1.484   1.823
 5600SOL    HW217700   1.299   1.398   1.740
 5601SOL     OW17701   1.831   0.753   6.149
 5601SOL    HW117702   1.788   0.813   6.216
 5601SOL    HW217703   1.785   0.664   6.148
 5602SOL     OW17704   6.536   1.575   1.161
 5602SOL    HW117705   6.615   1.555   1.103
 5602SOL    HW217706   6.458   1.520   1.132
 5603SOL     OW17707   5.775   2.520   6.883
 5603SOL    HW117708   5.867   2.483   6.886
 5603SOL    HW217709   5.716   2.470   6.947
 5604SOL     OW17710   6.013   2.136   5.152
 5604SOL    HW117711   6.086   2.068   5.156
 5604SOL    HW217712   6.041   2.211   5.091
 5605SOL     OW17713   7.012   1.831   5.162
 5605SOL    HW117714   6.980   1.869   5.075
 5605SOL    HW217715   6.934   1.791   5.210
 5606SOL     OW17716   4.954   6.458   0.463
 5606SOL    HW117717   4.986   6.523   0.395
 5606SOL    HW217718   4.854   6.454   0.461
 5607SOL     OW17719   5.641   1.176   2.735
 5607SOL    HW117720   5.612   1.181   2.640
 5607SOL    HW217721   5.603   1.254   2.785
 5608SOL     OW17722   5.353   6.891   4.056
 5608SOL    HW117723   5.277   6.864   4.115
 5608SOL    HW217724   5.425   6.932   4.111
 5609SOL     OW17725   3.065   5.941   0.931
 5609SOL    HW117726   2.967   5.958   0.916
 5609SOL    HW217727   3.086   5.846   0.911
 5610SOL     OW17728   3.930   6.108   0.438
 5610SOL    HW117729   3.859   6.039   0.423
 5610SOL    HW217730   3.894   6.199   0.417
 5611SOL     OW17731   0.954   5.902   2.776
 5611SOL    HW117732   0.883   5.843   2.814
 5611SOL    HW217733   0.971   5.876   2.681
 5612SOL     OW17734   3.814   2.301   6.487
 5612SOL    HW117735   3.822   2.274   6.391
 5612SOL    HW217736   3.856   2.391   6.500
 5613SOL     OW17737   5.792   4.101   3.335
 5613SOL    HW117738   5.833   4.179   3.384
 5613SOL    HW217739   5.801   4.019   3.392
 5614SOL     OW17740   4.215   1.876   4.412
 5614SOL    HW117741   4.294   1.816   4.407
 5614SOL    HW217742   4.135   1.830   4.372
 5615SOL     OW17743   0.343   1.878   4.386
 5615SOL    HW117744   0.360   1.863   4.483
 5615SOL    HW217745   0.246   1.898   4.372
 5616SOL     OW17746   2.577   1.899   5.081
 5616SOL    HW117747   2.529   1.925   5.165
 5616SOL    HW217748   2.536   1.946   5.003
 5617SOL     OW17749   3.062   6.893   5.980
 5617SOL    HW117750   3.055   6.863   6.075
 5617SOL    HW217751   2.995   6.965   5.964
 5618SOL     OW17752   0.153   4.799   3.869
 5618SOL    HW117753   0.104   4.866   3.814
 5618SOL    HW217754   0.088   4.733   3.907
 5619SOL     OW17755   2.933   3.750   5.571
 5619SOL    HW117756   3.025   3.712   5.580
 5619SOL    HW217757   2.901   3.739   5.477
 5620SOL     OW17758   4.305   3.776   0.745
 5620SOL    HW117759   4.281   3.829   0.664
 5620SOL    HW217760   4.333   3.684   0.718
 5621SOL     OW17761   2.062   1.780   0.047
 5621SOL    HW117762   2.139   1.832   0.010
 5621SOL    HW217763   2.083   1.751   0.141
 5622SOL     OW17764   4.926   0.150   6.398
 5622SOL    HW117765   4.891   0.243   6.395
 5622SOL    HW217766   5.020   0.150   6.432
 5623SOL     OW17767   2.780   5.639   5.018
 5623SOL    HW117768   2.770   5.604   5.111
 5623SOL    HW217769   2.871   5.680   5.008
 5624SOL     OW17770   1.162   4.520   4.015
 5624SOL    HW117771   1.177   4.516   4.114
 5624SOL    HW217772   1.201   4.606   3.980
 5625SOL     OW17773   6.314   1.516   4.824
 5625SOL    HW117774   6.388   1.476   4.770
 5625SOL    HW217775   6.260   1.578   4.767
 5626SOL     OW17776   2.846   6.115   4.131
 5626SOL    HW117777   2.795   6.178   4.073
 5626SOL    HW217778   2.802   6.110   4.221
 5627SOL     OW17779   0.827   5.662   6.397
 5627SOL    HW117780   0.892   5.602   6.350
 5627SOL    HW217781   0.739   5.615   6.407
 5628SOL     OW17782   1.123   2.394   0.477
 5628SOL    HW117783   1.182   2.348   0.543
 5628SOL    HW217784   1.071   2.326   0.425
 5629SOL     OW17785   3.511   4.096   2.795
 5629SOL    HW117786   3.546   4.010   2.832
 5629SOL    HW217787   3.427   4.120   2.844
 5630SOL     OW17788   1.933   3.541   0.539
 5630SOL    HW117789   1.889   3.630   0.524
 5630SOL    HW217790   1.876   3.469   0.501
 5631SOL     OW17791   4.548   1.783   0.555
 5631SOL    HW117792   4.646   1.803   0.563
 5631SOL    HW217793   4.505   1.853   0.498
 5632SOL     OW17794   3.009   2.478   6.063
 5632SOL    HW117795   3.013   2.548   5.990
 5632SOL    HW217796   2.914   2.456   6.082
 5633SOL     OW17797   6.219   3.699   4.135
 5633SOL    HW117798   6.158   3.623   4.154
 5633SOL    HW217799   6.236   3.705   4.036
 5634SOL     OW17800   2.476   5.310   4.534
 5634SOL    HW117801   2.458   5.370   4.457
 5634SOL    HW217802   2.423   5.225   4.523
 5635SOL     OW17803   2.125   4.262   5.298
 5635SOL    HW117804   2.222   4.258   5.322
 5635SOL    HW217805   2.102   4.183   5.240
 5636SOL     OW17806   4.094   6.154   4.187
 5636SOL    HW117807   4.181   6.158   4.138
 5636SOL    HW217808   4.112   6.138   4.284
 5637SOL     OW17809   5.080   6.807   3.331
 5637SOL    HW117810   5.082   6.769   3.238
 5637SOL    HW217811   5.135   6.890   3.334
 5638SOL     OW17812   6.231   3.895   1.345
 5638SOL    HW117813   6.317   3.844   1.336
 5638SOL    HW217814   6.162   3.836   1.387
 5639SOL     OW17815   0.972   1.469   1.504
 5639SOL    HW117816   0.900   1.402   1.525
 5639SOL    HW217817   0.957   1.552   1.558
 5640SOL     OW17818   2.908   0.399   3.593
 5640SOL    HW117819   2.977   0.365   3.656
 5640SOL    HW217820   2.939   0.486   3.553
 5641SOL     OW17821   0.959   5.406   5.492
 5641SOL    HW117822   0.929   5.312   5.473
 5641SOL    HW217823   0.948   5.461   5.410
 5642SOL     OW17824   1.632   6.940   5.449
 5642SOL    HW117825   1.566   7.015   5.455
 5642SOL    HW217826   1.725   6.977   5.459
 5643SOL     OW17827   4.579   1.597   5.013
 5643SOL    HW117828   4.627   1.683   4.995
 5643SOL    HW217829   4.522   1.608   5.095
 5644SOL     OW17830   3.047   0.298   5.251
 5644SOL    HW117831   2.969   0.360   5.242
 5644SOL    HW217832   3.091   0.312   5.340
 5645SOL     OW17833   6.468   4.143   3.649
 5645SOL    HW117834   6.411   4.141   3.731
 5645SOL    HW217835   6.565   4.139   3.675
 5646SOL     OW17836   1.369   5.386   3.303
 5646SOL    HW117837   1.378   5.287   3.290
 5646SOL    HW217838   1.404   5.433   3.222
 5647SOL     OW17839   5.041   6.241   1.442
 5647SOL    HW117840   4.977   6.180   1.397
 5647SOL    HW217841   5.076   6.197   1.525
 5648SOL     OW17842   2.125   5.506   2.713
 5648SOL    HW117843   2.030   5.505   2.684
 5648SOL    HW217844   2.183   5.535   2.637
 5649SOL     OW17845   0.852   6.958   4.237
 5649SOL    HW117846   0.881   6.937   4.144
 5649SOL    HW217847   0.892   6.891   4.300
 5650SOL     OW17848   1.398   5.185   1.343
 5650SOL    HW117849   1.416   5.093   1.378
 5650SOL    HW217850   1.469   5.247   1.374
 5651SOL     OW17851   2.179   1.096   0.601
 5651SOL    HW117852   2.102   1.113   0.663
 5651SOL    HW217853   2.243   1.173   0.606
 5652SOL     OW17854   6.132   5.793   1.000
 5652SOL    HW117855   6.072   5.851   0.945
 5652SOL    HW217856   6.218   5.779   0.951
 5653SOL     OW17857   6.775   6.719   6.500
 5653SOL    HW117858   6.685   6.763   6.492
 5653SOL    HW217859   6.775   6.635   6.446
 5654SOL     OW17860   0.827   6.113   4.725
 5654SOL    HW117861   0.803   6.107   4.822
 5654SOL    HW217862   0.767   6.053   4.673
 5655SOL     OW17863   0.304   3.066   3.978
 5655SOL    HW117864   0.326   3.093   4.072
 5655SOL    HW217865   0.206   3.080   3.961
 5656SOL     OW17866   6.706   4.348   6.413
 5656SOL    HW117867   6.650   4.339   6.496
 5656SOL    HW217868   6.802   4.332   6.436
 5657SOL     OW17869   5.646   3.104   5.904
 5657SOL    HW117870   5.599   3.174   5.957
 5657SOL    HW217871   5.621   3.113   5.808
 5658SOL     OW17872   2.858   3.259   6.164
 5658SOL    HW117873   2.800   3.195   6.214
 5658SOL    HW217874   2.820   3.275   6.073
 5659SOL     OW17875   3.854   3.338   6.430
 5659SOL    HW117876   3.836   3.437   6.429
 5659SOL    HW217877   3.776   3.290   6.390
 5660SOL     OW17878   4.808   6.586   5.595
 5660SOL    HW117879   4.813   6.529   5.677
 5660SOL    HW217880   4.854   6.673   5.611
 5661SOL     OW17881   1.646   5.924   4.483
 5661SOL    HW117882   1.693   6.011   4.489
 5661SOL    HW217883   1.582   5.915   4.560
 5662SOL     OW17884   2.900   6.653   2.725
 5662SOL    HW117885   2.850   6.658   2.638
 5662SOL    HW217886   2.836   6.659   2.801
 5663SOL     OW17887   2.296   2.431   0.924
 5663SOL    HW117888   2.341   2.427   0.835
 5663SOL    HW217889   2.225   2.501   0.922
 5664SOL     OW17890   6.934   3.728   4.104
 5664SOL    HW117891   6.923   3.803   4.169
 5664SOL    HW217892   6.887   3.647   4.138
 5665SOL     OW17893   0.939   6.974   0.620
 5665SOL    HW117894   0.865   6.911   0.599
 5665SOL    HW217895   0.975   6.954   0.711
 5666SOL     OW17896   6.338   0.170   3.778
 5666SOL    HW117897   6.252   0.119   3.770
 5666SOL    HW217898   6.319   0.268   3.779
 5667SOL     OW17899   1.530   4.992   4.924
 5667SOL    HW117900   1.504   5.003   5.020
 5667SOL    HW217901   1.624   4.960   4.918
 5668SOL     OW17902   6.105   3.068   3.299
 5668SOL    HW117903   6.141   3.067   3.206
 5668SOL    HW217904   6.089   2.975   3.330
 5669SOL     OW17905   6.541   4.363   0.973
 5669SOL    HW117906   6.551   4.306   1.055
 5669SOL    HW217907   6.629   4.401   0.947
 5670SOL     OW17908   1.416   3.403   3.488
 5670SOL    HW117909   1.394   3.332   3.554
 5670SOL    HW217910   1.358   3.483   3.503
 5671SOL     OW17911   5.762   6.584   5.587
 5671SOL    HW117912   5.840   6.555   5.532
 5671SOL    HW217913   5.785   6.667   5.637
 5672SOL     OW17914   5.250   4.383   5.999
 5672SOL    HW117915   5.205   4.429   5.923
 5672SOL    HW217916   5.230   4.432   6.084
 5673SOL     OW17917   1.657   6.677   1.091
 5673SOL    HW117918   1.589   6.712   1.027
 5673SOL    HW217919   1.637   6.581   1.112
 5674SOL     OW17920   1.661   4.666   4.776
 5674SOL    HW117921   1.699   4.758   4.774
 5674SOL    HW217922   1.658   4.633   4.870
 5675SOL     OW17923   4.272   2.628   6.527
 5675SOL    HW117924   4.260   2.576   6.443
 5675SOL    HW217925   4.302   2.721   6.505
 5676SOL     OW17926   2.763   1.771   2.525
 5676SOL    HW117927   2.843   1.830   2.514
 5676SOL    HW217928   2.792   1.676   2.532
 5677SOL     OW17929   0.558   0.802   0.900
 5677SOL    HW117930   0.521   0.729   0.842
 5677SOL    HW217931   0.561   0.771   0.995
 5678SOL     OW17932   4.305   0.766   2.775
 5678SOL    HW117933   4.377   0.700   2.758
 5678SOL    HW217934   4.257   0.787   2.690
 5679SOL     OW17935   5.897   1.155   4.078
 5679SOL    HW117936   5.823   1.181   4.140
 5679SOL    HW217937   5.915   1.230   4.014
 5680SOL     OW17938   1.793   5.341   6.377
 5680SOL    HW117939   1.812   5.437   6.399
 5680SOL    HW217940   1.720   5.308   6.436
 5681SOL     OW17941   0.470   3.641   1.917
 5681SOL    HW117942   0.510   3.616   1.829
 5681SOL    HW217943   0.375   3.610   1.921
 5682SOL     OW17944   2.525   5.479   4.293
 5682SOL    HW117945   2.472   5.551   4.250
 5682SOL    HW217946   2.586   5.438   4.225
 5683SOL     OW17947   3.486   2.003   6.273
 5683SOL    HW117948   3.547   1.936   6.231
 5683SOL    HW217949   3.539   2.070   6.324
 5684SOL     OW17950   2.136   3.513   5.711
 5684SOL    HW117951   2.231   3.504   5.741
 5684SOL    HW217952   2.076   3.469   5.777
 5685SOL     OW17953   2.456   2.013   3.082
 5685SOL    HW117954   2.546   1.971   3.072
 5685SOL    HW217955   2.394   1.949   3.128
 5686SOL     OW17956   2.979   1.498   5.093
 5686SOL    HW117957   2.904   1.454   5.142
 5686SOL    HW217958   2.942   1.569   5.032
 5687SOL     OW17959   0.807   5.997   5.794
 5687SOL    HW117960   0.730   5.987   5.731
 5687SOL    HW217961   0.865   6.073   5.764
 5688SOL     OW17962   1.709   2.453   2.910
 5688SOL    HW117963   1.736   2.465   3.006
 5688SOL    HW217964   1.671   2.539   2.876
 5689SOL     OW17965   2.466   1.035   1.779
 5689SOL    HW117966   2.388   1.097   1.781
 5689SOL    HW217967   2.460   0.977   1.697
 5690SOL     OW17968   1.132   5.740   0.115
 5690SOL    HW117969   1.137   5.817   0.051
 5690SOL    HW217970   1.168   5.768   0.204
 5691SOL     OW17971   3.750   0.948   1.741
 5691SOL    HW117972   3.803   0.939   1.656
 5691SOL    HW217973   3.654   0.968   1.718
 5692SOL     OW17974   5.049   4.994   0.988
 5692SOL    HW117975   4.967   4.971   1.042
 5692SOL    HW217976   5.103   5.061   1.037
 5693SOL     OW17977   4.674   1.048   1.643
 5693SOL    HW117978   4.641   0.955   1.659
 5693SOL    HW217979   4.768   1.044   1.610
 5694SOL     OW17980   0.849   0.839   2.506
 5694SOL    HW117981   0.931   0.819   2.559
 5694SOL    HW217982   0.875   0.874   2.416
 5695SOL     OW17983   1.558   1.395   3.180
 5695SOL    HW117984   1.654   1.397   3.206
 5695SOL    HW217985   1.540   1.465   3.111
 5696SOL     OW17986   0.744   6.616   4.355
 5696SOL    HW117987   0.835   6.656   4.345
 5696SOL    HW217988   0.752   6.516   4.358
 5697SOL     OW17989   5.798   2.769   2.474
 5697SOL    HW117990   5.810   2.696   2.407
 5697SOL    HW217991   5.755   2.733   2.556
 5698SOL     OW17992   1.761   4.539   4.214
 5698SOL    HW117993   1.826   4.565   4.285
 5698SOL    HW217994   1.772   4.443   4.192
 5699SOL     OW17995   1.626   2.171   2.892
 5699SOL    HW117996   1.529   2.183   2.871
 5699SOL    HW217997   1.664   2.259   2.921
 5700SOL     OW17998   6.397   6.906   3.725
 5700SOL    HW117999   6.411   7.003   3.740
 5700SOL    HW218000   6.432   6.880   3.635
 5701SOL     OW18001   0.267   0.689   1.548
 5701SOL    HW118002   0.337   0.661   1.614
 5701SOL    HW218003   0.224   0.607   1.509
 5702SOL     OW18004   2.104   6.088   4.007
 5702SOL    HW118005   2.057   6.129   4.085
 5702SOL    HW218006   2.040   6.033   3.953
 5703SOL     OW18007   0.106   4.623   6.939
 5703SOL    HW118008   0.108   4.658   6.846
 5703SOL    HW218009   0.011   4.605   6.966
 5704SOL     OW18010   4.990   4.050   3.306
 5704SOL    HW118011   4.943   3.974   3.259
 5704SOL    HW218012   4.930   4.130   3.307
 5705SOL     OW18013   4.777   5.630   6.611
 5705SOL    HW118014   4.875   5.643   6.599
 5705SOL    HW218015   4.746   5.551   6.557
 5706SOL     OW18016   5.204   2.479   2.267
 5706SOL    HW118017   5.109   2.459   2.243
 5706SOL    HW218018   5.210   2.572   2.304
 5707SOL     OW18019   6.459   0.296   0.883
 5707SOL    HW118020   6.373   0.254   0.913
 5707SOL    HW218021   6.536   0.247   0.926
 5708SOL     OW18022   5.069   5.767   2.436
 5708SOL    HW118023   5.000   5.837   2.416
 5708SOL    HW218024   5.160   5.806   2.427
 5709SOL     OW18025   0.393   1.273   2.473
 5709SOL    HW118026   0.347   1.357   2.500
 5709SOL    HW218027   0.351   1.237   2.389
 5710SOL     OW18028   3.418   2.111   0.331
 5710SOL    HW118029   3.347   2.061   0.381
 5710SOL    HW218030   3.495   2.131   0.392
 5711SOL     OW18031   5.387   0.909   1.445
 5711SOL    HW118032   5.364   0.836   1.509
 5711SOL    HW218033   5.343   0.994   1.473
 5712SOL     OW18034   6.190   6.779   6.956
 5712SOL    HW118035   6.138   6.704   6.995
 5712SOL    HW218036   6.187   6.858   7.017
 5713SOL     OW18037   2.985   4.026   1.549
 5713SOL    HW118038   2.902   4.081   1.543
 5713SOL    HW218039   3.004   4.003   1.644
 5714SOL     OW18040   6.599   6.125   1.452
 5714SOL    HW118041   6.639   6.202   1.402
 5714SOL    HW218042   6.639   6.121   1.544
 5715SOL     OW18043   7.000   0.085   2.450
 5715SOL    HW118044   6.907   0.092   2.486
 5715SOL    HW218045   0.005   7.013   2.450
 5716SOL     OW18046   0.976   6.192   5.706
 5716SOL    HW118047   1.006   6.259   5.775
 5716SOL    HW218048   0.985   6.232   5.615
 5717SOL     OW18049   1.483   4.961   1.443
 5717SOL    HW118050   1.535   4.908   1.376
 5717SOL    HW218051   1.526   4.953   1.533
 5718SOL     OW18052   1.665   3.567   0.295
 5718SOL    HW118053   1.606   3.534   0.370
 5718SOL    HW218054   1.613   3.631   0.238
 5719SOL     OW18055   2.426   3.255   0.424
 5719SOL    HW118056   2.334   3.232   0.395
 5719SOL    HW218057   2.428   3.349   0.459
 5720SOL     OW18058   1.661   6.732   4.580
 5720SOL    HW118059   1.725   6.797   4.622
 5720SOL    HW218060   1.569   6.747   4.616
 5721SOL     OW18061   5.849   4.381   1.007
 5721SOL    HW118062   5.859   4.441   1.087
 5721SOL    HW218063   5.935   4.380   0.955
 5722SOL     OW18064   6.525   2.482   5.178
 5722SOL    HW118065   6.540   2.469   5.276
 5722SOL    HW218066   6.429   2.466   5.157
 5723SOL     OW18067   4.675   3.686   0.035
 5723SOL    HW118068   4.597   3.690   6.996
 5723SOL    HW218069   4.645   3.650   0.123
 5724SOL     OW18070   5.982   2.789   4.125
 5724SOL    HW118071   6.033   2.741   4.197
 5724SOL    HW218072   5.941   2.871   4.163
 5725SOL     OW18073   6.977   4.671   4.043
 5725SOL    HW118074   6.953   4.584   4.085
 5725SOL    HW218075   0.026   4.714   4.096
 5726SOL     OW18076   6.755   5.436   3.976
 5726SOL    HW118077   6.731   5.517   3.923
 5726SOL    HW218078   6.673   5.379   3.988
 5727SOL     OW18079   6.626   2.672   4.781
 5727SOL    HW118080   6.619   2.769   4.803
 5727SOL    HW218081   6.687   2.659   4.703
 5728SOL     OW18082   5.039   6.240   5.319
 5728SOL    HW118083   5.038   6.249   5.419
 5728SOL    HW218084   4.968   6.176   5.291
 5729SOL     OW18085   1.644   1.655   6.693
 5729SOL    HW118086   1.742   1.642   6.678
 5729SOL    HW218087   1.593   1.581   6.650
 5730SOL     OW18088   5.974   4.578   6.203
 5730SOL    HW118089   6.048   4.524   6.245
 5730SOL    HW218090   5.908   4.603   6.274
 5731SOL     OW18091   6.475   0.481   2.484
 5731SOL    HW118092   6.542   0.508   2.553
 5731SOL    HW218093   6.455   0.384   2.493
 5732SOL     OW18094   0.541   6.113   3.840
 5732SOL    HW118095   0.550   6.212   3.831
 5732SOL    HW218096   0.449   6.085   3.810
 5733SOL     OW18097   3.738   6.516   5.102
 5733SOL    HW118098   3.816   6.552   5.153
 5733SOL    HW218099   3.771   6.464   5.024
 5734SOL     OW18100   1.240   0.424   5.289
 5734SOL    HW118101   1.330   0.394   5.258
 5734SOL    HW218102   1.251   0.491   5.362
 5735SOL     OW18103   3.297   1.394   0.972
 5735SOL    HW118104   3.319   1.298   0.960
 5735SOL    HW218105   3.375   1.442   1.012
 5736SOL     OW18106   6.942   4.540   0.257
 5736SOL    HW118107   6.898   4.459   0.218
 5736SOL    HW218108   0.003   4.513   0.303
 5737SOL     OW18109   5.599   5.823   0.883
 5737SOL    HW118110   5.585   5.816   0.982
 5737SOL    HW218111   5.530   5.883   0.843
 5738SOL     OW18112   1.924   3.280   6.140
 5738SOL    HW118113   1.914   3.190   6.183
 5738SOL    HW218114   1.917   3.351   6.210
 5739SOL     OW18115   1.779   1.465   6.410
 5739SOL    HW118116   1.786   1.447   6.312
 5739SOL    HW218117   1.761   1.562   6.426
 5740SOL     OW18118   4.302   5.414   0.443
 5740SOL    HW118119   4.304   5.334   0.383
 5740SOL    HW218120   4.340   5.493   0.395
 5741SOL     OW18121   0.048   5.525   3.851
 5741SOL    HW118122   6.973   5.508   3.857
 5741SOL    HW218123   0.097   5.455   3.904
 5742SOL     OW18124   4.895   6.157   2.631
 5742SOL    HW118125   4.981   6.190   2.669
 5742SOL    HW218126   4.819   6.203   2.676
 5743SOL     OW18127   2.859   6.048   4.949
 5743SOL    HW118128   2.765   6.015   4.936
 5743SOL    HW218129   2.883   6.111   4.875
 5744SOL     OW18130   4.651   0.154   0.969
 5744SOL    HW118131   4.635   0.241   1.016
 5744SOL    HW218132   4.745   0.153   0.933
 5745SOL     OW18133   3.236   1.190   4.430
 5745SOL    HW118134   3.229   1.228   4.338
 5745SOL    HW218135   3.303   1.243   4.483
 5746SOL     OW18136   4.787   1.025   1.028
 5746SOL    HW118137   4.859   1.048   1.093
 5746SOL    HW218138   4.702   1.072   1.053
 5747SOL     OW18139   0.247   5.155   2.863
 5747SOL    HW118140   0.295   5.198   2.786
 5747SOL    HW218141   0.315   5.121   2.929
 5748SOL     OW18142   1.550   4.772   1.258
 5748SOL    HW118143   1.487   4.731   1.192
 5748SOL    HW218144   1.560   4.711   1.337
 5749SOL     OW18145   2.487   0.992   4.198
 5749SOL    HW118146   2.571   0.989   4.143
 5749SOL    HW218147   2.503   0.946   4.285
 5750SOL     OW18148   6.028   4.966   4.681
 5750SOL    HW118149   5.963   4.968   4.756
 5750SOL    HW218150   6.111   5.016   4.708
 5751SOL     OW18151   2.667   2.311   4.805
 5751SOL    HW118152   2.752   2.359   4.829
 5751SOL    HW218153   2.673   2.277   4.712
 5752SOL     OW18154   6.053   1.267   6.033
 5752SOL    HW118155   6.069   1.236   5.939
 5752SOL    HW218156   6.138   1.257   6.086
 5753SOL     OW18157   3.599   3.615   6.111
 5753SOL    HW118158   3.652   3.688   6.068
 5753SOL    HW218159   3.660   3.558   6.166
 5754SOL     OW18160   5.746   5.662   1.339
 5754SOL    HW118161   5.810   5.670   1.262
 5754SOL    HW218162   5.779   5.592   1.402
 5755SOL     OW18163   2.989   3.827   6.109
 5755SOL    HW118164   2.949   3.779   6.187
 5755SOL    HW218165   3.089   3.823   6.115
 5756SOL     OW18166   6.841   5.301   3.590
 5756SOL    HW118167   6.937   5.292   3.563
 5756SOL    HW218168   6.822   5.396   3.614
 5757SOL     OW18169   6.684   6.589   2.017
 5757SOL    HW118170   6.588   6.607   2.040
 5757SOL    HW218171   6.743   6.628   2.088
 5758SOL     OW18172   2.862   2.076   4.196
 5758SOL    HW118173   2.765   2.054   4.205
 5758SOL    HW218174   2.911   1.996   4.160
 5759SOL     OW18175   4.851   2.254   6.675
 5759SOL    HW118176   4.921   2.185   6.687
 5759SOL    HW218177   4.778   2.240   6.743
 5760SOL     OW18178   1.560   6.301   1.987
 5760SOL    HW118179   1.593   6.259   2.072
 5760SOL    HW218180   1.485   6.364   2.008
 5761SOL     OW18181   6.068   0.014   5.013
 5761SOL    HW118182   5.980   0.052   5.041
 5761SOL    HW218183   6.126   0.088   4.977
 5762SOL     OW18184   5.380   0.165   0.039
 5762SOL    HW118185   5.431   0.121   0.113
 5762SOL    HW218186   5.328   0.242   0.075
 5763SOL     OW18187   1.002   6.609   0.712
 5763SOL    HW118188   1.026   6.563   0.626
 5763SOL    HW218189   1.054   6.569   0.787
 5764SOL     OW18190   5.731   4.928   5.575
 5764SOL    HW118191   5.738   4.981   5.659
 5764SOL    HW218192   5.813   4.873   5.563
 5765SOL     OW18193   6.267   4.850   6.433
 5765SOL    HW118194   6.192   4.820   6.492
 5765SOL    HW218195   6.231   4.874   6.342
 5766SOL     OW18196   2.771   1.277   1.748
 5766SOL    HW118197   2.788   1.218   1.669
 5766SOL    HW218198   2.735   1.223   1.823
 5767SOL     OW18199   1.637   6.637   0.451
 5767SOL    HW118200   1.734   6.635   0.478
 5767SOL    HW218201   1.631   6.667   0.355
 5768SOL     OW18202   6.782   0.308   2.868
 5768SOL    HW118203   6.777   0.406   2.845
 5768SOL    HW218204   6.696   0.278   2.907
 5769SOL     OW18205   2.995   6.903   3.361
 5769SOL    HW118206   2.924   6.911   3.292
 5769SOL    HW218207   3.028   6.809   3.366
 5770SOL     OW18208   0.033   0.135   0.718
 5770SOL    HW118209   0.037   0.158   0.815
 5770SOL    HW218210   0.069   0.211   0.664
 5771SOL     OW18211   1.732   7.023   1.502
 5771SOL    HW118212   1.745   6.959   1.425
 5771SOL    HW218213   1.699   0.086   1.467
 5772SOL     OW18214   5.913   2.599   0.778
 5772SOL    HW118215   5.963   2.536   0.719
 5772SOL    HW218216   5.973   2.633   0.850
 5773SOL     OW18217   5.523   6.790   3.706
 5773SOL    HW118218   5.506   6.887   3.692
 5773SOL    HW218219   5.573   6.776   3.791
 5774SOL     OW18220   2.474   4.610   3.412
 5774SOL    HW118221   2.568   4.615   3.446
 5774SOL    HW218222   2.442   4.515   3.418
 5775SOL     OW18223   1.037   0.252   0.838
 5775SOL    HW118224   1.136   0.242   0.841
 5775SOL    HW218225   1.013   0.346   0.814
 5776SOL     OW18226   6.411   1.027   6.349
 5776SOL    HW118227   6.507   1.034   6.375
 5776SOL    HW218228   6.395   0.940   6.302
 5777SOL     OW18229   6.103   0.864   4.308
 5777SOL    HW118230   6.134   0.949   4.349
 5777SOL    HW218231   6.171   0.792   4.324
 5778SOL     OW18232   2.630   0.481   2.599
 5778SOL    HW118233   2.555   0.502   2.537
 5778SOL    HW218234   2.715   0.469   2.548
 5779SOL     OW18235   3.571   0.569   1.036
 5779SOL    HW118236   3.500   0.524   0.981
 5779SOL    HW218237   3.626   0.500   1.082
 5780SOL     OW18238   6.568   4.857   1.754
 5780SOL    HW118239   6.609   4.767   1.740
 5780SOL    HW218240   6.578   4.912   1.671
 5781SOL     OW18241   2.062   4.021   4.639
 5781SOL    HW118242   2.131   3.964   4.682
 5781SOL    HW218243   2.016   4.076   4.709
 5782SOL     OW18244   1.484   0.974   1.302
 5782SOL    HW118245   1.445   0.948   1.391
 5782SOL    HW218246   1.413   0.965   1.232
 5783SOL     OW18247   1.730   1.066   0.587
 5783SOL    HW118248   1.720   0.971   0.619
 5783SOL    HW218249   1.647   1.117   0.611
 5784SOL     OW18250   0.633   6.224   0.259
 5784SOL    HW118251   0.596   6.202   0.169
 5784SOL    HW218252   0.563   6.272   0.313
 5785SOL     OW18253   1.231   1.096   0.683
 5785SOL    HW118254   1.246   1.091   0.782
 5785SOL    HW218255   1.169   1.171   0.662
 5786SOL     OW18256   1.700   3.704   1.678
 5786SOL    HW118257   1.653   3.634   1.732
 5786SOL    HW218258   1.638   3.781   1.662
 5787SOL     OW18259   5.808   2.283   4.467
 5787SOL    HW118260   5.744   2.219   4.426
 5787SOL    HW218261   5.893   2.285   4.413
 5788SOL     OW18262   3.316   0.243   1.783
 5788SOL    HW118263   3.370   0.314   1.828
 5788SOL    HW218264   3.229   0.232   1.832
 5789SOL     OW18265   4.031   2.883   0.099
 5789SOL    HW118266   4.033   2.963   0.158
 5789SOL    HW218267   4.095   2.895   0.023
 5790SOL     OW18268   6.216   5.738   4.856
 5790SOL    HW118269   6.247   5.809   4.918
 5790SOL    HW218270   6.270   5.655   4.870
 5791SOL     OW18271   3.060   1.493   2.424
 5791SOL    HW118272   3.146   1.504   2.475
 5791SOL    HW218273   2.984   1.487   2.489
 5792SOL     OW18274   5.094   3.338   3.149
 5792SOL    HW118275   5.061   3.377   3.064
 5792SOL    HW218276   5.111   3.240   3.137
 5793SOL     OW18277   5.749   2.413   5.430
 5793SOL    HW118278   5.832   2.358   5.419
 5793SOL    HW218279   5.772   2.500   5.473
 5794SOL     OW18280   2.810   6.461   6.244
 5794SOL    HW118281   2.862   6.377   6.233
 5794SOL    HW218282   2.861   6.525   6.302
 5795SOL     OW18283   0.749   5.727   1.531
 5795SOL    HW118284   0.802   5.645   1.507
 5795SOL    HW218285   0.775   5.756   1.623
 5796SOL     OW18286   4.606   1.625   6.382
 5796SOL    HW118287   4.637   1.677   6.461
 5796SOL    HW218288   4.535   1.561   6.409
 5797SOL     OW18289   5.476   1.877   0.118
 5797SOL    HW118290   5.530   1.955   0.087
 5797SOL    HW218291   5.462   1.883   0.217
 5798SOL     OW18292   0.818   3.887   4.641
 5798SOL    HW118293   0.861   3.799   4.623
 5798SOL    HW218294   0.803   3.935   4.555
 5799SOL     OW18295   1.534   6.098   3.170
 5799SOL    HW118296   1.491   6.188   3.169
 5799SOL    HW218297   1.538   6.064   3.264
 5800SOL     OW18298   0.271   0.040   0.634
 5800SOL    HW118299   0.289   0.083   0.722
 5800SOL    HW218300   0.172   0.030   0.621
 5801SOL     OW18301   2.497   2.470   2.393
 5801SOL    HW118302   2.587   2.428   2.382
 5801SOL    HW218303   2.504   2.545   2.459
 5802SOL     OW18304   6.789   1.697   3.418
 5802SOL    HW118305   6.861   1.760   3.389
 5802SOL    HW218306   6.702   1.725   3.377
 5803SOL     OW18307   1.804   5.246   4.411
 5803SOL    HW118308   1.727   5.204   4.458
 5803SOL    HW218309   1.796   5.230   4.313
 5804SOL     OW18310   6.291   6.528   3.869
 5804SOL    HW118311   6.251   6.606   3.821
 5804SOL    HW218312   6.302   6.552   3.966
 5805SOL     OW18313   1.653   3.538   1.246
 5805SOL    HW118314   1.697   3.527   1.336
 5805SOL    HW218315   1.615   3.630   1.239
 5806SOL     OW18316   0.396   3.324   3.800
 5806SOL    HW118317   0.444   3.241   3.829
 5806SOL    HW218318   0.462   3.399   3.792
 5807SOL     OW18319   1.310   5.843   1.138
 5807SOL    HW118320   1.255   5.894   1.071
 5807SOL    HW218321   1.332   5.902   1.215
 5808SOL     OW18322   6.418   6.708   4.372
 5808SOL    HW118323   6.485   6.781   4.360
 5808SOL    HW218324   6.354   6.733   4.445
 5809SOL     OW18325   0.550   2.239   5.857
 5809SOL    HW118326   0.472   2.180   5.833
 5809SOL    HW218327   0.599   2.200   5.935
 5810SOL     OW18328   4.169   6.835   5.147
 5810SOL    HW118329   4.200   6.760   5.087
 5810SOL    HW218330   4.211   6.920   5.118
 5811SOL     OW18331   2.968   3.016   6.123
 5811SOL    HW118332   2.936   3.108   6.145
 5811SOL    HW218333   3.022   3.018   6.039
 5812SOL     OW18334   5.764   2.901   0.512
 5812SOL    HW118335   5.726   2.991   0.494
 5812SOL    HW218336   5.860   2.909   0.538
 5813SOL     OW18337   4.092   6.170   1.259
 5813SOL    HW118338   4.081   6.233   1.183
 5813SOL    HW218339   4.105   6.221   1.344
 5814SOL     OW18340   6.326   1.862   2.299
 5814SOL    HW118341   6.422   1.868   2.272
 5814SOL    HW218342   6.312   1.911   2.385
 5815SOL     OW18343   6.344   1.424   3.622
 5815SOL    HW118344   6.273   1.400   3.689
 5815SOL    HW218345   6.355   1.349   3.556
 5816SOL     OW18346   0.503   4.856   2.617
 5816SOL    HW118347   0.579   4.812   2.569
 5816SOL    HW218348   0.450   4.787   2.667
 5817SOL     OW18349   5.823   3.837   4.970
 5817SOL    HW118350   5.812   3.755   4.914
 5817SOL    HW218351   5.785   3.915   4.921
 5818SOL     OW18352   1.435   6.794   4.755
 5818SOL    HW118353   1.342   6.824   4.733
 5818SOL    HW218354   1.434   6.740   4.839
 5819SOL     OW18355   3.439   4.694   0.196
 5819SOL    HW118356   3.418   4.597   0.211
 5819SOL    HW218357   3.438   4.742   0.283
 5820SOL     OW18358   5.437   5.013   2.148
 5820SOL    HW118359   5.361   4.954   2.175
 5820SOL    HW218360   5.401   5.097   2.108
 5821SOL     OW18361   6.832   0.893   1.348
 5821SOL    HW118362   6.798   0.848   1.266
 5821SOL    HW218363   6.884   0.975   1.322
 5822SOL     OW18364   1.457   1.916   3.079
 5822SOL    HW118365   1.452   1.929   2.980
 5822SOL    HW218366   1.550   1.892   3.105
 5823SOL     OW18367   2.287   6.453   3.981
 5823SOL    HW118368   2.289   6.509   3.898
 5823SOL    HW218369   2.355   6.488   4.047
 5824SOL     OW18370   0.996   6.932   2.365
 5824SOL    HW118371   0.912   6.980   2.390
 5824SOL    HW218372   0.985   6.834   2.384
 5825SOL     OW18373   6.500   0.286   4.694
 5825SOL    HW118374   6.570   0.327   4.752
 5825SOL    HW218375   6.453   0.358   4.642
 5826SOL     OW18376   0.335   0.604   5.322
 5826SOL    HW118377   0.372   0.515   5.295
 5826SOL    HW218378   0.245   0.617   5.281
 5827SOL     OW18379   1.166   3.740   5.364
 5827SOL    HW118380   1.077   3.698   5.345
 5827SOL    HW218381   1.183   3.813   5.298
 5828SOL     OW18382   5.522   6.695   3.987
 5828SOL    HW118383   5.455   6.751   4.034
 5828SOL    HW218384   5.482   6.606   3.964
 5829SOL     OW18385   1.915   0.980   4.540
 5829SOL    HW118386   1.861   1.063   4.550
 5829SOL    HW218387   2.011   1.000   4.562
 5830SOL     OW18388   3.461   4.991   5.362
 5830SOL    HW118389   3.495   4.945   5.444
 5830SOL    HW218390   3.477   5.089   5.369
 5831SOL     OW18391   1.241   1.480   5.276
 5831SOL    HW118392   1.327   1.498   5.323
 5831SOL    HW218393   1.255   1.410   5.207
 5832SOL     OW18394   3.287   4.657   1.437
 5832SOL    HW118395   3.309   4.752   1.415
 5832SOL    HW218396   3.296   4.643   1.536
 5833SOL     OW18397   4.198   3.745   5.640
 5833SOL    HW118398   4.264   3.763   5.567
 5833SOL    HW218399   4.130   3.678   5.608
 5834SOL     OW18400   6.649   4.706   6.694
 5834SOL    HW118401   6.747   4.697   6.677
 5834SOL    HW218402   6.609   4.768   6.626
 5835SOL     OW18403   5.324   0.635   3.093
 5835SOL    HW118404   5.369   0.568   3.153
 5835SOL    HW218405   5.336   0.727   3.131
 5836SOL     OW18406   4.312   6.462   2.530
 5836SOL    HW118407   4.218   6.442   2.502
 5836SOL    HW218408   4.371   6.466   2.450
 5837SOL     OW18409   3.724   4.102   0.587
 5837SOL    HW118410   3.725   4.101   0.687
 5837SOL    HW218411   3.681   4.018   0.553
 5838SOL     OW18412   2.937   1.949   1.369
 5838SOL    HW118413   2.886   2.030   1.340
 5838SOL    HW218414   2.964   1.959   1.465
 5839SOL     OW18415   1.336   2.311   1.960
 5839SOL    HW118416   1.393   2.355   1.891
 5839SOL    HW218417   1.389   2.238   2.005
 5840SOL     OW18418   0.677   3.624   2.092
 5840SOL    HW118419   0.615   3.605   2.017
 5840SOL    HW218420   0.698   3.722   2.095
 5841SOL     OW18421   4.888   0.500   1.234
 5841SOL    HW118422   4.848   0.426   1.289
 5841SOL    HW218423   4.987   0.503   1.250
 5842SOL     OW18424   3.483   1.762   0.281
 5842SOL    HW118425   3.462   1.806   0.194
 5842SOL    HW218426   3.576   1.788   0.310
 5843SOL     OW18427   1.875   3.579   1.101
 5843SOL    HW118428   1.796   3.575   1.162
 5843SOL    HW218429   1.845   3.562   1.007
 5844SOL     OW18430   0.655   0.160   4.947
 5844SOL    HW118431   0.686   0.124   4.859
 5844SOL    HW218432   0.557   0.180   4.941
 5845SOL     OW18433   0.354   6.649   2.060
 5845SOL    HW118434   0.349   6.688   1.969
 5845SOL    HW218435   0.278   6.683   2.116
 5846SOL     OW18436   6.934   3.874   5.513
 5846SOL    HW118437   0.003   3.903   5.538
 5846SOL    HW218438   6.926   3.775   5.526
 5847SOL     OW18439   2.718   2.913   1.423
 5847SOL    HW118440   2.701   2.941   1.328
 5847SOL    HW218441   2.770   2.828   1.424
 5848SOL     OW18442   2.204   6.151   3.686
 5848SOL    HW118443   2.253   6.169   3.772
 5848SOL    HW218444   2.163   6.060   3.689
 5849SOL     OW18445   2.180   6.468   5.169
 5849SOL    HW118446   2.143   6.470   5.077
 5849SOL    HW218447   2.280   6.474   5.165
 5850SOL     OW18448   1.647   2.102   1.833
 5850SOL    HW118449   1.557   2.083   1.871
 5850SOL    HW218450   1.667   2.039   1.759
 5851SOL     OW18451   5.858   3.032   4.183
 5851SOL    HW118452   5.875   3.075   4.271
 5851SOL    HW218453   5.850   3.102   4.112
 5852SOL     OW18454   5.088   5.519   3.707
 5852SOL    HW118455   5.175   5.504   3.661
 5852SOL    HW218456   5.059   5.434   3.752
 5853SOL     OW18457   3.561   4.888   5.588
 5853SOL    HW118458   3.495   4.913   5.658
 5853SOL    HW218459   3.653   4.895   5.625
 5854SOL     OW18460   3.156   4.551   5.896
 5854SOL    HW118461   3.074   4.572   5.844
 5854SOL    HW218462   3.235   4.598   5.855
 5855SOL     OW18463   2.048   2.525   3.865
 5855SOL    HW118464   1.989   2.479   3.931
 5855SOL    HW218465   2.113   2.459   3.827
 5856SOL     OW18466   1.863   6.282   2.476
 5856SOL    HW118467   1.954   6.322   2.487
 5856SOL    HW218468   1.809   6.298   2.558
 5857SOL     OW18469   0.113   3.178   6.027
 5857SOL    HW118470   0.085   3.271   6.003
 5857SOL    HW218471   0.156   3.135   5.947
 5858SOL     OW18472   1.824   1.406   3.221
 5858SOL    HW118473   1.843   1.483   3.283
 5858SOL    HW218474   1.910   1.371   3.185
 5859SOL     OW18475   5.881   0.234   1.796
 5859SOL    HW118476   5.857   0.195   1.707
 5859SOL    HW218477   5.883   0.334   1.790
 5860SOL     OW18478   0.171   3.805   3.298
 5860SOL    HW118479   0.217   3.717   3.298
 5860SOL    HW218480   0.219   3.867   3.361
 5861SOL     OW18481   5.996   0.364   5.087
 5861SOL    HW118482   5.978   0.408   5.000
 5861SOL    HW218483   6.095   0.356   5.102
 5862SOL     OW18484   6.278   5.809   2.509
 5862SOL    HW118485   6.365   5.780   2.548
 5862SOL    HW218486   6.294   5.875   2.435
 5863SOL     OW18487   3.163   0.759   4.854
 5863SOL    HW118488   3.143   0.698   4.931
 5863SOL    HW218489   3.227   0.830   4.884
 5864SOL     OW18490   3.654   3.816   3.286
 5864SOL    HW118491   3.701   3.733   3.316
 5864SOL    HW218492   3.586   3.841   3.355
 5865SOL     OW18493   6.152   1.148   5.805
 5865SOL    HW118494   6.248   1.155   5.778
 5865SOL    HW218495   6.095   1.140   5.724
 5866SOL     OW18496   3.736   3.625   1.688
 5866SOL    HW118497   3.821   3.674   1.702
 5866SOL    HW218498   3.663   3.690   1.666
 5867SOL     OW18499   2.374   2.080   1.571
 5867SOL    HW118500   2.410   2.002   1.520
 5867SOL    HW218501   2.323   2.047   1.650
 5868SOL     OW18502   0.912   1.706   6.011
 5868SOL    HW118503   0.873   1.687   6.101
 5868SOL    HW218504   0.912   1.805   5.995
 5869SOL     OW18505   0.795   4.618   3.884
 5869SOL    HW118506   0.779   4.543   3.948
 5869SOL    HW218507   0.870   4.675   3.918
 5870SOL     OW18508   4.124   4.782   5.440
 5870SOL    HW118509   4.096   4.799   5.534
 5870SOL    HW218510   4.052   4.809   5.377
 5871SOL     OW18511   3.116   3.318   3.788
 5871SOL    HW118512   3.171   3.402   3.787
 5871SOL    HW218513   3.031   3.335   3.837
 5872SOL     OW18514   4.357   5.954   1.810
 5872SOL    HW118515   4.392   5.861   1.822
 5872SOL    HW218516   4.387   6.011   1.887
 5873SOL     OW18517   3.031   4.984   2.663
 5873SOL    HW118518   3.116   5.035   2.677
 5873SOL    HW218519   2.995   4.952   2.751
 5874SOL     OW18520   2.282   4.290   4.989
 5874SOL    HW118521   2.293   4.305   5.087
 5874SOL    HW218522   2.299   4.194   4.967
 5875SOL     OW18523   3.704   2.131   0.154
 5875SOL    HW118524   3.772   2.184   0.103
 5875SOL    HW218525   3.666   2.187   0.227
 5876SOL     OW18526   3.797   3.608   2.321
 5876SOL    HW118527   3.798   3.569   2.229
 5876SOL    HW218528   3.772   3.537   2.387
 5877SOL     OW18529   6.058   6.262   1.004
 5877SOL    HW118530   5.985   6.315   1.049
 5877SOL    HW218531   6.031   6.167   0.997
 5878SOL     OW18532   1.192   5.619   3.283
 5878SOL    HW118533   1.258   5.642   3.212
 5878SOL    HW218534   1.211   5.527   3.317
 5879SOL     OW18535   6.251   3.580   6.938
 5879SOL    HW118536   6.325   3.550   6.998
 5879SOL    HW218537   6.166   3.589   6.991
 5880SOL     OW18538   2.847   5.800   1.159
 5880SOL    HW118539   2.762   5.823   1.207
 5880SOL    HW218540   2.920   5.862   1.189
 5881SOL     OW18541   0.141   4.623   3.532
 5881SOL    HW118542   0.175   4.529   3.534
 5881SOL    HW218543   0.216   4.685   3.509
 5882SOL     OW18544   5.928   0.637   0.772
 5882SOL    HW118545   5.840   0.599   0.745
 5882SOL    HW218546   6.001   0.573   0.748
 5883SOL     OW18547   0.460   2.436   6.288
 5883SOL    HW118548   0.457   2.535   6.299
 5883SOL    HW218549   0.555   2.407   6.280
 5884SOL     OW18550   1.798   1.368   3.572
 5884SOL    HW118551   1.827   1.456   3.535
 5884SOL    HW218552   1.834   1.294   3.515
 5885SOL     OW18553   6.719   6.578   1.430
 5885SOL    HW118554   6.754   6.646   1.365
 5885SOL    HW218555   6.762   6.592   1.519
 5886SOL     OW18556   0.350   2.534   5.233
 5886SOL    HW118557   0.341   2.602   5.161
 5886SOL    HW218558   0.287   2.555   5.307
 5887SOL     OW18559   4.122   0.944   3.876
 5887SOL    HW118560   4.113   1.043   3.882
 5887SOL    HW218561   4.039   0.904   3.837
 5888SOL     OW18562   2.810   6.111   2.558
 5888SOL    HW118563   2.832   6.206   2.536
 5888SOL    HW218564   2.798   6.102   2.657
 5889SOL     OW18565   1.797   6.956   1.734
 5889SOL    HW118566   1.795   6.989   1.640
 5889SOL    HW218567   1.787   0.010   1.796
 5890SOL     OW18568   1.269   6.903   5.168
 5890SOL    HW118569   1.308   6.821   5.210
 5890SOL    HW218570   1.169   6.898   5.172
 5891SOL     OW18571   4.279   3.287   6.741
 5891SOL    HW118572   4.201   3.269   6.681
 5891SOL    HW218573   4.337   3.358   6.701
 5892SOL     OW18574   0.982   6.191   1.159
 5892SOL    HW118575   1.056   6.212   1.223
 5892SOL    HW218576   1.016   6.132   1.086
 5893SOL     OW18577   1.647   3.125   3.388
 5893SOL    HW118578   1.562   3.073   3.383
 5893SOL    HW218579   1.673   3.137   3.483
 5894SOL     OW18580   1.156   4.724   3.614
 5894SOL    HW118581   1.251   4.754   3.623
 5894SOL    HW218582   1.138   4.648   3.677
 5895SOL     OW18583   5.264   2.299   4.513
 5895SOL    HW118584   5.212   2.381   4.489
 5895SOL    HW218585   5.303   2.310   4.605
 5896SOL     OW18586   4.114   2.078   6.995
 5896SOL    HW118587   4.063   1.992   6.996
 5896SOL    HW218588   4.151   2.096   0.062
 5897SOL     OW18589   3.899   7.005   1.836
 5897SOL    HW118590   3.948   6.919   1.828
 5897SOL    HW218591   3.961   0.052   1.871
 5898SOL     OW18592   1.837   0.505   2.464
 5898SOL    HW118593   1.931   0.506   2.432
 5898SOL    HW218594   1.789   0.586   2.431
 5899SOL     OW18595   5.680   0.043   5.143
 5899SOL    HW118596   5.602   0.038   5.205
 5899SOL    HW218597   5.763   0.063   5.195
 5900SOL     OW18598   4.758   5.026   3.519
 5900SOL    HW118599   4.811   5.035   3.434
 5900SOL    HW218600   4.695   4.949   3.510
 5901SOL     OW18601   2.147   0.547   6.602
 5901SOL    HW118602   2.202   0.573   6.681
 5901SOL    HW218603   2.112   0.454   6.615
 5902SOL     OW18604   6.736   2.239   0.810
 5902SOL    HW118605   6.794   2.226   0.890
 5902SOL    HW218606   6.755   2.328   0.768
 5903SOL     OW18607   5.430   4.329   0.756
 5903SOL    HW118608   5.353   4.379   0.717
 5903SOL    HW218609   5.490   4.392   0.806
 5904SOL     OW18610   0.455   3.597   2.448
 5904SOL    HW118611   0.475   3.645   2.534
 5904SOL    HW218612   0.385   3.528   2.464
 5905SOL     OW18613   6.224   6.255   2.828
 5905SOL    HW118614   6.252   6.166   2.863
 5905SOL    HW218615   6.152   6.293   2.886
 5906SOL     OW18616   5.408   0.523   4.032
 5906SOL    HW118617   5.446   0.531   4.124
 5906SOL    HW218618   5.450   0.444   3.986
 5907SOL     OW18619   1.488   6.262   1.487
 5907SOL    HW118620   1.451   6.190   1.428
 5907SOL    HW218621   1.588   6.257   1.487
 5908SOL     OW18622   0.866   2.479   5.766
 5908SOL    HW118623   0.776   2.519   5.752
 5908SOL    HW218624   0.868   2.386   5.729
 5909SOL     OW18625   0.736   5.498   0.766
 5909SOL    HW118626   0.711   5.445   0.847
 5909SOL    HW218627   0.820   5.548   0.783
 5910SOL     OW18628   1.097   2.490   3.474
 5910SOL    HW118629   1.108   2.433   3.392
 5910SOL    HW218630   1.108   2.586   3.449
 5911SOL     OW18631   0.360   5.486   6.475
 5911SOL    HW118632   0.366   5.423   6.397
 5911SOL    HW218633   0.289   5.554   6.457
 5912SOL     OW18634   6.452   1.245   5.410
 5912SOL    HW118635   6.388   1.249   5.487
 5912SOL    HW218636   6.536   1.293   5.434
 5913SOL     OW18637   5.492   2.989   0.055
 5913SOL    HW118638   5.557   2.913   0.058
 5913SOL    HW218639   5.440   2.992   0.141
 5914SOL     OW18640   1.291   6.910   6.772
 5914SOL    HW118641   1.302   7.008   6.789
 5914SOL    HW218642   1.373   6.875   6.727
 5915SOL     OW18643   3.668   6.415   0.608
 5915SOL    HW118644   3.643   6.355   0.531
 5915SOL    HW218645   3.621   6.384   0.691
 5916SOL     OW18646   0.121   6.816   2.104
 5916SOL    HW118647   0.099   6.888   2.039
 5916SOL    HW218648   0.083   6.729   2.072
 5917SOL     OW18649   2.818   3.882   5.899
 5917SOL    HW118650   2.876   3.931   5.833
 5917SOL    HW218651   2.871   3.861   5.981
 5918SOL     OW18652   2.075   5.954   6.151
 5918SOL    HW118653   2.117   5.924   6.065
 5918SOL    HW218654   2.147   5.975   6.217
 5919SOL     OW18655   2.966   3.320   3.262
 5919SOL    HW118656   2.959   3.342   3.359
 5919SOL    HW218657   2.885   3.354   3.214
 5920SOL     OW18658   4.894   1.399   5.993
 5920SOL    HW118659   4.989   1.370   6.005
 5920SOL    HW218660   4.849   1.401   6.082
 5921SOL     OW18661   3.602   5.183   6.727
 5921SOL    HW118662   3.659   5.254   6.687
 5921SOL    HW218663   3.651   5.096   6.725
 5922SOL     OW18664   6.231   3.812   3.839
 5922SOL    HW118665   6.293   3.751   3.788
 5922SOL    HW218666   6.180   3.869   3.775
 5923SOL     OW18667   0.183   0.848   1.814
 5923SOL    HW118668   0.239   0.903   1.752
 5923SOL    HW218669   0.137   0.776   1.762
 5924SOL     OW18670   6.058   6.779   3.157
 5924SOL    HW118671   6.056   6.724   3.074
 5924SOL    HW218672   5.970   6.825   3.170
 5925SOL     OW18673   3.810   6.117   1.918
 5925SOL    HW118674   3.902   6.155   1.923
 5925SOL    HW218675   3.792   6.084   1.825
 5926SOL     OW18676   4.606   4.499   2.795
 5926SOL    HW118677   4.508   4.499   2.776
 5926SOL    HW218678   4.656   4.478   2.711
 5927SOL     OW18679   1.054   3.453   1.958
 5927SOL    HW118680   0.962   3.429   1.988
 5927SOL    HW218681   1.060   3.447   1.858
 5928SOL     OW18682   3.730   6.671   1.591
 5928SOL    HW118683   3.633   6.666   1.567
 5928SOL    HW218684   3.739   6.679   1.691
 5929SOL     OW18685   6.261   0.824   5.586
 5929SOL    HW118686   6.185   0.889   5.588
 5929SOL    HW218687   6.302   0.818   5.678
 5930SOL     OW18688   0.819   2.926   2.266
 5930SOL    HW118689   0.902   2.972   2.234
 5930SOL    HW218690   0.770   2.887   2.188
 5931SOL     OW18691   5.992   5.866   2.536
 5931SOL    HW118692   6.078   5.818   2.525
 5931SOL    HW218693   6.009   5.961   2.563
 5932SOL     OW18694   3.458   0.099   6.505
 5932SOL    HW118695   3.544   0.078   6.551
 5932SOL    HW218696   3.429   0.020   6.451
 5933SOL     OW18697   6.688   4.780   4.226
 5933SOL    HW118698   6.760   4.827   4.175
 5933SOL    HW218699   6.613   4.844   4.243
 5934SOL     OW18700   3.782   3.468   5.872
 5934SOL    HW118701   3.726   3.447   5.792
 5934SOL    HW218702   3.741   3.428   5.953
 5935SOL     OW18703   0.632   6.114   5.406
 5935SOL    HW118704   0.633   6.031   5.349
 5935SOL    HW218705   0.556   6.173   5.377
 5936SOL     OW18706   3.089   3.513   2.501
 5936SOL    HW118707   3.018   3.444   2.488
 5936SOL    HW218708   3.084   3.548   2.594
 5937SOL     OW18709   6.311   3.123   2.216
 5937SOL    HW118710   6.310   3.215   2.255
 5937SOL    HW218711   6.320   3.129   2.116
 5938SOL     OW18712   5.839   5.614   4.696
 5938SOL    HW118713   5.748   5.599   4.658
 5938SOL    HW218714   5.866   5.709   4.679
 5939SOL     OW18715   3.109   6.003   4.103
 5939SOL    HW118716   3.164   6.029   4.182
 5939SOL    HW218717   3.016   6.036   4.115
 5940SOL     OW18718   4.326   5.003   3.299
 5940SOL    HW118719   4.237   4.979   3.263
 5940SOL    HW218720   4.316   5.067   3.375
 5941SOL     OW18721   6.008   2.576   3.470
 5941SOL    HW118722   6.108   2.571   3.465
 5941SOL    HW218723   5.982   2.613   3.559
 5942SOL     OW18724   5.599   2.837   6.256
 5942SOL    HW118725   5.604   2.907   6.328
 5942SOL    HW218726   5.635   2.874   6.171
 5943SOL     OW18727   3.869   3.791   0.262
 5943SOL    HW118728   3.958   3.827   0.236
 5943SOL    HW218729   3.881   3.705   0.313
 5944SOL     OW18730   0.422   2.723   0.379
 5944SOL    HW118731   0.399   2.656   0.450
 5944SOL    HW218732   0.476   2.679   0.308
 5945SOL     OW18733   7.000   5.969   5.421
 5945SOL    HW118734   0.045   6.019   5.368
 5945SOL    HW218735   0.008   5.876   5.439
 5946SOL     OW18736   3.387   4.499   6.980
 5946SOL    HW118737   3.380   4.403   7.007
 5946SOL    HW218738   3.383   4.506   6.880
 5947SOL     OW18739   3.164   3.162   4.005
 5947SOL    HW118740   3.236   3.228   4.027
 5947SOL    HW218741   3.146   3.164   3.907
 5948SOL     OW18742   4.623   4.738   2.337
 5948SOL    HW118743   4.634   4.650   2.292
 5948SOL    HW218744   4.671   4.809   2.286
 5949SOL     OW18745   5.291   5.780   0.836
 5949SOL    HW118746   5.323   5.687   0.817
 5949SOL    HW218747   5.209   5.798   0.780
 5950SOL     OW18748   4.698   2.533   5.347
 5950SOL    HW118749   4.661   2.614   5.302
 5950SOL    HW218750   4.627   2.462   5.349
 5951SOL     OW18751   0.775   5.527   4.966
 5951SOL    HW118752   0.783   5.511   5.065
 5951SOL    HW218753   0.838   5.467   4.918
 5952SOL     OW18754   4.212   5.712   3.045
 5952SOL    HW118755   4.268   5.708   3.128
 5952SOL    HW218756   4.186   5.807   3.026
 5953SOL     OW18757   6.843   3.738   4.766
 5953SOL    HW118758   6.943   3.740   4.766
 5953SOL    HW218759   6.808   3.812   4.709
 5954SOL     OW18760   0.360   5.596   5.799
 5954SOL    HW118761   0.342   5.500   5.780
 5954SOL    HW218762   0.276   5.649   5.786
 5955SOL     OW18763   4.424   5.260   1.630
 5955SOL    HW118764   4.476   5.249   1.545
 5955SOL    HW218765   4.487   5.268   1.707
 5956SOL     OW18766   5.737   1.606   4.220
 5956SOL    HW118767   5.696   1.696   4.230
 5956SOL    HW218768   5.707   1.565   4.134
 5957SOL     OW18769   2.451   1.560   3.607
 5957SOL    HW118770   2.538   1.579   3.651
 5957SOL    HW218771   2.410   1.646   3.575
 5958SOL     OW18772   4.516   0.725   3.062
 5958SOL    HW118773   4.426   0.719   3.104
 5958SOL    HW218774   4.586   0.736   3.132
 5959SOL     OW18775   4.281   2.964   5.356
 5959SOL    HW118776   4.221   2.996   5.429
 5959SOL    HW218777   4.250   2.875   5.323
 5960SOL     OW18778   2.608   6.433   3.768
 5960SOL    HW118779   2.560   6.491   3.703
 5960SOL    HW218780   2.615   6.340   3.732
 5961SOL     OW18781   3.877   1.645   2.430
 5961SOL    HW118782   3.889   1.710   2.355
 5961SOL    HW218783   3.965   1.630   2.475
 5962SOL     OW18784   5.359   5.781   6.224
 5962SOL    HW118785   5.385   5.853   6.159
 5962SOL    HW218786   5.407   5.697   6.201
 5963SOL     OW18787   3.498   3.883   0.063
 5963SOL    HW118788   3.579   3.826   0.072
 5963SOL    HW218789   3.483   3.933   0.149
 5964SOL     OW18790   2.452   6.844   3.539
 5964SOL    HW118791   2.463   6.760   3.487
 5964SOL    HW218792   2.534   6.859   3.594
 5965SOL     OW18793   1.745   0.592   6.721
 5965SOL    HW118794   1.673   0.657   6.696
 5965SOL    HW218795   1.705   0.502   6.739
 5966SOL     OW18796   1.390   0.094   5.940
 5966SOL    HW118797   1.331   0.142   6.006
 5966SOL    HW218798   1.402   0.151   5.859
 5967SOL     OW18799   2.377   0.959   5.456
 5967SOL    HW118800   2.346   1.034   5.398
 5967SOL    HW218801   2.298   0.904   5.483
 5968SOL     OW18802   5.505   2.835   0.461
 5968SOL    HW118803   5.455   2.896   0.399
 5968SOL    HW218804   5.603   2.851   0.451
 5969SOL     OW18805   5.063   1.594   6.314
 5969SOL    HW118806   4.971   1.602   6.276
 5969SOL    HW218807   5.062   1.617   6.411
 5970SOL     OW18808   0.619   4.500   0.532
 5970SOL    HW118809   0.576   4.579   0.577
 5970SOL    HW218810   0.693   4.533   0.473
 5971SOL     OW18811   6.174   0.161   1.530
 5971SOL    HW118812   6.258   0.214   1.540
 5971SOL    HW218813   6.165   0.097   1.607
 5972SOL     OW18814   5.313   5.832   6.474
 5972SOL    HW118815   5.323   5.834   6.375
 5972SOL    HW218816   5.403   5.826   6.517
 5973SOL     OW18817   1.694   3.184   2.980
 5973SOL    HW118818   1.726   3.154   3.071
 5973SOL    HW218819   1.755   3.255   2.946
 5974SOL     OW18820   4.996   0.487   0.052
 5974SOL    HW118821   4.987   0.451   0.145
 5974SOL    HW218822   5.021   0.584   0.057
 5975SOL     OW18823   4.353   6.106   1.407
 5975SOL    HW118824   4.279   6.117   1.341
 5975SOL    HW218825   4.416   6.182   1.399
 5976SOL     OW18826   3.463   3.062   5.651
 5976SOL    HW118827   3.555   3.063   5.610
 5976SOL    HW218828   3.395   3.075   5.580
 5977SOL     OW18829   0.649   5.878   0.490
 5977SOL    HW118830   0.637   5.974   0.466
 5977SOL    HW218831   0.673   5.870   0.587
 5978SOL     OW18832   3.726   5.540   1.316
 5978SOL    HW118833   3.808   5.494   1.350
 5978SOL    HW218834   3.649   5.519   1.376
 5979SOL     OW18835   6.418   0.864   2.103
 5979SOL    HW118836   6.400   0.901   2.012
 5979SOL    HW218837   6.442   0.939   2.165
 5980SOL     OW18838   3.677   2.942   2.046
 5980SOL    HW118839   3.588   2.982   2.064
 5980SOL    HW218840   3.747   2.991   2.099
 5981SOL     OW18841   4.817   1.563   0.481
 5981SOL    HW118842   4.769   1.568   0.394
 5981SOL    HW218843   4.879   1.642   0.489
 5982SOL     OW18844   6.125   2.381   2.636
 5982SOL    HW118845   6.128   2.303   2.698
 5982SOL    HW218846   6.030   2.407   2.618
 5983SOL     OW18847   1.598   0.638   4.260
 5983SOL    HW118848   1.537   0.570   4.218
 5983SOL    HW218849   1.602   0.621   4.359
 5984SOL     OW18850   5.708   6.360   3.605
 5984SOL    HW118851   5.775   6.403   3.665
 5984SOL    HW218852   5.750   6.339   3.517
 5985SOL     OW18853   6.277   2.547   3.446
 5985SOL    HW118854   6.342   2.579   3.515
 5985SOL    HW218855   6.283   2.605   3.365
 5986SOL     OW18856   4.054   4.288   5.936
 5986SOL    HW118857   4.071   4.383   5.910
 5986SOL    HW218858   4.121   4.259   6.004
 5987SOL     OW18859   5.572   0.599   4.591
 5987SOL    HW118860   5.598   0.656   4.513
 5987SOL    HW218861   5.476   0.615   4.614
 5988SOL     OW18862   3.718   1.119   6.579
 5988SOL    HW118863   3.724   1.184   6.655
 5988SOL    HW218864   3.680   1.033   6.611
 5989SOL     OW18865   1.999   5.666   5.593
 5989SOL    HW118866   1.936   5.590   5.609
 5989SOL    HW218867   2.038   5.658   5.502
 5990SOL     OW18868   3.845   3.789   0.758
 5990SOL    HW118869   3.891   3.764   0.843
 5990SOL    HW218870   3.758   3.834   0.778
 5991SOL     OW18871   4.508   6.013   0.142
 5991SOL    HW118872   4.453   6.045   0.219
 5991SOL    HW218873   4.591   6.067   0.135
 5992SOL     OW18874   3.429   6.911   2.223
 5992SOL    HW118875   3.412   6.813   2.216
 5992SOL    HW218876   3.527   6.927   2.234
 5993SOL     OW18877   5.683   4.633   6.027
 5993SOL    HW118878   5.736   4.636   6.112
 5993SOL    HW218879   5.630   4.717   6.018
 5994SOL     OW18880   6.584   2.869   1.286
 5994SOL    HW118881   6.682   2.853   1.303
 5994SOL    HW218882   6.560   2.961   1.317
 5995SOL     OW18883   4.553   2.792   1.787
 5995SOL    HW118884   4.598   2.881   1.790
 5995SOL    HW218885   4.454   2.805   1.777
 5996SOL     OW18886   1.542   5.630   1.889
 5996SOL    HW118887   1.525   5.608   1.793
 5996SOL    HW218888   1.478   5.700   1.920
 5997SOL     OW18889   0.909   6.651   3.427
 5997SOL    HW118890   0.918   6.590   3.505
 5997SOL    HW218891   0.823   6.702   3.433
 5998SOL     OW18892   5.869   1.076   1.488
 5998SOL    HW118893   5.790   1.061   1.430
 5998SOL    HW218894   5.895   0.991   1.533
 5999SOL     OW18895   3.031   3.327   1.018
 5999SOL    HW118896   3.112   3.298   0.967
 5999SOL    HW218897   3.058   3.363   1.107
 6000SOL     OW18898   0.331   6.402   0.265
 6000SOL    HW118899   0.323   6.346   0.348
 6000SOL    HW218900   0.268   6.368   0.195
 6001SOL     OW18901   5.589   5.288   0.061
 6001SOL    HW118902   5.666   5.249   0.111
 6001SOL    HW218903   5.522   5.323   0.127
 6002SOL     OW18904   6.858   6.977   5.537
 6002SOL    HW118905   6.832   6.885   5.565
 6002SOL    HW218906   6.957   6.986   5.539
 6003SOL     OW18907   6.056   2.672   4.381
 6003SOL    HW118908   6.131   2.710   4.435
 6003SOL    HW218909   5.968   2.699   4.421
 6004SOL     OW18910   6.309   2.426   3.790
 6004SOL    HW118911   6.305   2.526   3.794
 6004SOL    HW218912   6.244   2.393   3.722
 6005SOL     OW18913   5.814   4.977   5.185
 6005SOL    HW118914   5.786   4.887   5.219
 6005SOL    HW218915   5.795   5.047   5.255
 6006SOL     OW18916   2.980   0.032   5.294
 6006SOL    HW118917   2.943   6.998   5.221
 6006SOL    HW218918   2.995   0.125   5.259
 6007SOL     OW18919   0.046   2.896   6.504
 6007SOL    HW118920   6.990   2.902   6.564
 6007SOL    HW218921   0.128   2.919   6.555
 6008SOL     OW18922   2.203   4.913   5.452
 6008SOL    HW118923   2.294   4.873   5.465
 6008SOL    HW218924   2.211   4.997   5.398
 6009SOL     OW18925   4.314   5.793   3.454
 6009SOL    HW118926   4.224   5.829   3.480
 6009SOL    HW218927   4.384   5.860   3.476
 6010SOL     OW18928   0.234   4.374   3.527
 6010SOL    HW118929   0.269   4.347   3.438
 6010SOL    HW218930   0.259   4.306   3.595
 6011SOL     OW18931   4.815   2.913   2.462
 6011SOL    HW118932   4.747   2.895   2.533
 6011SOL    HW218933   4.890   2.967   2.500
 6012SOL     OW18934   6.384   0.784   0.144
 6012SOL    HW118935   6.391   0.701   0.089
 6012SOL    HW218936   6.388   0.760   0.241
 6013SOL     OW18937   4.456   1.195   2.727
 6013SOL    HW118938   4.542   1.234   2.694
 6013SOL    HW218939   4.388   1.267   2.737
 6014SOL     OW18940   3.313   4.046   4.140
 6014SOL    HW118941   3.231   4.024   4.192
 6014SOL    HW218942   3.389   4.061   4.203
 6015SOL     OW18943   6.150   3.603   4.472
 6015SOL    HW118944   6.110   3.525   4.520
 6015SOL    HW218945   6.236   3.576   4.430
 6016SOL     OW18946   5.330   1.754   5.475
 6016SOL    HW118947   5.341   1.670   5.422
 6016SOL    HW218948   5.323   1.732   5.572
 6017SOL     OW18949   0.088   4.557   5.209
 6017SOL    HW118950   0.093   4.619   5.131
 6017SOL    HW218951   7.020   4.517   5.214
 6018SOL     OW18952   2.864   1.419   4.535
 6018SOL    HW118953   2.808   1.401   4.454
 6018SOL    HW218954   2.960   1.427   4.508
 6019SOL     OW18955   0.511   3.311   5.975
 6019SOL    HW118956   0.447   3.375   6.016
 6019SOL    HW218957   0.462   3.251   5.912
 6020SOL     OW18958   0.908   5.233   0.943
 6020SOL    HW118959   0.984   5.297   0.932
 6020SOL    HW218960   0.911   5.165   0.870
 6021SOL     OW18961   5.087   0.120   2.908
 6021SOL    HW118962   5.147   0.044   2.885
 6021SOL    HW218963   5.044   0.155   2.825
 6022SOL     OW18964   6.544   1.382   3.395
 6022SOL    HW118965   6.641   1.364   3.379
 6022SOL    HW218966   6.492   1.298   3.381
 6023SOL     OW18967   5.478   0.287   1.248
 6023SOL    HW118968   5.550   0.243   1.301
 6023SOL    HW218969   5.433   0.220   1.190
 6024SOL     OW18970   0.525   5.105   0.391
 6024SOL    HW118971   0.490   5.129   0.301
 6024SOL    HW218972   0.481   5.163   0.460
 6025SOL     OW18973   3.406   0.997   3.725
 6025SOL    HW118974   3.342   0.921   3.734
 6025SOL    HW218975   3.371   1.063   3.659
 6026SOL     OW18976   7.017   5.328   4.865
 6026SOL    HW118977   0.001   5.232   4.891
 6026SOL    HW218978   6.977   5.335   4.774
 6027SOL     OW18979   6.675   3.450   6.098
 6027SOL    HW118980   6.715   3.362   6.073
 6027SOL    HW218981   6.710   3.521   6.036
 6028SOL     OW18982   5.279   4.908   1.192
 6028SOL    HW118983   5.290   4.997   1.235
 6028SOL    HW218984   5.343   4.843   1.235
 6029SOL     OW18985   2.310   0.040   3.464
 6029SOL    HW118986   2.256   7.015   3.396
 6029SOL    HW218987   2.378   7.002   3.503
 6030SOL     OW18988   5.035   3.552   5.046
 6030SOL    HW118989   4.952   3.598   5.015
 6030SOL    HW218990   5.049   3.469   4.991
 6031SOL     OW18991   1.885   5.888   4.251
 6031SOL    HW118992   1.856   5.980   4.223
 6031SOL    HW218993   1.817   5.848   4.312
 6032SOL     OW18994   2.431   4.950   2.980
 6032SOL    HW118995   2.487   4.868   2.991
 6032SOL    HW218996   2.335   4.924   2.975
 6033SOL     OW18997   2.428   2.678   2.546
 6033SOL    HW118998   2.391   2.766   2.575
 6033SOL    HW218999   2.441   2.619   2.625
 6034SOL     OW19000   0.805   0.251   6.177
 6034SOL    HW119001   0.731   0.272   6.241
 6034SOL    HW219002   0.872   0.192   6.221
 6035SOL     OW19003   1.317   0.388   2.725
 6035SOL    HW119004   1.342   0.368   2.630
 6035SOL    HW219005   1.251   0.320   2.757
 6036SOL     OW19006   5.885   4.833   1.479
 6036SOL    HW119007   5.851   4.900   1.545
 6036SOL    HW219008   5.927   4.756   1.529
 6037SOL     OW19009   3.912   0.494   0.825
 6037SOL    HW119010   3.998   0.532   0.793
 6037SOL    HW219011   3.854   0.568   0.860
 6038SOL     OW19012   1.054   2.563   6.612
 6038SOL    HW119013   0.971   2.549   6.667
 6038SOL    HW219014   1.065   2.660   6.591
 6039SOL     OW19015   3.728   4.077   3.514
 6039SOL    HW119016   3.769   4.082   3.422
 6039SOL    HW219017   3.713   3.981   3.539
 6040SOL     OW19018   1.913   1.146   0.054
 6040SOL    HW119019   1.831   1.198   0.077
 6040SOL    HW219020   1.916   1.129   6.979
 6041SOL     OW19021   3.462   2.487   5.372
 6041SOL    HW119022   3.502   2.575   5.344
 6041SOL    HW219023   3.386   2.464   5.312
 6042SOL     OW19024   4.031   6.474   2.945
 6042SOL    HW119025   4.117   6.484   2.994
 6042SOL    HW219026   3.971   6.551   2.967
 6043SOL     OW19027   1.321   0.574   4.129
 6043SOL    HW119028   1.235   0.558   4.081
 6043SOL    HW219029   1.301   0.613   4.219
 6044SOL     OW19030   2.477   2.155   2.442
 6044SOL    HW119031   2.561   2.199   2.475
 6044SOL    HW219032   2.471   2.165   2.343
 6045SOL     OW19033   5.157   3.098   3.864
 6045SOL    HW119034   5.240   3.084   3.918
 6045SOL    HW219035   5.077   3.065   3.916
 6046SOL     OW19036   3.259   2.949   1.019
 6046SOL    HW119037   3.289   2.892   0.943
 6046SOL    HW219038   3.170   2.917   1.052
 6047SOL     OW19039   5.278   2.463   1.165
 6047SOL    HW119040   5.282   2.500   1.073
 6047SOL    HW219041   5.349   2.394   1.176
 6048SOL     OW19042   4.952   5.564   5.168
 6048SOL    HW119043   4.939   5.652   5.123
 6048SOL    HW219044   5.021   5.572   5.239
 6049SOL     OW19045   5.446   4.860   6.288
 6049SOL    HW119046   5.372   4.839   6.225
 6049SOL    HW219047   5.497   4.939   6.254
 6050SOL     OW19048   2.682   5.450   1.074
 6050SOL    HW119049   2.701   5.458   0.976
 6050SOL    HW219050   2.610   5.381   1.088
 6051SOL     OW19051   2.042   6.909   2.926
 6051SOL    HW119052   2.100   6.903   3.007
 6051SOL    HW219053   1.950   6.875   2.948
 6052SOL     OW19054   5.450   1.114   1.731
 6052SOL    HW119055   5.363   1.144   1.768
 6052SOL    HW219056   5.525   1.166   1.773
 6053SOL     OW19057   4.233   0.472   6.370
 6053SOL    HW119058   4.207   0.384   6.329
 6053SOL    HW219059   4.156   0.510   6.419
 6054SOL     OW19060   3.200   4.659   0.645
 6054SOL    HW119061   3.164   4.732   0.703
 6054SOL    HW219062   3.284   4.690   0.600
 6055SOL     OW19063   3.197   5.620   6.173
 6055SOL    HW119064   3.222   5.556   6.246
 6055SOL    HW219065   3.269   5.620   6.103
 6056SOL     OW19066   5.261   3.069   4.894
 6056SOL    HW119067   5.292   3.075   4.798
 6056SOL    HW219068   5.334   3.030   4.949
 6057SOL     OW19069   5.836   0.534   2.225
 6057SOL    HW119070   5.742   0.566   2.236
 6057SOL    HW219071   5.887   0.601   2.170
 6058SOL     OW19072   5.194   3.673   0.086
 6058SOL    HW119073   5.248   3.638   0.162
 6058SOL    HW219074   5.100   3.690   0.117
 6059SOL     OW19075   5.337   4.496   5.418
 6059SOL    HW119076   5.299   4.485   5.326
 6059SOL    HW219077   5.335   4.593   5.442
 6060SOL     OW19078   2.864   3.149   7.023
 6060SOL    HW119079   2.881   3.076   6.957
 6060SOL    HW219080   2.936   3.218   7.017
 6061SOL     OW19081   4.637   4.696   0.746
 6061SOL    HW119082   4.734   4.697   0.721
 6061SOL    HW219083   4.586   4.751   0.680
 6062SOL     OW19084   2.170   1.430   6.769
 6062SOL    HW119085   2.138   1.345   6.727
 6062SOL    HW219086   2.147   1.430   6.866
 6063SOL     OW19087   3.423   4.112   5.863
 6063SOL    HW119088   3.386   4.184   5.921
 6063SOL    HW219089   3.483   4.152   5.793
 6064SOL     OW19090   0.802   0.401   1.525
 6064SOL    HW119091   0.871   0.423   1.456
 6064SOL    HW219092   0.791   0.478   1.587
 6065SOL     OW19093   0.251   5.677   2.033
 6065SOL    HW119094   0.286   5.679   1.939
 6065SOL    HW219095   0.237   5.770   2.066
 6066SOL     OW19096   5.855   0.785   4.962
 6066SOL    HW119097   5.765   0.800   4.921
 6066SOL    HW219098   5.844   0.770   5.060
 6067SOL     OW19099   4.813   1.096   5.169
 6067SOL    HW119100   4.815   1.019   5.233
 6067SOL    HW219101   4.740   1.082   5.102
 6068SOL     OW19102   5.072   2.378   4.209
 6068SOL    HW119103   5.049   2.419   4.121
 6068SOL    HW219104   5.061   2.447   4.281
 6069SOL     OW19105   6.720   3.828   5.787
 6069SOL    HW119106   6.625   3.845   5.760
 6069SOL    HW219107   6.779   3.898   5.747
 6070SOL     OW19108   3.732   2.721   1.496
 6070SOL    HW119109   3.675   2.684   1.569
 6070SOL    HW219110   3.680   2.789   1.444
 6071SOL     OW19111   0.606   5.720   4.489
 6071SOL    HW119112   0.560   5.636   4.519
 6071SOL    HW219113   0.540   5.780   4.443
 6072SOL     OW19114   0.597   1.151   2.075
 6072SOL    HW119115   0.509   1.139   2.122
 6072SOL    HW219116   0.597   1.099   1.990
 6073SOL     OW19117   5.028   2.852   0.802
 6073SOL    HW119118   5.118   2.809   0.799
 6073SOL    HW219119   5.039   2.951   0.789
 6074SOL     OW19120   1.605   6.816   1.880
 6074SOL    HW119121   1.555   6.749   1.825
 6074SOL    HW219122   1.674   6.861   1.823
 6075SOL     OW19123   4.992   0.197   5.318
 6075SOL    HW119124   4.931   0.169   5.392
 6075SOL    HW219125   4.938   0.224   5.238
 6076SOL     OW19126   2.418   5.313   3.396
 6076SOL    HW119127   2.422   5.406   3.359
 6076SOL    HW219128   2.396   5.249   3.323
 6077SOL     OW19129   5.996   6.616   1.045
 6077SOL    HW119130   5.992   6.558   1.126
 6077SOL    HW219131   6.060   6.577   0.979
 6078SOL     OW19132   4.288   4.879   0.287
 6078SOL    HW119133   4.339   4.863   0.202
 6078SOL    HW219134   4.236   4.797   0.310
 6079SOL     OW19135   4.875   4.826   6.177
 6079SOL    HW119136   4.820   4.853   6.099
 6079SOL    HW219137   4.858   4.729   6.199
 6080SOL     OW19138   0.227   5.094   1.423
 6080SOL    HW119139   0.213   5.070   1.519
 6080SOL    HW219140   0.153   5.056   1.368
 6081SOL     OW19141   6.750   3.125   5.481
 6081SOL    HW119142   6.729   3.195   5.412
 6081SOL    HW219143   6.665   3.085   5.515
 6082SOL     OW19144   3.540   6.527   2.613
 6082SOL    HW119145   3.618   6.547   2.553
 6082SOL    HW219146   3.455   6.545   2.564
 6083SOL     OW19147   5.572   5.569   0.763
 6083SOL    HW119148   5.512   5.564   0.683
 6083SOL    HW219149   5.610   5.661   0.771
 6084SOL     OW19150   1.045   6.658   2.314
 6084SOL    HW119151   1.044   6.631   2.410
 6084SOL    HW219152   1.001   6.587   2.259
 6085SOL     OW19153   6.867   5.825   6.427
 6085SOL    HW119154   6.888   5.770   6.508
 6085SOL    HW219155   6.770   5.848   6.426
 6086SOL     OW19156   2.657   2.164   5.892
 6086SOL    HW119157   2.686   2.235   5.829
 6086SOL    HW219158   2.569   2.190   5.933
 6087SOL     OW19159   4.039   5.866   1.288
 6087SOL    HW119160   4.037   5.944   1.226
 6087SOL    HW219161   4.090   5.890   1.371
 6088SOL     OW19162   5.194   6.652   4.840
 6088SOL    HW119163   5.238   6.566   4.868
 6088SOL    HW219164   5.130   6.634   4.765
 6089SOL     OW19165   6.460   2.406   3.128
 6089SOL    HW119166   6.458   2.339   3.053
 6089SOL    HW219167   6.400   2.482   3.105
 6090SOL     OW19168   2.726   4.991   4.837
 6090SOL    HW119169   2.723   5.003   4.937
 6090SOL    HW219170   2.694   4.899   4.814
 6091SOL     OW19171   2.853   1.648   0.482
 6091SOL    HW119172   2.909   1.649   0.399
 6091SOL    HW219173   2.907   1.681   0.560
 6092SOL     OW19174   4.064   1.238   1.652
 6092SOL    HW119175   4.117   1.208   1.731
 6092SOL    HW219176   4.103   1.322   1.615
 6093SOL     OW19177   2.400   2.172   2.144
 6093SOL    HW119178   2.318   2.227   2.158
 6093SOL    HW219179   2.465   2.223   2.088
 6094SOL     OW19180   1.544   6.056   3.438
 6094SOL    HW119181   1.470   6.044   3.504
 6094SOL    HW219182   1.612   6.118   3.475
 6095SOL     OW19183   4.561   4.692   6.399
 6095SOL    HW119184   4.639   4.709   6.460
 6095SOL    HW219185   4.594   4.686   6.304
 6096SOL     OW19186   5.811   0.109   2.037
 6096SOL    HW119187   5.840   0.158   1.955
 6096SOL    HW219188   5.814   0.172   2.116
 6097SOL     OW19189   1.718   5.112   2.472
 6097SOL    HW119190   1.658   5.141   2.397
 6097SOL    HW219191   1.773   5.034   2.442
 6098SOL     OW19192   6.588   1.172   6.116
 6098SOL    HW119193   6.530   1.184   6.197
 6098SOL    HW219194   6.658   1.244   6.114
 6099SOL     OW19195   4.797   5.938   5.575
 6099SOL    HW119196   4.700   5.913   5.573
 6099SOL    HW219197   4.826   5.965   5.484
 6100SOL     OW19198   0.367   6.181   2.250
 6100SOL    HW119199   0.367   6.179   2.150
 6100SOL    HW219200   0.366   6.275   2.281
 6101SOL     OW19201   6.671   2.831   2.865
 6101SOL    HW119202   6.601   2.760   2.849
 6101SOL    HW219203   6.723   2.846   2.781
 6102SOL     OW19204   4.275   6.004   2.770
 6102SOL    HW119205   4.240   6.007   2.863
 6102SOL    HW219206   4.301   5.910   2.746
 6103SOL     OW19207   0.261   1.038   1.340
 6103SOL    HW119208   0.298   0.953   1.303
 6103SOL    HW219209   0.326   1.112   1.326
 6104SOL     OW19210   6.439   6.882   5.168
 6104SOL    HW119211   6.424   6.977   5.195
 6104SOL    HW219212   6.437   6.875   5.068
 6105SOL     OW19213   1.693   5.309   5.882
 6105SOL    HW119214   1.781   5.267   5.862
 6105SOL    HW219215   1.623   5.271   5.823
 6106SOL     OW19216   1.186   5.056   0.265
 6106SOL    HW119217   1.087   5.047   0.254
 6106SOL    HW219218   1.228   5.068   0.175
 6107SOL     OW19219   4.637   5.509   4.625
 6107SOL    HW119220   4.636   5.511   4.725
 6107SOL    HW219221   4.569   5.574   4.590
 6108SOL     OW19222   1.915   2.444   3.086
 6108SOL    HW119223   1.969   2.528   3.086
 6108SOL    HW219224   1.956   2.378   3.022
 6109SOL     OW19225   5.562   0.803   4.931
 6109SOL    HW119226   5.494   0.877   4.939
 6109SOL    HW219227   5.559   0.746   5.012
 6110SOL     OW19228   2.006   2.638   0.248
 6110SOL    HW119229   1.979   2.654   0.153
 6110SOL    HW219230   2.050   2.721   0.283
 6111SOL     OW19231   1.288   3.076   2.414
 6111SOL    HW119232   1.252   3.131   2.490
 6111SOL    HW219233   1.312   2.985   2.448
 6112SOL     OW19234   4.691   0.378   2.499
 6112SOL    HW119235   4.712   0.432   2.580
 6112SOL    HW219236   4.615   0.316   2.518
 6113SOL     OW19237   2.580   3.004   6.562
 6113SOL    HW119238   2.505   3.030   6.622
 6113SOL    HW219239   2.648   2.951   6.613
 6114SOL     OW19240   4.877   3.348   2.567
 6114SOL    HW119241   4.848   3.306   2.481
 6114SOL    HW219242   4.909   3.441   2.550
 6115SOL     OW19243   6.600   1.252   4.831
 6115SOL    HW119244   6.550   1.309   4.766
 6115SOL    HW219245   6.544   1.172   4.855
 6116SOL     OW19246   4.086   1.893   5.606
 6116SOL    HW119247   4.058   1.981   5.643
 6116SOL    HW219248   4.150   1.849   5.670
 6117SOL     OW19249   1.821   2.262   3.281
 6117SOL    HW119250   1.794   2.345   3.232
 6117SOL    HW219251   1.835   2.188   3.216
 6118SOL     OW19252   6.315   1.231   1.380
 6118SOL    HW119253   6.343   1.327   1.386
 6118SOL    HW219254   6.216   1.224   1.396
 6119SOL     OW19255   1.301   3.323   0.179
 6119SOL    HW119256   1.333   3.269   0.102
 6119SOL    HW219257   1.298   3.420   0.154
 6120SOL     OW19258   1.759   6.752   5.266
 6120SOL    HW119259   1.718   6.816   5.331
 6120SOL    HW219260   1.836   6.796   5.220
 6121SOL     OW19261   1.149   3.888   5.895
 6121SOL    HW119262   1.114   3.914   5.985
 6121SOL    HW219263   1.135   3.964   5.831
 6122SOL     OW19264   4.603   5.375   6.295
 6122SOL    HW119265   4.577   5.458   6.345
 6122SOL    HW219266   4.667   5.322   6.351
 6123SOL     OW19267   4.840   0.138   5.536
 6123SOL    HW119268   4.742   0.124   5.552
 6123SOL    HW219269   4.885   0.163   5.622
 6124SOL     OW19270   0.029   6.399   5.673
 6124SOL    HW119271   0.004   6.304   5.652
 6124SOL    HW219272   0.054   6.406   5.769
 6125SOL     OW19273   2.595   3.892   6.953
 6125SOL    HW119274   2.605   3.939   0.017
 6125SOL    HW219275   2.604   3.793   6.968
 6126SOL     OW19276   0.795   1.652   5.030
 6126SOL    HW119277   0.853   1.705   5.092
 6126SOL    HW219278   0.754   1.713   4.962
 6127SOL     OW19279   4.088   0.180   1.917
 6127SOL    HW119280   4.176   0.142   1.890
 6127SOL    HW219281   4.064   0.255   1.854
 6128SOL     OW19282   5.343   5.186   0.683
 6128SOL    HW119283   5.288   5.106   0.705
 6128SOL    HW219284   5.371   5.232   0.767
 6129SOL     OW19285   1.117   3.178   3.916
 6129SOL    HW119286   1.157   3.090   3.943
 6129SOL    HW219287   1.068   3.218   3.993
 6130SOL     OW19288   5.683   2.304   3.121
 6130SOL    HW119289   5.744   2.363   3.175
 6130SOL    HW219290   5.700   2.209   3.143
 6131SOL     OW19291   1.224   1.585   2.727
 6131SOL    HW119292   1.236   1.618   2.821
 6131SOL    HW219293   1.242   1.487   2.723
 6132SOL     OW19294   3.895   1.747   6.686
 6132SOL    HW119295   3.985   1.751   6.731
 6132SOL    HW219296   3.840   1.824   6.718
 6133SOL     OW19297   2.088   3.165   3.120
 6133SOL    HW119298   2.143   3.249   3.120
 6133SOL    HW219299   2.134   3.095   3.174
 6134SOL     OW19300   4.215   6.683   0.228
 6134SOL    HW119301   4.171   6.683   0.138
 6134SOL    HW219302   4.264   6.770   0.240
 6135SOL     OW19303   7.013   5.737   0.842
 6135SOL    HW119304   0.029   5.746   0.933
 6135SOL    HW219305   6.915   5.758   0.846
 6136SOL     OW19306   1.314   3.084   1.759
 6136SOL    HW119307   1.283   3.044   1.846
 6136SOL    HW219308   1.312   3.184   1.766
 6137SOL     OW19309   0.502   3.846   2.238
 6137SOL    HW119310   0.512   3.778   2.310
 6137SOL    HW219311   0.593   3.875   2.207
 6138SOL     OW19312   4.067   6.845   3.149
 6138SOL    HW119313   4.030   6.937   3.154
 6138SOL    HW219314   4.004   6.786   3.099
 6139SOL     OW19315   0.671   6.698   5.424
 6139SOL    HW119316   0.673   6.788   5.468
 6139SOL    HW219317   0.596   6.644   5.462
 6140SOL     OW19318   0.501   1.025   2.492
 6140SOL    HW119319   0.593   1.054   2.516
 6140SOL    HW219320   0.439   1.103   2.496
 6141SOL     OW19321   0.134   6.963   6.153
 6141SOL    HW119322   0.229   6.953   6.124
 6141SOL    HW219323   0.080   6.885   6.121
 6142SOL     OW19324   0.843   6.437   6.156
 6142SOL    HW119325   0.789   6.410   6.236
 6142SOL    HW219326   0.913   6.367   6.138
 6143SOL     OW19327   0.063   4.249   0.968
 6143SOL    HW119328   0.053   4.341   1.006
 6143SOL    HW219329   0.096   4.256   0.873
 6144SOL     OW19330   5.226   4.786   3.349
 6144SOL    HW119331   5.235   4.830   3.260
 6144SOL    HW219332   5.129   4.771   3.369
 6145SOL     OW19333   5.687   4.765   4.059
 6145SOL    HW119334   5.643   4.828   3.995
 6145SOL    HW219335   5.659   4.787   4.152
 6146SOL     OW19336   3.589   6.275   3.380
 6146SOL    HW119337   3.624   6.250   3.291
 6146SOL    HW219338   3.489   6.268   3.380
 6147SOL     OW19339   2.164   2.435   4.861
 6147SOL    HW119340   2.264   2.438   4.872
 6147SOL    HW219341   2.131   2.344   4.885
 6148SOL     OW19342   3.815   5.554   5.827
 6148SOL    HW119343   3.761   5.629   5.790
 6148SOL    HW219344   3.859   5.584   5.912
 6149SOL     OW19345   2.332   0.227   1.871
 6149SOL    HW119346   2.287   0.138   1.871
 6149SOL    HW219347   2.427   0.216   1.839
 6150SOL     OW19348   6.149   3.948   6.723
 6150SOL    HW119349   6.237   3.937   6.768
 6150SOL    HW219350   6.161   3.992   6.634
 6151SOL     OW19351   5.753   5.151   4.973
 6151SOL    HW119352   5.673   5.117   4.923
 6151SOL    HW219353   5.768   5.094   5.054
 6152SOL     OW19354   0.499   5.179   4.716
 6152SOL    HW119355   0.499   5.118   4.796
 6152SOL    HW219356   0.586   5.168   4.667
 6153SOL     OW19357   5.170   5.220   1.057
 6153SOL    HW119358   5.085   5.272   1.044
 6153SOL    HW219359   5.219   5.255   1.136
 6154SOL     OW19360   5.775   3.100   2.985
 6154SOL    HW119361   5.834   3.164   2.935
 6154SOL    HW219362   5.789   3.113   3.083
 6155SOL     OW19363   2.763   1.293   2.990
 6155SOL    HW119364   2.769   1.380   3.040
 6155SOL    HW219365   2.850   1.275   2.945
 6156SOL     OW19366   4.188   5.151   1.453
 6156SOL    HW119367   4.205   5.184   1.360
 6156SOL    HW219368   4.219   5.219   1.519
 6157SOL     OW19369   0.797   2.152   3.053
 6157SOL    HW119370   0.738   2.230   3.076
 6157SOL    HW219371   0.837   2.115   3.138
 6158SOL     OW19372   3.626   2.203   0.480
 6158SOL    HW119373   3.706   2.180   0.535
 6158SOL    HW219374   3.651   2.274   0.414
 6159SOL     OW19375   4.828   2.447   0.722
 6159SOL    HW119376   4.737   2.414   0.699
 6159SOL    HW219377   4.831   2.473   0.818
 6160SOL     OW19378   6.517   6.810   6.482
 6160SOL    HW119379   6.554   6.889   6.434
 6160SOL    HW219380   6.510   6.831   6.580
 6161SOL     OW19381   5.329   1.053   0.288
 6161SOL    HW119382   5.417   1.060   0.240
 6161SOL    HW219383   5.321   0.964   0.331
 6162SOL     OW19384   6.251   6.246   3.863
 6162SOL    HW119385   6.281   6.341   3.865
 6162SOL    HW219386   6.320   6.191   3.816
 6163SOL     OW19387   5.467   5.526   2.295
 6163SOL    HW119388   5.388   5.559   2.347
 6163SOL    HW219389   5.472   5.426   2.303
 6164SOL     OW19390   3.610   4.168   4.947
 6164SOL    HW119391   3.707   4.157   4.967
 6164SOL    HW219392   3.560   4.186   5.032
 6165SOL     OW19393   3.689   1.799   6.071
 6165SOL    HW119394   3.743   1.717   6.094
 6165SOL    HW219395   3.625   1.777   5.998
 6166SOL     OW19396   5.950   1.763   0.355
 6166SOL    HW119397   5.895   1.736   0.434
 6166SOL    HW219398   6.045   1.734   0.369
 6167SOL     OW19399   0.163   4.742   3.034
 6167SOL    HW119400   0.125   4.717   2.945
 6167SOL    HW219401   0.119   4.688   3.106
 6168SOL     OW19402   0.748   2.805   3.429
 6168SOL    HW119403   0.772   2.719   3.473
 6168SOL    HW219404   0.689   2.859   3.489
 6169SOL     OW19405   1.384   1.547   6.538
 6169SOL    HW119406   1.468   1.494   6.528
 6169SOL    HW219407   1.335   1.516   6.620
 6170SOL     OW19408   2.971   4.038   5.532
 6170SOL    HW119409   3.041   4.096   5.573
 6170SOL    HW219410   2.969   3.950   5.580
 6171SOL     OW19411   1.462   3.477   1.532
 6171SOL    HW119412   1.448   3.552   1.467
 6171SOL    HW219413   1.559   3.454   1.535
 6172SOL     OW19414   0.472   0.583   2.604
 6172SOL    HW119415   0.465   0.676   2.642
 6172SOL    HW219416   0.550   0.579   2.541
 6173SOL     OW19417   6.953   5.032   2.612
 6173SOL    HW119418   6.980   5.128   2.605
 6173SOL    HW219419   7.018   4.975   2.562
 6174SOL     OW19420   6.098   5.094   3.012
 6174SOL    HW119421   6.126   5.152   2.936
 6174SOL    HW219422   6.051   5.013   2.976
 6175SOL     OW19423   4.967   0.148   3.778
 6175SOL    HW119424   4.906   0.082   3.734
 6175SOL    HW219425   5.048   0.100   3.812
 6176SOL     OW19426   6.573   3.130   7.023
 6176SOL    HW119427   6.551   3.219   6.982
 6176SOL    HW219428   6.505   3.062   6.996
 6177SOL     OW19429   6.070   1.722   1.015
 6177SOL    HW119430   6.067   1.670   0.929
 6177SOL    HW219431   5.978   1.752   1.039
 6178SOL     OW19432   4.641   5.491   2.314
 6178SOL    HW119433   4.694   5.489   2.229
 6178SOL    HW219434   4.703   5.485   2.392
 6179SOL     OW19435   6.712   4.430   4.796
 6179SOL    HW119436   6.649   4.373   4.743
 6179SOL    HW219437   6.799   4.383   4.806
 6180SOL     OW19438   3.098   6.497   6.586
 6180SOL    HW119439   3.196   6.502   6.601
 6180SOL    HW219440   3.076   6.417   6.531
 6181SOL     OW19441   4.806   6.405   1.176
 6181SOL    HW119442   4.900   6.399   1.141
 6181SOL    HW219443   4.803   6.474   1.249
 6182SOL     OW19444   5.672   3.978   5.383
 6182SOL    HW119445   5.758   3.959   5.337
 6182SOL    HW219446   5.612   3.898   5.377
 6183SOL     OW19447   2.852   7.018   3.120
 6183SOL    HW119448   2.819   0.072   3.067
 6183SOL    HW219449   2.933   6.980   3.075
 6184SOL     OW19450   2.178   6.642   6.111
 6184SOL    HW119451   2.242   6.707   6.068
 6184SOL    HW219452   2.224   6.555   6.124
 6185SOL     OW19453   1.323   5.001   6.372
 6185SOL    HW119454   1.406   4.949   6.391
 6185SOL    HW219455   1.342   5.099   6.384
 6186SOL     OW19456   5.999   0.088   4.559
 6186SOL    HW119457   5.947   0.051   4.636
 6186SOL    HW219458   5.946   0.162   4.517
 6187SOL     OW19459   4.666   4.577   4.410
 6187SOL    HW119460   4.586   4.551   4.464
 6187SOL    HW219461   4.729   4.500   4.403
 6188SOL     OW19462   2.075   6.798   1.198
 6188SOL    HW119463   2.029   6.709   1.188
 6188SOL    HW219464   2.088   6.818   1.295
 6189SOL     OW19465   4.649   4.479   3.946
 6189SOL    HW119466   4.592   4.459   4.026
 6189SOL    HW219467   4.708   4.557   3.967
 6190SOL     OW19468   6.376   3.542   5.985
 6190SOL    HW119469   6.383   3.615   5.917
 6190SOL    HW219470   6.448   3.554   6.054
 6191SOL     OW19471   4.478   2.740   0.010
 6191SOL    HW119472   4.431   2.803   0.073
 6191SOL    HW219473   4.577   2.752   0.019
 6192SOL     OW19474   3.413   3.633   0.369
 6192SOL    HW119475   3.332   3.632   0.428
 6192SOL    HW219476   3.395   3.688   0.288
 6193SOL     OW19477   5.309   0.989   2.880
 6193SOL    HW119478   5.291   1.016   2.785
 6193SOL    HW219479   5.245   0.915   2.905
 6194SOL     OW19480   1.425   6.747   7.016
 6194SOL    HW119481   1.377   6.829   6.984
 6194SOL    HW219482   1.442   6.686   6.939
 6195SOL     OW19483   3.492   5.574   5.542
 6195SOL    HW119484   3.559   5.594   5.470
 6195SOL    HW219485   3.419   5.642   5.540
 6196SOL     OW19486   5.454   2.278   1.229
 6196SOL    HW119487   5.480   2.301   1.323
 6196SOL    HW219488   5.535   2.251   1.178
 6197SOL     OW19489   4.111   3.871   0.201
 6197SOL    HW119490   4.109   3.911   0.110
 6197SOL    HW219491   4.162   3.930   0.263
 6198SOL     OW19492   3.186   5.228   2.379
 6198SOL    HW119493   3.204   5.196   2.472
 6198SOL    HW219494   3.272   5.237   2.329
 6199SOL     OW19495   0.639   7.001   0.953
 6199SOL    HW119496   0.582   6.978   0.874
 6199SOL    HW219497   0.654   6.919   1.009
 6200SOL     OW19498   2.107   0.843   5.563
 6200SOL    HW119499   2.099   0.940   5.587
 6200SOL    HW219500   2.050   0.789   5.625
 6201SOL     OW19501   1.509   3.938   5.271
 6201SOL    HW119502   1.512   3.891   5.358
 6201SOL    HW219503   1.457   3.883   5.205
 6202SOL     OW19504   4.095   1.970   1.458
 6202SOL    HW119505   4.003   1.979   1.496
 6202SOL    HW219506   4.111   2.044   1.392
 6203SOL     OW19507   5.818   0.013   3.609
 6203SOL    HW119508   5.858   0.093   3.563
 6203SOL    HW219509   5.746   6.998   3.551
 6204SOL     OW19510   0.517   5.052   5.198
 6204SOL    HW119511   0.486   5.007   5.282
 6204SOL    HW219512   0.456   5.128   5.176
 6205SOL     OW19513   5.230   6.450   0.154
 6205SOL    HW119514   5.291   6.520   0.191
 6205SOL    HW219515   5.263   6.359   0.181
 6206SOL     OW19516   6.020   0.372   2.790
 6206SOL    HW119517   6.041   0.278   2.764
 6206SOL    HW219518   6.098   0.431   2.770
 6207SOL     OW19519   1.663   4.273   4.172
 6207SOL    HW119520   1.751   4.245   4.134
 6207SOL    HW219521   1.614   4.193   4.206
 6208SOL     OW19522   6.185   1.294   6.571
 6208SOL    HW119523   6.101   1.248   6.542
 6208SOL    HW219524   6.222   1.345   6.493
 6209SOL     OW19525   4.683   5.268   0.016
 6209SOL    HW119526   4.596   5.261   0.065
 6209SOL    HW219527   4.676   5.341   6.971
 6210SOL     OW19528   6.157   5.114   3.803
 6210SOL    HW119529   6.108   5.035   3.840
 6210SOL    HW219530   6.096   5.168   3.746
 6211SOL     OW19531   3.265   6.455   4.322
 6211SOL    HW119532   3.186   6.497   4.277
 6211SOL    HW219533   3.349   6.494   4.285
 6212SOL     OW19534   2.121   4.957   3.346
 6212SOL    HW119535   2.191   4.892   3.318
 6212SOL    HW219536   2.139   5.046   3.304
 6213SOL     OW19537   4.672   0.344   6.688
 6213SOL    HW119538   4.726   0.365   6.606
 6213SOL    HW219539   4.674   0.245   6.704
 6214SOL     OW19540   4.801   4.534   3.214
 6214SOL    HW119541   4.899   4.516   3.208
 6214SOL    HW219542   4.783   4.596   3.290
 6215SOL     OW19543   3.750   1.957   6.821
 6215SOL    HW119544   3.658   1.965   6.858
 6215SOL    HW219545   3.814   1.941   6.896
 6216SOL     OW19546   6.502   2.342   2.296
 6216SOL    HW119547   6.593   2.375   2.271
 6216SOL    HW219548   6.443   2.341   2.214
 6217SOL     OW19549   6.983   2.662   2.840
 6217SOL    HW119550   7.012   2.568   2.860
 6217SOL    HW219551   6.963   2.671   2.743
 6218SOL     OW19552   3.128   5.155   5.059
 6218SOL    HW119553   3.183   5.078   5.029
 6218SOL    HW219554   3.057   5.174   4.991
 6219SOL     OW19555   1.190   2.210   4.500
 6219SOL    HW119556   1.240   2.254   4.575
 6219SOL    HW219557   1.133   2.137   4.537
 6220SOL     OW19558   1.352   3.410   5.450
 6220SOL    HW119559   1.350   3.427   5.352
 6220SOL    HW219560   1.372   3.496   5.498
 6221SOL     OW19561   6.256   6.160   6.606
 6221SOL    HW119562   6.232   6.257   6.601
 6221SOL    HW219563   6.193   6.107   6.549
 6222SOL     OW19564   0.759   6.577   0.862
 6222SOL    HW119565   0.838   6.594   0.803
 6222SOL    HW219566   0.790   6.568   0.957
 6223SOL     OW19567   0.293   4.210   4.939
 6223SOL    HW119568   0.242   4.283   4.894
 6223SOL    HW219569   0.389   4.216   4.913
 6224SOL     OW19570   2.519   2.020   6.348
 6224SOL    HW119571   2.475   1.945   6.398
 6224SOL    HW219572   2.462   2.102   6.354
 6225SOL     OW19573   3.051   3.009   1.391
 6225SOL    HW119574   2.969   3.050   1.432
 6225SOL    HW219575   3.131   3.062   1.416
 6226SOL     OW19576   5.365   2.117   5.012
 6226SOL    HW119577   5.384   2.039   5.073
 6226SOL    HW219578   5.267   2.133   5.010
 6227SOL     OW19579   3.421   5.507   5.976
 6227SOL    HW119580   3.364   5.550   5.905
 6227SOL    HW219581   3.498   5.461   5.933
 6228SOL     OW19582   0.414   2.797   2.546
 6228SOL    HW119583   0.414   2.875   2.609
 6228SOL    HW219584   0.496   2.800   2.489
 6229SOL     OW19585   0.658   2.751   2.436
 6229SOL    HW119586   0.628   2.656   2.425
 6229SOL    HW219587   0.734   2.769   2.373
 6230SOL     OW19588   1.331   1.257   4.243
 6230SOL    HW119589   1.233   1.263   4.265
 6230SOL    HW219590   1.359   1.340   4.194
 6231SOL     OW19591   6.798   4.896   1.286
 6231SOL    HW119592   6.807   4.805   1.325
 6231SOL    HW219593   6.747   4.890   1.199
 6232SOL     OW19594   5.903   2.216   0.889
 6232SOL    HW119595   5.858   2.135   0.928
 6232SOL    HW219596   5.887   2.218   0.790
 6233SOL     OW19597   5.779   0.933   6.950
 6233SOL    HW119598   5.871   0.941   6.914
 6233SOL    HW219599   5.751   1.020   6.990
 6234SOL     OW19600   6.595   1.118   5.668
 6234SOL    HW119601   6.601   1.074   5.757
 6234SOL    HW219602   6.501   1.145   5.650
 6235SOL     OW19603   1.471   0.423   2.033
 6235SOL    HW119604   1.394   0.485   2.045
 6235SOL    HW219605   1.446   0.351   1.968
 6236SOL     OW19606   0.754   4.207   0.291
 6236SOL    HW119607   0.773   4.205   0.390
 6236SOL    HW219608   0.822   4.265   0.246
 6237SOL     OW19609   3.275   6.054   6.569
 6237SOL    HW119610   3.307   6.070   6.476
 6237SOL    HW219611   3.338   5.992   6.615
 6238SOL     OW19612   3.703   4.898   3.215
 6238SOL    HW119613   3.799   4.872   3.227
 6238SOL    HW219614   3.658   4.897   3.305
 6239SOL     OW19615   2.873   5.973   2.141
 6239SOL    HW119616   2.899   5.959   2.236
 6239SOL    HW219617   2.911   6.058   2.107
 6240SOL     OW19618   3.023   3.061   6.551
 6240SOL    HW119619   3.025   2.971   6.508
 6240SOL    HW219620   2.971   3.124   6.493
 6241SOL     OW19621   2.935   0.386   1.669
 6241SOL    HW119622   2.847   0.416   1.706
 6241SOL    HW219623   2.925   0.367   1.572
 6242SOL     OW19624   5.340   0.512   3.572
 6242SOL    HW119625   5.357   0.588   3.509
 6242SOL    HW219626   5.242   0.496   3.579
 6243SOL     OW19627   5.906   6.819   3.775
 6243SOL    HW119628   5.846   6.842   3.852
 6243SOL    HW219629   5.883   6.877   3.697
 6244SOL     OW19630   1.616   2.309   2.461
 6244SOL    HW119631   1.640   2.402   2.436
 6244SOL    HW219632   1.603   2.254   2.379
 6245SOL     OW19633   1.867   4.540   0.463
 6245SOL    HW119634   1.834   4.490   0.383
 6245SOL    HW219635   1.962   4.514   0.481
 6246SOL     OW19636   1.732   3.028   5.851
 6246SOL    HW119637   1.829   3.014   5.875
 6246SOL    HW219638   1.727   3.081   5.767
 6247SOL     OW19639   1.285   6.835   3.542
 6247SOL    HW119640   1.211   6.823   3.608
 6247SOL    HW219641   1.373   6.841   3.590
 6248SOL     OW19642   2.713   4.215   0.787
 6248SOL    HW119643   2.679   4.307   0.802
 6248SOL    HW219644   2.801   4.204   0.834
 6249SOL     OW19645   0.930   3.809   0.204
 6249SOL    HW119646   0.995   3.868   0.157
 6249SOL    HW219647   0.939   3.821   0.303
 6250SOL     OW19648   6.901   6.290   0.318
 6250SOL    HW119649   6.806   6.301   0.347
 6250SOL    HW219650   6.957   6.362   0.359
 6251SOL     OW19651   3.467   6.054   0.064
 6251SOL    HW119652   3.454   6.135   0.007
 6251SOL    HW219653   3.561   6.051   0.097
 6252SOL     OW19654   1.496   6.890   6.046
 6252SOL    HW119655   1.446   6.961   5.996
 6252SOL    HW219656   1.436   6.810   6.057
 6253SOL     OW19657   2.021   3.773   2.470
 6253SOL    HW119658   2.029   3.781   2.371
 6253SOL    HW219659   2.057   3.855   2.514
 6254SOL     OW19660   4.749   1.109   0.339
 6254SOL    HW119661   4.650   1.095   0.331
 6254SOL    HW219662   4.768   1.168   0.418
 6255SOL     OW19663   2.628   0.580   1.194
 6255SOL    HW119664   2.573   0.557   1.114
 6255SOL    HW219665   2.584   0.655   1.244
 6256SOL     OW19666   3.221   5.184   2.655
 6256SOL    HW119667   3.299   5.223   2.704
 6256SOL    HW219668   3.140   5.239   2.671
 6257SOL     OW19669   5.022   2.376   0.550
 6257SOL    HW119670   4.965   2.398   0.629
 6257SOL    HW219671   5.009   2.446   0.479
 6258SOL     OW19672   4.338   0.187   3.872
 6258SOL    HW119673   4.369   0.256   3.938
 6258SOL    HW219674   4.414   0.160   3.814
 6259SOL     OW19675   2.888   2.664   0.704
 6259SOL    HW119676   2.921   2.672   0.798
 6259SOL    HW219677   2.809   2.725   0.691
 6260SOL     OW19678   2.777   5.119   0.197
 6260SOL    HW119679   2.820   5.209   0.204
 6260SOL    HW219680   2.814   5.058   0.267
 6261SOL     OW19681   3.777   0.217   6.592
 6261SOL    HW119682   3.704   0.252   6.534
 6261SOL    HW219683   3.832   0.293   6.626
 6262SOL     OW19684   1.313   4.558   0.845
 6262SOL    HW119685   1.314   4.475   0.790
 6262SOL    HW219686   1.362   4.631   0.797
 6263SOL     OW19687   0.072   0.583   5.647
 6263SOL    HW119688   0.056   0.607   5.552
 6263SOL    HW219689   0.088   0.666   5.700
 6264SOL     OW19690   1.430   0.166   1.611
 6264SOL    HW119691   1.341   0.207   1.590
 6264SOL    HW219692   1.488   0.167   1.530
 6265SOL     OW19693   2.800   4.506   0.638
 6265SOL    HW119694   2.713   4.480   0.680
 6265SOL    HW219695   2.855   4.557   0.704
 6266SOL     OW19696   3.730   0.520   4.622
 6266SOL    HW119697   3.798   0.509   4.694
 6266SOL    HW219698   3.694   0.613   4.625
 6267SOL     OW19699   2.579   0.284   6.866
 6267SOL    HW119700   2.584   0.312   6.961
 6267SOL    HW219701   2.645   0.335   6.812
 6268SOL     OW19702   3.362   6.519   3.412
 6268SOL    HW119703   3.442   6.491   3.466
 6268SOL    HW219704   3.385   6.515   3.315
 6269SOL     OW19705   6.680   5.473   1.716
 6269SOL    HW119706   6.695   5.383   1.757
 6269SOL    HW219707   6.756   5.495   1.655
 6270SOL     OW19708   1.730   0.257   5.491
 6270SOL    HW119709   1.795   0.182   5.506
 6270SOL    HW219710   1.637   0.221   5.498
 6271SOL     OW19711   5.252   2.472   5.728
 6271SOL    HW119712   5.174   2.451   5.788
 6271SOL    HW219713   5.233   2.440   5.636
 6272SOL     OW19714   0.727   2.381   6.295
 6272SOL    HW119715   0.806   2.355   6.350
 6272SOL    HW219716   0.747   2.364   6.199
 6273SOL     OW19717   2.421   0.352   2.813
 6273SOL    HW119718   2.483   0.277   2.838
 6273SOL    HW219719   2.472   0.422   2.763
 6274SOL     OW19720   2.249   5.355   5.998
 6274SOL    HW119721   2.284   5.361   5.904
 6274SOL    HW219722   2.326   5.354   6.062
 6275SOL     OW19723   2.109   6.218   4.809
 6275SOL    HW119724   2.030   6.265   4.770
 6275SOL    HW219725   2.148   6.273   4.883
 6276SOL     OW19726   2.108   5.209   3.784
 6276SOL    HW119727   2.198   5.210   3.741
 6276SOL    HW219728   2.098   5.126   3.839
 6277SOL     OW19729   5.317   3.538   1.269
 6277SOL    HW119730   5.416   3.552   1.280
 6277SOL    HW219731   5.301   3.455   1.215
 6278SOL     OW19732   4.873   6.716   4.504
 6278SOL    HW119733   4.929   6.641   4.540
 6278SOL    HW219734   4.784   6.715   4.549
 6279SOL     OW19735   3.551   0.882   6.555
 6279SOL    HW119736   3.453   0.868   6.567
 6279SOL    HW219737   3.599   0.795   6.565
 6280SOL     OW19738   0.744   2.670   5.462
 6280SOL    HW119739   0.674   2.657   5.392
 6280SOL    HW219740   0.802   2.589   5.467
 6281SOL     OW19741   1.747   5.524   4.221
 6281SOL    HW119742   1.814   5.487   4.286
 6281SOL    HW219743   1.784   5.605   4.177
 6282SOL     OW19744   1.167   0.430   4.757
 6282SOL    HW119745   1.202   0.341   4.789
 6282SOL    HW219746   1.187   0.440   4.660
 6283SOL     OW19747   6.580   3.376   5.661
 6283SOL    HW119748   6.664   3.382   5.715
 6283SOL    HW219749   6.601   3.391   5.564
 6284SOL     OW19750   2.046   5.597   4.863
 6284SOL    HW119751   1.963   5.574   4.814
 6284SOL    HW219752   2.125   5.590   4.801
 6285SOL     OW19753   0.723   2.847   3.956
 6285SOL    HW119754   0.686   2.780   3.891
 6285SOL    HW219755   0.705   2.816   4.049
 6286SOL     OW19756   6.718   1.920   3.939
 6286SOL    HW119757   6.689   1.995   3.879
 6286SOL    HW219758   6.650   1.847   3.935
 6287SOL     OW19759   3.698   5.213   3.519
 6287SOL    HW119760   3.683   5.120   3.484
 6287SOL    HW219761   3.662   5.279   3.452
 6288SOL     OW19762   5.956   4.900   2.852
 6288SOL    HW119763   5.927   4.970   2.786
 6288SOL    HW219764   5.883   4.833   2.865
 6289SOL     OW19765   1.323   5.052   2.450
 6289SOL    HW119766   1.301   4.999   2.532
 6289SOL    HW219767   1.281   5.143   2.457
 6290SOL     OW19768   6.038   3.459   4.138
 6290SOL    HW119769   5.987   3.468   4.224
 6290SOL    HW219770   5.977   3.429   4.065
 6291SOL     OW19771   3.663   2.997   4.271
 6291SOL    HW119772   3.624   2.955   4.353
 6291SOL    HW219773   3.632   2.947   4.190
 6292SOL     OW19774   1.690   2.009   3.676
 6292SOL    HW119775   1.656   2.078   3.740
 6292SOL    HW219776   1.646   2.022   3.587
 6293SOL     OW19777   3.995   0.422   0.186
 6293SOL    HW119778   4.082   0.371   0.184
 6293SOL    HW219779   3.964   0.431   0.280
 6294SOL     OW19780   3.813   4.881   3.924
 6294SOL    HW119781   3.872   4.857   4.001
 6294SOL    HW219782   3.854   4.847   3.839
 6295SOL     OW19783   5.082   5.341   5.809
 6295SOL    HW119784   5.082   5.241   5.821
 6295SOL    HW219785   5.079   5.362   5.711
 6296SOL     OW19786   0.007   6.900   4.889
 6296SOL    HW119787   6.965   6.828   4.911
 6296SOL    HW219788   0.057   6.874   4.806
 6297SOL     OW19789   4.559   0.041   5.262
 6297SOL    HW119790   4.589   0.005   5.174
 6297SOL    HW219791   4.562   6.992   5.331
 6298SOL     OW19792   1.420   2.658   5.878
 6298SOL    HW119793   1.408   2.645   5.780
 6298SOL    HW219794   1.465   2.745   5.896
 6299SOL     OW19795   5.186   1.564   0.560
 6299SOL    HW119796   5.278   1.565   0.598
 6299SOL    HW219797   5.120   1.585   0.632
 6300SOL     OW19798   4.812   0.436   6.446
 6300SOL    HW119799   4.783   0.428   6.350
 6300SOL    HW219800   4.774   0.519   6.486
 6301SOL     OW19801   3.419   0.564   0.744
 6301SOL    HW119802   3.323   0.551   0.769
 6301SOL    HW219803   3.434   0.660   0.718
 6302SOL     OW19804   1.485   1.686   4.049
 6302SOL    HW119805   1.552   1.643   3.989
 6302SOL    HW219806   1.476   1.783   4.027
 6303SOL     OW19807   2.177   1.011   4.665
 6303SOL    HW119808   2.216   1.097   4.632
 6303SOL    HW219809   2.153   1.021   4.762
 6304SOL     OW19810   2.444   1.087   0.974
 6304SOL    HW119811   2.434   1.018   1.046
 6304SOL    HW219812   2.541   1.098   0.953
 6305SOL     OW19813   6.045   6.985   1.692
 6305SOL    HW119814   5.964   6.956   1.743
 6305SOL    HW219815   6.116   7.016   1.756
 6306SOL     OW19816   1.190   3.375   4.115
 6306SOL    HW119817   1.286   3.365   4.092
 6306SOL    HW219818   1.181   3.393   4.213
 6307SOL     OW19819   4.000   4.582   5.774
 6307SOL    HW119820   4.086   4.534   5.793
 6307SOL    HW219821   4.012   4.680   5.788
 6308SOL     OW19822   2.096   1.868   4.710
 6308SOL    HW119823   2.054   1.778   4.722
 6308SOL    HW219824   2.027   1.933   4.678
 6309SOL     OW19825   5.182   3.893   4.355
 6309SOL    HW119826   5.187   3.961   4.428
 6309SOL    HW219827   5.242   3.816   4.377
 6310SOL     OW19828   2.177   5.608   3.245
 6310SOL    HW119829   2.215   5.646   3.161
 6310SOL    HW219830   2.229   5.643   3.323
 6311SOL     OW19831   5.605   7.023   5.476
 6311SOL    HW119832   5.563   0.018   5.387
 6311SOL    HW219833   5.622   0.085   5.524
 6312SOL     OW19834   5.940   5.167   5.748
 6312SOL    HW119835   5.952   5.228   5.826
 6312SOL    HW219836   5.843   5.158   5.727
 6313SOL     OW19837   1.368   5.970   3.655
 6313SOL    HW119838   1.332   6.062   3.673
 6313SOL    HW219839   1.366   5.917   3.739
 6314SOL     OW19840   3.840   6.531   1.292
 6314SOL    HW119841   3.898   6.539   1.374
 6314SOL    HW219842   3.756   6.583   1.306
 6315SOL     OW19843   3.926   3.157   6.238
 6315SOL    HW119844   3.859   3.104   6.185
 6315SOL    HW219845   3.879   3.226   6.292
 6316SOL     OW19846   4.774   1.880   6.639
 6316SOL    HW119847   4.704   1.895   6.569
 6316SOL    HW219848   4.856   1.933   6.616
 6317SOL     OW19849   5.331   5.261   3.152
 6317SOL    HW119850   5.293   5.239   3.242
 6317SOL    HW219851   5.291   5.347   3.119
 6318SOL     OW19852   2.927   2.167   4.662
 6318SOL    HW119853   2.998   2.162   4.591
 6318SOL    HW219854   2.967   2.203   4.746
 6319SOL     OW19855   0.141   2.007   3.796
 6319SOL    HW119856   0.076   2.025   3.870
 6319SOL    HW219857   0.098   2.028   3.709
 6320SOL     OW19858   6.077   5.099   5.172
 6320SOL    HW119859   6.049   5.192   5.146
 6320SOL    HW219860   5.995   5.043   5.187
 6321SOL     OW19861   3.293   4.428   0.755
 6321SOL    HW119862   3.307   4.365   0.679
 6321SOL    HW219863   3.250   4.512   0.721
 6322SOL     OW19864   1.512   2.086   6.773
 6322SOL    HW119865   1.494   1.994   6.809
 6322SOL    HW219866   1.426   2.135   6.762
 6323SOL     OW19867   3.209   2.769   1.494
 6323SOL    HW119868   3.166   2.793   1.406
 6323SOL    HW219869   3.142   2.722   1.552
 6324SOL     OW19870   4.978   6.848   6.510
 6324SOL    HW119871   4.887   6.882   6.534
 6324SOL    HW219872   5.047   6.909   6.549
 6325SOL     OW19873   2.026   1.993   2.334
 6325SOL    HW119874   2.078   2.051   2.396
 6325SOL    HW219875   2.072   1.990   2.245
 6326SOL     OW19876   4.882   5.835   1.796
 6326SOL    HW119877   4.902   5.842   1.698
 6326SOL    HW219878   4.890   5.740   1.825
 6327SOL     OW19879   0.260   0.644   4.991
 6327SOL    HW119880   0.289   0.731   5.032
 6327SOL    HW219881   0.318   0.570   5.024
 6328SOL     OW19882   1.859   3.912   0.735
 6328SOL    HW119883   1.944   3.958   0.710
 6328SOL    HW219884   1.830   3.853   0.659
 6329SOL     OW19885   2.313   2.582   3.383
 6329SOL    HW119886   2.326   2.588   3.482
 6329SOL    HW219887   2.273   2.494   3.359
 6330SOL     OW19888   4.508   1.627   1.214
 6330SOL    HW119889   4.502   1.712   1.163
 6330SOL    HW219890   4.572   1.638   1.291
 6331SOL     OW19891   6.151   2.350   0.351
 6331SOL    HW119892   6.078   2.290   0.383
 6331SOL    HW219893   6.229   2.294   0.323
 6332SOL     OW19894   6.468   3.735   1.833
 6332SOL    HW119895   6.548   3.675   1.838
 6332SOL    HW219896   6.499   3.831   1.836
 6333SOL     OW19897   4.078   5.257   4.222
 6333SOL    HW119898   4.116   5.284   4.134
 6333SOL    HW219899   4.014   5.328   4.254
 6334SOL     OW19900   3.035   0.060   2.169
 6334SOL    HW119901   3.128   0.077   2.136
 6334SOL    HW219902   2.973   0.129   2.133
 6335SOL     OW19903   4.644   1.563   0.280
 6335SOL    HW119904   4.622   1.660   0.273
 6335SOL    HW219905   4.561   1.509   0.264
 6336SOL     OW19906   0.528   1.714   6.457
 6336SOL    HW119907   0.545   1.802   6.413
 6336SOL    HW219908   0.517   1.728   6.555
 6337SOL     OW19909   4.793   4.551   6.201
 6337SOL    HW119910   4.796   4.483   6.275
 6337SOL    HW219911   4.823   4.509   6.116
 6338SOL     OW19912   3.338   2.142   2.836
 6338SOL    HW119913   3.395   2.161   2.916
 6338SOL    HW219914   3.396   2.124   2.757
 6339SOL     OW19915   1.573   2.960   2.895
 6339SOL    HW119916   1.498   2.948   2.960
 6339SOL    HW219917   1.624   3.043   2.917
 6340SOL     OW19918   1.548   4.648   2.956
 6340SOL    HW119919   1.525   4.722   2.892
 6340SOL    HW219920   1.463   4.608   2.991
 6341SOL     OW19921   0.644   4.417   3.972
 6341SOL    HW119922   0.578   4.488   3.997
 6341SOL    HW219923   0.605   4.359   3.900
 6342SOL     OW19924   2.588   1.872   1.678
 6342SOL    HW119925   2.531   1.920   1.744
 6342SOL    HW219926   2.670   1.837   1.724
 6343SOL     OW19927   4.862   2.563   6.589
 6343SOL    HW119928   4.859   2.488   6.655
 6343SOL    HW219929   4.789   2.551   6.521
 6344SOL     OW19930   5.618   3.705   5.094
 6344SOL    HW119931   5.559   3.743   5.166
 6344SOL    HW219932   5.680   3.776   5.061
 6345SOL     OW19933   4.501   1.954   2.206
 6345SOL    HW119934   4.593   1.913   2.202
 6345SOL    HW219935   4.508   2.050   2.233
 6346SOL     OW19936   6.773   4.386   3.848
 6346SOL    HW119937   6.700   4.454   3.859
 6346SOL    HW219938   6.752   4.328   3.769
 6347SOL     OW19939   1.793   0.206   1.897
 6347SOL    HW119940   1.814   0.153   1.979
 6347SOL    HW219941   1.876   0.249   1.862
 6348SOL     OW19942   1.442   3.858   5.006
 6348SOL    HW119943   1.395   3.930   4.955
 6348SOL    HW219944   1.391   3.772   4.998
 6349SOL     OW19945   3.403   6.924   1.340
 6349SOL    HW119946   3.351   6.863   1.281
 6349SOL    HW219947   3.464   6.980   1.283
 6350SOL     OW19948   2.774   4.791   4.097
 6350SOL    HW119949   2.704   4.763   4.163
 6350SOL    HW219950   2.848   4.839   4.145
 6351SOL     OW19951   6.464   3.434   3.212
 6351SOL    HW119952   6.549   3.383   3.203
 6351SOL    HW219953   6.409   3.393   3.285
 6352SOL     OW19954   2.793   5.461   4.815
 6352SOL    HW119955   2.874   5.493   4.766
 6352SOL    HW219956   2.777   5.518   4.895
 6353SOL     OW19957   6.797   0.989   6.034
 6353SOL    HW119958   6.795   0.892   6.061
 6353SOL    HW219959   6.727   1.039   6.085
 6354SOL     OW19960   1.851   0.040   2.608
 6354SOL    HW119961   1.772   0.003   2.559
 6354SOL    HW219962   1.838   0.139   2.622
 6355SOL     OW19963   1.072   5.254   5.890
 6355SOL    HW119964   1.077   5.313   5.971
 6355SOL    HW219965   1.083   5.310   5.807
 6356SOL     OW19966   3.633   4.896   2.945
 6356SOL    HW119967   3.725   4.909   2.909
 6356SOL    HW219968   3.635   4.898   3.045
 6357SOL     OW19969   5.246   2.757   2.409
 6357SOL    HW119970   5.295   2.841   2.385
 6357SOL    HW219971   5.309   2.694   2.455
 6358SOL     OW19972   1.395   2.334   6.220
 6358SOL    HW119973   1.372   2.238   6.241
 6358SOL    HW219974   1.488   2.353   6.251
 6359SOL     OW19975   6.348   6.768   5.601
 6359SOL    HW119976   6.436   6.801   5.637
 6359SOL    HW219977   6.291   6.846   5.575
 6360SOL     OW19978   1.824   3.737   4.118
 6360SOL    HW119979   1.799   3.725   4.214
 6360SOL    HW219980   1.890   3.812   4.110
 6361SOL     OW19981   6.179   0.286   0.354
 6361SOL    HW119982   6.255   0.343   0.382
 6361SOL    HW219983   6.155   0.306   0.259
 6362SOL     OW19984   6.887   5.665   6.693
 6362SOL    HW119985   6.982   5.639   6.674
 6362SOL    HW219986   6.881   5.706   6.784
 6363SOL     OW19987   2.310   4.234   3.116
 6363SOL    HW119988   2.266   4.151   3.148
 6363SOL    HW219989   2.265   4.267   3.034
 6364SOL     OW19990   3.528   1.458   5.942
 6364SOL    HW119991   3.457   1.486   6.007
 6364SOL    HW219992   3.595   1.531   5.932
 6365SOL     OW19993   5.547   6.631   4.289
 6365SOL    HW119994   5.544   6.624   4.190
 6365SOL    HW219995   5.627   6.685   4.316
 6366SOL     OW19996   0.894   5.720   6.662
 6366SOL    HW119997   0.971   5.783   6.673
 6366SOL    HW219998   0.869   5.716   6.565
 6367SOL     OW19999   3.856   0.470   4.208
 6367SOL    HW120000   3.861   0.402   4.280
 6367SOL    HW220001   3.948   0.499   4.183
 6368SOL     OW20002   3.515   6.390   3.747
 6368SOL    HW120003   3.479   6.436   3.828
 6368SOL    HW220004   3.451   6.318   3.719
 6369SOL     OW20005   2.399   4.941   4.750
 6369SOL    HW120006   2.440   4.892   4.827
 6369SOL    HW220007   2.389   4.879   4.672
 6370SOL     OW20008   0.924   3.274   2.448
 6370SOL    HW120009   0.999   3.327   2.486
 6370SOL    HW220010   0.904   3.196   2.508
 6371SOL     OW20011   5.210   3.428   3.989
 6371SOL    HW120012   5.117   3.394   3.999
 6371SOL    HW220013   5.218   3.517   4.035
 6372SOL     OW20014   3.648   0.423   1.948
 6372SOL    HW120015   3.687   0.511   1.977
 6372SOL    HW220016   3.669   0.408   1.852
 6373SOL     OW20017   5.570   4.440   3.589
 6373SOL    HW120018   5.563   4.473   3.683
 6373SOL    HW220019   5.633   4.499   3.538
 6374SOL     OW20020   3.319   4.160   4.487
 6374SOL    HW120021   3.381   4.175   4.564
 6374SOL    HW220022   3.259   4.239   4.478
 6375SOL     OW20023   6.955   1.637   3.944
 6375SOL    HW120024   6.861   1.662   3.917
 6375SOL    HW220025   6.985   1.559   3.890
 6376SOL     OW20026   6.349   2.693   5.468
 6376SOL    HW120027   6.403   2.610   5.478
 6376SOL    HW220028   6.260   2.670   5.428
 6377SOL     OW20029   6.379   1.748   5.300
 6377SOL    HW120030   6.447   1.729   5.228
 6377SOL    HW220031   6.373   1.669   5.361
 6378SOL     OW20032   5.270   4.840   3.663
 6378SOL    HW120033   5.236   4.753   3.697
 6378SOL    HW220034   5.264   4.842   3.563
 6379SOL     OW20035   2.272   4.279   4.070
 6379SOL    HW120036   2.255   4.205   4.005
 6379SOL    HW220037   2.264   4.245   4.163
 6380SOL     OW20038   0.733   1.389   6.261
 6380SOL    HW120039   0.787   1.366   6.342
 6380SOL    HW220040   0.679   1.309   6.234
 6381SOL     OW20041   4.088   3.527   1.983
 6381SOL    HW120042   4.166   3.474   1.951
 6381SOL    HW220043   4.039   3.565   1.904
 6382SOL     OW20044   1.025   2.603   0.308
 6382SOL    HW120045   0.938   2.642   0.339
 6382SOL    HW220046   1.058   2.539   0.377
 6383SOL     OW20047   1.873   1.997   3.082
 6383SOL    HW120048   1.935   2.047   3.021
 6383SOL    HW220049   1.830   1.922   3.032
 6384SOL     OW20050   5.147   4.060   1.245
 6384SOL    HW120051   5.130   4.015   1.333
 6384SOL    HW220052   5.060   4.070   1.196
 6385SOL     OW20053   6.646   4.605   4.421
 6385SOL    HW120054   6.670   4.672   4.351
 6385SOL    HW220055   6.689   4.517   4.398
 6386SOL     OW20056   2.505   4.362   6.531
 6386SOL    HW120057   2.561   4.310   6.465
 6386SOL    HW220058   2.564   4.395   6.605
 6387SOL     OW20059   0.629   1.375   6.739
 6387SOL    HW120060   0.650   1.339   6.830
 6387SOL    HW220061   0.694   1.447   6.716
 6388SOL     OW20062   4.017   4.824   0.943
 6388SOL    HW120063   3.991   4.918   0.962
 6388SOL    HW220064   4.108   4.806   0.979
 6389SOL     OW20065   0.674   6.254   2.233
 6389SOL    HW120066   0.681   6.352   2.250
 6389SOL    HW220067   0.580   6.224   2.248
 6390SOL     OW20068   1.282   2.414   4.725
 6390SOL    HW120069   1.187   2.435   4.746
 6390SOL    HW220070   1.342   2.477   4.774
 6391SOL     OW20071   3.241   0.230   6.135
 6391SOL    HW120072   3.339   0.214   6.127
 6391SOL    HW220073   3.208   0.281   6.055
 6392SOL     OW20074   2.486   0.234   3.421
 6392SOL    HW120075   2.520   0.296   3.492
 6392SOL    HW220076   2.406   0.185   3.455
 6393SOL     OW20077   5.843   0.025   1.175
 6393SOL    HW120078   5.778   6.988   1.220
 6393SOL    HW220079   5.845   0.113   1.222
 6394SOL     OW20080   2.519   4.618   1.203
 6394SOL    HW120081   2.559   4.573   1.282
 6394SOL    HW220082   2.461   4.694   1.233
 6395SOL     OW20083   6.399   2.848   1.828
 6395SOL    HW120084   6.456   2.780   1.783
 6395SOL    HW220085   6.305   2.839   1.795
 6396SOL     OW20086   5.571   2.872   6.594
 6396SOL    HW120087   5.475   2.883   6.568
 6396SOL    HW220088   5.593   2.774   6.598
 6397SOL     OW20089   5.624   2.540   6.378
 6397SOL    HW120090   5.537   2.584   6.400
 6397SOL    HW220091   5.687   2.609   6.342
 6398SOL     OW20092   3.145   0.709   0.735
 6398SOL    HW120093   3.134   0.767   0.655
 6398SOL    HW220094   3.073   0.731   0.802
 6399SOL     OW20095   1.619   5.354   6.828
 6399SOL    HW120096   1.690   5.290   6.857
 6399SOL    HW220097   1.608   5.349   6.729
 6400SOL     OW20098   2.384   6.088   2.722
 6400SOL    HW120099   2.378   5.997   2.681
 6400SOL    HW220100   2.438   6.147   2.662
 6401SOL     OW20101   0.033   4.589   3.234
 6401SOL    HW120102   0.052   4.629   3.324
 6401SOL    HW220103   6.966   4.547   3.234
 6402SOL     OW20104   4.263   0.692   3.155
 6402SOL    HW120105   4.191   0.760   3.140
 6402SOL    HW220106   4.222   0.609   3.193
 6403SOL     OW20107   0.113   6.396   6.282
 6403SOL    HW120108   0.067   6.416   6.369
 6403SOL    HW220109   0.204   6.438   6.282
 6404SOL     OW20110   4.058   1.227   3.177
 6404SOL    HW120111   4.068   1.278   3.092
 6404SOL    HW220112   4.011   1.284   3.245
 6405SOL     OW20113   2.052   1.065   3.201
 6405SOL    HW120114   1.992   0.989   3.177
 6405SOL    HW220115   2.147   1.039   3.182
 6406SOL     OW20116   2.082   2.709   3.616
 6406SOL    HW120117   2.076   2.671   3.709
 6406SOL    HW220118   2.072   2.635   3.549
 6407SOL     OW20119   3.229   0.178   3.016
 6407SOL    HW120120   3.211   0.088   2.976
 6407SOL    HW220121   3.227   0.171   3.116
 6408SOL     OW20122   6.031   2.412   6.999
 6408SOL    HW120123   6.016   2.320   0.010
 6408SOL    HW220124   5.986   2.479   0.035
 6409SOL     OW20125   0.383   4.895   2.948
 6409SOL    HW120126   0.373   4.872   2.851
 6409SOL    HW220127   0.313   4.846   3.001
 6410SOL     OW20128   1.948   1.198   0.486
 6410SOL    HW120129   2.024   1.146   0.524
 6410SOL    HW220130   1.865   1.180   0.538
 6411SOL     OW20131   0.201   2.422   3.137
 6411SOL    HW120132   0.189   2.343   3.198
 6411SOL    HW220133   0.297   2.430   3.111
 6412SOL     OW20134   0.032   3.171   5.245
 6412SOL    HW120135   6.990   3.105   5.282
 6412SOL    HW220136   0.000   3.201   5.155
 6413SOL     OW20137   4.491   4.704   3.195
 6413SOL    HW120138   4.532   4.615   3.178
 6413SOL    HW220139   4.500   4.761   3.113
 6414SOL     OW20140   6.022   0.883   1.675
 6414SOL    HW120141   6.094   0.949   1.654
 6414SOL    HW220142   6.059   0.790   1.674
 6415SOL     OW20143   2.151   2.023   2.971
 6415SOL    HW120144   2.112   1.951   2.914
 6415SOL    HW220145   2.250   2.009   2.980
 6416SOL     OW20146   1.485   1.424   6.283
 6416SOL    HW120147   1.565   1.438   6.224
 6416SOL    HW220148   1.445   1.513   6.304
 6417SOL     OW20149   6.896   4.443   2.145
 6417SOL    HW120150   6.868   4.478   2.056
 6417SOL    HW220151   6.983   4.394   2.136
 6418SOL     OW20152   4.956   4.634   1.855
 6418SOL    HW120153   4.918   4.598   1.770
 6418SOL    HW220154   4.922   4.581   1.932
 6419SOL     OW20155   2.173   4.361   2.712
 6419SOL    HW120156   2.269   4.389   2.706
 6419SOL    HW220157   2.117   4.439   2.743
 6420SOL     OW20158   2.699   3.685   5.722
 6420SOL    HW120159   2.728   3.757   5.785
 6420SOL    HW220160   2.779   3.650   5.673
 6421SOL     OW20161   5.529   1.237   2.183
 6421SOL    HW120162   5.542   1.144   2.148
 6421SOL    HW220163   5.614   1.288   2.174
 6422SOL     OW20164   6.949   0.489   4.150
 6422SOL    HW120165   0.018   0.523   4.162
 6422SOL    HW220166   6.927   0.485   4.053
 6423SOL     OW20167   4.543   5.204   2.397
 6423SOL    HW120168   4.555   5.273   2.468
 6423SOL    HW220169   4.608   5.222   2.323
 6424SOL     OW20170   6.661   6.040   5.711
 6424SOL    HW120171   6.607   5.963   5.745
 6424SOL    HW220172   6.646   6.120   5.770
 6425SOL     OW20173   6.514   5.689   3.270
 6425SOL    HW120174   6.461   5.649   3.195
 6425SOL    HW220175   6.574   5.620   3.309
 6426SOL     OW20176   0.372   4.890   3.367
 6426SOL    HW120177   0.441   4.824   3.338
 6426SOL    HW220178   0.363   4.888   3.466
 6427SOL     OW20179   2.324   3.296   6.442
 6427SOL    HW120180   2.258   3.332   6.377
 6427SOL    HW220181   2.323   3.353   6.525
 6428SOL     OW20182   6.893   3.376   0.476
 6428SOL    HW120183   6.820   3.440   0.454
 6428SOL    HW220184   6.856   3.300   0.529
 6429SOL     OW20185   0.648   1.538   5.542
 6429SOL    HW120186   0.662   1.496   5.452
 6429SOL    HW220187   0.644   1.637   5.531
 6430SOL     OW20188   5.113   0.891   2.455
 6430SOL    HW120189   5.091   0.798   2.425
 6430SOL    HW220190   5.104   0.954   2.378
 6431SOL     OW20191   5.478   6.489   3.271
 6431SOL    HW120192   5.463   6.514   3.366
 6431SOL    HW220193   5.411   6.536   3.213
 6432SOL     OW20194   4.439   3.779   6.938
 6432SOL    HW120195   4.357   3.737   6.977
 6432SOL    HW220196   4.430   3.784   6.838
 6433SOL     OW20197   3.637   4.530   0.525
 6433SOL    HW120198   3.681   4.457   0.471
 6433SOL    HW220199   3.689   4.615   0.514
 6434SOL     OW20200   1.984   3.743   0.012
 6434SOL    HW120201   1.944   3.704   0.095
 6434SOL    HW220202   2.081   3.721   0.008
 6435SOL     OW20203   4.176   6.229   6.584
 6435SOL    HW120204   4.161   6.286   6.503
 6435SOL    HW220205   4.147   6.135   6.565
 6436SOL     OW20206   2.146   3.448   3.675
 6436SOL    HW120207   2.074   3.388   3.639
 6436SOL    HW220208   2.138   3.538   3.632
 6437SOL     OW20209   2.391   0.893   1.154
 6437SOL    HW120210   2.473   0.892   1.210
 6437SOL    HW220211   2.361   0.799   1.136
 6438SOL     OW20212   0.687   4.910   6.336
 6438SOL    HW120213   0.616   4.976   6.313
 6438SOL    HW220214   0.729   4.936   6.423
 6439SOL     OW20215   6.597   0.347   1.722
 6439SOL    HW120216   6.630   0.309   1.808
 6439SOL    HW220217   6.600   0.447   1.726
 6440SOL     OW20218   2.331   1.877   1.329
 6440SOL    HW120219   2.418   1.926   1.341
 6440SOL    HW220220   2.282   1.916   1.251
 6441SOL     OW20221   1.209   6.679   2.644
 6441SOL    HW120222   1.211   6.588   2.686
 6441SOL    HW220223   1.285   6.687   2.580
 6442SOL     OW20224   2.506   1.265   3.272
 6442SOL    HW120225   2.565   1.188   3.245
 6442SOL    HW220226   2.411   1.243   3.249
 6443SOL     OW20227   4.000   2.722   6.717
 6443SOL    HW120228   3.964   2.790   6.652
 6443SOL    HW220229   4.077   2.762   6.767
 6444SOL     OW20230   0.419   2.584   3.834
 6444SOL    HW120231   0.408   2.493   3.795
 6444SOL    HW220232   0.421   2.578   3.934
 6445SOL     OW20233   4.856   2.785   5.802
 6445SOL    HW120234   4.875   2.694   5.768
 6445SOL    HW220235   4.846   2.849   5.725
 6446SOL     OW20236   1.273   1.248   6.334
 6446SOL    HW120237   1.358   1.300   6.342
 6446SOL    HW220238   1.232   1.264   6.244
 6447SOL     OW20239   0.463   5.721   2.735
 6447SOL    HW120240   0.498   5.795   2.678
 6447SOL    HW220241   0.415   5.759   2.814
 6448SOL     OW20242   5.179   4.122   2.459
 6448SOL    HW120243   5.130   4.106   2.373
 6448SOL    HW220244   5.116   4.164   2.525
 6449SOL     OW20245   2.763   4.515   0.376
 6449SOL    HW120246   2.801   4.505   0.468
 6449SOL    HW220247   2.838   4.531   0.311
 6450SOL     OW20248   0.133   3.203   1.348
 6450SOL    HW120249   0.105   3.296   1.326
 6450SOL    HW220250   0.055   3.141   1.335
 6451SOL     OW20251   2.626   6.700   5.049
 6451SOL    HW120252   2.614   6.658   5.139
 6451SOL    HW220253   2.630   6.799   5.059
 6452SOL     OW20254   3.463   6.159   5.023
 6452SOL    HW120255   3.381   6.218   5.026
 6452SOL    HW220256   3.517   6.174   5.105
 6453SOL     OW20257   1.135   6.531   0.159
 6453SOL    HW120258   1.065   6.603   0.160
 6453SOL    HW220259   1.211   6.558   0.219
 6454SOL     OW20260   3.095   1.153   3.599
 6454SOL    HW120261   3.068   1.207   3.519
 6454SOL    HW220262   3.029   1.166   3.672
 6455SOL     OW20263   0.689   2.016   4.360
 6455SOL    HW120264   0.617   2.025   4.429
 6455SOL    HW220265   0.778   2.006   4.406
 6456SOL     OW20266   1.849   1.010   3.659
 6456SOL    HW120267   1.913   1.050   3.724
 6456SOL    HW220268   1.874   1.038   3.566
 6457SOL     OW20269   5.213   1.252   1.243
 6457SOL    HW120270   5.200   1.350   1.259
 6457SOL    HW220271   5.239   1.207   1.328
 6458SOL     OW20272   0.991   0.058   3.743
 6458SOL    HW120273   1.029   6.992   3.766
 6458SOL    HW220274   0.996   0.071   3.645
 6459SOL     OW20275   5.909   5.057   0.572
 6459SOL    HW120276   5.961   4.976   0.546
 6459SOL    HW220277   5.811   5.037   0.570
 6460SOL     OW20278   4.493   5.395   5.316
 6460SOL    HW120279   4.583   5.353   5.332
 6460SOL    HW220280   4.425   5.323   5.306
 6461SOL     OW20281   3.010   4.843   4.898
 6461SOL    HW120282   2.944   4.916   4.884
 6461SOL    HW220283   2.966   4.765   4.943
 6462SOL     OW20284   2.432   2.706   5.035
 6462SOL    HW120285   2.406   2.802   5.046
 6462SOL    HW220286   2.472   2.673   5.120
 6463SOL     OW20287   1.409   3.665   6.745
 6463SOL    HW120288   1.328   3.606   6.745
 6463SOL    HW220289   1.459   3.653   6.659
 6464SOL     OW20290   1.024   5.357   4.911
 6464SOL    HW120291   1.044   5.300   4.831
 6464SOL    HW220292   1.093   5.429   4.918
 6465SOL     OW20293   6.170   2.271   3.961
 6465SOL    HW120294   6.088   2.320   3.994
 6465SOL    HW220295   6.224   2.332   3.904
 6466SOL     OW20296   0.852   1.577   6.679
 6466SOL    HW120297   0.841   1.661   6.733
 6466SOL    HW220298   0.895   1.599   6.592
 6467SOL     OW20299   3.030   1.018   0.099
 6467SOL    HW120300   3.059   1.101   0.051
 6467SOL    HW220301   3.105   0.952   0.101
 6468SOL     OW20302   4.128   6.489   1.842
 6468SOL    HW120303   4.133   6.532   1.932
 6468SOL    HW220304   4.074   6.405   1.848
 6469SOL     OW20305   4.605   0.839   5.518
 6469SOL    HW120306   4.596   0.752   5.567
 6469SOL    HW220307   4.653   0.905   5.575
 6470SOL     OW20308   5.960   5.806   6.436
 6470SOL    HW120309   6.008   5.748   6.371
 6470SOL    HW220310   5.913   5.749   6.503
 6471SOL     OW20311   6.628   5.923   6.057
 6471SOL    HW120312   6.546   5.886   6.011
 6471SOL    HW220313   6.689   5.847   6.080
 6472SOL     OW20314   0.456   4.364   0.990
 6472SOL    HW120315   0.524   4.358   0.917
 6472SOL    HW220316   0.502   4.373   1.078
 6473SOL     OW20317   1.932   1.838   4.334
 6473SOL    HW120318   1.833   1.855   4.332
 6473SOL    HW220319   1.976   1.910   4.388
 6474SOL     OW20320   2.157   3.769   5.672
 6474SOL    HW120321   2.137   3.671   5.670
 6474SOL    HW220322   2.255   3.783   5.657
 6475SOL     OW20323   6.964   5.500   4.196
 6475SOL    HW120324   6.919   5.412   4.182
 6475SOL    HW220325   6.899   5.574   4.181
 6476SOL     OW20326   4.239   3.611   1.575
 6476SOL    HW120327   4.244   3.536   1.510
 6476SOL    HW220328   4.184   3.686   1.536
 6477SOL     OW20329   6.817   4.593   1.258
 6477SOL    HW120330   6.729   4.600   1.305
 6477SOL    HW220331   6.804   4.551   1.168
 6478SOL     OW20332   3.794   5.870   2.371
 6478SOL    HW120333   3.783   5.791   2.309
 6478SOL    HW220334   3.890   5.880   2.395
 6479SOL     OW20335   3.855   5.883   3.591
 6479SOL    HW120336   3.851   5.786   3.567
 6479SOL    HW220337   3.762   5.918   3.603
 6480SOL     OW20338   3.040   2.435   5.680
 6480SOL    HW120339   3.077   2.364   5.739
 6480SOL    HW220340   3.100   2.448   5.601
 6481SOL     OW20341   3.331   2.082   2.020
 6481SOL    HW120342   3.287   2.083   2.110
 6481SOL    HW220343   3.276   2.136   1.956
 6482SOL     OW20344   0.473   0.778   6.199
 6482SOL    HW120345   0.442   0.790   6.105
 6482SOL    HW220346   0.558   0.828   6.212
 6483SOL     OW20347   2.338   5.716   1.897
 6483SOL    HW120348   2.258   5.759   1.854
 6483SOL    HW220349   2.311   5.681   1.987
 6484SOL     OW20350   3.993   0.480   2.681
 6484SOL    HW120351   3.993   0.577   2.659
 6484SOL    HW220352   4.020   0.427   2.600
 6485SOL     OW20353   2.078   3.780   3.105
 6485SOL    HW120354   1.984   3.746   3.099
 6485SOL    HW220355   2.082   3.857   3.169
 6486SOL     OW20356   1.494   4.427   4.426
 6486SOL    HW120357   1.555   4.446   4.349
 6486SOL    HW220358   1.457   4.334   4.417
 6487SOL     OW20359   6.571   5.873   4.916
 6487SOL    HW120360   6.566   5.799   4.983
 6487SOL    HW220361   6.497   5.938   4.933
 6488SOL     OW20362   2.973   5.799   4.885
 6488SOL    HW120363   2.987   5.898   4.882
 6488SOL    HW220364   2.958   5.764   4.792
 6489SOL     OW20365   2.747   3.634   6.972
 6489SOL    HW120366   2.842   3.659   6.990
 6489SOL    HW220367   2.744   3.553   6.914
 6490SOL     OW20368   4.381   2.032   6.797
 6490SOL    HW120369   4.400   2.095   6.722
 6490SOL    HW220370   4.293   2.054   6.838
 6491SOL     OW20371   4.364   1.133   6.724
 6491SOL    HW120372   4.356   1.046   6.676
 6491SOL    HW220373   4.402   1.202   6.663
 6492SOL     OW20374   5.891   5.854   0.325
 6492SOL    HW120375   5.887   5.930   0.260
 6492SOL    HW220376   5.821   5.787   0.300
 6493SOL     OW20377   1.264   5.830   4.873
 6493SOL    HW120378   1.315   5.757   4.826
 6493SOL    HW220379   1.173   5.839   4.832
 6494SOL     OW20380   0.158   0.920   2.918
 6494SOL    HW120381   0.225   0.971   2.971
 6494SOL    HW220382   0.199   0.836   2.883
 6495SOL     OW20383   5.010   6.175   4.396
 6495SOL    HW120384   5.069   6.101   4.429
 6495SOL    HW220385   5.017   6.253   4.458
 6496SOL     OW20386   0.554   6.962   2.383
 6496SOL    HW120387   0.495   6.937   2.306
 6496SOL    HW220388   0.510   0.011   2.436
 6497SOL     OW20389   2.556   3.539   0.209
 6497SOL    HW120390   2.538   3.524   0.111
 6497SOL    HW220391   2.615   3.467   0.243
 6498SOL     OW20392   2.304   4.210   3.580
 6498SOL    HW120393   2.362   4.204   3.661
 6498SOL    HW220394   2.355   4.253   3.506
 6499SOL     OW20395   5.340   2.478   4.999
 6499SOL    HW120396   5.356   2.399   5.059
 6499SOL    HW220397   5.395   2.555   5.031
 6500SOL     OW20398   0.139   4.957   3.238
 6500SOL    HW120399   0.217   4.912   3.282
 6500SOL    HW220400   0.125   4.918   3.147
 6501SOL     OW20401   6.865   2.580   6.846
 6501SOL    HW120402   6.793   2.631   6.799
 6501SOL    HW220403   6.929   2.543   6.779
 6502SOL     OW20404   6.475   4.306   2.775
 6502SOL    HW120405   6.541   4.292   2.701
 6502SOL    HW220406   6.383   4.295   2.739
 6503SOL     OW20407   5.707   6.875   3.941
 6503SOL    HW120408   5.672   6.969   3.933
 6503SOL    HW220409   5.645   6.821   3.998
 6504SOL     OW20410   4.860   6.528   5.872
 6504SOL    HW120411   4.950   6.530   5.916
 6504SOL    HW220412   4.809   6.610   5.898
 6505SOL     OW20413   5.209   4.881   1.514
 6505SOL    HW120414   5.226   4.793   1.470
 6505SOL    HW220415   5.237   4.876   1.610
 6506SOL     OW20416   6.771   3.650   1.342
 6506SOL    HW120417   6.830   3.573   1.317
 6506SOL    HW220418   6.767   3.714   1.265
 6507SOL     OW20419   1.355   5.608   5.743
 6507SOL    HW120420   1.437   5.562   5.777
 6507SOL    HW220421   1.381   5.681   5.680
 6508SOL     OW20422   2.378   1.753   3.194
 6508SOL    HW120423   2.312   1.730   3.123
 6508SOL    HW220424   2.380   1.681   3.263
 6509SOL     OW20425   2.605   2.432   4.025
 6509SOL    HW120426   2.672   2.372   3.982
 6509SOL    HW220427   2.584   2.400   4.117
 6510SOL     OW20428   6.993   5.232   6.759
 6510SOL    HW120429   6.995   5.284   6.845
 6510SOL    HW220430   0.058   5.239   6.714
 6511SOL     OW20431   5.221   0.798   4.866
 6511SOL    HW120432   5.273   0.883   4.860
 6511SOL    HW220433   5.131   0.817   4.907
 6512SOL     OW20434   5.060   0.722   2.196
 6512SOL    HW120435   5.125   0.665   2.146
 6512SOL    HW220436   4.971   0.677   2.198
 6513SOL     OW20437   3.078   5.183   3.167
 6513SOL    HW120438   2.997   5.144   3.124
 6513SOL    HW220439   3.129   5.236   3.100
 6514SOL     OW20440   5.803   0.128   3.170
 6514SOL    HW120441   5.896   0.140   3.136
 6514SOL    HW220442   5.741   0.186   3.118
 6515SOL     OW20443   0.423   5.425   4.052
 6515SOL    HW120444   0.491   5.403   3.982
 6515SOL    HW220445   0.440   5.517   4.088
 6516SOL     OW20446   0.251   2.866   1.000
 6516SOL    HW120447   0.336   2.887   1.048
 6516SOL    HW220448   0.247   2.918   0.915
 6517SOL     OW20449   6.533   1.085   0.725
 6517SOL    HW120450   6.559   1.140   0.805
 6517SOL    HW220451   6.462   1.020   0.751
 6518SOL     OW20452   0.516   6.907   6.844
 6518SOL    HW120453   0.512   6.830   6.907
 6518SOL    HW220454   0.530   6.992   6.895
 6519SOL     OW20455   2.480   2.155   3.503
 6519SOL    HW120456   2.392   2.167   3.548
 6519SOL    HW220457   2.480   2.204   3.416
 6520SOL     OW20458   6.159   5.563   2.416
 6520SOL    HW120459   6.217   5.643   2.425
 6520SOL    HW220460   6.073   5.589   2.371
 6521SOL     OW20461   1.332   1.849   4.458
 6521SOL    HW120462   1.358   1.789   4.534
 6521SOL    HW220463   1.387   1.932   4.460
 6522SOL     OW20464   3.735   4.339   0.066
 6522SOL    HW120465   3.745   4.382   0.156
 6522SOL    HW220466   3.661   4.272   0.069
 6523SOL     OW20467   3.363   0.905   6.884
 6523SOL    HW120468   3.380   0.838   6.957
 6523SOL    HW220469   3.407   0.991   6.908
 6524SOL     OW20470   3.250   2.991   3.044
 6524SOL    HW120471   3.154   2.967   3.050
 6524SOL    HW220472   3.281   2.980   2.949
 6525SOL     OW20473   2.211   2.924   2.905
 6525SOL    HW120474   2.293   2.877   2.936
 6525SOL    HW220475   2.131   2.867   2.923
 6526SOL     OW20476   1.256   6.839   5.579
 6526SOL    HW120477   1.237   6.935   5.561
 6526SOL    HW220478   1.174   6.796   5.618
 6527SOL     OW20479   0.859   1.799   4.549
 6527SOL    HW120480   0.767   1.784   4.586
 6527SOL    HW220481   0.892   1.715   4.506
 6528SOL     OW20482   0.020   0.509   3.103
 6528SOL    HW120483   7.009   0.591   3.058
 6528SOL    HW220484   6.968   0.460   3.147
 6529SOL     OW20485   6.764   1.537   3.074
 6529SOL    HW120486   6.782   1.537   3.173
 6529SOL    HW220487   6.689   1.474   3.054
 6530SOL     OW20488   6.504   3.707   1.046
 6530SOL    HW120489   6.484   3.749   1.134
 6530SOL    HW220490   6.601   3.722   1.023
 6531SOL     OW20491   5.543   3.578   4.814
 6531SOL    HW120492   5.512   3.484   4.802
 6531SOL    HW220493   5.515   3.612   4.903
 6532SOL     OW20494   6.179   1.059   0.398
 6532SOL    HW120495   6.128   0.973   0.401
 6532SOL    HW220496   6.219   1.077   0.487
 6533SOL     OW20497   4.909   5.921   1.540
 6533SOL    HW120498   4.972   5.924   1.463
 6533SOL    HW220499   4.825   5.971   1.517
 6534SOL     OW20500   2.906   4.555   1.402
 6534SOL    HW120501   2.812   4.571   1.432
 6534SOL    HW220502   2.968   4.561   1.480
 6535SOL     OW20503   6.665   3.184   4.210
 6535SOL    HW120504   6.566   3.201   4.206
 6535SOL    HW220505   6.685   3.097   4.164
 6536SOL     OW20506   6.944   2.202   5.888
 6536SOL    HW120507   6.868   2.170   5.832
 6536SOL    HW220508   6.999   2.124   5.917
 6537SOL     OW20509   6.259   5.611   6.752
 6537SOL    HW120510   6.226   5.547   6.682
 6537SOL    HW220511   6.341   5.574   6.795
 6538SOL     OW20512   4.033   4.260   0.320
 6538SOL    HW120513   4.032   4.283   0.223
 6538SOL    HW220514   4.126   4.269   0.356
 6539SOL     OW20515   3.298   1.268   6.289
 6539SOL    HW120516   3.394   1.273   6.315
 6539SOL    HW220517   3.270   1.172   6.285
 6540SOL     OW20518   4.820   1.769   5.306
 6540SOL    HW120519   4.829   1.681   5.354
 6540SOL    HW220520   4.802   1.752   5.209
 6541SOL     OW20521   3.976   1.767   5.076
 6541SOL    HW120522   4.008   1.776   5.170
 6541SOL    HW220523   4.019   1.836   5.018
 6542SOL     OW20524   6.683   4.971   3.438
 6542SOL    HW120525   6.676   5.053   3.382
 6542SOL    HW220526   6.661   4.993   3.533
 6543SOL     OW20527   6.451   3.912   6.790
 6543SOL    HW120528   6.491   4.003   6.801
 6543SOL    HW220529   6.458   3.862   6.876
 6544SOL     OW20530   0.482   5.817   3.178
 6544SOL    HW120531   0.560   5.771   3.221
 6544SOL    HW220532   0.417   5.844   3.249
 6545SOL     OW20533   5.641   2.162   6.557
 6545SOL    HW120534   5.572   2.091   6.570
 6545SOL    HW220535   5.680   2.188   6.646
 6546SOL     OW20536   4.764   4.323   6.335
 6546SOL    HW120537   4.675   4.347   6.374
 6546SOL    HW220538   4.762   4.229   6.301
 6547SOL     OW20539   4.798   1.507   5.769
 6547SOL    HW120540   4.750   1.595   5.771
 6547SOL    HW220541   4.840   1.489   5.858
 6548SOL     OW20542   1.032   3.529   6.982
 6548SOL    HW120543   1.083   3.522   6.896
 6548SOL    HW220544   1.096   3.531   0.035
 6549SOL     OW20545   3.687   1.597   0.888
 6549SOL    HW120546   3.642   1.577   0.974
 6549SOL    HW220547   3.633   1.559   0.812
 6550SOL     OW20548   0.222   6.442   3.465
 6550SOL    HW120549   0.190   6.518   3.522
 6550SOL    HW220550   0.274   6.478   3.388
 6551SOL     OW20551   1.610   4.248   2.003
 6551SOL    HW120552   1.635   4.224   1.909
 6551SOL    HW220553   1.522   4.207   2.026
 6552SOL     OW20554   2.228   6.879   5.097
 6552SOL    HW120555   2.285   6.883   5.179
 6552SOL    HW220556   2.267   6.939   5.027
 6553SOL     OW20557   0.508   1.743   2.156
 6553SOL    HW120558   0.462   1.707   2.237
 6553SOL    HW220559   0.441   1.773   2.089
 6554SOL     OW20560   6.117   1.776   5.628
 6554SOL    HW120561   6.160   1.852   5.676
 6554SOL    HW220562   6.082   1.807   5.540
 6555SOL     OW20563   1.410   1.815   1.822
 6555SOL    HW120564   1.321   1.776   1.796
 6555SOL    HW220565   1.476   1.797   1.749
 6556SOL     OW20566   4.621   4.767   5.168
 6556SOL    HW120567   4.691   4.744   5.101
 6556SOL    HW220568   4.589   4.861   5.153
 6557SOL     OW20569   5.275   5.391   1.248
 6557SOL    HW120570   5.288   5.460   1.177
 6557SOL    HW220571   5.185   5.404   1.290
 6558SOL     OW20572   5.930   5.697   1.130
 6558SOL    HW120573   6.013   5.745   1.101
 6558SOL    HW220574   5.883   5.660   1.050
 6559SOL     OW20575   6.656   4.186   6.753
 6559SOL    HW120576   6.608   4.180   6.665
 6559SOL    HW220577   6.747   4.147   6.745
 6560SOL     OW20578   3.676   3.173   1.359
 6560SOL    HW120579   3.604   3.142   1.297
 6560SOL    HW220580   3.751   3.106   1.359
 6561SOL     OW20581   3.605   3.794   2.516
 6561SOL    HW120582   3.658   3.814   2.599
 6561SOL    HW220583   3.509   3.813   2.533
 6562SOL     OW20584   5.691   4.664   6.862
 6562SOL    HW120585   5.680   4.611   6.778
 6562SOL    HW220586   5.639   4.620   6.936
 6563SOL     OW20587   0.477   6.468   0.027
 6563SOL    HW120588   0.465   6.474   0.126
 6563SOL    HW220589   0.515   6.378   0.003
 6564SOL     OW20590   0.050   4.008   1.978
 6564SOL    HW120591   0.042   3.908   1.973
 6564SOL    HW220592   0.132   4.032   2.029
 6565SOL     OW20593   6.228   1.970   4.033
 6565SOL    HW120594   6.192   2.062   4.021
 6565SOL    HW220595   6.226   1.945   4.130
 6566SOL     OW20596   3.252   0.198   0.787
 6566SOL    HW120597   3.329   0.144   0.753
 6566SOL    HW220598   3.173   0.139   0.801
 6567SOL     OW20599   3.985   2.502   1.347
 6567SOL    HW120600   3.954   2.480   1.254
 6567SOL    HW220601   4.033   2.589   1.347
 6568SOL     OW20602   5.100   5.425   3.043
 6568SOL    HW120603   5.015   5.375   3.059
 6568SOL    HW220604   5.111   5.443   2.946
 6569SOL     OW20605   3.404   4.105   0.861
 6569SOL    HW120606   3.476   4.126   0.927
 6569SOL    HW220607   3.408   4.169   0.785
 6570SOL     OW20608   4.480   6.669   1.846
 6570SOL    HW120609   4.428   6.628   1.771
 6570SOL    HW220610   4.530   6.598   1.896
 6571SOL     OW20611   2.368   6.417   2.303
 6571SOL    HW120612   2.305   6.438   2.378
 6571SOL    HW220613   2.416   6.500   2.276
 6572SOL     OW20614   6.312   5.345   5.464
 6572SOL    HW120615   6.238   5.287   5.498
 6572SOL    HW220616   6.394   5.331   5.519
 6573SOL     OW20617   2.485   1.211   2.952
 6573SOL    HW120618   2.471   1.143   2.880
 6573SOL    HW220619   2.583   1.228   2.964
 6574SOL     OW20620   3.175   5.706   2.403
 6574SOL    HW120621   3.174   5.686   2.305
 6574SOL    HW220622   3.254   5.763   2.425
 6575SOL     OW20623   1.313   1.633   1.508
 6575SOL    HW120624   1.281   1.571   1.436
 6575SOL    HW220625   1.366   1.707   1.468
 6576SOL     OW20626   1.502   0.097   6.612
 6576SOL    HW120627   1.507   7.022   6.597
 6576SOL    HW220628   1.412   0.120   6.649
 6577SOL     OW20629   0.105   1.313   3.561
 6577SOL    HW120630   0.033   1.301   3.493
 6577SOL    HW220631   0.190   1.339   3.516
 6578SOL     OW20632   0.707   4.447   2.863
 6578SOL    HW120633   0.646   4.380   2.822
 6578SOL    HW220634   0.753   4.406   2.942
 6579SOL     OW20635   0.600   4.092   4.573
 6579SOL    HW120636   0.657   4.088   4.491
 6579SOL    HW220637   0.648   4.046   4.648
 6580SOL     OW20638   6.795   1.515   1.364
 6580SOL    HW120639   6.755   1.571   1.436
 6580SOL    HW220640   6.722   1.475   1.309
 6581SOL     OW20641   3.556   1.289   6.440
 6581SOL    HW120642   3.605   1.352   6.380
 6581SOL    HW220643   3.618   1.219   6.475
 6582SOL     OW20644   1.621   0.776   1.988
 6582SOL    HW120645   1.633   0.684   1.951
 6582SOL    HW220646   1.649   0.777   2.084
 6583SOL     OW20647   4.014   0.593   5.842
 6583SOL    HW120648   4.086   0.616   5.775
 6583SOL    HW220649   4.043   0.622   5.933
 6584SOL     OW20650   5.268   1.523   0.202
 6584SOL    HW120651   5.287   1.442   0.147
 6584SOL    HW220652   5.251   1.496   0.297
 6585SOL     OW20653   6.563   0.989   0.466
 6585SOL    HW120654   6.510   1.033   0.394
 6585SOL    HW220655   6.554   1.040   0.551
 6586SOL     OW20656   5.951   2.463   5.925
 6586SOL    HW120657   5.972   2.376   5.880
 6586SOL    HW220658   5.954   2.451   6.024
 6587SOL     OW20659   3.143   5.317   3.887
 6587SOL    HW120660   3.075   5.244   3.893
 6587SOL    HW220661   3.096   5.405   3.876
 6588SOL     OW20662   1.432   3.991   1.687
 6588SOL    HW120663   1.471   3.958   1.773
 6588SOL    HW220664   1.391   3.915   1.637
 6589SOL     OW20665   4.423   0.325   6.450
 6589SOL    HW120666   4.352   0.391   6.430
 6589SOL    HW220667   4.493   0.367   6.508
 6590SOL     OW20668   0.905   1.365   6.022
 6590SOL    HW120669   0.890   1.443   5.963
 6590SOL    HW220670   0.863   1.381   6.111
 6591SOL     OW20671   5.050   6.289   2.321
 6591SOL    HW120672   5.038   6.208   2.378
 6591SOL    HW220673   5.147   6.300   2.298
 6592SOL     OW20674   5.813   6.634   4.146
 6592SOL    HW120675   5.894   6.650   4.203
 6592SOL    HW220676   5.823   6.680   4.058
 6593SOL     OW20677   2.209   2.391   3.679
 6593SOL    HW120678   2.145   2.432   3.614
 6593SOL    HW220679   2.212   2.292   3.665
 6594SOL     OW20680   4.110   1.835   0.715
 6594SOL    HW120681   4.047   1.757   0.722
 6594SOL    HW220682   4.177   1.818   0.643
 6595SOL     OW20683   0.524   3.457   0.454
 6595SOL    HW120684   0.456   3.427   0.388
 6595SOL    HW220685   0.583   3.526   0.412
 6596SOL     OW20686   3.638   6.829   4.908
 6596SOL    HW120687   3.615   6.921   4.942
 6596SOL    HW220688   3.730   6.830   4.869
 6597SOL     OW20689   1.311   6.294   3.132
 6597SOL    HW120690   1.228   6.332   3.090
 6597SOL    HW220691   1.292   6.272   3.228
 6598SOL     OW20692   0.974   6.750   4.422
 6598SOL    HW120693   1.070   6.773   4.407
 6598SOL    HW220694   0.950   6.767   4.518
 6599SOL     OW20695   3.519   5.241   5.323
 6599SOL    HW120696   3.517   5.334   5.359
 6599SOL    HW220697   3.520   5.244   5.223
 6600SOL     OW20698   4.739   5.364   5.773
 6600SOL    HW120699   4.792   5.280   5.763
 6600SOL    HW220700   4.643   5.346   5.751
 6601SOL     OW20701   0.846   1.012   0.327
 6601SOL    HW120702   0.917   1.080   0.311
 6601SOL    HW220703   0.794   1.036   0.409
 6602SOL     OW20704   6.311   1.405   1.848
 6602SOL    HW120705   6.337   1.320   1.800
 6602SOL    HW220706   6.392   1.444   1.893
 6603SOL     OW20707   1.021   2.643   4.255
 6603SOL    HW120708   1.054   2.672   4.345
 6603SOL    HW220709   1.062   2.555   4.231
 6604SOL     OW20710   2.224   6.493   1.281
 6604SOL    HW120711   2.204   6.395   1.287
 6604SOL    HW220712   2.138   6.543   1.265
 6605SOL     OW20713   5.250   4.908   0.479
 6605SOL    HW120714   5.214   4.937   0.568
 6605SOL    HW220715   5.198   4.829   0.446
 6606SOL     OW20716   5.163   7.014   2.105
 6606SOL    HW120717   5.224   0.065   2.077
 6606SOL    HW220718   5.070   0.026   2.114
 6607SOL     OW20719   1.542   2.404   1.313
 6607SOL    HW120720   1.457   2.421   1.263
 6607SOL    HW220721   1.579   2.491   1.346
 6608SOL     OW20722   5.019   5.184   1.761
 6608SOL    HW120723   4.955   5.206   1.835
 6608SOL    HW220724   4.979   5.114   1.702
 6609SOL     OW20725   4.679   1.073   6.264
 6609SOL    HW120726   4.740   1.007   6.307
 6609SOL    HW220727   4.713   1.166   6.283
 6610SOL     OW20728   2.109   0.789   6.238
 6610SOL    HW120729   2.022   0.748   6.262
 6610SOL    HW220730   2.094   0.878   6.194
 6611SOL     OW20731   6.706   2.395   3.230
 6611SOL    HW120732   6.613   2.422   3.205
 6611SOL    HW220733   6.767   2.473   3.224
 6612SOL     OW20734   0.628   2.762   7.018
 6612SOL    HW120735   0.626   2.691   0.064
 6612SOL    HW220736   0.569   2.735   6.942
 6613SOL     OW20737   5.657   5.905   4.097
 6613SOL    HW120738   5.736   5.960   4.071
 6613SOL    HW220739   5.621   5.938   4.184
 6614SOL     OW20740   5.152   5.799   6.904
 6614SOL    HW120741   5.228   5.863   6.894
 6614SOL    HW220742   5.174   5.713   6.859
 6615SOL     OW20743   1.259   4.750   3.934
 6615SOL    HW120744   1.316   4.826   3.968
 6615SOL    HW220745   1.164   4.780   3.927
 6616SOL     OW20746   4.408   1.038   6.205
 6616SOL    HW120747   4.503   1.040   6.235
 6616SOL    HW220748   4.349   1.064   6.281
 6617SOL     OW20749   3.150   6.650   3.046
 6617SOL    HW120750   3.240   6.642   3.089
 6617SOL    HW220751   3.149   6.596   2.962
 6618SOL     OW20752   1.354   3.085   3.088
 6618SOL    HW120753   1.312   3.150   3.152
 6618SOL    HW220754   1.364   3.128   2.998
 6619SOL     OW20755   6.832   6.993   4.629
 6619SOL    HW120756   6.908   7.021   4.570
 6619SOL    HW220757   6.825   6.894   4.630
 6620SOL     OW20758   2.252   2.899   5.285
 6620SOL    HW120759   2.291   2.953   5.210
 6620SOL    HW220760   2.184   2.955   5.334
 6621SOL     OW20761   2.586   3.204   7.010
 6621SOL    HW120762   2.685   3.197   0.004
 6621SOL    HW220763   2.537   3.149   0.054
 6622SOL     OW20764   6.010   6.590   1.713
 6622SOL    HW120765   5.947   6.617   1.640
 6622SOL    HW220766   5.958   6.560   1.793
 6623SOL     OW20767   2.755   3.423   1.033
 6623SOL    HW120768   2.847   3.385   1.035
 6623SOL    HW220769   2.758   3.520   1.060
 6624SOL     OW20770   2.008   0.417   4.156
 6624SOL    HW120771   1.975   0.509   4.135
 6624SOL    HW220772   1.972   0.353   4.089
 6625SOL     OW20773   5.060   1.733   6.035
 6625SOL    HW120774   5.093   1.708   6.126
 6625SOL    HW220775   5.122   1.801   5.995
 6626SOL     OW20776   4.060   4.841   4.114
 6626SOL    HW120777   4.079   4.899   4.193
 6626SOL    HW220778   4.119   4.868   4.038
 6627SOL     OW20779   2.505   0.535   5.873
 6627SOL    HW120780   2.532   0.451   5.921
 6627SOL    HW220781   2.409   0.529   5.847
 6628SOL     OW20782   4.580   4.966   4.175
 6628SOL    HW120783   4.637   5.048   4.185
 6628SOL    HW220784   4.589   4.909   4.257
 6629SOL     OW20785   2.648   5.657   0.042
 6629SOL    HW120786   2.717   5.591   0.071
 6629SOL    HW220787   2.607   5.626   6.979
 6630SOL     OW20788   3.472   1.443   1.443
 6630SOL    HW120789   3.443   1.527   1.396
 6630SOL    HW220790   3.481   1.370   1.376
 6631SOL     OW20791   4.264   0.550   2.399
 6631SOL    HW120792   4.356   0.519   2.375
 6631SOL    HW220793   4.256   0.648   2.378
 6632SOL     OW20794   0.611   0.488   2.081
 6632SOL    HW120795   0.551   0.429   2.135
 6632SOL    HW220796   0.655   0.434   2.009
 6633SOL     OW20797   1.321   4.884   5.914
 6633SOL    HW120798   1.344   4.979   5.935
 6633SOL    HW220799   1.321   4.830   5.999
 6634SOL     OW20800   5.800   3.089   5.364
 6634SOL    HW120801   5.846   3.171   5.330
 6634SOL    HW220802   5.809   3.086   5.464
 6635SOL     OW20803   4.350   5.306   3.278
 6635SOL    HW120804   4.310   5.340   3.363
 6635SOL    HW220805   4.278   5.268   3.220
 6636SOL     OW20806   3.252   2.132   6.282
 6636SOL    HW120807   3.340   2.086   6.289
 6636SOL    HW220808   3.253   2.216   6.336
 6637SOL     OW20809   1.931   0.315   6.329
 6637SOL    HW120810   1.961   0.336   6.422
 6637SOL    HW220811   2.005   0.333   6.265
 6638SOL     OW20812   3.877   4.808   5.312
 6638SOL    HW120813   3.882   4.860   5.226
 6638SOL    HW220814   3.782   4.790   5.335
 6639SOL     OW20815   5.667   5.959   0.148
 6639SOL    HW120816   5.705   5.908   0.071
 6639SOL    HW220817   5.688   6.056   0.138
 6640SOL     OW20818   6.660   2.197   5.458
 6640SOL    HW120819   6.582   2.193   5.395
 6640SOL    HW220820   6.728   2.128   5.430
 6641SOL     OW20821   2.453   2.269   6.536
 6641SOL    HW120822   2.406   2.279   6.624
 6641SOL    HW220823   2.552   2.275   6.550
 6642SOL     OW20824   2.343   5.710   0.324
 6642SOL    HW120825   2.429   5.736   0.370
 6642SOL    HW220826   2.335   5.760   0.238
 6643SOL     OW20827   6.544   4.879   6.502
 6643SOL    HW120828   6.541   4.977   6.483
 6643SOL    HW220829   6.459   4.837   6.470
 6644SOL     OW20830   2.895   4.828   1.863
 6644SOL    HW120831   2.903   4.814   1.764
 6644SOL    HW220832   2.855   4.746   1.904
 6645SOL     OW20833   0.125   5.248   0.127
 6645SOL    HW120834   0.198   5.279   0.189
 6645SOL    HW220835   0.130   5.300   0.042
 6646SOL     OW20836   3.726   6.322   4.309
 6646SOL    HW120837   3.707   6.271   4.392
 6646SOL    HW220838   3.824   6.341   4.302
 6647SOL     OW20839   3.654   1.576   2.052
 6647SOL    HW120840   3.732   1.532   2.098
 6647SOL    HW220841   3.631   1.661   2.100
 6648SOL     OW20842   3.240   5.818   2.148
 6648SOL    HW120843   3.266   5.913   2.163
 6648SOL    HW220844   3.181   5.811   2.068
 6649SOL     OW20845   5.140   1.692   0.043
 6649SOL    HW120846   5.194   1.665   0.123
 6649SOL    HW220847   5.077   1.618   0.019
 6650SOL     OW20848   4.484   1.321   5.420
 6650SOL    HW120849   4.442   1.407   5.390
 6650SOL    HW220850   4.463   1.306   5.517
 6651SOL     OW20851   2.008   1.634   6.667
 6651SOL    HW120852   2.088   1.585   6.701
 6651SOL    HW220853   2.025   1.732   6.671
 6652SOL     OW20854   6.933   4.903   0.515
 6652SOL    HW120855   6.874   4.955   0.578
 6652SOL    HW220856   6.876   4.843   0.458
 6653SOL     OW20857   3.502   3.238   2.715
 6653SOL    HW120858   3.451   3.323   2.727
 6653SOL    HW220859   3.561   3.244   2.635
 6654SOL     OW20860   1.923   3.064   1.018
 6654SOL    HW120861   1.861   3.141   1.004
 6654SOL    HW220862   1.926   3.041   1.116
 6655SOL     OW20863   2.984   0.029   1.435
 6655SOL    HW120864   3.074   0.012   1.474
 6655SOL    HW220865   2.988   0.022   1.335
 6656SOL     OW20866   5.676   1.714   2.485
 6656SOL    HW120867   5.748   1.645   2.485
 6656SOL    HW220868   5.607   1.690   2.417
 6657SOL     OW20869   4.871   6.007   6.539
 6657SOL    HW120870   4.905   5.913   6.543
 6657SOL    HW220871   4.788   6.010   6.483
 6658SOL     OW20872   6.121   1.615   4.664
 6658SOL    HW120873   6.147   1.694   4.608
 6658SOL    HW220874   6.079   1.546   4.605
 6659SOL     OW20875   2.458   2.189   0.607
 6659SOL    HW120876   2.417   2.168   0.519
 6659SOL    HW220877   2.443   2.286   0.629
 6660SOL     OW20878   0.069   6.236   0.933
 6660SOL    HW120879   0.160   6.261   0.964
 6660SOL    HW220880   0.076   6.165   0.863
 6661SOL     OW20881   0.291   6.036   3.784
 6661SOL    HW120882   0.254   5.971   3.718
 6661SOL    HW220883   0.254   6.017   3.875
 6662SOL     OW20884   1.225   0.579   6.764
 6662SOL    HW120885   1.222   0.677   6.780
 6662SOL    HW220886   1.139   0.548   6.725
 6663SOL     OW20887   7.023   5.544   2.815
 6663SOL    HW120888   6.930   5.579   2.803
 6663SOL    HW220889   7.019   5.451   2.853
 6664SOL     OW20890   1.791   6.680   0.730
 6664SOL    HW120891   1.833   6.759   0.775
 6664SOL    HW220892   1.697   6.669   0.762
 6665SOL     OW20893   2.245   0.503   2.984
 6665SOL    HW120894   2.327   0.455   2.953
 6665SOL    HW220895   2.196   0.540   2.906
 6666SOL     OW20896   5.471   1.272   6.217
 6666SOL    HW120897   5.398   1.339   6.202
 6666SOL    HW220898   5.437   1.196   6.272
 6667SOL     OW20899   0.140   5.396   5.359
 6667SOL    HW120900   0.090   5.386   5.446
 6667SOL    HW220901   0.076   5.424   5.287
 6668SOL     OW20902   6.252   6.086   1.806
 6668SOL    HW120903   6.316   6.076   1.730
 6668SOL    HW220904   6.285   6.034   1.885
 6669SOL     OW20905   2.103   3.138   4.195
 6669SOL    HW120906   2.019   3.118   4.246
 6669SOL    HW220907   2.148   3.218   4.235
 6670SOL     OW20908   3.572   2.982   5.905
 6670SOL    HW120909   3.492   3.024   5.947
 6670SOL    HW220910   3.572   3.002   5.807
 6671SOL     OW20911   5.111   5.687   1.193
 6671SOL    HW120912   5.147   5.654   1.106
 6671SOL    HW220913   5.011   5.680   1.193
 6672SOL     OW20914   0.959   1.896   4.908
 6672SOL    HW120915   0.921   1.955   4.980
 6672SOL    HW220916   1.048   1.861   4.939
 6673SOL     OW20917   4.851   6.126   3.066
 6673SOL    HW120918   4.805   6.190   3.003
 6673SOL    HW220919   4.947   6.152   3.074
 6674SOL     OW20920   0.973   5.136   6.584
 6674SOL    HW120921   0.991   5.177   6.495
 6674SOL    HW220922   1.005   5.198   6.656
 6675SOL     OW20923   4.357   4.005   1.710
 6675SOL    HW120924   4.324   4.029   1.619
 6675SOL    HW220925   4.401   4.085   1.751
 6676SOL     OW20926   0.303   4.320   5.331
 6676SOL    HW120927   0.241   4.394   5.356
 6676SOL    HW220928   0.352   4.345   5.247
 6677SOL     OW20929   0.452   2.504   6.934
 6677SOL    HW120930   0.370   2.520   6.879
 6677SOL    HW220931   0.474   2.406   6.931
 6678SOL     OW20932   2.060   2.161   0.256
 6678SOL    HW120933   1.997   2.108   0.198
 6678SOL    HW220934   2.051   2.130   0.351
 6679SOL     OW20935   2.732   1.612   4.326
 6679SOL    HW120936   2.660   1.568   4.379
 6679SOL    HW220937   2.787   1.670   4.385
 6680SOL     OW20938   4.108   6.731   6.414
 6680SOL    HW120939   4.159   6.814   6.391
 6680SOL    HW220940   4.066   6.693   6.332
 6681SOL     OW20941   4.698   5.046   0.237
 6681SOL    HW120942   4.794   5.065   0.254
 6681SOL    HW220943   4.682   5.039   0.138
 6682SOL     OW20944   1.126   3.880   2.238
 6682SOL    HW120945   1.068   3.866   2.158
 6682SOL    HW220946   1.138   3.794   2.287
 6683SOL     OW20947   4.925   2.538   5.726
 6683SOL    HW120948   4.959   2.519   5.634
 6683SOL    HW220949   4.960   2.470   5.789
 6684SOL     OW20950   2.018   6.934   0.535
 6684SOL    HW120951   2.048   6.866   0.602
 6684SOL    HW220952   2.074   7.016   0.543
 6685SOL     OW20953   5.427   2.952   5.112
 6685SOL    HW120954   5.382   2.968   5.200
 6685SOL    HW220955   5.525   2.970   5.121
 6686SOL     OW20956   5.025   5.781   3.768
 6686SOL    HW120957   5.007   5.690   3.729
 6686SOL    HW220958   5.123   5.800   3.762
 6687SOL     OW20959   0.200   2.006   1.158
 6687SOL    HW120960   0.235   1.987   1.066
 6687SOL    HW220961   0.235   1.937   1.221
 6688SOL     OW20962   7.018   4.142   1.754
 6688SOL    HW120963   6.924   4.129   1.723
 6688SOL    HW220964   0.006   4.101   1.845
 6689SOL     OW20965   4.297   3.146   0.485
 6689SOL    HW120966   4.298   3.062   0.539
 6689SOL    HW220967   4.248   3.218   0.535
 6690SOL     OW20968   2.376   0.953   2.054
 6690SOL    HW120969   2.461   0.925   2.100
 6690SOL    HW220970   2.398   0.984   1.962
 6691SOL     OW20971   3.036   5.761   1.980
 6691SOL    HW120972   2.957   5.810   2.017
 6691SOL    HW220973   3.016   5.664   1.973
 6692SOL     OW20974   2.752   4.779   5.229
 6692SOL    HW120975   2.802   4.698   5.199
 6692SOL    HW220976   2.658   4.753   5.252
 6693SOL     OW20977   4.801   3.812   5.984
 6693SOL    HW120978   4.806   3.778   5.890
 6693SOL    HW220979   4.737   3.889   5.989
 6694SOL     OW20980   4.738   6.197   0.031
 6694SOL    HW120981   4.686   6.227   0.111
 6694SOL    HW220982   4.695   6.233   6.972
 6695SOL     OW20983   2.008   1.869   5.766
 6695SOL    HW120984   1.971   1.779   5.788
 6695SOL    HW220985   2.107   1.869   5.783
 6696SOL     OW20986   1.899   1.996   0.093
 6696SOL    HW120987   1.867   2.076   0.043
 6696SOL    HW220988   1.967   1.947   0.037
 6697SOL     OW20989   4.580   2.531   3.471
 6697SOL    HW120990   4.496   2.533   3.525
 6697SOL    HW220991   4.601   2.436   3.447
 6698SOL     OW20992   3.427   3.201   0.587
 6698SOL    HW120993   3.336   3.164   0.571
 6698SOL    HW220994   3.486   3.129   0.625
 6699SOL     OW20995   3.265   4.937   0.238
 6699SOL    HW120996   3.274   4.858   0.178
 6699SOL    HW220997   3.175   4.979   0.224
 6700SOL     OW20998   0.000   6.216   1.228
 6700SOL    HW120999   6.975   6.252   1.149
 6700SOL    HW221000   7.007   6.118   1.238
 6701SOL     OW21001   5.627   3.118   1.418
 6701SOL    HW121002   5.609   3.127   1.515
 6701SOL    HW221003   5.541   3.114   1.368
 6702SOL     OW21004   2.538   2.579   0.316
 6702SOL    HW121005   2.608   2.511   0.341
 6702SOL    HW221006   2.570   2.670   0.339
 6703SOL     OW21007   6.559   1.982   0.025
 6703SOL    HW121008   6.615   1.906   0.058
 6703SOL    HW221009   6.497   1.948   6.978
 6704SOL     OW21010   4.234   2.316   2.901
 6704SOL    HW121011   4.298   2.366   2.960
 6704SOL    HW221012   4.216   2.226   2.941
 6705SOL     OW21013   0.181   2.000   1.843
 6705SOL    HW121014   0.148   2.036   1.930
 6705SOL    HW221015   0.225   2.074   1.792
 6706SOL     OW21016   0.951   3.866   0.470
 6706SOL    HW121017   0.980   3.928   0.543
 6706SOL    HW221018   0.915   3.782   0.510
 6707SOL     OW21019   0.046   5.227   4.559
 6707SOL    HW121020   7.016   5.155   4.603
 6707SOL    HW221021   0.075   5.197   4.468
 6708SOL     OW21022   1.586   5.073   2.706
 6708SOL    HW121023   1.649   5.098   2.780
 6708SOL    HW221024   1.638   5.052   2.624
 6709SOL     OW21025   2.925   5.492   1.885
 6709SOL    HW121026   2.867   5.465   1.961
 6709SOL    HW221027   2.985   5.416   1.860
 6710SOL     OW21028   2.751   1.824   6.121
 6710SOL    HW121029   2.831   1.776   6.083
 6710SOL    HW221030   2.771   1.921   6.129
 6711SOL     OW21031   5.750   4.908   6.516
 6711SOL    HW121032   5.752   4.992   6.570
 6711SOL    HW221033   5.681   4.917   6.444
 6712SOL     OW21034   4.347   5.321   0.037
 6712SOL    HW121035   4.287   5.258   0.086
 6712SOL    HW221036   4.344   5.411   0.080
 6713SOL     OW21037   2.235   1.958   1.037
 6713SOL    HW121038   2.181   2.042   1.030
 6713SOL    HW221039   2.236   1.912   0.948
 6714SOL     OW21040   5.233   0.530   6.000
 6714SOL    HW121041   5.199   0.583   5.922
 6714SOL    HW221042   5.171   0.542   6.077
 6715SOL     OW21043   0.233   0.722   0.154
 6715SOL    HW121044   0.255   0.675   0.240
 6715SOL    HW221045   0.146   0.688   0.120
 6716SOL     OW21046   0.896   6.219   2.052
 6716SOL    HW121047   0.849   6.224   2.140
 6716SOL    HW221048   0.848   6.154   1.993
 6717SOL     OW21049   4.401   2.721   0.773
 6717SOL    HW121050   4.367   2.643   0.825
 6717SOL    HW221051   4.456   2.689   0.697
 6718SOL     OW21052   4.112   6.363   6.325
 6718SOL    HW121053   4.155   6.416   6.253
 6718SOL    HW221054   4.042   6.303   6.286
 6719SOL     OW21055   0.052   0.175   6.058
 6719SOL    HW121056   0.071   0.090   6.105
 6719SOL    HW221057   0.070   0.252   6.119
 6720SOL     OW21058   1.669   6.284   2.242
 6720SOL    HW121059   1.582   6.275   2.291
 6720SOL    HW221060   1.744   6.283   2.308
 6721SOL     OW21061   6.239   6.587   4.613
 6721SOL    HW121062   6.186   6.667   4.584
 6721SOL    HW221063   6.182   6.530   4.672
 6722SOL     OW21064   4.998   3.275   0.621
 6722SOL    HW121065   4.968   3.342   0.552
 6722SOL    HW221066   4.990   3.315   0.712
 6723SOL     OW21067   2.383   0.062   3.003
 6723SOL    HW121068   2.336   7.020   3.062
 6723SOL    HW221069   2.416   0.139   3.057
 6724SOL     OW21070   1.379   3.685   5.885
 6724SOL    HW121071   1.292   3.733   5.894
 6724SOL    HW221072   1.422   3.709   5.798
 6725SOL     OW21073   0.710   4.109   1.836
 6725SOL    HW121074   0.742   4.170   1.763
 6725SOL    HW221075   0.783   4.097   1.904
 6726SOL     OW21076   0.768   1.996   4.102
 6726SOL    HW121077   0.685   1.961   4.058
 6726SOL    HW221078   0.744   2.042   4.187
 6727SOL     OW21079   6.105   3.957   5.636
 6727SOL    HW121080   6.069   3.901   5.711
 6727SOL    HW221081   6.138   3.897   5.563
 6728SOL     OW21082   4.669   1.377   4.395
 6728SOL    HW121083   4.663   1.288   4.441
 6728SOL    HW221084   4.743   1.431   4.437
 6729SOL     OW21085   6.362   1.558   2.354
 6729SOL    HW121086   6.353   1.638   2.294
 6729SOL    HW221087   6.272   1.532   2.389
 6730SOL     OW21088   1.999   6.418   6.674
 6730SOL    HW121089   2.009   6.366   6.589
 6730SOL    HW221090   1.953   6.505   6.655
 6731SOL     OW21091   2.570   4.396   1.036
 6731SOL    HW121092   2.546   4.487   1.070
 6731SOL    HW221093   2.662   4.373   1.066
 6732SOL     OW21094   3.574   5.746   6.636
 6732SOL    HW121095   3.534   5.669   6.685
 6732SOL    HW221096   3.550   5.832   6.682
 6733SOL     OW21097   4.049   5.382   6.680
 6733SOL    HW121098   4.133   5.338   6.649
 6733SOL    HW221099   4.067   5.478   6.701
 6734SOL     OW21100   0.752   3.322   5.817
 6734SOL    HW121101   0.655   3.313   5.837
 6734SOL    HW221102   0.780   3.250   5.752
 6735SOL     OW21103   0.481   5.360   5.117
 6735SOL    HW121104   0.549   5.433   5.105
 6735SOL    HW221105   0.427   5.350   5.033
 6736SOL     OW21106   1.880   3.309   0.356
 6736SOL    HW121107   1.902   3.239   0.288
 6736SOL    HW221108   1.815   3.271   0.423
 6737SOL     OW21109   1.782   2.306   1.204
 6737SOL    HW121110   1.755   2.240   1.134
 6737SOL    HW221111   1.702   2.329   1.260
 6738SOL     OW21112   1.827   2.731   1.943
 6738SOL    HW121113   1.812   2.639   1.905
 6738SOL    HW221114   1.808   2.799   1.873
 6739SOL     OW21115   3.012   5.167   5.991
 6739SOL    HW121116   3.034   5.263   6.005
 6739SOL    HW221117   2.985   5.152   5.896
 6740SOL     OW21118   1.961   1.578   4.688
 6740SOL    HW121119   1.866   1.591   4.658
 6740SOL    HW221120   1.970   1.491   4.736
 6741SOL     OW21121   4.817   1.625   6.209
 6741SOL    HW121122   4.813   1.699   6.142
 6741SOL    HW221123   4.740   1.634   6.273
 6742SOL     OW21124   0.271   5.478   3.324
 6742SOL    HW121125   0.360   5.487   3.278
 6742SOL    HW221126   0.221   5.564   3.318
 6743SOL     OW21127   4.135   4.250   6.797
 6743SOL    HW121128   4.092   4.331   6.756
 6743SOL    HW221129   4.209   4.280   6.858
 6744SOL     OW21130   4.403   5.743   6.257
 6744SOL    HW121131   4.429   5.756   6.162
 6744SOL    HW221132   4.305   5.761   6.268
 6745SOL     OW21133   1.009   5.328   2.653
 6745SOL    HW121134   1.083   5.288   2.706
 6745SOL    HW221135   0.927   5.338   2.710
 6746SOL     OW21136   0.224   0.664   2.846
 6746SOL    HW121137   0.153   0.627   2.785
 6746SOL    HW221138   0.296   0.707   2.791
 6747SOL     OW21139   5.461   5.951   4.553
 6747SOL    HW121140   5.504   5.956   4.643
 6747SOL    HW221141   5.411   5.865   4.544
 6748SOL     OW21142   1.083   0.510   2.552
 6748SOL    HW121143   1.131   0.514   2.639
 6748SOL    HW221144   1.090   0.599   2.505
 6749SOL     OW21145   2.988   6.719   7.005
 6749SOL    HW121146   2.931   6.800   6.996
 6749SOL    HW221147   3.054   6.732   0.056
 6750SOL     OW21148   3.675   1.808   4.737
 6750SOL    HW121149   3.722   1.735   4.784
 6750SOL    HW221150   3.609   1.769   4.672
 6751SOL     OW21151   3.398   2.079   3.884
 6751SOL    HW121152   3.459   2.125   3.948
 6751SOL    HW221153   3.342   2.012   3.934
 6752SOL     OW21154   6.107   3.161   1.815
 6752SOL    HW121155   6.043   3.192   1.886
 6752SOL    HW221156   6.163   3.238   1.784
 6753SOL     OW21157   4.312   1.839   6.612
 6753SOL    HW121158   4.262   1.810   6.694
 6753SOL    HW221159   4.369   1.918   6.635
 6754SOL     OW21160   6.760   1.881   5.733
 6754SOL    HW121161   6.854   1.849   5.745
 6754SOL    HW221162   6.709   1.865   5.818
 6755SOL     OW21163   4.910   1.628   3.731
 6755SOL    HW121164   4.933   1.631   3.633
 6755SOL    HW221165   4.844   1.554   3.746
 6756SOL     OW21166   4.727   4.151   4.234
 6756SOL    HW121167   4.634   4.116   4.220
 6756SOL    HW221168   4.789   4.075   4.253
 6757SOL     OW21169   4.791   6.126   0.585
 6757SOL    HW121170   4.703   6.165   0.610
 6757SOL    HW221171   4.859   6.148   0.655
 6758SOL     OW21172   5.154   3.465   1.898
 6758SOL    HW121173   5.199   3.548   1.930
 6758SOL    HW221174   5.093   3.488   1.821
 6759SOL     OW21175   1.044   4.113   3.941
 6759SOL    HW121176   0.988   4.133   4.022
 6759SOL    HW221177   1.078   4.199   3.902
 6760SOL     OW21178   6.808   4.705   4.629
 6760SOL    HW121179   6.749   4.654   4.566
 6760SOL    HW221180   6.755   4.732   4.710
 6761SOL     OW21181   5.472   2.231   5.900
 6761SOL    HW121182   5.373   2.215   5.907
 6761SOL    HW221183   5.519   2.183   5.974
 6762SOL     OW21184   6.829   5.577   3.095
 6762SOL    HW121185   6.769   5.500   3.073
 6762SOL    HW221186   6.923   5.544   3.105
 6763SOL     OW21187   6.602   5.899   4.223
 6763SOL    HW121188   6.646   5.988   4.219
 6763SOL    HW221189   6.510   5.909   4.261
 6764SOL     OW21190   3.058   3.894   6.425
 6764SOL    HW121191   2.969   3.852   6.410
 6764SOL    HW221192   3.060   3.985   6.384
 6765SOL     OW21193   6.377   4.735   3.704
 6765SOL    HW121194   6.308   4.674   3.663
 6765SOL    HW221195   6.356   4.830   3.679
 6766SOL     OW21196   2.835   0.059   5.974
 6766SOL    HW121197   2.809   0.106   5.890
 6766SOL    HW221198   2.753   0.024   6.019
 6767SOL     OW21199   0.367   2.525   0.561
 6767SOL    HW121200   0.290   2.487   0.509
 6767SOL    HW221201   0.341   2.532   0.658
 6768SOL     OW21202   0.634   0.767   3.160
 6768SOL    HW121203   0.602   0.806   3.073
 6768SOL    HW221204   0.721   0.721   3.146
 6769SOL     OW21205   3.240   1.989   5.406
 6769SOL    HW121206   3.196   1.917   5.461
 6769SOL    HW221207   3.171   2.033   5.349
 6770SOL     OW21208   0.384   2.773   4.208
 6770SOL    HW121209   0.436   2.762   4.292
 6770SOL    HW221210   0.385   2.869   4.180
 6771SOL     OW21211   3.867   2.151   3.238
 6771SOL    HW121212   3.852   2.151   3.139
 6771SOL    HW221213   3.782   2.178   3.284
 6772SOL     OW21214   5.184   1.888   2.585
 6772SOL    HW121215   5.158   1.960   2.649
 6772SOL    HW221216   5.115   1.816   2.586
 6773SOL     OW21217   6.962   6.520   1.680
 6773SOL    HW121218   6.934   6.427   1.702
 6773SOL    HW221219   6.896   6.585   1.716
 6774SOL     OW21220   1.839   1.706   5.502
 6774SOL    HW121221   1.925   1.704   5.452
 6774SOL    HW221222   1.840   1.637   5.574
 6775SOL     OW21223   1.376   1.596   3.810
 6775SOL    HW121224   1.389   1.647   3.725
 6775SOL    HW221225   1.306   1.526   3.796
 6776SOL     OW21226   3.600   4.148   1.084
 6776SOL    HW121227   3.557   4.080   1.143
 6776SOL    HW221228   3.631   4.225   1.140
 6777SOL     OW21229   4.269   5.618   1.385
 6777SOL    HW121230   4.262   5.678   1.305
 6777SOL    HW221231   4.332   5.543   1.366
 6778SOL     OW21232   5.461   3.444   2.429
 6778SOL    HW121233   5.411   3.497   2.497
 6778SOL    HW221234   5.418   3.354   2.419
 6779SOL     OW21235   6.077   4.349   5.891
 6779SOL    HW121236   6.044   4.390   5.976
 6779SOL    HW221237   6.061   4.250   5.893
 6780SOL     OW21238   2.258   2.827   3.204
 6780SOL    HW121239   2.240   2.911   3.255
 6780SOL    HW221240   2.293   2.757   3.266
 6781SOL     OW21241   6.362   1.075   3.955
 6781SOL    HW121242   6.428   1.048   4.025
 6781SOL    HW221243   6.270   1.075   3.994
 6782SOL     OW21244   7.001   1.232   3.309
 6782SOL    HW121245   6.979   1.135   3.324
 6782SOL    HW221246   0.018   1.243   3.219
 6783SOL     OW21247   1.382   4.533   5.450
 6783SOL    HW121248   1.467   4.482   5.437
 6783SOL    HW221249   1.308   4.470   5.472
 6784SOL     OW21250   2.413   3.334   1.654
 6784SOL    HW121251   2.425   3.247   1.702
 6784SOL    HW221252   2.383   3.404   1.719
 6785SOL     OW21253   5.328   4.707   5.098
 6785SOL    HW121254   5.397   4.712   5.026
 6785SOL    HW221255   5.314   4.611   5.124
 6786SOL     OW21256   5.996   3.050   0.804
 6786SOL    HW121257   5.997   3.021   0.708
 6786SOL    HW221258   6.090   3.060   0.837
 6787SOL     OW21259   3.419   2.116   0.742
 6787SOL    HW121260   3.489   2.152   0.681
 6787SOL    HW221261   3.337   2.093   0.688
 6788SOL     OW21262   0.785   3.712   3.171
 6788SOL    HW121263   0.788   3.684   3.267
 6788SOL    HW221264   0.838   3.796   3.159
 6789SOL     OW21265   6.505   3.888   3.926
 6789SOL    HW121266   6.539   3.905   3.834
 6789SOL    HW221267   6.407   3.905   3.929
 6790SOL     OW21268   0.870   5.014   6.180
 6790SOL    HW121269   0.791   4.973   6.226
 6790SOL    HW221270   0.945   4.948   6.176
 6791SOL     OW21271   4.166   1.477   4.269
 6791SOL    HW121272   4.142   1.574   4.268
 6791SOL    HW221273   4.148   1.438   4.178
 6792SOL     OW21274   4.300   0.300   5.058
 6792SOL    HW121275   4.220   0.288   5.117
 6792SOL    HW221276   4.317   0.215   5.008
 6793SOL     OW21277   2.730   2.824   6.708
 6793SOL    HW121278   2.648   2.811   6.763
 6793SOL    HW221279   2.761   2.736   6.671
 6794SOL     OW21280   4.711   1.220   5.841
 6794SOL    HW121281   4.753   1.310   5.853
 6794SOL    HW221282   4.638   1.209   5.909
 6795SOL     OW21283   1.295   0.966   1.071
 6795SOL    HW121284   1.371   0.923   1.023
 6795SOL    HW221285   1.273   1.053   1.027
 6796SOL     OW21286   6.165   0.878   2.233
 6796SOL    HW121287   6.196   0.870   2.328
 6796SOL    HW221288   6.244   0.882   2.172
 6797SOL     OW21289   0.052   2.451   1.761
 6797SOL    HW121290   7.022   2.383   1.711
 6797SOL    HW221291   0.072   2.529   1.701
 6798SOL     OW21292   5.309   0.628   1.931
 6798SOL    HW121293   5.315   0.706   1.869
 6798SOL    HW221294   5.369   0.642   2.009
 6799SOL     OW21295   5.592   0.228   3.550
 6799SOL    HW121296   5.669   0.291   3.555
 6799SOL    HW221297   5.614   0.152   3.489
 6800SOL     OW21298   1.101   0.788   1.251
 6800SOL    HW121299   1.173   0.801   1.182
 6800SOL    HW221300   1.054   0.874   1.266
 6801SOL     OW21301   1.453   6.600   4.967
 6801SOL    HW121302   1.372   6.564   4.922
 6801SOL    HW221303   1.449   6.580   5.065
 6802SOL     OW21304   3.016   5.714   1.564
 6802SOL    HW121305   3.082   5.646   1.595
 6802SOL    HW221306   2.950   5.733   1.637
 6803SOL     OW21307   5.124   4.699   0.384
 6803SOL    HW121308   5.184   4.637   0.334
 6803SOL    HW221309   5.033   4.697   0.343
 6804SOL     OW21310   2.532   4.690   2.929
 6804SOL    HW121311   2.467   4.710   2.856
 6804SOL    HW221312   2.535   4.591   2.945
 6805SOL     OW21313   0.236   5.040   5.747
 6805SOL    HW121314   0.330   5.033   5.780
 6805SOL    HW221315   0.176   5.064   5.824
 6806SOL     OW21316   6.764   0.651   3.567
 6806SOL    HW121317   6.812   0.721   3.621
 6806SOL    HW221318   6.689   0.694   3.516
 6807SOL     OW21319   3.224   4.031   3.339
 6807SOL    HW121320   3.167   3.972   3.280
 6807SOL    HW221321   3.176   4.048   3.425
 6808SOL     OW21322   4.661   1.201   4.954
 6808SOL    HW121323   4.581   1.214   5.013
 6808SOL    HW221324   4.665   1.275   4.887
 6809SOL     OW21325   5.572   4.560   2.155
 6809SOL    HW121326   5.517   4.608   2.223
 6809SOL    HW221327   5.514   4.533   2.079
 6810SOL     OW21328   2.757   1.308   3.425
 6810SOL    HW121329   2.739   1.238   3.356
 6810SOL    HW221330   2.757   1.399   3.382
 6811SOL     OW21331   5.996   1.738   2.453
 6811SOL    HW121332   5.985   1.756   2.550
 6811SOL    HW221333   6.011   1.824   2.404
 6812SOL     OW21334   3.217   3.694   5.276
 6812SOL    HW121335   3.244   3.660   5.186
 6812SOL    HW221336   3.119   3.676   5.290
 6813SOL     OW21337   5.128   3.293   1.484
 6813SOL    HW121338   5.178   3.368   1.439
 6813SOL    HW221339   5.186   3.251   1.553
 6814SOL     OW21340   4.040   1.574   6.390
 6814SOL    HW121341   4.031   1.500   6.323
 6814SOL    HW221342   3.955   1.583   6.442
 6815SOL     OW21343   1.986   5.394   6.666
 6815SOL    HW121344   1.908   5.422   6.610
 6815SOL    HW221345   2.035   5.320   6.620
 6816SOL     OW21346   0.368   2.272   4.261
 6816SOL    HW121347   0.388   2.368   4.242
 6816SOL    HW221348   0.270   2.259   4.271
 6817SOL     OW21349   2.921   2.285   2.771
 6817SOL    HW121350   3.011   2.310   2.806
 6817SOL    HW221351   2.850   2.325   2.829
 6818SOL     OW21352   2.150   6.331   5.924
 6818SOL    HW121353   2.122   6.416   5.879
 6818SOL    HW221354   2.088   6.257   5.898
 6819SOL     OW21355   4.868   4.963   3.053
 6819SOL    HW121356   4.785   4.952   2.998
 6819SOL    HW221357   4.941   4.908   3.015
 6820SOL     OW21358   1.816   6.338   1.730
 6820SOL    HW121359   1.895   6.348   1.670
 6820SOL    HW221360   1.826   6.400   1.808
 6821SOL     OW21361   4.165   2.712   5.366
 6821SOL    HW121362   4.097   2.733   5.437
 6821SOL    HW221363   4.133   2.635   5.312
 6822SOL     OW21364   6.919   2.800   6.286
 6822SOL    HW121365   6.939   2.710   6.248
 6822SOL    HW221366   6.986   2.823   6.356
 6823SOL     OW21367   5.523   3.400   6.994
 6823SOL    HW121368   5.611   3.353   6.986
 6823SOL    HW221369   5.528   3.489   6.948
 6824SOL     OW21370   1.475   1.796   6.847
 6824SOL    HW121371   1.498   1.804   6.944
 6824SOL    HW221372   1.547   1.746   6.799
 6825SOL     OW21373   6.983   5.932   1.334
 6825SOL    HW121374   6.989   5.833   1.318
 6825SOL    HW221375   0.036   5.962   1.391
 6826SOL     OW21376   1.104   3.446   3.170
 6826SOL    HW121377   1.203   3.454   3.157
 6826SOL    HW221378   1.057   3.482   3.090
 6827SOL     OW21379   4.228   5.805   4.967
 6827SOL    HW121380   4.153   5.797   4.902
 6827SOL    HW221381   4.314   5.783   4.921
 6828SOL     OW21382   3.674   1.492   3.133
 6828SOL    HW121383   3.655   1.424   3.204
 6828SOL    HW221384   3.772   1.509   3.127
 6829SOL     OW21385   4.869   6.697   4.958
 6829SOL    HW121386   4.960   6.694   4.915
 6829SOL    HW221387   4.877   6.734   5.050
 6830SOL     OW21388   5.692   0.742   3.073
 6830SOL    HW121389   5.644   0.808   3.130
 6830SOL    HW221390   5.672   0.759   2.977
 6831SOL     OW21391   1.339   1.312   5.591
 6831SOL    HW121392   1.286   1.394   5.612
 6831SOL    HW221393   1.321   1.242   5.660
 6832SOL     OW21394   3.159   2.183   0.694
 6832SOL    HW121395   3.111   2.263   0.657
 6832SOL    HW221396   3.186   2.201   0.789
 6833SOL     OW21397   3.020   5.115   6.332
 6833SOL    HW121398   2.935   5.127   6.281
 6833SOL    HW221399   3.079   5.051   6.284
 6834SOL     OW21400   4.805   0.274   0.649
 6834SOL    HW121401   4.888   0.239   0.606
 6834SOL    HW221402   4.728   0.216   0.625
 6835SOL     OW21403   3.369   2.055   4.271
 6835SOL    HW121404   3.406   2.146   4.288
 6835SOL    HW221405   3.372   2.002   4.356
 6836SOL     OW21406   1.787   4.776   6.527
 6836SOL    HW121407   1.776   4.701   6.462
 6836SOL    HW221408   1.885   4.797   6.536
 6837SOL     OW21409   1.229   0.501   2.142
 6837SOL    HW121410   1.218   0.421   2.084
 6837SOL    HW221411   1.238   0.472   2.237
 6838SOL     OW21412   2.587   4.504   5.218
 6838SOL    HW121413   2.559   4.499   5.122
 6838SOL    HW221414   2.686   4.491   5.225
 6839SOL     OW21415   5.370   2.082   3.830
 6839SOL    HW121416   5.416   2.008   3.878
 6839SOL    HW221417   5.361   2.161   3.892
 6840SOL     OW21418   2.602   6.516   4.652
 6840SOL    HW121419   2.544   6.449   4.699
 6840SOL    HW221420   2.604   6.496   4.554
 6841SOL     OW21421   3.877   5.802   2.032
 6841SOL    HW121422   3.901   5.735   1.962
 6841SOL    HW221423   3.778   5.818   2.031
 6842SOL     OW21424   0.159   3.123   6.841
 6842SOL    HW121425   0.147   3.082   6.931
 6842SOL    HW221426   0.238   3.185   6.843
 6843SOL     OW21427   4.539   2.215   1.955
 6843SOL    HW121428   4.629   2.208   1.997
 6843SOL    HW221429   4.482   2.277   2.008
 6844SOL     OW21430   4.393   5.255   4.580
 6844SOL    HW121431   4.421   5.174   4.530
 6844SOL    HW221432   4.420   5.337   4.529
 6845SOL     OW21433   4.363   4.582   2.781
 6845SOL    HW121434   4.402   4.617   2.695
 6845SOL    HW221435   4.264   4.598   2.781
 6846SOL     OW21436   3.377   3.070   2.097
 6846SOL    HW121437   3.378   3.160   2.054
 6846SOL    HW221438   3.344   3.078   2.191
 6847SOL     OW21439   5.005   3.673   1.683
 6847SOL    HW121440   5.090   3.662   1.631
 6847SOL    HW221441   4.940   3.601   1.656
 6848SOL     OW21442   0.767   5.134   4.679
 6848SOL    HW121443   0.846   5.105   4.733
 6848SOL    HW221444   0.780   5.229   4.650
 6849SOL     OW21445   3.567   5.616   3.800
 6849SOL    HW121446   3.528   5.648   3.714
 6849SOL    HW221447   3.496   5.568   3.852
 6850SOL     OW21448   5.636   1.672   3.710
 6850SOL    HW121449   5.622   1.584   3.663
 6850SOL    HW221450   5.603   1.746   3.651
 6851SOL     OW21451   0.740   4.955   5.792
 6851SOL    HW121452   0.768   5.044   5.754
 6851SOL    HW221453   0.811   4.923   5.856
 6852SOL     OW21454   0.567   4.002   1.345
 6852SOL    HW121455   0.468   3.990   1.359
 6852SOL    HW221456   0.586   4.097   1.324
 6853SOL     OW21457   0.988   5.793   5.864
 6853SOL    HW121458   0.911   5.856   5.857
 6853SOL    HW221459   1.069   5.834   5.821
 6854SOL     OW21460   6.638   1.845   5.977
 6854SOL    HW121461   6.727   1.801   5.990
 6854SOL    HW221462   6.630   1.923   6.039
 6855SOL     OW21463   4.328   6.925   3.008
 6855SOL    HW121464   4.246   6.899   3.060
 6855SOL    HW221465   4.346   7.023   3.023
 6856SOL     OW21466   6.524   3.795   4.718
 6856SOL    HW121467   6.585   3.859   4.671
 6856SOL    HW221468   6.542   3.797   4.816
 6857SOL     OW21469   3.242   1.562   6.545
 6857SOL    HW121470   3.172   1.531   6.481
 6857SOL    HW221471   3.330   1.569   6.497
 6858SOL     OW21472   4.112   3.569   4.512
 6858SOL    HW121473   4.095   3.564   4.610
 6858SOL    HW221474   4.105   3.478   4.472
 6859SOL     OW21475   2.409   6.693   0.733
 6859SOL    HW121476   2.452   6.645   0.656
 6859SOL    HW221477   2.405   6.633   0.812
 6860SOL     OW21478   5.302   4.406   1.533
 6860SOL    HW121479   5.370   4.437   1.600
 6860SOL    HW221480   5.331   4.319   1.494
 6861SOL     OW21481   5.698   5.486   0.463
 6861SOL    HW121482   5.603   5.516   0.453
 6861SOL    HW221483   5.736   5.520   0.548
 6862SOL     OW21484   2.997   4.814   4.607
 6862SOL    HW121485   3.014   4.718   4.630
 6862SOL    HW221486   2.992   4.868   4.691
 6863SOL     OW21487   6.466   1.391   4.393
 6863SOL    HW121488   6.430   1.301   4.366
 6863SOL    HW221489   6.475   1.448   4.311
 6864SOL     OW21490   3.297   5.710   3.337
 6864SOL    HW121491   3.246   5.630   3.369
 6864SOL    HW221492   3.255   5.793   3.372
 6865SOL     OW21493   6.510   4.148   4.131
 6865SOL    HW121494   6.444   4.087   4.175
 6865SOL    HW221495   6.471   4.182   4.045
 6866SOL     OW21496   6.896   3.847   1.811
 6866SOL    HW121497   6.830   3.871   1.883
 6866SOL    HW221498   6.981   3.815   1.853
 6867SOL     OW21499   1.645   4.165   1.701
 6867SOL    HW121500   1.724   4.103   1.700
 6867SOL    HW221501   1.561   4.110   1.708
 6868SOL     OW21502   1.824   6.285   4.753
 6868SOL    HW121503   1.754   6.241   4.810
 6868SOL    HW221504   1.778   6.342   4.684
 6869SOL     OW21505   6.066   2.968   4.857
 6869SOL    HW121506   6.087   2.879   4.898
 6869SOL    HW221507   5.969   2.989   4.869
 6870SOL     OW21508   5.487   3.580   3.108
 6870SOL    HW121509   5.516   3.508   3.045
 6870SOL    HW221510   5.430   3.540   3.180
 6871SOL     OW21511   6.106   4.643   1.843
 6871SOL    HW121512   6.167   4.565   1.830
 6871SOL    HW221513   6.026   4.633   1.783
 6872SOL     OW21514   1.506   3.498   1.019
 6872SOL    HW121515   1.418   3.451   1.020
 6872SOL    HW221516   1.540   3.506   1.113
 6873SOL     OW21517   5.763   2.880   6.025
 6873SOL    HW121518   5.729   2.967   5.990
 6873SOL    HW221519   5.716   2.805   5.977
 6874SOL     OW21520   0.104   3.736   3.878
 6874SOL    HW121521   0.035   3.755   3.948
 6874SOL    HW221522   0.068   3.762   3.788
 6875SOL     OW21523   1.611   1.525   2.948
 6875SOL    HW121524   1.689   1.462   2.942
 6875SOL    HW221525   1.569   1.533   2.858
 6876SOL     OW21526   3.266   5.645   6.510
 6876SOL    HW121527   3.343   5.583   6.495
 6876SOL    HW221528   3.263   5.672   6.606
 6877SOL     OW21529   2.175   4.351   0.049
 6877SOL    HW121530   2.131   4.289   7.008
 6877SOL    HW221531   2.110   4.422   0.077
 6878SOL     OW21532   2.277   1.698   6.072
 6878SOL    HW121533   2.362   1.699   6.019
 6878SOL    HW221534   2.273   1.615   6.127
 6879SOL     OW21535   0.159   1.812   0.207
 6879SOL    HW121536   0.094   1.872   0.162
 6879SOL    HW221537   0.112   1.760   0.279
 6880SOL     OW21538   2.167   3.787   4.917
 6880SOL    HW121539   2.206   3.861   4.971
 6880SOL    HW221540   2.143   3.710   4.977
 6881SOL     OW21541   6.946   4.295   1.399
 6881SOL    HW121542   6.919   4.198   1.401
 6881SOL    HW221543   0.022   4.302   1.397
 6882SOL     OW21544   2.057   0.598   5.094
 6882SOL    HW121545   1.979   0.613   5.034
 6882SOL    HW221546   2.035   0.629   5.186
 6883SOL     OW21547   3.680   0.069   0.994
 6883SOL    HW121548   3.770   0.033   1.016
 6883SOL    HW221549   3.652   0.134   1.065
 6884SOL     OW21550   2.262   4.416   4.500
 6884SOL    HW121551   2.261   4.355   4.420
 6884SOL    HW221552   2.348   4.467   4.501
 6885SOL     OW21553   3.007   6.030   3.335
 6885SOL    HW121554   2.929   6.002   3.390
 6885SOL    HW221555   2.998   6.126   3.311
 6886SOL     OW21556   5.099   1.101   2.311
 6886SOL    HW121557   5.165   1.170   2.281
 6886SOL    HW221558   5.024   1.147   2.359
 6887SOL     OW21559   5.247   0.159   5.016
 6887SOL    HW121560   5.304   0.141   4.936
 6887SOL    HW221561   5.174   0.223   4.991
 6888SOL     OW21562   5.918   0.150   5.229
 6888SOL    HW121563   5.948   0.227   5.173
 6888SOL    HW221564   5.978   0.143   5.309
 6889SOL     OW21565   0.928   2.902   5.549
 6889SOL    HW121566   0.973   2.962   5.483
 6889SOL    HW221567   0.872   2.835   5.500
 6890SOL     OW21568   2.289   0.303   0.695
 6890SOL    HW121569   2.389   0.304   0.690
 6890SOL    HW221570   2.258   0.213   0.726
 6891SOL     OW21571   2.132   3.490   4.840
 6891SOL    HW121572   2.059   3.517   4.777
 6891SOL    HW221573   2.200   3.563   4.847
 6892SOL     OW21574   4.009   0.304   3.892
 6892SOL    HW121575   4.026   0.361   3.972
 6892SOL    HW221576   4.032   0.209   3.913
 6893SOL     OW21577   5.343   5.543   2.588
 6893SOL    HW121578   5.436   5.516   2.562
 6893SOL    HW221579   5.346   5.629   2.638
 6894SOL     OW21580   6.054   5.448   0.398
 6894SOL    HW121581   6.126   5.452   0.468
 6894SOL    HW221582   6.053   5.534   0.346
 6895SOL     OW21583   3.173   4.377   6.793
 6895SOL    HW121584   3.127   4.332   6.716
 6895SOL    HW221585   3.111   4.444   6.835
 6896SOL     OW21586   3.779   0.604   3.976
 6896SOL    HW121587   3.686   0.634   4.000
 6896SOL    HW221588   3.821   0.560   4.055
 6897SOL     OW21589   2.863   3.053   0.251
 6897SOL    HW121590   2.859   3.110   0.168
 6897SOL    HW221591   2.812   2.969   0.237
 6898SOL     OW21592   4.358   1.322   1.781
 6898SOL    HW121593   4.392   1.412   1.808
 6898SOL    HW221594   4.367   1.258   1.858
 6899SOL     OW21595   5.139   6.750   6.304
 6899SOL    HW121596   5.206   6.675   6.303
 6899SOL    HW221597   5.113   6.770   6.399
 6900SOL     OW21598   5.906   0.824   6.142
 6900SOL    HW121599   5.848   0.747   6.118
 6900SOL    HW221600   5.987   0.792   6.191
 6901SOL     OW21601   0.271   6.885   6.446
 6901SOL    HW121602   0.335   6.960   6.436
 6901SOL    HW221603   0.186   6.907   6.397
 6902SOL     OW21604   0.621   6.881   0.065
 6902SOL    HW121605   0.691   6.923   0.123
 6902SOL    HW221606   0.602   6.788   0.098
 6903SOL     OW21607   3.891   3.541   0.380
 6903SOL    HW121608   3.841   3.465   0.339
 6903SOL    HW221609   3.884   3.536   0.479
 6904SOL     OW21610   6.657   1.048   3.533
 6904SOL    HW121611   6.577   1.025   3.588
 6904SOL    HW221612   6.680   1.144   3.546
 6905SOL     OW21613   5.967   6.806   0.727
 6905SOL    HW121614   5.982   6.903   0.704
 6905SOL    HW221615   5.902   6.800   0.803
 6906SOL     OW21616   3.633   0.952   4.855
 6906SOL    HW121617   3.679   1.010   4.922
 6906SOL    HW221618   3.582   1.010   4.791
 6907SOL     OW21619   3.906   1.749   0.903
 6907SOL    HW121620   3.814   1.711   0.897
 6907SOL    HW221621   3.933   1.758   0.998
 6908SOL     OW21622   0.863   0.119   5.562
 6908SOL    HW121623   0.769   0.129   5.529
 6908SOL    HW221624   0.912   0.204   5.549
 6909SOL     OW21625   4.193   4.640   0.654
 6909SOL    HW121626   4.279   4.609   0.613
 6909SOL    HW221627   4.205   4.654   0.752
 6910SOL     OW21628   6.103   1.431   2.743
 6910SOL    HW121629   6.006   1.442   2.763
 6910SOL    HW221630   6.153   1.509   2.780
 6911SOL     OW21631   4.130   0.243   3.672
 6911SOL    HW121632   4.088   0.284   3.753
 6911SOL    HW221633   4.214   0.196   3.697
 6912SOL     OW21634   4.990   4.937   1.334
 6912SOL    HW121635   4.951   4.845   1.322
 6912SOL    HW221636   5.078   4.930   1.381
 6913SOL     OW21637   5.043   4.251   4.888
 6913SOL    HW121638   4.949   4.233   4.917
 6913SOL    HW221639   5.046   4.263   4.788
 6914SOL     OW21640   5.909   5.318   6.965
 6914SOL    HW121641   5.886   5.246   0.007
 6914SOL    HW221642   5.830   5.335   6.906
 6915SOL     OW21643   0.533   4.578   2.361
 6915SOL    HW121644   0.533   4.605   2.458
 6915SOL    HW221645   0.564   4.483   2.353
 6916SOL     OW21646   6.669   4.461   6.852
 6916SOL    HW121647   6.668   4.531   6.781
 6916SOL    HW221648   6.656   4.371   6.811
 6917SOL     OW21649   4.723   5.661   6.177
 6917SOL    HW121650   4.665   5.730   6.220
 6917SOL    HW221651   4.766   5.604   6.248
 6918SOL     OW21652   0.587   4.011   4.218
 6918SOL    HW121653   0.611   3.964   4.303
 6918SOL    HW221654   0.489   4.003   4.201
 6919SOL     OW21655   1.933   5.410   2.539
 6919SOL    HW121656   1.920   5.461   2.453
 6919SOL    HW221657   1.844   5.384   2.575
 6920SOL     OW21658   5.054   5.479   5.562
 6920SOL    HW121659   5.118   5.509   5.490
 6920SOL    HW221660   4.960   5.498   5.532
 6921SOL     OW21661   6.017   5.751   3.609
 6921SOL    HW121662   6.047   5.690   3.536
 6921SOL    HW221663   6.055   5.722   3.696
 6922SOL     OW21664   1.844   6.364   0.264
 6922SOL    HW121665   1.789   6.376   0.181
 6922SOL    HW221666   1.917   6.432   0.264
 6923SOL     OW21667   4.382   6.458   4.191
 6923SOL    HW121668   4.295   6.472   4.143
 6923SOL    HW221669   4.458   6.471   4.127
 6924SOL     OW21670   0.537   3.653   0.105
 6924SOL    HW121671   0.625   3.607   0.109
 6924SOL    HW221672   0.466   3.587   0.081
 6925SOL     OW21673   4.266   6.175   3.982
 6925SOL    HW121674   4.354   6.220   3.969
 6925SOL    HW221675   4.222   6.159   3.894
 6926SOL     OW21676   3.646   4.121   3.062
 6926SOL    HW121677   3.548   4.109   3.082
 6926SOL    HW221678   3.656   4.186   2.987
 6927SOL     OW21679   5.131   3.952   5.807
 6927SOL    HW121680   5.211   3.921   5.755
 6927SOL    HW221681   5.062   3.879   5.808
 6928SOL     OW21682   4.444   0.209   6.760
 6928SOL    HW121683   4.517   0.269   6.727
 6928SOL    HW221684   4.453   0.120   6.717
 6929SOL     OW21685   4.358   6.187   6.939
 6929SOL    HW121686   4.419   6.176   6.860
 6929SOL    HW221687   4.286   6.117   6.935
 6930SOL     OW21688   0.377   6.936   2.177
 6930SOL    HW121689   0.281   6.940   2.205
 6930SOL    HW221690   0.387   6.877   2.097
 6931SOL     OW21691   0.815   0.150   1.675
 6931SOL    HW121692   0.724   0.112   1.662
 6931SOL    HW221693   0.829   0.226   1.612
 6932SOL     OW21694   3.130   1.272   0.038
 6932SOL    HW121695   3.150   1.296   0.133
 6932SOL    HW221696   3.096   1.353   7.014
 6933SOL     OW21697   3.343   5.385   4.873
 6933SOL    HW121698   3.322   5.332   4.791
 6933SOL    HW221699   3.409   5.457   4.850
 6934SOL     OW21700   5.606   3.411   6.577
 6934SOL    HW121701   5.618   3.507   6.602
 6934SOL    HW221702   5.549   3.366   6.645
 6935SOL     OW21703   4.598   6.332   3.004
 6935SOL    HW121704   4.546   6.388   2.939
 6935SOL    HW221705   4.563   6.238   3.003
 6936SOL     OW21706   0.008   1.923   2.354
 6936SOL    HW121707   0.107   1.912   2.341
 6936SOL    HW221708   6.983   1.868   2.286
 6937SOL     OW21709   4.818   6.332   6.643
 6937SOL    HW121710   4.905   6.286   6.655
 6937SOL    HW221711   4.774   6.300   6.558
 6938SOL     OW21712   5.113   3.877   5.520
 6938SOL    HW121713   5.015   3.861   5.535
 6938SOL    HW221714   5.154   3.798   5.475
 6939SOL     OW21715   0.262   4.734   2.724
 6939SOL    HW121716   0.277   4.649   2.673
 6939SOL    HW221717   0.200   4.794   2.672
 6940SOL     OW21718   4.669   0.961   0.682
 6940SOL    HW121719   4.691   0.886   0.745
 6940SOL    HW221720   4.646   0.925   0.592
 6941SOL     OW21721   3.986   3.661   1.729
 6941SOL    HW121722   3.998   3.760   1.733
 6941SOL    HW221723   4.062   3.620   1.678
 6942SOL     OW21724   0.060   2.821   1.189
 6942SOL    HW121725   0.150   2.840   1.149
 6942SOL    HW221726   0.038   2.724   1.174
 6943SOL     OW21727   4.821   6.685   6.198
 6943SOL    HW121728   4.863   6.601   6.162
 6943SOL    HW221729   4.892   6.746   6.231
 6944SOL     OW21730   1.386   5.780   5.225
 6944SOL    HW121731   1.335   5.778   5.139
 6944SOL    HW221732   1.389   5.874   5.260
 6945SOL     OW21733   6.292   3.194   6.886
 6945SOL    HW121734   6.364   3.262   6.895
 6945SOL    HW221735   6.239   3.213   6.803
 6946SOL     OW21736   5.886   4.967   2.395
 6946SOL    HW121737   5.978   4.946   2.363
 6946SOL    HW221738   5.820   4.945   2.323
 6947SOL     OW21739   4.011   6.820   3.864
 6947SOL    HW121740   3.916   6.798   3.888
 6947SOL    HW221741   4.019   6.833   3.765
 6948SOL     OW21742   4.958   0.454   0.328
 6948SOL    HW121743   4.873   0.408   0.353
 6948SOL    HW221744   5.025   0.442   0.402
 6949SOL     OW21745   5.113   6.133   3.101
 6949SOL    HW121746   5.139   6.175   3.188
 6949SOL    HW221747   5.193   6.132   3.040
 6950SOL     OW21748   2.755   0.217   3.015
 6950SOL    HW121749   2.677   0.237   3.074
 6950SOL    HW221750   2.799   0.302   2.988
 6951SOL     OW21751   6.115   6.476   5.888
 6951SOL    HW121752   6.188   6.507   5.950
 6951SOL    HW221753   6.140   6.500   5.794
 6952SOL     OW21754   6.826   5.109   3.225
 6952SOL    HW121755   6.916   5.130   3.264
 6952SOL    HW221756   6.831   5.113   3.125
 6953SOL     OW21757   5.409   0.690   5.688
 6953SOL    HW121758   5.406   0.780   5.731
 6953SOL    HW221759   5.317   0.652   5.682
 6954SOL     OW21760   0.796   3.685   3.735
 6954SOL    HW121761   0.886   3.728   3.741
 6954SOL    HW221762   0.728   3.744   3.779
 6955SOL     OW21763   6.965   0.218   1.837
 6955SOL    HW121764   6.953   0.287   1.907
 6955SOL    HW221765   6.875   0.192   1.800
 6956SOL     OW21766   4.458   5.928   2.463
 6956SOL    HW121767   4.447   6.022   2.431
 6956SOL    HW221768   4.367   5.886   2.476
 6957SOL     OW21769   0.038   4.629   1.362
 6957SOL    HW121770   0.048   4.566   1.438
 6957SOL    HW221771   6.971   4.620   1.322
 6958SOL     OW21772   2.299   2.627   6.196
 6958SOL    HW121773   2.293   2.628   6.097
 6958SOL    HW221774   2.318   2.534   6.228
 6959SOL     OW21775   2.103   1.030   4.924
 6959SOL    HW121776   2.007   1.006   4.937
 6959SOL    HW221777   2.147   1.040   5.014
 6960SOL     OW21778   0.766   5.728   0.302
 6960SOL    HW121779   0.730   5.808   0.349
 6960SOL    HW221780   0.748   5.646   0.357
 6961SOL     OW21781   0.595   2.359   3.701
 6961SOL    HW121782   0.517   2.332   3.758
 6961SOL    HW221783   0.562   2.388   3.611
 6962SOL     OW21784   5.694   5.031   3.400
 6962SOL    HW121785   5.676   4.958   3.334
 6962SOL    HW221786   5.661   5.118   3.363
 6963SOL     OW21787   0.305   5.780   1.460
 6963SOL    HW121788   0.288   5.689   1.498
 6963SOL    HW221789   0.388   5.777   1.404
 6964SOL     OW21790   4.571   5.036   5.113
 6964SOL    HW121791   4.514   5.064   5.189
 6964SOL    HW221792   4.654   5.092   5.111
 6965SOL     OW21793   6.922   3.508   6.356
 6965SOL    HW121794   6.837   3.530   6.308
 6965SOL    HW221795   6.994   3.572   6.328
 6966SOL     OW21796   5.863   2.785   2.952
 6966SOL    HW121797   5.787   2.720   2.957
 6966SOL    HW221798   5.833   2.873   2.989
 6967SOL     OW21799   1.450   1.720   5.448
 6967SOL    HW121800   1.529   1.768   5.487
 6967SOL    HW221801   1.475   1.625   5.431
 6968SOL     OW21802   3.859   6.658   1.051
 6968SOL    HW121803   3.850   6.608   1.137
 6968SOL    HW221804   3.838   6.597   0.975
 6969SOL     OW21805   3.834   1.862   1.566
 6969SOL    HW121806   3.844   1.950   1.611
 6969SOL    HW221807   3.748   1.819   1.596
 6970SOL     OW21808   3.961   3.907   0.540
 6970SOL    HW121809   3.913   3.854   0.609
 6970SOL    HW221810   3.919   3.892   0.451
 6971SOL     OW21811   6.604   3.058   2.558
 6971SOL    HW121812   6.528   2.993   2.551
 6971SOL    HW221813   6.688   3.008   2.579
 6972SOL     OW21814   5.896   4.475   4.642
 6972SOL    HW121815   5.805   4.517   4.638
 6972SOL    HW221816   5.957   4.535   4.694
 6973SOL     OW21817   1.445   4.501   4.698
 6973SOL    HW121818   1.490   4.465   4.616
 6973SOL    HW221819   1.513   4.545   4.757
 6974SOL     OW21820   4.119   3.345   3.555
 6974SOL    HW121821   4.121   3.246   3.542
 6974SOL    HW221822   4.085   3.366   3.646
 6975SOL     OW21823   3.049   6.491   5.634
 6975SOL    HW121824   3.080   6.545   5.555
 6975SOL    HW221825   3.038   6.551   5.713
 6976SOL     OW21826   3.709   4.570   6.319
 6976SOL    HW121827   3.721   4.668   6.334
 6976SOL    HW221828   3.642   4.556   6.246
 6977SOL     OW21829   5.459   2.244   1.961
 6977SOL    HW121830   5.550   2.234   2.002
 6977SOL    HW221831   5.394   2.185   2.009
 6978SOL     OW21832   6.568   0.643   1.718
 6978SOL    HW121833   6.612   0.732   1.710
 6978SOL    HW221834   6.472   0.655   1.742
 6979SOL     OW21835   1.531   5.531   2.128
 6979SOL    HW121836   1.628   5.512   2.119
 6979SOL    HW221837   1.492   5.552   2.039
 6980SOL     OW21838   2.086   0.779   3.637
 6980SOL    HW121839   1.997   0.802   3.675
 6980SOL    HW221840   2.131   0.862   3.604
 6981SOL     OW21841   2.520   3.997   6.522
 6981SOL    HW121842   2.571   4.074   6.483
 6981SOL    HW221843   2.584   3.927   6.553
 6982SOL     OW21844   1.337   1.445   4.050
 6982SOL    HW121845   1.238   1.446   4.038
 6982SOL    HW221846   1.375   1.534   4.023
 6983SOL     OW21847   0.102   1.115   3.970
 6983SOL    HW121848   0.124   1.185   4.038
 6983SOL    HW221849   0.175   1.046   3.969
 6984SOL     OW21850   2.644   1.797   5.456
 6984SOL    HW121851   2.621   1.761   5.546
 6984SOL    HW221852   2.564   1.843   5.417
 6985SOL     OW21853   3.719   5.295   2.545
 6985SOL    HW121854   3.654   5.333   2.479
 6985SOL    HW221855   3.772   5.223   2.501
 6986SOL     OW21856   1.977   6.158   5.810
 6986SOL    HW121857   1.998   6.076   5.757
 6986SOL    HW221858   1.883   6.187   5.792
 6987SOL     OW21859   0.498   1.775   6.035
 6987SOL    HW121860   0.582   1.745   5.990
 6987SOL    HW221861   0.420   1.726   5.996
 6988SOL     OW21862   6.045   1.138   4.915
 6988SOL    HW121863   6.070   1.042   4.929
 6988SOL    HW221864   6.097   1.195   4.979
 6989SOL     OW21865   1.103   2.015   3.427
 6989SOL    HW121866   1.072   1.999   3.521
 6989SOL    HW221867   1.189   2.066   3.428
 6990SOL     OW21868   5.045   1.781   0.431
 6990SOL    HW121869   5.123   1.725   0.457
 6990SOL    HW221870   5.073   1.847   0.361
 6991SOL     OW21871   2.658   4.703   4.882
 6991SOL    HW121872   2.584   4.651   4.925
 6991SOL    HW221873   2.740   4.699   4.939
 6992SOL     OW21874   5.317   5.574   5.054
 6992SOL    HW121875   5.349   5.486   5.091
 6992SOL    HW221876   5.368   5.648   5.097
 6993SOL     OW21877   5.710   6.526   3.020
 6993SOL    HW121878   5.698   6.507   3.117
 6993SOL    HW221879   5.663   6.612   2.997
 6994SOL     OW21880   0.659   3.714   4.903
 6994SOL    HW121881   0.678   3.617   4.917
 6994SOL    HW221882   0.595   3.725   4.827
 6995SOL     OW21883   6.497   5.447   4.697
 6995SOL    HW121884   6.513   5.524   4.635
 6995SOL    HW221885   6.571   5.380   4.685
 6996SOL     OW21886   2.703   0.959   5.303
 6996SOL    HW121887   2.660   0.879   5.261
 6996SOL    HW221888   2.707   1.033   5.236
 6997SOL     OW21889   4.742   6.234   5.633
 6997SOL    HW121890   4.727   6.135   5.635
 6997SOL    HW221891   4.840   6.253   5.629
 6998SOL     OW21892   1.647   2.786   1.491
 6998SOL    HW121893   1.553   2.793   1.459
 6998SOL    HW221894   1.672   2.870   1.539
 6999SOL     OW21895   2.531   1.749   6.828
 6999SOL    HW121896   2.515   1.650   6.836
 6999SOL    HW221897   2.531   1.790   6.919
 7000SOL     OW21898   6.948   6.180   2.824
 7000SOL    HW121899   6.928   6.273   2.792
 7000SOL    HW221900   6.931   6.175   2.923
 7001SOL     OW21901   2.534   2.558   5.678
 7001SOL    HW121902   2.478   2.523   5.603
 7001SOL    HW221903   2.613   2.499   5.691
 7002SOL     OW21904   2.360   4.686   3.667
 7002SOL    HW121905   2.412   4.667   3.584
 7002SOL    HW221906   2.262   4.688   3.646
 7003SOL     OW21907   2.880   6.992   6.989
 7003SOL    HW121908   2.792   7.005   6.943
 7003SOL    HW221909   2.946   0.036   6.957
 7004SOL     OW21910   2.143   4.470   1.988
 7004SOL    HW121911   2.236   4.432   1.984
 7004SOL    HW221912   2.114   4.494   1.895
 7005SOL     OW21913   0.136   5.735   5.350
 7005SOL    HW121914   0.205   5.678   5.394
 7005SOL    HW221915   0.045   5.701   5.374
 7006SOL     OW21916   5.075   4.767   4.870
 7006SOL    HW121917   5.092   4.828   4.948
 7006SOL    HW221918   5.103   4.674   4.895
 7007SOL     OW21919   5.408   6.853   3.402
 7007SOL    HW121920   5.336   6.909   3.445
 7007SOL    HW221921   5.397   6.758   3.430
 7008SOL     OW21922   2.185   4.959   3.952
 7008SOL    HW121923   2.247   5.007   4.015
 7008SOL    HW221924   2.141   4.883   4.000
 7009SOL     OW21925   6.424   4.885   2.177
 7009SOL    HW121926   6.334   4.928   2.172
 7009SOL    HW221927   6.490   4.951   2.213
 7010SOL     OW21928   4.470   4.668   5.717
 7010SOL    HW121929   4.569   4.668   5.703
 7010SOL    HW221930   4.440   4.758   5.749
 7011SOL     OW21931   1.441   0.195   6.241
 7011SOL    HW121932   1.513   0.212   6.174
 7011SOL    HW221933   1.477   0.207   6.333
 7012SOL     OW21934   1.764   1.017   1.846
 7012SOL    HW121935   1.743   0.932   1.895
 7012SOL    HW221936   1.692   1.084   1.863
 7013SOL     OW21937   0.548   6.881   0.724
 7013SOL    HW121938   0.478   6.869   0.655
 7013SOL    HW221939   0.636   6.846   0.690
 7014SOL     OW21940   4.481   4.309   1.124
 7014SOL    HW121941   4.503   4.284   1.030
 7014SOL    HW221942   4.456   4.226   1.175
 7015SOL     OW21943   5.577   3.730   2.078
 7015SOL    HW121944   5.563   3.631   2.089
 7015SOL    HW221945   5.674   3.747   2.057
 7016SOL     OW21946   3.854   4.874   2.638
 7016SOL    HW121947   3.755   4.885   2.638
 7016SOL    HW221948   3.883   4.836   2.550
 7017SOL     OW21949   2.210   0.412   2.149
 7017SOL    HW121950   2.113   0.418   2.171
 7017SOL    HW221951   2.229   0.325   2.105
 7018SOL     OW21952   6.948   4.269   4.834
 7018SOL    HW121953   6.936   4.236   4.927
 7018SOL    HW221954   0.021   4.290   4.818
 7019SOL     OW21955   2.983   4.540   6.402
 7019SOL    HW121956   3.076   4.503   6.410
 7019SOL    HW221957   2.979   4.604   6.325
 7020SOL     OW21958   5.410   6.643   0.289
 7020SOL    HW121959   5.470   6.601   0.221
 7020SOL    HW221960   5.420   6.594   0.376
 7021SOL     OW21961   2.984   1.001   5.725
 7021SOL    HW121962   3.013   0.935   5.794
 7021SOL    HW221963   3.060   1.062   5.704
 7022SOL     OW21964   4.867   4.633   0.393
 7022SOL    HW121965   4.919   4.549   0.379
 7022SOL    HW221966   4.806   4.621   0.471
 7023SOL     OW21967   6.941   1.907   3.291
 7023SOL    HW121968   7.020   1.901   3.353
 7023SOL    HW221969   6.974   1.906   3.196
 7024SOL     OW21970   1.584   6.027   6.256
 7024SOL    HW121971   1.595   6.001   6.160
 7024SOL    HW221972   1.486   6.037   6.276
 7025SOL     OW21973   3.759   1.698   0.116
 7025SOL    HW121974   3.700   1.771   0.082
 7025SOL    HW221975   3.707   1.613   0.125
 7026SOL     OW21976   3.003   1.333   1.963
 7026SOL    HW121977   2.963   1.417   1.926
 7026SOL    HW221978   2.978   1.255   1.905
 7027SOL     OW21979   3.105   5.587   2.708
 7027SOL    HW121980   3.082   5.677   2.671
 7027SOL    HW221981   3.071   5.516   2.647
 7028SOL     OW21982   5.694   6.433   4.447
 7028SOL    HW121983   5.641   6.492   4.386
 7028SOL    HW221984   5.792   6.453   4.437
 7029SOL     OW21985   3.907   6.716   6.820
 7029SOL    HW121986   3.940   6.675   6.736
 7029SOL    HW221987   3.818   6.759   6.804
 7030SOL     OW21988   0.351   2.661   5.989
 7030SOL    HW121989   0.323   2.569   6.017
 7030SOL    HW221990   0.273   2.710   5.950
 7031SOL     OW21991   2.125   5.891   3.700
 7031SOL    HW121992   2.164   5.832   3.771
 7031SOL    HW221993   2.026   5.887   3.703
 7032SOL     OW21994   4.112   6.808   3.594
 7032SOL    HW121995   4.129   6.906   3.588
 7032SOL    HW221996   4.192   6.763   3.634
 7033SOL     OW21997   6.598   1.848   4.176
 7033SOL    HW121998   6.519   1.819   4.123
 7033SOL    HW221999   6.671   1.875   4.113
 7034SOL     OW22000   5.598   0.950   3.222
 7034SOL    HW122001   5.669   1.016   3.199
 7034SOL    HW222002   5.622   0.902   3.307
 7035SOL     OW22003   1.418   6.712   2.459
 7035SOL    HW122004   1.512   6.747   2.460
 7035SOL    HW222005   1.365   6.761   2.390
 7036SOL     OW22006   6.240   6.599   1.512
 7036SOL    HW122007   6.184   6.586   1.594
 7036SOL    HW222008   6.331   6.632   1.539
 7037SOL     OW22009   0.189   6.722   6.673
 7037SOL    HW122010   0.262   6.732   6.741
 7037SOL    HW222011   0.223   6.751   6.583
 7038SOL     OW22012   1.770   3.982   4.498
 7038SOL    HW122013   1.716   3.955   4.578
 7038SOL    HW222014   1.782   4.081   4.497
 7039SOL     OW22015   3.108   6.583   0.339
 7039SOL    HW122016   3.081   6.616   0.429
 7039SOL    HW222017   3.157   6.655   0.290
 7040SOL     OW22018   4.636   2.666   5.935
 7040SOL    HW122019   4.698   2.634   6.007
 7040SOL    HW222020   4.690   2.703   5.859
 7041SOL     OW22021   1.147   1.891   3.656
 7041SOL    HW122022   1.204   1.923   3.732
 7041SOL    HW222023   1.068   1.841   3.691
 7042SOL     OW22024   5.082   5.389   6.583
 7042SOL    HW122025   5.060   5.356   6.491
 7042SOL    HW222026   4.998   5.421   6.628
 7043SOL     OW22027   2.408   2.714   2.856
 7043SOL    HW122028   2.487   2.710   2.917
 7043SOL    HW222029   2.351   2.633   2.870
 7044SOL     OW22030   4.975   4.260   2.894
 7044SOL    HW122031   4.887   4.284   2.934
 7044SOL    HW222032   4.995   4.164   2.913
 7045SOL     OW22033   4.489   6.388   1.257
 7045SOL    HW122034   4.414   6.452   1.238
 7045SOL    HW222035   4.560   6.399   1.188
 7046SOL     OW22036   3.649   1.864   3.809
 7046SOL    HW122037   3.619   1.942   3.755
 7046SOL    HW222038   3.575   1.797   3.815
 7047SOL     OW22039   1.098   2.316   3.252
 7047SOL    HW122040   1.042   2.248   3.299
 7047SOL    HW222041   1.090   2.304   3.153
 7048SOL     OW22042   0.559   5.769   1.359
 7048SOL    HW122043   0.569   5.868   1.352
 7048SOL    HW222044   0.612   5.735   1.437
 7049SOL     OW22045   2.800   0.502   0.723
 7049SOL    HW122046   2.868   0.552   0.778
 7049SOL    HW222047   2.745   0.444   0.782
 7050SOL     OW22048   3.287   3.791   3.916
 7050SOL    HW122049   3.306   3.817   4.011
 7050SOL    HW222050   3.321   3.862   3.854
 7051SOL     OW22051   0.451   0.558   0.789
 7051SOL    HW122052   0.468   0.540   0.692
 7051SOL    HW222053   0.493   0.485   0.844
 7052SOL     OW22054   6.392   2.663   4.371
 7052SOL    HW122055   6.368   2.664   4.274
 7052SOL    HW222056   6.472   2.721   4.386
 7053SOL     OW22057   0.464   2.926   6.010
 7053SOL    HW122058   0.415   2.839   6.001
 7053SOL    HW222059   0.420   2.982   6.080
 7054SOL     OW22060   1.121   6.642   1.186
 7054SOL    HW122061   1.035   6.686   1.158
 7054SOL    HW222062   1.159   6.692   1.264
 7055SOL     OW22063   3.927   6.686   5.189
 7055SOL    HW122064   4.012   6.735   5.209
 7055SOL    HW222065   3.851   6.751   5.185
 7056SOL     OW22066   5.786   5.102   3.925
 7056SOL    HW122067   5.800   5.181   3.865
 7056SOL    HW222068   5.856   5.101   3.996
 7057SOL     OW22069   0.681   4.472   4.465
 7057SOL    HW122070   0.777   4.446   4.474
 7057SOL    HW222071   0.629   4.440   4.544
 7058SOL     OW22072   6.989   5.673   5.684
 7058SOL    HW122073   6.926   5.630   5.749
 7058SOL    HW222074   6.946   5.678   5.593
 7059SOL     OW22075   0.108   0.300   2.511
 7059SOL    HW122076   0.063   0.212   2.493
 7059SOL    HW222077   0.114   0.314   2.609
 7060SOL     OW22078   3.249   0.047   1.506
 7060SOL    HW122079   3.289   6.999   1.448
 7060SOL    HW222080   3.322   0.102   1.545
 7061SOL     OW22081   0.522   1.560   3.576
 7061SOL    HW122082   0.486   1.590   3.664
 7061SOL    HW222083   0.619   1.539   3.585
 7062SOL     OW22084   5.653   1.464   5.905
 7062SOL    HW122085   5.652   1.561   5.881
 7062SOL    HW222086   5.561   1.435   5.930
 7063SOL     OW22087   1.214   6.823   0.450
 7063SOL    HW122088   1.308   6.811   0.480
 7063SOL    HW222089   1.162   6.872   0.521
 7064SOL     OW22090   4.191   2.311   1.702
 7064SOL    HW122091   4.095   2.338   1.714
 7064SOL    HW222092   4.250   2.391   1.713
 7065SOL     OW22093   4.366   4.068   1.214
 7065SOL    HW122094   4.437   4.012   1.171
 7065SOL    HW222095   4.292   4.085   1.148
 7066SOL     OW22096   3.967   0.909   0.675
 7066SOL    HW122097   4.062   0.940   0.671
 7066SOL    HW222098   3.907   0.986   0.695
 7067SOL     OW22099   1.441   2.606   4.939
 7067SOL    HW122100   1.512   2.633   4.875
 7067SOL    HW222101   1.411   2.686   4.991
 7068SOL     OW22102   0.816   3.622   3.429
 7068SOL    HW122103   0.856   3.533   3.410
 7068SOL    HW222104   0.807   3.635   3.528
 7069SOL     OW22105   6.918   3.080   4.602
 7069SOL    HW122106   6.925   2.980   4.602
 7069SOL    HW222107   6.824   3.107   4.620
 7070SOL     OW22108   6.654   5.870   4.649
 7070SOL    HW122109   6.687   5.958   4.615
 7070SOL    HW222110   6.616   5.881   4.740
 7071SOL     OW22111   0.472   6.647   5.638
 7071SOL    HW122112   0.486   6.600   5.725
 7071SOL    HW222113   0.376   6.640   5.612
 7072SOL     OW22114   6.764   0.144   5.701
 7072SOL    HW122115   6.787   0.060   5.651
 7072SOL    HW222116   6.665   0.150   5.714
 7073SOL     OW22117   6.440   0.750   4.545
 7073SOL    HW122118   6.396   0.764   4.457
 7073SOL    HW222119   6.484   0.835   4.575
 7074SOL     OW22120   3.738   3.276   1.981
 7074SOL    HW122121   3.647   3.242   1.961
 7074SOL    HW222122   3.782   3.305   1.896
 7075SOL     OW22123   0.849   6.389   4.672
 7075SOL    HW122124   0.872   6.293   4.689
 7075SOL    HW222125   0.765   6.412   4.721
 7076SOL     OW22126   4.283   2.542   0.406
 7076SOL    HW122127   4.345   2.488   0.349
 7076SOL    HW222128   4.196   2.494   0.415
 7077SOL     OW22129   1.905   5.173   5.751
 7077SOL    HW122130   1.914   5.171   5.652
 7077SOL    HW222131   1.993   5.154   5.793
 7078SOL     OW22132   6.326   0.378   1.644
 7078SOL    HW122133   6.421   0.346   1.637
 7078SOL    HW222134   6.298   0.378   1.740
 7079SOL     OW22135   6.581   6.262   5.542
 7079SOL    HW122136   6.529   6.321   5.604
 7079SOL    HW222137   6.620   6.186   5.594
 7080SOL     OW22138   4.030   2.175   4.057
 7080SOL    HW122139   4.030   2.222   4.145
 7080SOL    HW222140   4.111   2.201   4.005
 7081SOL     OW22141   3.473   1.043   5.735
 7081SOL    HW122142   3.505   0.955   5.699
 7081SOL    HW222143   3.445   1.102   5.659
 7082SOL     OW22144   5.624   6.543   0.156
 7082SOL    HW122145   5.639   6.487   0.075
 7082SOL    HW222146   5.673   6.630   0.147
 7083SOL     OW22147   3.610   1.028   6.834
 7083SOL    HW122148   3.579   1.123   6.827
 7083SOL    HW222149   3.565   0.973   6.764
 7084SOL     OW22150   0.240   6.816   5.408
 7084SOL    HW122151   0.216   6.752   5.481
 7084SOL    HW222152   0.199   6.786   5.322
 7085SOL     OW22153   1.899   0.983   2.757
 7085SOL    HW122154   1.971   1.019   2.815
 7085SOL    HW222155   1.810   1.009   2.794
 7086SOL     OW22156   5.307   1.504   6.185
 7086SOL    HW122157   5.387   1.561   6.204
 7086SOL    HW222158   5.239   1.517   6.257
 7087SOL     OW22159   6.756   4.215   3.651
 7087SOL    HW122160   6.766   4.116   3.647
 7087SOL    HW222161   6.806   4.256   3.575
 7088SOL     OW22162   4.946   3.126   4.127
 7088SOL    HW122163   4.949   3.150   4.224
 7088SOL    HW222164   4.921   3.206   4.073
 7089SOL     OW22165   3.280   2.805   6.281
 7089SOL    HW122166   3.301   2.901   6.262
 7089SOL    HW222167   3.181   2.793   6.285
 7090SOL     OW22168   2.873   1.480   6.612
 7090SOL    HW122169   2.840   1.566   6.652
 7090SOL    HW222170   2.912   1.498   6.522
 7091SOL     OW22171   0.510   2.012   6.642
 7091SOL    HW122172   0.531   1.954   6.720
 7091SOL    HW222173   0.595   2.050   6.605
 7092SOL     OW22174   4.065   2.727   6.268
 7092SOL    HW122175   4.148   2.690   6.226
 7092SOL    HW222176   3.986   2.672   6.239
 7093SOL     OW22177   3.136   3.750   4.374
 7093SOL    HW122178   3.053   3.701   4.402
 7093SOL    HW222179   3.191   3.771   4.454
 7094SOL     OW22180   0.383   6.218   5.681
 7094SOL    HW122181   0.294   6.209   5.727
 7094SOL    HW222182   0.369   6.241   5.585
 7095SOL     OW22183   2.642   2.866   0.210
 7095SOL    HW122184   2.680   2.787   0.162
 7095SOL    HW222185   2.591   2.835   0.290
 7096SOL     OW22186   5.773   0.949   3.951
 7096SOL    HW122187   5.801   1.020   4.015
 7096SOL    HW222188   5.687   0.909   3.981
 7097SOL     OW22189   6.652   0.282   1.979
 7097SOL    HW122190   6.601   0.301   2.063
 7097SOL    HW222191   6.748   0.308   1.993
 7098SOL     OW22192   1.239   6.446   4.849
 7098SOL    HW122193   1.248   6.349   4.871
 7098SOL    HW222194   1.167   6.487   4.905
 7099SOL     OW22195   2.175   0.369   4.470
 7099SOL    HW122196   2.181   0.435   4.544
 7099SOL    HW222197   2.218   0.407   4.388
 7100SOL     OW22198   5.037   3.313   0.888
 7100SOL    HW122199   5.027   3.240   0.957
 7100SOL    HW222200   5.063   3.398   0.934
 7101SOL     OW22201   2.367   0.101   4.435
 7101SOL    HW122202   2.276   0.080   4.468
 7101SOL    HW222203   2.404   0.023   4.385
 7102SOL     OW22204   4.343   0.594   0.874
 7102SOL    HW122205   4.276   0.668   0.880
 7102SOL    HW222206   4.405   0.598   0.953
 7103SOL     OW22207   4.364   5.586   0.166
 7103SOL    HW122208   4.311   5.643   0.229
 7103SOL    HW222209   4.339   5.607   0.072
 7104SOL     OW22210   1.006   3.344   4.543
 7104SOL    HW122211   0.953   3.395   4.475
 7104SOL    HW222212   0.975   3.370   4.635
 7105SOL     OW22213   3.414   2.792   5.560
 7105SOL    HW122214   3.325   2.836   5.567
 7105SOL    HW222215   3.456   2.789   5.651
 7106SOL     OW22216   3.405   2.889   3.273
 7106SOL    HW122217   3.334   2.931   3.217
 7106SOL    HW222218   3.492   2.893   3.225
 7107SOL     OW22219   2.633   0.710   0.606
 7107SOL    HW122220   2.713   0.654   0.628
 7107SOL    HW222221   2.633   0.730   0.508
 7108SOL     OW22222   4.146   6.351   1.456
 7108SOL    HW122223   4.216   6.347   1.527
 7108SOL    HW222224   4.060   6.383   1.497
 7109SOL     OW22225   3.572   6.874   6.874
 7109SOL    HW122226   3.610   6.914   6.791
 7109SOL    HW222227   3.633   6.894   6.951
 7110SOL     OW22228   5.199   5.116   4.139
 7110SOL    HW122229   5.290   5.093   4.175
 7110SOL    HW222230   5.200   5.210   4.106
 7111SOL     OW22231   1.560   2.780   4.259
 7111SOL    HW122232   1.486   2.788   4.325
 7111SOL    HW222233   1.556   2.690   4.214
 7112SOL     OW22234   1.930   5.317   4.077
 7112SOL    HW122235   1.846   5.370   4.091
 7112SOL    HW222236   1.909   5.237   4.020
 7113SOL     OW22237   2.865   3.951   5.251
 7113SOL    HW122238   2.896   4.046   5.262
 7113SOL    HW222239   2.910   3.911   5.172
 7114SOL     OW22240   3.677   6.961   1.979
 7114SOL    HW122241   3.759   6.983   1.925
 7114SOL    HW222242   3.623   0.020   1.992
 7115SOL     OW22243   5.126   2.461   1.922
 7115SOL    HW122244   5.089   2.552   1.940
 7115SOL    HW222245   5.225   2.469   1.909
 7116SOL     OW22246   5.806   3.022   3.588
 7116SOL    HW122247   5.809   2.965   3.506
 7116SOL    HW222248   5.892   3.071   3.598
 7117SOL     OW22249   0.132   0.478   4.380
 7117SOL    HW122250   0.090   0.539   4.448
 7117SOL    HW222251   0.129   0.384   4.413
 7118SOL     OW22252   3.708   3.706   1.220
 7118SOL    HW122253   3.796   3.727   1.177
 7118SOL    HW222254   3.696   3.606   1.223
 7119SOL     OW22255   4.708   1.699   3.456
 7119SOL    HW122256   4.806   1.684   3.463
 7119SOL    HW222257   4.679   1.762   3.528
 7120SOL     OW22258   3.912   1.660   3.393
 7120SOL    HW122259   3.908   1.569   3.353
 7120SOL    HW222260   3.892   1.729   3.322
 7121SOL     OW22261   2.986   0.319   2.405
 7121SOL    HW122262   2.945   0.305   2.495
 7121SOL    HW222263   2.934   0.270   2.336
 7122SOL     OW22264   6.687   1.046   6.417
 7122SOL    HW122265   6.742   0.981   6.470
 7122SOL    HW222266   6.667   1.126   6.473
 7123SOL     OW22267   3.252   4.923   1.345
 7123SOL    HW122268   3.209   4.982   1.413
 7123SOL    HW222269   3.202   4.930   1.259
 7124SOL     OW22270   1.014   3.542   0.415
 7124SOL    HW122271   0.931   3.517   0.366
 7124SOL    HW222272   1.004   3.518   0.512
 7125SOL     OW22273   6.722   6.310   1.306
 7125SOL    HW122274   6.820   6.291   1.306
 7125SOL    HW222275   6.706   6.402   1.342
 7126SOL     OW22276   2.983   4.575   6.858
 7126SOL    HW122277   3.012   4.667   6.834
 7126SOL    HW222278   2.894   4.556   6.816
 7127SOL     OW22279   2.857   5.675   4.371
 7127SOL    HW122280   2.817   5.605   4.429
 7127SOL    HW222281   2.888   5.635   4.285
 7128SOL     OW22282   2.521   5.435   0.351
 7128SOL    HW122283   2.523   5.513   0.413
 7128SOL    HW222284   2.437   5.382   0.366
 7129SOL     OW22285   3.669   0.485   0.665
 7129SOL    HW122286   3.584   0.518   0.707
 7129SOL    HW222287   3.746   0.535   0.703
 7130SOL     OW22288   3.256   4.904   4.699
 7130SOL    HW122289   3.341   4.917   4.649
 7130SOL    HW222290   3.184   4.872   4.637
 7131SOL     OW22291   2.604   1.514   0.461
 7131SOL    HW122292   2.702   1.537   0.462
 7131SOL    HW222293   2.569   1.520   0.368
 7132SOL     OW22294   3.337   4.008   1.636
 7132SOL    HW122295   3.292   4.051   1.558
 7132SOL    HW222296   3.298   4.042   1.721
 7133SOL     OW22297   5.531   4.770   3.727
 7133SOL    HW122298   5.438   4.792   3.700
 7133SOL    HW222299   5.592   4.847   3.707
 7134SOL     OW22300   6.237   5.600   2.889
 7134SOL    HW122301   6.171   5.552   2.830
 7134SOL    HW222302   6.312   5.634   2.834
 7135SOL     OW22303   1.624   1.766   3.277
 7135SOL    HW122304   1.658   1.717   3.357
 7135SOL    HW222305   1.677   1.740   3.197
 7136SOL     OW22306   1.962   2.449   0.869
 7136SOL    HW122307   1.883   2.505   0.895
 7136SOL    HW222308   2.043   2.481   0.920
 7137SOL     OW22309   5.672   0.623   5.823
 7137SOL    HW122310   5.606   0.643   5.751
 7137SOL    HW222311   5.687   0.524   5.828
 7138SOL     OW22312   2.606   2.547   0.839
 7138SOL    HW122313   2.705   2.537   0.848
 7138SOL    HW222314   2.570   2.599   0.916
 7139SOL     OW22315   5.060   3.127   2.100
 7139SOL    HW122316   5.143   3.122   2.045
 7139SOL    HW222317   4.980   3.119   2.041
 7140SOL     OW22318   6.429   3.033   4.983
 7140SOL    HW122319   6.401   2.951   5.034
 7140SOL    HW222320   6.393   3.114   5.028
 7141SOL     OW22321   3.841   6.616   0.664
 7141SOL    HW122322   3.777   6.544   0.636
 7141SOL    HW222323   3.901   6.638   0.588
 7142SOL     OW22324   4.509   6.903   2.778
 7142SOL    HW122325   4.572   6.829   2.798
 7142SOL    HW222326   4.434   6.902   2.844
 7143SOL     OW22327   1.150   2.518   6.193
 7143SOL    HW122328   1.098   2.509   6.108
 7143SOL    HW222329   1.227   2.455   6.191
 7144SOL     OW22330   1.104   1.508   3.433
 7144SOL    HW122331   1.027   1.454   3.467
 7144SOL    HW222332   1.126   1.481   3.340
 7145SOL     OW22333   4.250   6.281   5.844
 7145SOL    HW122334   4.311   6.345   5.797
 7145SOL    HW222335   4.156   6.295   5.811
 7146SOL     OW22336   1.822   0.429   0.131
 7146SOL    HW122337   1.875   0.410   0.048
 7146SOL    HW222338   1.800   0.527   0.134
 7147SOL     OW22339   6.178   6.556   3.258
 7147SOL    HW122340   6.144   6.537   3.350
 7147SOL    HW222341   6.150   6.648   3.231
 7148SOL     OW22342   6.888   5.880   1.645
 7148SOL    HW122343   6.914   5.784   1.636
 7148SOL    HW222344   6.912   5.929   1.561
 7149SOL     OW22345   6.537   6.817   3.491
 7149SOL    HW122346   6.559   6.898   3.437
 7149SOL    HW222347   6.617   6.790   3.545
 7150SOL     OW22348   4.788   2.456   1.732
 7150SOL    HW122349   4.745   2.411   1.654
 7150SOL    HW222350   4.859   2.518   1.699
 7151SOL     OW22351   0.680   5.631   1.111
 7151SOL    HW122352   0.685   5.534   1.087
 7151SOL    HW222353   0.622   5.642   1.192
 7152SOL     OW22354   0.463   2.332   5.539
 7152SOL    HW122355   0.364   2.316   5.545
 7152SOL    HW222356   0.487   2.410   5.597
 7153SOL     OW22357   3.634   6.101   3.622
 7153SOL    HW122358   3.668   6.155   3.699
 7153SOL    HW222359   3.661   6.144   3.536
 7154SOL     OW22360   3.970   6.821   4.578
 7154SOL    HW122361   3.958   6.817   4.678
 7154SOL    HW222362   3.967   6.728   4.541
 7155SOL     OW22363   1.765   6.173   1.512
 7155SOL    HW122364   1.859   6.175   1.479
 7155SOL    HW222365   1.759   6.225   1.597
 7156SOL     OW22366   0.838   4.682   4.341
 7156SOL    HW122367   0.771   4.611   4.365
 7156SOL    HW222368   0.797   4.772   4.356
 7157SOL     OW22369   6.107   4.599   0.984
 7157SOL    HW122370   6.145   4.638   1.068
 7157SOL    HW222371   6.065   4.672   0.929
 7158SOL     OW22372   0.591   6.673   3.107
 7158SOL    HW122373   0.507   6.630   3.073
 7158SOL    HW222374   0.629   6.731   3.036
 7159SOL     OW22375   0.419   4.462   2.706
 7159SOL    HW122376   0.485   4.388   2.719
 7159SOL    HW222377   0.375   4.483   2.793
 7160SOL     OW22378   6.553   0.262   3.083
 7160SOL    HW122379   6.472   0.266   3.142
 7160SOL    HW222380   6.630   0.224   3.134
 7161SOL     OW22381   3.214   4.077   5.189
 7161SOL    HW122382   3.143   4.145   5.210
 7161SOL    HW222383   3.220   4.011   5.264
 7162SOL     OW22384   3.023   6.177   6.002
 7162SOL    HW122385   2.951   6.195   5.935
 7162SOL    HW222386   3.112   6.203   5.964
 7163SOL     OW22387   3.218   6.710   3.871
 7163SOL    HW122388   3.120   6.723   3.885
 7163SOL    HW222389   3.233   6.655   3.789
 7164SOL     OW22390   2.232   1.757   2.706
 7164SOL    HW122391   2.145   1.802   2.685
 7164SOL    HW222392   2.270   1.718   2.622
 7165SOL     OW22393   6.485   0.927   1.207
 7165SOL    HW122394   6.573   0.879   1.201
 7165SOL    HW222395   6.413   0.860   1.227
 7166SOL     OW22396   4.968   3.789   0.543
 7166SOL    HW122397   5.059   3.831   0.544
 7166SOL    HW222398   4.946   3.755   0.634
 7167SOL     OW22399   5.313   3.933   5.158
 7167SOL    HW122400   5.288   4.002   5.226
 7167SOL    HW222401   5.403   3.955   5.119
 7168SOL     OW22402   1.062   2.204   3.731
 7168SOL    HW122403   1.134   2.225   3.664
 7168SOL    HW222404   1.026   2.289   3.768
 7169SOL     OW22405   0.677   3.191   5.091
 7169SOL    HW122406   0.702   3.197   5.187
 7169SOL    HW222407   0.655   3.282   5.057
 7170SOL     OW22408   4.099   5.488   3.900
 7170SOL    HW122409   4.130   5.549   3.973
 7170SOL    HW222410   4.120   5.529   3.811
 7171SOL     OW22411   5.853   3.892   6.006
 7171SOL    HW122412   5.787   3.833   5.961
 7171SOL    HW222413   5.862   3.865   6.102
 7172SOL     OW22414   1.263   0.094   5.341
 7172SOL    HW122415   1.266   0.003   5.301
 7172SOL    HW222416   1.267   0.163   5.268
 7173SOL     OW22417   0.088   4.805   5.652
 7173SOL    HW122418   7.012   4.802   5.648
 7173SOL    HW222419   0.117   4.891   5.693
 7174SOL     OW22420   1.110   5.487   6.540
 7174SOL    HW122421   1.017   5.454   6.525
 7174SOL    HW222422   1.123   5.508   6.638
 7175SOL     OW22423   5.395   3.410   0.676
 7175SOL    HW122424   5.493   3.416   0.655
 7175SOL    HW222425   5.383   3.357   0.760
 7176SOL     OW22426   0.620   5.097   2.746
 7176SOL    HW122427   0.668   5.158   2.682
 7176SOL    HW222428   0.588   5.016   2.696
 7177SOL     OW22429   2.668   0.014   3.988
 7177SOL    HW122430   2.743   0.067   3.949
 7177SOL    HW222431   2.698   6.995   4.073
 7178SOL     OW22432   2.484   3.029   5.784
 7178SOL    HW122433   2.505   2.945   5.734
 7178SOL    HW222434   2.421   3.085   5.731
 7179SOL     OW22435   1.188   3.362   4.954
 7179SOL    HW122436   1.194   3.462   4.955
 7179SOL    HW222437   1.258   3.325   4.892
 7180SOL     OW22438   1.320   5.544   6.080
 7180SOL    HW122439   1.325   5.634   6.123
 7180SOL    HW222440   1.403   5.527   6.028
 7181SOL     OW22441   2.925   6.734   0.813
 7181SOL    HW122442   2.923   6.641   0.849
 7181SOL    HW222443   2.841   6.751   0.762
 7182SOL     OW22444   1.633   3.579   5.582
 7182SOL    HW122445   1.633   3.515   5.659
 7182SOL    HW222446   1.724   3.618   5.572
 7183SOL     OW22447   1.692   4.971   1.624
 7183SOL    HW122448   1.677   5.014   1.712
 7183SOL    HW222449   1.782   4.926   1.623
 7184SOL     OW22450   1.018   6.838   3.165
 7184SOL    HW122451   0.976   6.820   3.254
 7184SOL    HW222452   1.024   6.752   3.114
 7185SOL     OW22453   4.849   1.512   5.426
 7185SOL    HW122454   4.870   1.451   5.502
 7185SOL    HW222455   4.812   1.459   5.350
 7186SOL     OW22456   0.099   0.016   5.515
 7186SOL    HW122457   0.154   6.957   5.504
 7186SOL    HW222458   0.159   0.095   5.526
 7187SOL     OW22459   1.810   4.779   0.843
 7187SOL    HW122460   1.871   4.828   0.905
 7187SOL    HW222461   1.854   4.768   0.754
 7188SOL     OW22462   5.375   0.043   0.300
 7188SOL    HW122463   5.401   0.127   0.347
 7188SOL    HW222464   5.445   6.997   0.315
 7189SOL     OW22465   6.192   1.198   6.814
 7189SOL    HW122466   6.188   1.224   6.718
 7189SOL    HW222467   6.286   1.180   6.841
 7190SOL     OW22468   5.242   3.218   2.785
 7190SOL    HW122469   5.282   3.304   2.754
 7190SOL    HW222470   5.147   3.234   2.814
 7191SOL     OW22471   0.615   4.325   2.329
 7191SOL    HW122472   0.666   4.272   2.396
 7191SOL    HW222473   0.603   4.271   2.246
 7192SOL     OW22474   2.027   6.021   4.613
 7192SOL    HW122475   2.074   6.070   4.687
 7192SOL    HW222476   1.949   5.971   4.650
 7193SOL     OW22477   2.756   1.868   3.087
 7193SOL    HW122478   2.837   1.926   3.095
 7193SOL    HW222479   2.762   1.812   3.004
 7194SOL     OW22480   2.420   2.590   1.173
 7194SOL    HW122481   2.447   2.653   1.101
 7194SOL    HW222482   2.321   2.575   1.170
 7195SOL     OW22483   0.859   5.387   6.473
 7195SOL    HW122484   0.903   5.329   6.404
 7195SOL    HW222485   0.775   5.426   6.435
 7196SOL     OW22486   3.022   3.893   2.611
 7196SOL    HW122487   3.004   3.841   2.527
 7196SOL    HW222488   3.040   3.989   2.587
 7197SOL     OW22489   6.754   2.312   6.080
 7197SOL    HW122490   6.810   2.271   6.008
 7197SOL    HW222491   6.716   2.398   6.047
 7198SOL     OW22492   1.060   0.881   5.524
 7198SOL    HW122493   0.973   0.832   5.518
 7198SOL    HW222494   1.053   0.969   5.477
 7199SOL     OW22495   2.118   0.764   2.005
 7199SOL    HW122496   2.112   0.739   2.102
 7199SOL    HW222497   2.066   0.697   1.951
 7200SOL     OW22498   2.299   0.882   6.963
 7200SOL    HW122499   2.267   0.847   6.875
 7200SOL    HW222500   2.396   0.857   6.975
 7201SOL     OW22501   1.497   5.519   3.494
 7201SOL    HW122502   1.426   5.548   3.558
 7201SOL    HW222503   1.455   5.485   3.410
 7202SOL     OW22504   3.592   6.971   6.280
 7202SOL    HW122505   3.644   0.017   6.230
 7202SOL    HW222506   3.640   6.884   6.275
 7203SOL     OW22507   6.580   1.486   0.804
 7203SOL    HW122508   6.551   1.403   0.853
 7203SOL    HW222509   6.659   1.525   0.850
 7204SOL     OW22510   6.126   6.829   4.598
 7204SOL    HW122511   6.123   6.846   4.697
 7204SOL    HW222512   6.084   6.906   4.550
 7205SOL     OW22513   2.132   5.901   2.937
 7205SOL    HW122514   2.195   5.968   2.976
 7205SOL    HW222515   2.178   5.814   2.924
 7206SOL     OW22516   1.654   0.396   1.638
 7206SOL    HW122517   1.589   0.327   1.606
 7206SOL    HW222518   1.746   0.369   1.612
 7207SOL     OW22519   3.453   6.761   1.614
 7207SOL    HW122520   3.394   6.791   1.689
 7207SOL    HW222521   3.441   6.822   1.535
 7208SOL     OW22522   4.344   6.502   4.454
 7208SOL    HW122523   4.380   6.590   4.486
 7208SOL    HW222524   4.373   6.486   4.360
 7209SOL     OW22525   3.013   3.215   3.005
 7209SOL    HW122526   3.022   3.301   2.955
 7209SOL    HW222527   3.008   3.235   3.103
 7210SOL     OW22528   4.700   6.722   3.601
 7210SOL    HW122529   4.644   6.639   3.594
 7210SOL    HW222530   4.792   6.703   3.567
 7211SOL     OW22531   2.078   5.482   3.822
 7211SOL    HW122532   2.119   5.390   3.826
 7211SOL    HW222533   2.003   5.481   3.756
 7212SOL     OW22534   1.085   6.323   3.525
 7212SOL    HW122535   1.111   6.415   3.496
 7212SOL    HW222536   1.126   6.256   3.463
 7213SOL     OW22537   5.723   0.155   6.101
 7213SOL    HW122538   5.780   0.237   6.090
 7213SOL    HW222539   5.705   0.115   6.011
 7214SOL     OW22540   2.395   5.654   4.112
 7214SOL    HW122541   2.357   5.705   4.034
 7214SOL    HW222542   2.390   5.711   4.194
 7215SOL     OW22543   0.172   3.363   3.954
 7215SOL    HW122544   0.267   3.355   3.921
 7215SOL    HW222545   0.141   3.458   3.945
 7216SOL     OW22546   2.379   6.159   6.786
 7216SOL    HW122547   2.457   6.096   6.785
 7216SOL    HW222548   2.320   6.137   6.863
 7217SOL     OW22549   1.795   4.448   1.699
 7217SOL    HW122550   1.885   4.478   1.730
 7217SOL    HW222551   1.804   4.363   1.648
 7218SOL     OW22552   4.586   3.035   5.325
 7218SOL    HW122553   4.519   3.011   5.396
 7218SOL    HW222554   4.627   3.124   5.346
 7219SOL     OW22555   5.251   5.378   3.477
 7219SOL    HW122556   5.265   5.281   3.496
 7219SOL    HW222557   5.165   5.391   3.429
 7220SOL     OW22558   6.977   5.520   3.349
 7220SOL    HW122559   6.935   5.437   3.311
 7220SOL    HW222560   7.023   5.496   3.435
 7221SOL     OW22561   5.251   5.094   5.029
 7221SOL    HW122562   5.283   5.070   4.937
 7221SOL    HW222563   5.188   5.024   5.061
 7222SOL     OW22564   6.317   6.884   0.475
 7222SOL    HW122565   6.275   6.798   0.448
 7222SOL    HW222566   6.273   6.918   0.559
 7223SOL     OW22567   2.982   1.945   1.690
 7223SOL    HW122568   3.074   1.926   1.656
 7223SOL    HW222569   2.985   2.025   1.751
 7224SOL     OW22570   5.690   2.015   4.799
 7224SOL    HW122571   5.676   2.112   4.819
 7224SOL    HW222572   5.646   1.993   4.712
 7225SOL     OW22573   1.514   5.507   6.359
 7225SOL    HW122574   1.422   5.546   6.347
 7225SOL    HW222575   1.516   5.414   6.321
 7226SOL     OW22576   0.759   0.756   0.305
 7226SOL    HW122577   0.778   0.852   0.325
 7226SOL    HW222578   0.813   0.699   0.368
 7227SOL     OW22579   0.965   2.014   0.398
 7227SOL    HW122580   0.870   1.985   0.386
 7227SOL    HW222581   0.971   2.113   0.386
 7228SOL     OW22582   6.967   0.928   1.978
 7228SOL    HW122583   0.026   0.982   1.997
 7228SOL    HW222584   6.902   0.984   1.927
 7229SOL     OW22585   0.994   0.911   4.075
 7229SOL    HW122586   1.073   0.931   4.134
 7229SOL    HW222587   0.962   0.818   4.093
 7230SOL     OW22588   4.415   5.700   4.792
 7230SOL    HW122589   4.432   5.786   4.744
 7230SOL    HW222590   4.361   5.640   4.734
 7231SOL     OW22591   4.652   0.220   0.028
 7231SOL    HW122592   4.695   0.182   6.970
 7231SOL    HW222593   4.699   0.186   0.109
 7232SOL     OW22594   3.606   4.951   3.479
 7232SOL    HW122595   3.526   4.960   3.420
 7232SOL    HW222596   3.580   4.910   3.566
 7233SOL     OW22597   0.316   2.976   4.983
 7233SOL    HW122598   0.309   2.998   5.080
 7233SOL    HW222599   0.410   2.948   4.961
 7234SOL     OW22600   6.445   2.670   2.473
 7234SOL    HW122601   6.377   2.635   2.409
 7234SOL    HW222602   6.410   2.754   2.516
 7235SOL     OW22603   6.157   4.318   3.220
 7235SOL    HW122604   6.186   4.362   3.305
 7235SOL    HW222605   6.068   4.274   3.234
 7236SOL     OW22606   3.327   1.661   2.779
 7236SOL    HW122607   3.302   1.609   2.860
 7236SOL    HW222608   3.274   1.746   2.775
 7237SOL     OW22609   6.552   6.486   5.028
 7237SOL    HW122610   6.499   6.436   4.961
 7237SOL    HW222611   6.636   6.436   5.049
 7238SOL     OW22612   2.150   2.500   1.243
 7238SOL    HW122613   2.186   2.475   1.333
 7238SOL    HW222614   2.095   2.424   1.207
 7239SOL     OW22615   2.439   1.792   3.483
 7239SOL    HW122616   2.445   1.883   3.525
 7239SOL    HW222617   2.464   1.798   3.387
 7240SOL     OW22618   2.897   4.292   7.023
 7240SOL    HW122619   2.892   4.212   0.059
 7240SOL    HW222620   2.807   4.335   7.018
 7241SOL     OW22621   3.099   0.622   6.570
 7241SOL    HW122622   3.128   0.556   6.500
 7241SOL    HW222623   3.001   0.612   6.586
 7242SOL     OW22624   6.188   4.291   6.544
 7242SOL    HW122625   6.239   4.351   6.606
 7242SOL    HW222626   6.090   4.300   6.563
 7243SOL     OW22627   0.912   4.564   6.705
 7243SOL    HW122628   0.979   4.586   6.634
 7243SOL    HW222629   0.906   4.464   6.714
 7244SOL     OW22630   4.599   0.360   1.132
 7244SOL    HW122631   4.639   0.436   1.080
 7244SOL    HW222632   4.539   0.396   1.203
 7245SOL     OW22633   0.622   2.574   5.252
 7245SOL    HW122634   0.652   2.546   5.160
 7245SOL    HW222635   0.525   2.554   5.264
 7246SOL     OW22636   6.652   6.638   4.526
 7246SOL    HW122637   6.666   6.715   4.464
 7246SOL    HW222638   6.585   6.575   4.488
 7247SOL     OW22639   2.605   6.875   2.725
 7247SOL    HW122640   2.621   6.972   2.743
 7247SOL    HW222641   2.510   6.852   2.745
 7248SOL     OW22642   3.210   1.211   3.925
 7248SOL    HW122643   3.114   1.241   3.926
 7248SOL    HW222644   3.226   1.157   3.842
 7249SOL     OW22645   5.896   4.595   1.658
 7249SOL    HW122646   5.950   4.579   1.576
 7249SOL    HW222647   5.828   4.522   1.669
 7250SOL     OW22648   2.332   4.831   6.628
 7250SOL    HW122649   2.402   4.846   6.558
 7250SOL    HW222650   2.305   4.918   6.669
 7251SOL     OW22651   0.002   6.733   5.156
 7251SOL    HW122652   6.958   6.713   5.226
 7251SOL    HW222653   6.999   6.817   5.107
 7252SOL     OW22654   3.660   3.191   4.660
 7252SOL    HW122655   3.606   3.144   4.730
 7252SOL    HW222656   3.720   3.125   4.614
 7253SOL     OW22657   1.709   6.391   0.853
 7253SOL    HW122658   1.669   6.389   0.945
 7253SOL    HW222659   1.635   6.390   0.785
 7254SOL     OW22660   3.561   5.577   4.687
 7254SOL    HW122661   3.541   5.532   4.600
 7254SOL    HW222662   3.650   5.623   4.681
 7255SOL     OW22663   3.284   3.667   2.290
 7255SOL    HW122664   3.266   3.582   2.339
 7255SOL    HW222665   3.200   3.701   2.249
 7256SOL     OW22666   4.629   4.885   4.751
 7256SOL    HW122667   4.700   4.945   4.713
 7256SOL    HW222668   4.646   4.791   4.721
 7257SOL     OW22669   6.295   3.040   3.081
 7257SOL    HW122670   6.232   3.027   3.004
 7257SOL    HW222671   6.389   3.045   3.047
 7258SOL     OW22672   4.163   0.316   4.570
 7258SOL    HW122673   4.233   0.386   4.555
 7258SOL    HW222674   4.080   0.360   4.604
 7259SOL     OW22675   3.013   4.322   0.627
 7259SOL    HW122676   2.954   4.400   0.609
 7259SOL    HW222677   3.059   4.334   0.715
 7260SOL     OW22678   3.447   1.646   3.181
 7260SOL    HW122679   3.544   1.620   3.182
 7260SOL    HW222680   3.398   1.589   3.115
 7261SOL     OW22681   2.596   2.997   1.678
 7261SOL    HW122682   2.582   2.984   1.580
 7261SOL    HW222683   2.563   2.916   1.727
 7262SOL     OW22684   5.976   2.394   4.294
 7262SOL    HW122685   6.014   2.487   4.301
 7262SOL    HW222686   5.897   2.394   4.233
 7263SOL     OW22687   1.145   5.618   1.950
 7263SOL    HW122688   1.200   5.577   1.877
 7263SOL    HW222689   1.074   5.553   1.978
 7264SOL     OW22690   7.020   1.725   6.796
 7264SOL    HW122691   0.064   1.723   6.721
 7264SOL    HW222692   0.044   1.717   6.883
 7265SOL     OW22693   5.820   5.235   6.092
 7265SOL    HW122694   5.884   5.245   6.169
 7265SOL    HW222695   5.838   5.306   6.025
 7266SOL     OW22696   4.037   0.548   1.143
 7266SOL    HW122697   4.074   0.461   1.176
 7266SOL    HW222698   3.970   0.530   1.071
 7267SOL     OW22699   6.408   4.531   5.256
 7267SOL    HW122700   6.404   4.581   5.169
 7267SOL    HW222701   6.316   4.499   5.280
 7268SOL     OW22702   4.281   5.054   2.775
 7268SOL    HW122703   4.181   5.062   2.781
 7268SOL    HW222704   4.320   5.058   2.867
 7269SOL     OW22705   0.672   5.393   1.698
 7269SOL    HW122706   0.770   5.411   1.708
 7269SOL    HW222707   0.645   5.404   1.603
 7270SOL     OW22708   2.411   2.276   3.096
 7270SOL    HW122709   2.425   2.178   3.110
 7270SOL    HW222710   2.406   2.295   2.998
 7271SOL     OW22711   0.552   4.217   2.795
 7271SOL    HW122712   0.481   4.149   2.809
 7271SOL    HW222713   0.625   4.204   2.863
 7272SOL     OW22714   5.379   2.598   2.878
 7272SOL    HW122715   5.294   2.636   2.915
 7272SOL    HW222716   5.361   2.554   2.790
 7273SOL     OW22717   5.590   4.015   1.633
 7273SOL    HW122718   5.619   4.022   1.537
 7273SOL    HW222719   5.496   4.047   1.642
 7274SOL     OW22720   6.819   5.409   6.110
 7274SOL    HW122721   6.758   5.465   6.166
 7274SOL    HW222722   6.782   5.316   6.102
 7275SOL     OW22723   6.411   0.749   0.412
 7275SOL    HW122724   6.485   0.816   0.422
 7275SOL    HW222725   6.363   0.740   0.499
 7276SOL     OW22726   2.792   1.763   3.609
 7276SOL    HW122727   2.758   1.780   3.516
 7276SOL    HW222728   2.875   1.707   3.604
 7277SOL     OW22729   5.016   1.144   5.459
 7277SOL    HW122730   5.005   1.234   5.502
 7277SOL    HW222731   5.064   1.154   5.372
 7278SOL     OW22732   3.757   1.654   3.637
 7278SOL    HW122733   3.752   1.736   3.694
 7278SOL    HW222734   3.831   1.663   3.571
 7279SOL     OW22735   4.154   4.179   1.048
 7279SOL    HW122736   4.141   4.257   1.110
 7279SOL    HW222737   4.069   4.126   1.043
 7280SOL     OW22738   5.322   2.551   5.406
 7280SOL    HW122739   5.401   2.497   5.377
 7280SOL    HW222740   5.335   2.646   5.378
 7281SOL     OW22741   3.428   0.060   0.642
 7281SOL    HW122742   3.405   0.045   0.546
 7281SOL    HW222743   3.526   0.081   0.650
 7282SOL     OW22744   6.706   5.600   1.965
 7282SOL    HW122745   6.679   5.592   1.869
 7282SOL    HW222746   6.805   5.615   1.970
 7283SOL     OW22747   2.991   6.480   2.323
 7283SOL    HW122748   2.943   6.467   2.236
 7283SOL    HW222749   3.037   6.394   2.348
 7284SOL     OW22750   6.593   2.952   3.836
 7284SOL    HW122751   6.643   2.910   3.760
 7284SOL    HW222752   6.518   3.007   3.799
 7285SOL     OW22753   4.747   3.000   1.395
 7285SOL    HW122754   4.691   3.015   1.477
 7285SOL    HW222755   4.809   3.077   1.383
 7286SOL     OW22756   0.289   1.039   0.752
 7286SOL    HW122757   0.249   1.130   0.740
 7286SOL    HW222758   0.307   0.998   0.663
 7287SOL     OW22759   0.115   2.765   3.856
 7287SOL    HW122760   0.127   2.859   3.889
 7287SOL    HW222761   0.183   2.745   3.786
 7288SOL     OW22762   2.822   2.288   3.193
 7288SOL    HW122763   2.787   2.324   3.106
 7288SOL    HW222764   2.761   2.315   3.267
 7289SOL     OW22765   5.395   2.515   1.833
 7289SOL    HW122766   5.451   2.533   1.752
 7289SOL    HW222767   5.432   2.436   1.882
 7290SOL     OW22768   4.290   0.657   6.116
 7290SOL    HW122769   4.339   0.651   6.203
 7290SOL    HW222770   4.322   0.737   6.065
 7291SOL     OW22771   3.107   0.193   0.039
 7291SOL    HW122772   3.174   0.226   0.106
 7291SOL    HW222773   3.034   0.260   0.030
 7292SOL     OW22774   1.738   7.023   2.880
 7292SOL    HW122775   1.807   7.012   2.809
 7292SOL    HW222776   1.754   6.956   2.953
 7293SOL     OW22777   1.294   1.270   5.112
 7293SOL    HW122778   1.335   1.209   5.181
 7293SOL    HW222779   1.288   1.222   5.025
 7294SOL     OW22780   3.027   4.641   1.647
 7294SOL    HW122781   3.008   4.601   1.737
 7294SOL    HW222782   3.123   4.669   1.643
 7295SOL     OW22783   6.347   4.915   1.500
 7295SOL    HW122784   6.269   4.969   1.468
 7295SOL    HW222785   6.415   4.909   1.428
 7296SOL     OW22786   3.335   4.876   2.997
 7296SOL    HW122787   3.296   4.809   2.933
 7296SOL    HW222788   3.434   4.869   2.996
 7297SOL     OW22789   3.028   6.512   1.635
 7297SOL    HW122790   2.999   6.589   1.693
 7297SOL    HW222791   3.100   6.460   1.683
 7298SOL     OW22792   4.452   6.101   6.687
 7298SOL    HW122793   4.457   6.002   6.702
 7298SOL    HW222794   4.357   6.129   6.678
 7299SOL     OW22795   1.180   2.898   6.962
 7299SOL    HW122796   1.172   2.798   6.970
 7299SOL    HW222797   1.096   2.935   6.924
 7300SOL     OW22798   0.839   4.971   2.071
 7300SOL    HW122799   0.922   4.985   2.017
 7300SOL    HW222800   0.790   4.891   2.035
 7301SOL     OW22801   6.127   0.509   6.234
 7301SOL    HW122802   6.207   0.450   6.246
 7301SOL    HW222803   6.135   0.558   6.147
 7302SOL     OW22804   5.336   2.881   5.948
 7302SOL    HW122805   5.333   2.895   6.047
 7302SOL    HW222806   5.276   2.948   5.903
 7303SOL     OW22807   3.284   1.312   0.554
 7303SOL    HW122808   3.320   1.227   0.592
 7303SOL    HW222809   3.346   1.387   0.576
 7304SOL     OW22810   2.497   4.954   1.480
 7304SOL    HW122811   2.415   4.903   1.455
 7304SOL    HW222812   2.489   4.987   1.574
 7305SOL     OW22813   5.825   2.182   0.038
 7305SOL    HW122814   5.863   2.104   0.088
 7305SOL    HW222815   5.726   2.185   0.052
 7306SOL     OW22816   3.610   1.910   1.223
 7306SOL    HW122817   3.640   1.995   1.267
 7306SOL    HW222818   3.573   1.930   1.132
 7307SOL     OW22819   3.335   6.637   2.139
 7307SOL    HW122820   3.283   6.654   2.055
 7307SOL    HW222821   3.377   6.546   2.134
 7308SOL     OW22822   5.861   0.958   1.901
 7308SOL    HW122823   5.911   0.917   1.825
 7308SOL    HW222824   5.830   1.049   1.876
 7309SOL     OW22825   2.711   6.055   3.421
 7309SOL    HW122826   2.620   6.046   3.381
 7309SOL    HW222827   2.718   5.999   3.503
 7310SOL     OW22828   1.588   3.091   0.292
 7310SOL    HW122829   1.550   3.148   0.219
 7310SOL    HW222830   1.627   3.150   0.363
 7311SOL     OW22831   0.771   0.515   0.710
 7311SOL    HW122832   0.731   0.601   0.679
 7311SOL    HW222833   0.731   0.439   0.659
 7312SOL     OW22834   6.843   1.998   5.405
 7312SOL    HW122835   6.942   2.007   5.407
 7312SOL    HW222836   6.818   1.907   5.370
 7313SOL     OW22837   2.358   0.633   1.032
 7313SOL    HW122838   2.389   0.683   0.952
 7313SOL    HW222839   2.359   0.535   1.012
 7314SOL     OW22840   6.964   4.309   0.105
 7314SOL    HW122841   0.026   4.263   0.130
 7314SOL    HW222842   6.984   4.392   0.053
 7315SOL     OW22843   6.665   5.387   2.342
 7315SOL    HW122844   6.571   5.423   2.335
 7315SOL    HW222845   6.729   5.459   2.315
 7316SOL     OW22846   3.078   2.362   6.342
 7316SOL    HW122847   3.037   2.386   6.254
 7316SOL    HW222848   3.119   2.444   6.383
 7317SOL     OW22849   3.368   1.691   1.779
 7317SOL    HW122850   3.347   1.614   1.840
 7317SOL    HW222851   3.283   1.732   1.747
 7318SOL     OW22852   3.796   6.811   2.200
 7318SOL    HW122853   3.737   6.879   2.156
 7318SOL    HW222854   3.862   6.857   2.259
 7319SOL     OW22855   6.775   4.142   0.008
 7319SOL    HW122856   6.819   4.137   6.942
 7319SOL    HW222857   6.835   4.189   0.073
 7320SOL     OW22858   6.927   4.048   1.079
 7320SOL    HW122859   7.001   3.982   1.068
 7320SOL    HW222860   6.952   4.135   1.036
 7321SOL     OW22861   1.841   6.043   6.056
 7321SOL    HW122862   1.906   6.033   6.131
 7321SOL    HW222863   1.890   6.037   5.969
 7322SOL     OW22864   1.061   1.234   3.011
 7322SOL    HW122865   0.986   1.282   2.966
 7322SOL    HW222866   1.026   1.185   3.091
 7323SOL     OW22867   2.132   1.162   1.427
 7323SOL    HW122868   2.036   1.178   1.451
 7323SOL    HW222869   2.188   1.238   1.462
 7324SOL     OW22870   5.892   4.439   2.695
 7324SOL    HW122871   5.807   4.430   2.642
 7324SOL    HW222872   5.952   4.505   2.650
 7325SOL     OW22873   3.585   0.803   5.615
 7325SOL    HW122874   3.662   0.751   5.653
 7325SOL    HW222875   3.620   0.878   5.559
 7326SOL     OW22876   3.370   0.672   6.211
 7326SOL    HW122877   3.382   0.622   6.125
 7326SOL    HW222878   3.311   0.621   6.272
 7327SOL     OW22879   5.806   3.125   3.253
 7327SOL    HW122880   5.899   3.162   3.245
 7327SOL    HW222881   5.809   3.040   3.305
 7328SOL     OW22882   3.817   5.226   5.814
 7328SOL    HW122883   3.757   5.146   5.814
 7328SOL    HW222884   3.775   5.299   5.759
 7329SOL     OW22885   1.921   2.668   7.012
 7329SOL    HW122886   1.824   2.689   0.000
 7329SOL    HW222887   1.931   2.581   6.963
 7330SOL     OW22888   3.056   3.325   1.661
 7330SOL    HW122889   3.030   3.234   1.693
 7330SOL    HW222890   2.985   3.361   1.601
 7331SOL     OW22891   5.182   0.442   1.756
 7331SOL    HW122892   5.085   0.464   1.744
 7331SOL    HW222893   5.223   0.505   1.822
 7332SOL     OW22894   4.155   4.018   6.957
 7332SOL    HW122895   4.156   4.109   6.914
 7332SOL    HW222896   4.236   3.967   6.929
 7333SOL     OW22897   6.540   3.417   2.813
 7333SOL    HW122898   6.441   3.405   2.818
 7333SOL    HW222899   6.567   3.432   2.719
 7334SOL     OW22900   2.986   6.638   5.882
 7334SOL    HW122901   3.005   6.568   5.951
 7334SOL    HW222902   2.996   6.729   5.923
 7335SOL     OW22903   6.778   3.867   2.827
 7335SOL    HW122904   6.766   3.770   2.807
 7335SOL    HW222905   6.705   3.920   2.783
 7336SOL     OW22906   1.889   6.274   0.719
 7336SOL    HW122907   1.960   6.342   0.702
 7336SOL    HW222908   1.814   6.316   0.769
 7337SOL     OW22909   3.571   2.732   1.929
 7337SOL    HW122910   3.626   2.795   1.983
 7337SOL    HW222911   3.545   2.654   1.986
 7338SOL     OW22912   5.182   2.779   1.071
 7338SOL    HW122913   5.224   2.696   1.035
 7338SOL    HW222914   5.086   2.760   1.095
 7339SOL     OW22915   6.718   6.271   5.143
 7339SOL    HW122916   6.738   6.208   5.218
 7339SOL    HW222917   6.795   6.271   5.078
 7340SOL     OW22918   3.698   1.406   0.240
 7340SOL    HW122919   3.674   1.468   0.314
 7340SOL    HW222920   3.622   1.402   0.174
 7341SOL     OW22921   0.367   4.785   3.626
 7341SOL    HW122922   0.312   4.844   3.685
 7341SOL    HW222923   0.442   4.745   3.680
 7342SOL     OW22924   6.819   0.743   0.525
 7342SOL    HW122925   6.790   0.819   0.467
 7342SOL    HW222926   6.795   0.656   0.483
 7343SOL     OW22927   5.928   4.339   1.932
 7343SOL    HW122928   5.885   4.401   1.998
 7343SOL    HW222929   5.864   4.265   1.910
 7344SOL     OW22930   1.534   6.418   6.566
 7344SOL    HW122931   1.566   6.339   6.513
 7344SOL    HW222932   1.502   6.489   6.503
 7345SOL     OW22933   4.346   5.132   5.863
 7345SOL    HW122934   4.389   5.220   5.844
 7345SOL    HW222935   4.247   5.144   5.869
 7346SOL     OW22936   3.349   4.290   1.493
 7346SOL    HW122937   3.340   4.305   1.592
 7346SOL    HW222938   3.409   4.359   1.454
 7347SOL     OW22939   6.056   2.472   2.120
 7347SOL    HW122940   6.064   2.496   2.024
 7347SOL    HW222941   6.081   2.376   2.132
 7348SOL     OW22942   1.350   3.263   3.705
 7348SOL    HW122943   1.316   3.182   3.753
 7348SOL    HW222944   1.325   3.345   3.756
 7349SOL     OW22945   3.212   2.189   1.476
 7349SOL    HW122946   3.297   2.185   1.528
 7349SOL    HW222947   3.218   2.127   1.397
 7350SOL     OW22948   0.511   2.455   3.433
 7350SOL    HW122949   0.506   2.371   3.380
 7350SOL    HW222950   0.506   2.534   3.371
 7351SOL     OW22951   4.011   4.745   6.786
 7351SOL    HW122952   3.970   4.672   6.732
 7351SOL    HW222953   4.059   4.808   6.724
 7352SOL     OW22954   1.727   1.464   2.539
 7352SOL    HW122955   1.816   1.505   2.557
 7352SOL    HW222956   1.732   1.365   2.554
 7353SOL     OW22957   6.421   2.145   4.968
 7353SOL    HW122958   6.379   2.217   4.913
 7353SOL    HW222959   6.520   2.149   4.958
 7354SOL     OW22960   6.787   0.890   5.787
 7354SOL    HW122961   6.883   0.869   5.767
 7354SOL    HW222962   6.782   0.948   5.868
 7355SOL     OW22963   1.455   6.134   1.036
 7355SOL    HW122964   1.404   6.159   1.118
 7355SOL    HW222965   1.480   6.216   0.985
 7356SOL     OW22966   5.939   2.494   6.220
 7356SOL    HW122967   5.999   2.457   6.290
 7356SOL    HW222968   5.935   2.594   6.229
 7357SOL     OW22969   4.803   0.760   0.972
 7357SOL    HW122970   4.822   0.857   0.988
 7357SOL    HW222971   4.883   0.706   0.996
 7358SOL     OW22972   3.466   2.059   3.619
 7358SOL    HW122973   3.393   2.017   3.566
 7358SOL    HW222974   3.438   2.065   3.715
 7359SOL     OW22975   3.415   2.963   1.848
 7359SOL    HW122976   3.387   2.981   1.942
 7359SOL    HW222977   3.464   2.875   1.845
 7360SOL     OW22978   1.424   2.888   5.019
 7360SOL    HW122979   1.426   2.958   5.090
 7360SOL    HW222980   1.517   2.869   4.987
 7361SOL     OW22981   5.043   6.968   1.022
 7361SOL    HW122982   4.981   6.988   0.946
 7361SOL    HW222983   5.125   0.000   1.014
 7362SOL     OW22984   1.138   0.184   4.913
 7362SOL    HW122985   1.084   0.189   4.829
 7362SOL    HW222986   1.077   0.166   4.991
 7363SOL     OW22987   5.693   2.462   0.296
 7363SOL    HW122988   5.703   2.363   0.309
 7363SOL    HW222989   5.727   2.510   0.377
 7364SOL     OW22990   4.155   6.714   1.038
 7364SOL    HW122991   4.055   6.711   1.030
 7364SOL    HW222992   4.188   6.627   1.075
 7365SOL     OW22993   3.335   6.822   2.491
 7365SOL    HW122994   3.393   6.885   2.440
 7365SOL    HW222995   3.358   6.728   2.466
 7366SOL     OW22996   1.007   5.328   6.823
 7366SOL    HW122997   1.064   5.409   6.841
 7366SOL    HW222998   0.913   5.357   6.807
 7367SOL     OW22999   4.239   4.056   1.457
 7367SOL    HW123000   4.181   3.975   1.450
 7367SOL    HW223001   4.271   4.083   1.366
 7368SOL     OW23002   2.915   3.795   4.689
 7368SOL    HW123003   2.847   3.800   4.615
 7368SOL    HW223004   2.990   3.858   4.669
 7369SOL     OW23005   4.843   3.653   1.267
 7369SOL    HW123006   4.813   3.558   1.268
 7369SOL    HW223007   4.800   3.703   1.342
 7370SOL     OW23008   1.640   0.344   6.737
 7370SOL    HW123009   1.592   0.272   6.686
 7370SOL    HW223010   1.736   0.320   6.748
 7371SOL     OW23011   2.829   5.374   3.834
 7371SOL    HW123012   2.833   5.472   3.851
 7371SOL    HW223013   2.844   5.356   3.736
 7372SOL     OW23014   3.370   6.995   5.531
 7372SOL    HW123015   3.344   7.006   5.627
 7372SOL    HW223016   3.328   0.044   5.477
 7373SOL     OW23017   4.730   1.004   3.180
 7373SOL    HW123018   4.653   1.064   3.160
 7373SOL    HW223019   4.703   0.934   3.245
 7374SOL     OW23020   2.158   2.661   5.213
 7374SOL    HW123021   2.149   2.655   5.114
 7374SOL    HW223022   2.203   2.748   5.237
 7375SOL     OW23023   1.185   1.692   4.196
 7375SOL    HW123024   1.234   1.714   4.112
 7375SOL    HW223025   1.129   1.770   4.223
 7376SOL     OW23026   2.992   2.790   6.989
 7376SOL    HW123027   2.963   2.859   6.922
 7376SOL    HW223028   3.054   2.832   0.031
 7377SOL     OW23029   4.324   5.368   2.259
 7377SOL    HW123030   4.361   5.452   2.218
 7377SOL    HW223031   4.396   5.323   2.312
 7378SOL     OW23032   6.593   2.402   4.387
 7378SOL    HW123033   6.547   2.485   4.418
 7378SOL    HW223034   6.527   2.344   4.339
 7379SOL     OW23035   4.368   1.007   2.908
 7379SOL    HW123036   4.402   1.068   2.837
 7379SOL    HW223037   4.373   0.912   2.876
 7380SOL     OW23038   6.795   3.599   5.912
 7380SOL    HW123039   6.832   3.540   5.841
 7380SOL    HW223040   6.772   3.688   5.873
 7381SOL     OW23041   4.971   2.665   2.440
 7381SOL    HW123042   5.058   2.714   2.446
 7381SOL    HW223043   4.896   2.729   2.451
 7382SOL     OW23044   0.472   5.019   4.947
 7382SOL    HW123045   0.512   5.023   5.038
 7382SOL    HW223046   0.398   4.952   4.946
 7383SOL     OW23047   0.057   6.849   2.457
 7383SOL    HW123048   6.997   6.794   2.461
 7383SOL    HW223049   0.132   6.793   2.423
 7384SOL     OW23050   5.301   0.587   2.386
 7384SOL    HW123051   5.292   0.681   2.353
 7384SOL    HW223052   5.380   0.580   2.447
 7385SOL     OW23053   4.182   5.239   2.443
 7385SOL    HW123054   4.232   5.289   2.373
 7385SOL    HW223055   4.228   5.152   2.461
 7386SOL     OW23056   0.509   2.786   5.593
 7386SOL    HW123057   0.526   2.881   5.620
 7386SOL    HW223058   0.595   2.746   5.560
 7387SOL     OW23059   3.915   5.817   4.391
 7387SOL    HW123060   3.937   5.859   4.302
 7387SOL    HW223061   3.820   5.839   4.415
 7388SOL     OW23062   6.981   5.809   4.076
 7388SOL    HW123063   6.907   5.788   4.139
 7388SOL    HW223064   6.950   5.797   3.982
 7389SOL     OW23065   1.560   4.453   6.983
 7389SOL    HW123066   1.615   4.495   6.911
 7389SOL    HW223067   1.463   4.465   6.962
 7390SOL     OW23068   1.017   1.957   6.517
 7390SOL    HW123069   1.085   1.965   6.444
 7390SOL    HW223070   0.989   2.048   6.547
 7391SOL     OW23071   4.857   4.438   5.918
 7391SOL    HW123072   4.886   4.349   5.955
 7391SOL    HW223073   4.939   4.491   5.895
 7392SOL     OW23074   1.648   5.853   5.591
 7392SOL    HW123075   1.683   5.857   5.498
 7392SOL    HW223076   1.548   5.854   5.590
 7393SOL     OW23077   6.058   5.006   1.746
 7393SOL    HW123078   6.076   5.038   1.653
 7393SOL    HW223079   6.138   4.956   1.780
 7394SOL     OW23080   4.241   3.204   5.922
 7394SOL    HW123081   4.222   3.303   5.924
 7394SOL    HW223082   4.263   3.172   6.014
 7395SOL     OW23083   0.490   0.238   6.202
 7395SOL    HW123084   0.431   0.302   6.253
 7395SOL    HW223085   0.453   0.225   6.110
 7396SOL     OW23086   1.941   0.972   6.458
 7396SOL    HW123087   1.966   0.955   6.362
 7396SOL    HW223088   1.891   1.058   6.464
 7397SOL     OW23089   6.282   4.728   4.425
 7397SOL    HW123090   6.282   4.714   4.523
 7397SOL    HW223091   6.205   4.787   4.399
 7398SOL     OW23092   3.519   5.256   3.732
 7398SOL    HW123093   3.450   5.217   3.672
 7398SOL    HW223094   3.609   5.249   3.689
 7399SOL     OW23095   0.572   4.129   5.498
 7399SOL    HW123096   0.600   4.059   5.564
 7399SOL    HW223097   0.650   4.157   5.443
 7400SOL     OW23098   3.513   4.172   0.028
 7400SOL    HW123099   3.557   4.089   0.064
 7400SOL    HW223100   3.416   4.155   0.014
 7401SOL     OW23101   0.239   0.895   3.368
 7401SOL    HW123102   0.235   0.953   3.450
 7401SOL    HW223103   0.182   0.814   3.381
 7402SOL     OW23104   2.130   0.196   3.701
 7402SOL    HW123105   2.185   0.140   3.639
 7402SOL    HW223106   2.074   0.259   3.648
 7403SOL     OW23107   2.321   2.803   3.879
 7403SOL    HW123108   2.289   2.855   3.958
 7403SOL    HW223109   2.331   2.863   3.800
 7404SOL     OW23110   2.349   0.328   1.306
 7404SOL    HW123111   2.448   0.323   1.322
 7404SOL    HW223112   2.320   0.249   1.253
 7405SOL     OW23113   1.303   4.798   4.334
 7405SOL    HW123114   1.361   4.759   4.262
 7405SOL    HW223115   1.355   4.803   4.419
 7406SOL     OW23116   1.842   3.631   2.660
 7406SOL    HW123117   1.916   3.620   2.725
 7406SOL    HW223118   1.879   3.661   2.572
 7407SOL     OW23119   7.000   6.053   4.533
 7407SOL    HW123120   0.005   5.957   4.539
 7407SOL    HW223121   0.015   6.104   4.611
 7408SOL     OW23122   1.223   4.333   5.717
 7408SOL    HW123123   1.251   4.389   5.639
 7408SOL    HW223124   1.215   4.390   5.799
 7409SOL     OW23125   0.856   0.939   4.611
 7409SOL    HW123126   0.766   0.907   4.640
 7409SOL    HW223127   0.848   1.031   4.572
 7410SOL     OW23128   0.070   4.490   1.074
 7410SOL    HW123129   0.080   4.472   1.172
 7410SOL    HW223130   0.153   4.534   1.039
 7411SOL     OW23131   2.466   6.882   4.364
 7411SOL    HW123132   2.433   6.822   4.436
 7411SOL    HW223133   2.566   6.875   4.357
 7412SOL     OW23134   2.887   0.711   1.150
 7412SOL    HW123135   2.798   0.684   1.186
 7412SOL    HW223136   2.952   0.719   1.226
 7413SOL     OW23137   0.290   3.913   3.531
 7413SOL    HW123138   0.328   3.822   3.551
 7413SOL    HW223139   0.261   3.956   3.616
 7414SOL     OW23140   6.915   0.441   2.370
 7414SOL    HW123141   6.842   0.373   2.358
 7414SOL    HW223142   6.974   0.413   2.445
 7415SOL     OW23143   0.607   3.229   3.397
 7415SOL    HW123144   0.549   3.167   3.451
 7415SOL    HW223145   0.703   3.206   3.411
 7416SOL     OW23146   3.287   0.968   4.099
 7416SOL    HW123147   3.285   1.051   4.043
 7416SOL    HW223148   3.219   0.903   4.064
 7417SOL     OW23149   1.099   6.429   5.851
 7417SOL    HW123150   1.020   6.484   5.881
 7417SOL    HW223151   1.130   6.372   5.927
 7418SOL     OW23152   3.456   4.483   1.286
 7418SOL    HW123153   3.389   4.483   1.213
 7418SOL    HW223154   3.426   4.543   1.360
 7419SOL     OW23155   5.974   1.872   4.897
 7419SOL    HW123156   5.876   1.887   4.888
 7419SOL    HW223157   5.994   1.833   4.987
 7420SOL     OW23158   6.695   6.982   2.336
 7420SOL    HW123159   6.620   6.916   2.343
 7420SOL    HW223160   6.778   6.942   2.375
 7421SOL     OW23161   2.874   3.091   1.008
 7421SOL    HW123162   2.856   3.066   0.913
 7421SOL    HW223163   2.925   3.177   1.010
 7422SOL     OW23164   6.680   3.143   2.170
 7422SOL    HW123165   6.682   3.046   2.194
 7422SOL    HW223166   6.721   3.157   2.080
 7423SOL     OW23167   0.762   4.691   6.137
 7423SOL    HW123168   0.715   4.733   6.215
 7423SOL    HW223169   0.808   4.761   6.083
 7424SOL     OW23170   6.184   1.374   4.091
 7424SOL    HW123171   6.265   1.430   4.109
 7424SOL    HW223172   6.166   1.373   3.992
 7425SOL     OW23173   3.887   5.037   0.069
 7425SOL    HW123174   3.916   5.117   0.017
 7425SOL    HW223175   3.823   4.983   0.014
 7426SOL     OW23176   0.603   2.289   6.761
 7426SOL    HW123177   0.519   2.246   6.793
 7426SOL    HW223178   0.579   2.371   6.707
 7427SOL     OW23179   3.160   5.735   4.524
 7427SOL    HW123180   3.182   5.831   4.506
 7427SOL    HW223181   3.143   5.688   4.438
 7428SOL     OW23182   3.846   1.787   5.597
 7428SOL    HW123183   3.929   1.838   5.572
 7428SOL    HW223184   3.785   1.782   5.518
 7429SOL     OW23185   6.429   6.804   2.758
 7429SOL    HW123186   6.363   6.732   2.740
 7429SOL    HW223187   6.382   6.884   2.795
 7430SOL     OW23188   6.819   4.565   5.545
 7430SOL    HW123189   6.815   4.620   5.628
 7430SOL    HW223190   6.814   4.624   5.465
 7431SOL     OW23191   0.826   3.811   1.808
 7431SOL    HW123192   0.802   3.871   1.732
 7431SOL    HW223193   0.809   3.716   1.782
 7432SOL     OW23194   0.425   6.292   4.136
 7432SOL    HW123195   0.460   6.209   4.179
 7432SOL    HW223196   0.475   6.309   4.051
 7433SOL     OW23197   6.343   4.900   0.757
 7433SOL    HW123198   6.420   4.959   0.781
 7433SOL    HW223199   6.282   4.891   0.836
 7434SOL     OW23200   3.208   1.322   6.740
 7434SOL    HW123201   3.192   1.419   6.760
 7434SOL    HW223202   3.171   1.300   6.650
 7435SOL     OW23203   3.192   6.500   6.073
 7435SOL    HW123204   3.223   6.591   6.099
 7435SOL    HW223205   3.133   6.463   6.144
 7436SOL     OW23206   6.465   2.860   6.556
 7436SOL    HW123207   6.388   2.815   6.512
 7436SOL    HW223208   6.548   2.806   6.542
 7437SOL     OW23209   6.701   5.293   6.743
 7437SOL    HW123210   6.798   5.299   6.768
 7437SOL    HW223211   6.669   5.199   6.757
 7438SOL     OW23212   1.255   4.350   1.539
 7438SOL    HW123213   1.211   4.306   1.461
 7438SOL    HW223214   1.355   4.345   1.528
 7439SOL     OW23215   2.934   6.851   3.775
 7439SOL    HW123216   2.938   6.759   3.736
 7439SOL    HW223217   2.873   6.908   3.719
 7440SOL     OW23218   0.659   3.426   4.930
 7440SOL    HW123219   0.754   3.411   4.902
 7440SOL    HW223220   0.598   3.401   4.854
 7441SOL     OW23221   6.018   6.482   4.011
 7441SOL    HW123222   5.929   6.461   3.972
 7441SOL    HW223223   6.026   6.580   4.027
 7442SOL     OW23224   0.879   0.628   6.292
 7442SOL    HW123225   0.850   0.608   6.386
 7442SOL    HW223226   0.910   0.723   6.287
 7443SOL     OW23227   6.613   1.842   0.672
 7443SOL    HW123228   6.640   1.806   0.762
 7443SOL    HW223229   6.674   1.917   0.647
 7444SOL     OW23230   0.056   3.278   6.345
 7444SOL    HW123231   0.010   3.359   6.381
 7444SOL    HW223232   0.087   3.295   6.252
 7445SOL     OW23233   4.699   1.294   1.303
 7445SOL    HW123234   4.669   1.225   1.238
 7445SOL    HW223235   4.626   1.314   1.368
 7446SOL     OW23236   6.148   4.456   6.842
 7446SOL    HW123237   6.156   4.553   6.865
 7446SOL    HW223238   6.155   4.402   6.926
 7447SOL     OW23239   2.908   4.476   6.109
 7447SOL    HW123240   2.853   4.493   6.027
 7447SOL    HW223241   2.850   4.483   6.190
 7448SOL     OW23242   5.556   6.545   5.809
 7448SOL    HW123243   5.575   6.615   5.878
 7448SOL    HW223244   5.639   6.528   5.754
 7449SOL     OW23245   4.879   2.444   2.354
 7449SOL    HW123246   4.822   2.481   2.281
 7449SOL    HW223247   4.923   2.518   2.403
 7450SOL     OW23248   5.118   2.731   4.055
 7450SOL    HW123249   5.037   2.777   4.017
 7450SOL    HW223250   5.190   2.728   3.986
 7451SOL     OW23251   1.620   0.471   3.301
 7451SOL    HW123252   1.552   0.529   3.256
 7451SOL    HW223253   1.702   0.524   3.320
 7452SOL     OW23254   1.572   0.253   4.692
 7452SOL    HW123255   1.599   0.345   4.662
 7452SOL    HW223256   1.533   0.258   4.784
 7453SOL     OW23257   5.410   5.873   4.998
 7453SOL    HW123258   5.490   5.866   4.938
 7453SOL    HW223259   5.430   5.935   5.073
 7454SOL     OW23260   0.992   3.124   1.635
 7454SOL    HW123261   0.944   3.117   1.548
 7454SOL    HW223262   0.926   3.124   1.710
 7455SOL     OW23263   6.411   1.218   1.664
 7455SOL    HW123264   6.500   1.260   1.647
 7455SOL    HW223265   6.372   1.186   1.578
 7456SOL     OW23266   1.527   2.237   4.698
 7456SOL    HW123267   1.594   2.233   4.772
 7456SOL    HW223268   1.444   2.282   4.732
 7457SOL     OW23269   5.434   0.320   6.023
 7457SOL    HW123270   5.420   0.408   5.978
 7457SOL    HW223271   5.345   0.277   6.041
 7458SOL     OW23272   1.874   6.648   6.685
 7458SOL    HW123273   1.858   6.724   6.622
 7458SOL    HW223274   1.959   6.663   6.735
 7459SOL     OW23275   4.392   0.102   7.002
 7459SOL    HW123276   4.476   0.093   0.031
 7459SOL    HW223277   4.412   0.142   6.913
 7460SOL     OW23278   1.671   5.403   0.258
 7460SOL    HW123279   1.653   5.327   0.196
 7460SOL    HW223280   1.746   5.379   0.319
 7461SOL     OW23281   5.468   1.295   5.637
 7461SOL    HW123282   5.560   1.257   5.644
 7461SOL    HW223283   5.448   1.348   5.720
 7462SOL     OW23284   1.693   2.558   1.608
 7462SOL    HW123285   1.792   2.551   1.623
 7462SOL    HW223286   1.672   2.645   1.563
 7463SOL     OW23287   3.561   3.228   1.630
 7463SOL    HW123288   3.585   3.209   1.535
 7463SOL    HW223289   3.520   3.147   1.671
 7464SOL     OW23290   3.700   6.042   6.496
 7464SOL    HW123291   3.649   6.125   6.474
 7464SOL    HW223292   3.776   6.066   6.557
 7465SOL     OW23293   1.851   0.327   1.358
 7465SOL    HW123294   1.890   0.379   1.282
 7465SOL    HW223295   1.909   0.339   1.439
 7466SOL     OW23296   0.465   0.039   6.409
 7466SOL    HW123297   0.474   0.113   6.343
 7466SOL    HW223298   0.555   7.022   6.425
 7467SOL     OW23299   6.066   2.514   1.328
 7467SOL    HW123300   6.136   2.487   1.262
 7467SOL    HW223301   6.050   2.612   1.322
 7468SOL     OW23302   4.752   2.367   2.609
 7468SOL    HW123303   4.777   2.354   2.513
 7468SOL    HW223304   4.713   2.458   2.621
 7469SOL     OW23305   1.296   0.192   6.761
 7469SOL    HW123306   1.206   0.232   6.742
 7469SOL    HW223307   1.303   0.173   6.859
 7470SOL     OW23308   0.497   2.859   3.068
 7470SOL    HW123309   0.550   2.926   3.015
 7470SOL    HW223310   0.405   2.896   3.085
 7471SOL     OW23311   5.779   6.704   4.698
 7471SOL    HW123312   5.685   6.700   4.733
 7471SOL    HW223313   5.842   6.724   4.773
 7472SOL     OW23314   5.031   6.238   4.113
 7472SOL    HW123315   4.975   6.320   4.098
 7472SOL    HW223316   5.032   6.215   4.210
 7473SOL     OW23317   0.038   4.189   3.166
 7473SOL    HW123318   6.984   4.176   3.105
 7473SOL    HW223319   0.006   4.187   3.261
 7474SOL     OW23320   2.715   1.240   4.715
 7474SOL    HW123321   2.662   1.220   4.633
 7474SOL    HW223322   2.776   1.317   4.697
 7475SOL     OW23323   4.608   1.128   2.351
 7475SOL    HW123324   4.593   1.200   2.284
 7475SOL    HW223325   4.525   1.114   2.405
 7476SOL     OW23326   3.965   6.423   4.276
 7476SOL    HW123327   4.007   6.371   4.202
 7476SOL    HW223328   3.910   6.498   4.239
 7477SOL     OW23329   4.620   0.906   4.162
 7477SOL    HW123330   4.679   0.843   4.212
 7477SOL    HW223331   4.675   0.960   4.098
 7478SOL     OW23332   3.957   3.792   6.096
 7478SOL    HW123333   4.042   3.743   6.079
 7478SOL    HW223334   3.926   3.836   6.011
 7479SOL     OW23335   3.603   1.909   0.577
 7479SOL    HW123336   3.641   1.919   0.485
 7479SOL    HW223337   3.641   1.980   0.636
 7480SOL     OW23338   6.154   5.169   0.849
 7480SOL    HW123339   6.222   5.242   0.853
 7480SOL    HW223340   6.068   5.206   0.815
 7481SOL     OW23341   5.640   4.954   1.328
 7481SOL    HW123342   5.644   4.868   1.277
 7481SOL    HW223343   5.733   4.985   1.349
 7482SOL     OW23344   3.938   1.484   2.087
 7482SOL    HW123345   3.952   1.387   2.069
 7482SOL    HW223346   3.907   1.530   2.003
 7483SOL     OW23347   4.172   1.917   4.907
 7483SOL    HW123348   4.204   2.008   4.878
 7483SOL    HW223349   4.165   1.858   4.827
 7484SOL     OW23350   0.258   0.248   2.081
 7484SOL    HW123351   0.222   0.340   2.092
 7484SOL    HW223352   0.191   0.192   2.031
 7485SOL     OW23353   3.069   6.256   5.304
 7485SOL    HW123354   3.069   6.182   5.236
 7485SOL    HW223355   2.975   6.288   5.318
 7486SOL     OW23356   2.165   6.634   5.404
 7486SOL    HW123357   2.179   6.607   5.309
 7486SOL    HW223358   2.174   6.553   5.463
 7487SOL     OW23359   2.047   6.843   2.261
 7487SOL    HW123360   2.077   6.914   2.323
 7487SOL    HW223361   2.125   6.811   2.206
 7488SOL     OW23362   1.966   6.817   5.055
 7488SOL    HW123363   1.956   6.797   4.957
 7488SOL    HW223364   2.062   6.835   5.075
 7489SOL     OW23365   4.774   2.115   5.106
 7489SOL    HW123366   4.821   2.114   5.017
 7489SOL    HW223367   4.841   2.111   5.179
 7490SOL     OW23368   0.579   1.076   0.867
 7490SOL    HW123369   0.489   1.116   0.851
 7490SOL    HW223370   0.570   0.977   0.878
 7491SOL     OW23371   0.694   4.993   6.959
 7491SOL    HW123372   0.734   4.937   6.886
 7491SOL    HW223373   0.754   5.071   6.978
 7492SOL     OW23374   2.734   1.647   5.134
 7492SOL    HW123375   2.714   1.745   5.141
 7492SOL    HW223376   2.672   1.596   5.194
 7493SOL     OW23377   6.216   4.443   6.309
 7493SOL    HW123378   6.239   4.413   6.402
 7493SOL    HW223379   6.178   4.366   6.258
 7494SOL     OW23380   5.945   0.805   2.603
 7494SOL    HW123381   5.898   0.719   2.579
 7494SOL    HW223382   5.929   0.825   2.700
 7495SOL     OW23383   2.489   1.150   1.402
 7495SOL    HW123384   2.587   1.165   1.411
 7495SOL    HW223385   2.440   1.227   1.444
 7496SOL     OW23386   0.917   4.498   6.015
 7496SOL    HW123387   0.867   4.504   5.929
 7496SOL    HW223388   0.865   4.544   6.087
 7497SOL     OW23389   2.929   4.835   1.377
 7497SOL    HW123390   3.010   4.854   1.432
 7497SOL    HW223391   2.926   4.737   1.356
 7498SOL     OW23392   2.494   1.272   4.257
 7498SOL    HW123393   2.573   1.255   4.316
 7498SOL    HW223394   2.460   1.185   4.221
 7499SOL     OW23395   6.147   0.497   3.158
 7499SOL    HW123396   6.103   0.517   3.246
 7499SOL    HW223397   6.080   0.509   3.084
 7500SOL     OW23398   4.083   6.135   2.605
 7500SOL    HW123399   4.137   6.079   2.669
 7500SOL    HW223400   4.034   6.206   2.656
 7501SOL     OW23401   6.575   4.235   4.606
 7501SOL    HW123402   6.620   4.187   4.531
 7501SOL    HW223403   6.477   4.241   4.588
 7502SOL     OW23404   1.336   1.895   5.260
 7502SOL    HW123405   1.380   1.823   5.314
 7502SOL    HW223406   1.355   1.984   5.300
 7503SOL     OW23407   2.654   1.084   6.732
 7503SOL    HW123408   2.614   1.064   6.643
 7503SOL    HW223409   2.727   1.151   6.722
 7504SOL     OW23410   3.732   7.004   3.332
 7504SOL    HW123411   3.750   6.930   3.397
 7504SOL    HW223412   3.633   7.014   3.320
 7505SOL     OW23413   2.960   0.938   5.460
 7505SOL    HW123414   2.865   0.959   5.437
 7505SOL    HW223415   2.982   0.979   5.549
 7506SOL     OW23416   4.440   0.535   2.715
 7506SOL    HW123417   4.481   0.502   2.800
 7506SOL    HW223418   4.409   0.457   2.661
 7507SOL     OW23419   6.944   6.594   0.210
 7507SOL    HW123420   7.004   6.674   0.205
 7507SOL    HW223421   6.870   6.604   0.144
 7508SOL     OW23422   5.494   6.491   2.673
 7508SOL    HW123423   5.577   6.545   2.688
 7508SOL    HW223424   5.463   6.504   2.578
 7509SOL     OW23425   4.910   4.677   0.666
 7509SOL    HW123426   4.989   4.675   0.728
 7509SOL    HW223427   4.943   4.668   0.572
 7510SOL     OW23428   2.697   3.882   5.450
 7510SOL    HW123429   2.766   3.862   5.520
 7510SOL    HW223430   2.743   3.908   5.364
 7511SOL     OW23431   1.724   0.719   2.356
 7511SOL    HW123432   1.631   0.697   2.329
 7511SOL    HW223433   1.729   0.815   2.384
 7512SOL     OW23434   2.944   4.276   1.340
 7512SOL    HW123435   2.932   4.374   1.357
 7512SOL    HW223436   3.004   4.237   1.410
 7513SOL     OW23437   1.676   2.220   0.829
 7513SOL    HW123438   1.754   2.201   0.770
 7513SOL    HW223439   1.695   2.188   0.921
 7514SOL     OW23440   2.418   6.243   2.074
 7514SOL    HW123441   2.438   6.297   2.156
 7514SOL    HW223442   2.502   6.229   2.022
 7515SOL     OW23443   0.848   6.887   2.676
 7515SOL    HW123444   0.851   6.941   2.592
 7515SOL    HW223445   0.869   6.945   2.754
 7516SOL     OW23446   0.002   5.515   4.477
 7516SOL    HW123447   6.986   5.527   4.386
 7516SOL    HW223448   0.050   5.427   4.481
 7517SOL     OW23449   6.563   3.399   1.247
 7517SOL    HW123450   6.629   3.441   1.184
 7517SOL    HW223451   6.488   3.462   1.264
 7518SOL     OW23452   3.892   5.802   3.849
 7518SOL    HW123453   3.819   5.738   3.874
 7518SOL    HW223454   3.871   5.842   3.760
 7519SOL     OW23455   0.178   6.576   3.963
 7519SOL    HW123456   0.185   6.673   3.986
 7519SOL    HW223457   0.243   6.524   4.017
 7520SOL     OW23458   2.448   0.492   1.940
 7520SOL    HW123459   2.416   0.398   1.934
 7520SOL    HW223460   2.394   0.550   1.878
 7521SOL     OW23461   4.363   4.631   5.437
 7521SOL    HW123462   4.291   4.699   5.422
 7521SOL    HW223463   4.397   4.638   5.531
 7522SOL     OW23464   2.737   0.865   6.355
 7522SOL    HW123465   2.690   0.941   6.398
 7522SOL    HW223466   2.747   0.883   6.257
 7523SOL     OW23467   5.864   1.343   5.735
 7523SOL    HW123468   5.892   1.404   5.660
 7523SOL    HW223469   5.791   1.387   5.787
 7524SOL     OW23470   0.592   2.507   5.867
 7524SOL    HW123471   0.519   2.570   5.839
 7524SOL    HW223472   0.559   2.413   5.860
 7525SOL     OW23473   2.513   0.306   6.025
 7525SOL    HW123474   2.467   0.286   6.111
 7525SOL    HW223475   2.544   0.221   5.983
 7526SOL     OW23476   3.915   3.063   2.992
 7526SOL    HW123477   3.917   3.099   2.898
 7526SOL    HW223478   4.006   3.070   3.032
 7527SOL     OW23479   4.836   4.566   2.933
 7527SOL    HW123480   4.801   4.592   3.023
 7527SOL    HW223481   4.774   4.500   2.891
 7528SOL     OW23482   4.783   2.564   0.367
 7528SOL    HW123483   4.712   2.596   0.430
 7528SOL    HW223484   4.757   2.476   0.329
 7529SOL     OW23485   5.450   1.243   4.207
 7529SOL    HW123486   5.522   1.280   4.266
 7529SOL    HW223487   5.482   1.241   4.112
 7530SOL     OW23488   6.386   3.245   2.500
 7530SOL    HW123489   6.387   3.298   2.415
 7530SOL    HW223490   6.459   3.177   2.498
 7531SOL     OW23491   4.619   2.424   4.482
 7531SOL    HW123492   4.587   2.518   4.473
 7531SOL    HW223493   4.654   2.392   4.394
 7532SOL     OW23494   5.598   5.733   1.656
 7532SOL    HW123495   5.628   5.648   1.612
 7532SOL    HW223496   5.531   5.712   1.727
 7533SOL     OW23497   2.014   1.303   3.068
 7533SOL    HW123498   2.014   1.270   2.973
 7533SOL    HW223499   2.034   1.228   3.130
 7534SOL     OW23500   3.797   6.345   4.905
 7534SOL    HW123501   3.727   6.362   4.836
 7534SOL    HW223502   3.800   6.248   4.927
 7535SOL     OW23503   3.185   1.108   5.605
 7535SOL    HW123504   3.225   1.199   5.605
 7535SOL    HW223505   3.243   1.045   5.553
 7536SOL     OW23506   5.314   4.965   4.745
 7536SOL    HW123507   5.253   5.011   4.681
 7536SOL    HW223508   5.282   4.872   4.760
 7537SOL     OW23509   1.865   4.308   5.365
 7537SOL    HW123510   1.963   4.305   5.348
 7537SOL    HW223511   1.816   4.319   5.278
 7538SOL     OW23512   3.352   3.386   2.428
 7538SOL    HW123513   3.266   3.419   2.466
 7538SOL    HW223514   3.428   3.432   2.472
 7539SOL     OW23515   2.711   2.339   5.173
 7539SOL    HW123516   2.636   2.404   5.170
 7539SOL    HW223517   2.793   2.384   5.211
 7540SOL     OW23518   3.733   0.940   6.088
 7540SOL    HW123519   3.683   0.895   6.162
 7540SOL    HW223520   3.675   1.009   6.046
 7541SOL     OW23521   6.809   3.653   5.182
 7541SOL    HW123522   6.873   3.725   5.210
 7541SOL    HW223523   6.728   3.655   5.240
 7542SOL     OW23524   0.536   6.466   6.291
 7542SOL    HW123525   0.518   6.542   6.227
 7542SOL    HW223526   0.475   6.390   6.268
 7543SOL     OW23527   4.429   1.968   0.399
 7543SOL    HW123528   4.342   2.005   0.366
 7543SOL    HW223529   4.495   2.042   0.410
 7544SOL     OW23530   0.362   1.701   3.337
 7544SOL    HW123531   0.437   1.693   3.272
 7544SOL    HW223532   0.393   1.668   3.427
 7545SOL     OW23533   5.002   6.737   3.048
 7545SOL    HW123534   4.945   6.655   3.044
 7545SOL    HW223535   4.979   6.798   2.973
 7546SOL     OW23536   4.557   0.629   1.028
 7546SOL    HW123537   4.646   0.666   0.999
 7546SOL    HW223538   4.535   0.664   1.119
 7547SOL     OW23539   3.947   6.401   0.500
 7547SOL    HW123540   3.972   6.497   0.492
 7547SOL    HW223541   3.867   6.392   0.560
 7548SOL     OW23542   2.724   1.880   0.438
 7548SOL    HW123543   2.740   1.782   0.451
 7548SOL    HW223544   2.734   1.928   0.525
 7549SOL     OW23545   5.172   1.808   1.872
 7549SOL    HW123546   5.217   1.781   1.957
 7549SOL    HW223547   5.087   1.857   1.894
 7550SOL     OW23548   2.625   5.003   2.653
 7550SOL    HW123549   2.550   5.063   2.680
 7550SOL    HW223550   2.673   5.043   2.575
 7551SOL     OW23551   4.844   4.213   6.643
 7551SOL    HW123552   4.910   4.138   6.645
 7551SOL    HW223553   4.770   4.190   6.580
 7552SOL     OW23554   2.243   5.674   3.885
 7552SOL    HW123555   2.174   5.609   3.855
 7552SOL    HW223556   2.324   5.666   3.827
 7553SOL     OW23557   3.586   4.887   6.080
 7553SOL    HW123558   3.684   4.871   6.072
 7553SOL    HW223559   3.569   4.981   6.110
 7554SOL     OW23560   5.395   1.220   0.824
 7554SOL    HW123561   5.301   1.253   0.814
 7554SOL    HW223562   5.412   1.194   0.919
 7555SOL     OW23563   1.603   5.207   4.770
 7555SOL    HW123564   1.640   5.283   4.824
 7555SOL    HW223565   1.564   5.139   4.832
 7556SOL     OW23566   0.196   2.287   5.580
 7556SOL    HW123567   0.105   2.286   5.539
 7556SOL    HW223568   0.188   2.295   5.679
 7557SOL     OW23569   5.468   3.667   5.546
 7557SOL    HW123570   5.565   3.665   5.521
 7557SOL    HW223571   5.445   3.756   5.586
 7558SOL     OW23572   2.274   2.966   4.099
 7558SOL    HW123573   2.368   2.977   4.132
 7558SOL    HW223574   2.219   3.045   4.128
 7559SOL     OW23575   6.539   5.259   1.520
 7559SOL    HW123576   6.494   5.227   1.604
 7559SOL    HW223577   6.579   5.349   1.537
 7560SOL     OW23578   4.905   6.455   6.896
 7560SOL    HW123579   4.938   6.383   6.957
 7560SOL    HW223580   4.882   6.414   6.807
 7561SOL     OW23581   0.593   3.095   0.029
 7561SOL    HW123582   0.656   3.086   6.975
 7561SOL    HW223583   0.601   3.015   0.088
 7562SOL     OW23584   4.254   6.064   4.767
 7562SOL    HW123585   4.194   6.142   4.788
 7562SOL    HW223586   4.205   6.000   4.709
 7563SOL     OW23587   2.806   7.004   0.604
 7563SOL    HW123588   2.885   6.977   0.548
 7563SOL    HW223589   2.722   6.974   0.559
 7564SOL     OW23590   5.251   1.253   3.512
 7564SOL    HW123591   5.163   1.205   3.518
 7564SOL    HW223592   5.280   1.258   3.417
 7565SOL     OW23593   5.131   4.340   6.389
 7565SOL    HW123594   5.148   4.244   6.411
 7565SOL    HW223595   5.073   4.380   6.460
 7566SOL     OW23596   0.933   4.744   3.465
 7566SOL    HW123597   0.858   4.693   3.508
 7566SOL    HW223598   1.020   4.719   3.509
 7567SOL     OW23599   1.548   2.971   5.474
 7567SOL    HW123600   1.475   2.979   5.543
 7567SOL    HW223601   1.582   3.062   5.451
 7568SOL     OW23602   6.068   5.854   4.380
 7568SOL    HW123603   6.028   5.789   4.315
 7568SOL    HW223604   6.137   5.807   4.435
 7569SOL     OW23605   4.278   5.338   6.306
 7569SOL    HW123606   4.244   5.244   6.312
 7569SOL    HW223607   4.329   5.361   6.388
 7570SOL     OW23608   5.733   5.141   5.394
 7570SOL    HW123609   5.653   5.198   5.408
 7570SOL    HW223610   5.722   5.055   5.444
 7571SOL     OW23611   5.257   4.872   1.777
 7571SOL    HW123612   5.175   4.910   1.820
 7571SOL    HW223613   5.277   4.782   1.814
 7572SOL     OW23614   5.048   0.599   3.821
 7572SOL    HW123615   5.030   0.691   3.787
 7572SOL    HW223616   5.054   0.602   3.921
 7573SOL     OW23617   5.641   5.379   4.348
 7573SOL    HW123618   5.738   5.356   4.343
 7573SOL    HW223619   5.598   5.363   4.259
 7574SOL     OW23620   6.548   1.456   4.631
 7574SOL    HW123621   6.528   1.439   4.534
 7574SOL    HW223622   6.644   1.484   4.640
 7575SOL     OW23623   4.721   0.791   5.855
 7575SOL    HW123624   4.625   0.786   5.828
 7575SOL    HW223625   4.757   0.882   5.835
 7576SOL     OW23626   6.258   5.348   0.087
 7576SOL    HW123627   6.264   5.251   0.112
 7576SOL    HW223628   6.272   5.358   7.012
 7577SOL     OW23629   6.908   0.147   4.945
 7577SOL    HW123630   6.962   0.124   5.025
 7577SOL    HW223631   6.844   0.072   4.924
 7578SOL     OW23632   1.726   6.588   3.616
 7578SOL    HW123633   1.688   6.545   3.534
 7578SOL    HW223634   1.780   6.521   3.667
 7579SOL     OW23635   4.109   1.906   2.340
 7579SOL    HW123636   4.195   1.858   2.356
 7579SOL    HW223637   4.054   1.855   2.275
 7580SOL     OW23638   1.363   3.542   3.871
 7580SOL    HW123639   1.389   3.632   3.906
 7580SOL    HW223640   1.393   3.472   3.936
 7581SOL     OW23641   4.719   0.870   1.408
 7581SOL    HW123642   4.786   0.930   1.452
 7581SOL    HW223643   4.733   0.871   1.309
 7582SOL     OW23644   3.699   1.570   0.470
 7582SOL    HW123645   3.770   1.531   0.529
 7582SOL    HW223646   3.717   1.668   0.457
 7583SOL     OW23647   6.205   3.729   1.706
 7583SOL    HW123648   6.294   3.748   1.747
 7583SOL    HW223649   6.162   3.651   1.753
 7584SOL     OW23650   3.036   6.648   1.373
 7584SOL    HW123651   3.036   6.615   1.467
 7584SOL    HW223652   2.942   6.666   1.344
 7585SOL     OW23653   1.362   3.029   5.917
 7585SOL    HW123654   1.418   2.969   5.974
 7585SOL    HW223655   1.395   3.123   5.926
 7586SOL     OW23656   3.282   1.019   3.034
 7586SOL    HW123657   3.203   0.960   3.047
 7586SOL    HW223658   3.339   1.017   3.117
 7587SOL     OW23659   3.280   1.579   6.907
 7587SOL    HW123660   3.182   1.561   6.913
 7587SOL    HW223661   3.295   1.660   6.850
 7588SOL     OW23662   0.219   3.535   1.893
 7588SOL    HW123663   0.151   3.608   1.906
 7588SOL    HW223664   0.195   3.457   1.950
 7589SOL     OW23665   5.943   6.675   0.490
 7589SOL    HW123666   5.878   6.599   0.501
 7589SOL    HW223667   5.940   6.733   0.571
 7590SOL     OW23668   2.990   1.772   6.460
 7590SOL    HW123669   2.908   1.770   6.518
 7590SOL    HW223670   2.996   1.860   6.413
 7591SOL     OW23671   0.296   5.376   0.704
 7591SOL    HW123672   0.230   5.451   0.693
 7591SOL    HW223673   0.384   5.403   0.664
 7592SOL     OW23674   0.296   4.621   0.130
 7592SOL    HW123675   0.313   4.719   0.134
 7592SOL    HW223676   0.232   4.601   0.055
 7593SOL     OW23677   6.049   2.540   6.550
 7593SOL    HW123678   5.968   2.596   6.530
 7593SOL    HW223679   6.024   2.443   6.543
 7594SOL     OW23680   0.332   4.784   2.157
 7594SOL    HW123681   0.389   4.727   2.216
 7594SOL    HW223682   0.389   4.853   2.112
 7595SOL     OW23683   0.477   2.691   6.249
 7595SOL    HW123684   0.458   2.734   6.161
 7595SOL    HW223685   0.474   2.760   6.322
 7596SOL     OW23686   4.588   5.358   2.715
 7596SOL    HW123687   4.680   5.319   2.722
 7596SOL    HW223688   4.544   5.356   2.804
 7597SOL     OW23689   2.768   5.645   1.721
 7597SOL    HW123690   2.679   5.601   1.718
 7597SOL    HW223691   2.827   5.598   1.786
 7598SOL     OW23692   6.207   0.870   2.792
 7598SOL    HW123693   6.267   0.946   2.814
 7598SOL    HW223694   6.128   0.870   2.854
 7599SOL     OW23695   5.115   0.990   3.787
 7599SOL    HW123696   5.189   0.976   3.722
 7599SOL    HW223697   5.029   0.955   3.747
 7600SOL     OW23698   1.976   0.703   2.260
 7600SOL    HW123699   2.020   0.711   2.349
 7600SOL    HW223700   1.877   0.717   2.271
 7601SOL     OW23701   1.720   5.412   2.767
 7601SOL    HW123702   1.717   5.508   2.794
 7601SOL    HW223703   1.631   5.370   2.785
 7602SOL     OW23704   1.854   3.760   5.540
 7602SOL    HW123705   1.857   3.770   5.639
 7602SOL    HW223706   1.877   3.848   5.497
 7603SOL     OW23707   1.317   6.023   6.353
 7603SOL    HW123708   1.243   5.959   6.331
 7603SOL    HW223709   1.284   6.117   6.343
 7604SOL     OW23710   2.608   5.550   3.975
 7604SOL    HW123711   2.534   5.587   4.032
 7604SOL    HW223712   2.588   5.455   3.952
 7605SOL     OW23713   1.318   6.153   0.282
 7605SOL    HW123714   1.243   6.089   0.270
 7605SOL    HW223715   1.368   6.131   0.366
 7606SOL     OW23716   0.171   2.341   2.437
 7606SOL    HW123717   0.226   2.382   2.510
 7606SOL    HW223718   0.115   2.267   2.475
 7607SOL     OW23719   4.220   6.404   0.254
 7607SOL    HW123720   4.192   6.500   0.265
 7607SOL    HW223721   4.311   6.400   0.214
 7608SOL     OW23722   3.383   3.614   3.560
 7608SOL    HW123723   3.301   3.628   3.616
 7608SOL    HW223724   3.432   3.534   3.594
 7609SOL     OW23725   6.668   3.904   3.372
 7609SOL    HW123726   6.703   3.810   3.367
 7609SOL    HW223727   6.689   3.952   3.287
 7610SOL     OW23728   5.886   0.720   0.064
 7610SOL    HW123729   5.869   0.818   0.061
 7610SOL    HW223730   5.957   0.696   7.022
 7611SOL     OW23731   0.708   2.062   0.196
 7611SOL    HW123732   0.774   2.115   0.143
 7611SOL    HW223733   0.631   2.037   0.138
 7612SOL     OW23734   4.232   2.055   4.621
 7612SOL    HW123735   4.143   2.070   4.665
 7612SOL    HW223736   4.218   2.016   4.530
 7613SOL     OW23737   4.777   1.862   2.184
 7613SOL    HW123738   4.849   1.912   2.136
 7613SOL    HW223739   4.799   1.857   2.281
 7614SOL     OW23740   4.535   2.660   1.466
 7614SOL    HW123741   4.517   2.663   1.564
 7614SOL    HW223742   4.634   2.653   1.450
 7615SOL     OW23743   5.061   4.575   5.819
 7615SOL    HW123744   5.121   4.530   5.753
 7615SOL    HW223745   5.055   4.672   5.797
 7616SOL     OW23746   0.536   4.637   4.067
 7616SOL    HW123747   0.625   4.680   4.076
 7616SOL    HW223748   0.486   4.679   3.991
 7617SOL     OW23749   2.956   5.844   2.643
 7617SOL    HW123750   2.879   5.793   2.605
 7617SOL    HW223751   2.922   5.911   2.710
 7618SOL     OW23752   0.820   2.461   0.096
 7618SOL    HW123753   0.912   2.495   0.116
 7618SOL    HW223754   0.826   2.366   0.065
 7619SOL     OW23755   5.882   3.159   4.427
 7619SOL    HW123756   5.960   3.145   4.488
 7619SOL    HW223757   5.880   3.255   4.398
 7620SOL     OW23758   4.172   5.592   6.966
 7620SOL    HW123759   4.117   5.524   7.016
 7620SOL    HW223760   4.130   5.609   6.877
 7621SOL     OW23761   0.639   1.459   0.697
 7621SOL    HW123762   0.554   1.437   0.649
 7621SOL    HW223763   0.623   1.451   0.796
 7622SOL     OW23764   5.126   4.347   1.828
 7622SOL    HW123765   5.057   4.407   1.788
 7622SOL    HW223766   5.092   4.253   1.830
 7623SOL     OW23767   4.297   4.748   6.365
 7623SOL    HW123768   4.392   4.726   6.391
 7623SOL    HW223769   4.265   4.682   6.297
 7624SOL     OW23770   0.535   2.806   4.425
 7624SOL    HW123771   0.585   2.720   4.433
 7624SOL    HW223772   0.594   2.883   4.451
 7625SOL     OW23773   4.515   0.754   1.523
 7625SOL    HW123774   4.431   0.808   1.532
 7625SOL    HW223775   4.587   0.811   1.481
 7626SOL     OW23776   6.721   6.433   5.386
 7626SOL    HW123777   6.664   6.376   5.446
 7626SOL    HW223778   6.699   6.413   5.291
 7627SOL     OW23779   5.916   3.409   6.746
 7627SOL    HW123780   5.829   3.410   6.795
 7627SOL    HW223781   5.955   3.502   6.746
 7628SOL     OW23782   3.244   0.485   1.170
 7628SOL    HW123783   3.193   0.406   1.204
 7628SOL    HW223784   3.252   0.479   1.071
 7629SOL     OW23785   6.207   6.658   2.637
 7629SOL    HW123786   6.107   6.651   2.635
 7629SOL    HW223787   6.246   6.589   2.576
 7630SOL     OW23788   5.857   6.405   1.882
 7630SOL    HW123789   5.903   6.320   1.908
 7630SOL    HW223790   5.766   6.408   1.923
 7631SOL     OW23791   0.653   1.813   5.496
 7631SOL    HW123792   0.723   1.854   5.554
 7631SOL    HW223793   0.590   1.885   5.466
 7632SOL     OW23794   3.549   2.326   1.613
 7632SOL    HW123795   3.609   2.389   1.563
 7632SOL    HW223796   3.584   2.314   1.706
 7633SOL     OW23797   5.018   2.755   6.984
 7633SOL    HW123798   5.063   2.667   6.968
 7633SOL    HW223799   4.956   2.775   6.908
 7634SOL     OW23800   1.261   1.169   1.958
 7634SOL    HW123801   1.281   1.238   2.028
 7634SOL    HW223802   1.218   1.214   1.879
 7635SOL     OW23803   2.500   5.121   5.602
 7635SOL    HW123804   2.599   5.121   5.589
 7635SOL    HW223805   2.466   5.027   5.597
 7636SOL     OW23806   0.901   1.152   3.212
 7636SOL    HW123807   0.822   1.210   3.189
 7636SOL    HW223808   0.916   1.153   3.310
 7637SOL     OW23809   2.167   6.428   2.485
 7637SOL    HW123810   2.169   6.340   2.533
 7637SOL    HW223811   2.100   6.488   2.529
 7638SOL     OW23812   4.679   6.073   2.272
 7638SOL    HW123813   4.678   5.984   2.225
 7638SOL    HW223814   4.586   6.103   2.289
 7639SOL     OW23815   1.467   2.195   0.436
 7639SOL    HW123816   1.527   2.137   0.491
 7639SOL    HW223817   1.416   2.257   0.496
 7640SOL     OW23818   3.357   2.384   0.344
 7640SOL    HW123819   3.280   2.425   0.294
 7640SOL    HW223820   3.351   2.285   0.338
 7641SOL     OW23821   0.431   4.411   1.411
 7641SOL    HW123822   0.379   4.490   1.379
 7641SOL    HW223823   0.445   4.418   1.510
 7642SOL     OW23824   2.393   1.447   2.934
 7642SOL    HW123825   2.428   1.510   3.004
 7642SOL    HW223826   2.425   1.355   2.954
 7643SOL     OW23827   4.507   1.848   3.879
 7643SOL    HW123828   4.476   1.781   3.812
 7643SOL    HW223829   4.603   1.832   3.901
 7644SOL     OW23830   5.983   2.095   2.591
 7644SOL    HW123831   5.994   2.145   2.677
 7644SOL    HW223832   5.957   2.000   2.611
 7645SOL     OW23833   4.569   4.320   5.949
 7645SOL    HW123834   4.552   4.273   6.036
 7645SOL    HW223835   4.667   4.334   5.937
 7646SOL     OW23836   1.995   2.535   2.340
 7646SOL    HW123837   2.033   2.532   2.248
 7646SOL    HW223838   2.042   2.604   2.394
 7647SOL     OW23839   1.034   2.956   1.244
 7647SOL    HW123840   1.079   2.867   1.258
 7647SOL    HW223841   1.101   3.022   1.211
 7648SOL     OW23842   3.920   2.192   3.762
 7648SOL    HW123843   3.840   2.248   3.741
 7648SOL    HW223844   3.947   2.207   3.857
 7649SOL     OW23845   1.613   0.706   2.674
 7649SOL    HW123846   1.676   0.630   2.656
 7649SOL    HW223847   1.531   0.672   2.719
 7650SOL     OW23848   5.597   3.581   1.299
 7650SOL    HW123849   5.665   3.553   1.231
 7650SOL    HW223850   5.616   3.537   1.386
 7651SOL     OW23851   2.701   6.997   4.694
 7651SOL    HW123852   2.736   6.920   4.640
 7651SOL    HW223853   2.734   0.059   4.655
 7652SOL     OW23854   0.314   4.056   4.176
 7652SOL    HW123855   0.318   4.104   4.088
 7652SOL    HW223856   0.256   4.108   4.239
 7653SOL     OW23857   2.523   1.774   1.143
 7653SOL    HW123858   2.454   1.780   1.215
 7653SOL    HW223859   2.613   1.764   1.184
 7654SOL     OW23860   4.956   3.094   3.582
 7654SOL    HW123861   5.038   3.070   3.530
 7654SOL    HW223862   4.983   3.142   3.665
 7655SOL     OW23863   3.881   0.170   3.599
 7655SOL    HW123864   3.862   0.212   3.510
 7655SOL    HW223865   3.980   0.168   3.614
 7656SOL     OW23866   1.168   5.396   5.671
 7656SOL    HW123867   1.215   5.480   5.698
 7656SOL    HW223868   1.087   5.420   5.616
 7657SOL     OW23869   2.522   2.546   3.138
 7657SOL    HW123870   2.456   2.470   3.143
 7657SOL    HW223871   2.477   2.631   3.162
 7658SOL     OW23872   4.040   6.321   5.259
 7658SOL    HW123873   4.002   6.388   5.323
 7658SOL    HW223874   4.089   6.369   5.186
 7659SOL     OW23875   5.584   5.765   6.841
 7659SOL    HW123876   5.581   5.684   6.900
 7659SOL    HW223877   5.656   5.826   6.872
 7660SOL     OW23878   6.020   5.430   4.141
 7660SOL    HW123879   6.120   5.428   4.137
 7660SOL    HW223880   5.991   5.492   4.214
 7661SOL     OW23881   6.107   2.273   4.906
 7661SOL    HW123882   6.036   2.311   4.846
 7661SOL    HW223883   6.137   2.185   4.869
 7662SOL     OW23884   0.869   2.133   2.522
 7662SOL    HW123885   0.877   2.045   2.475
 7662SOL    HW223886   0.923   2.132   2.606
 7663SOL     OW23887   6.030   6.754   6.225
 7663SOL    HW123888   6.101   6.791   6.284
 7663SOL    HW223889   5.946   6.808   6.235
 7664SOL     OW23890   3.805   1.053   2.564
 7664SOL    HW123891   3.780   0.995   2.487
 7664SOL    HW223892   3.762   1.143   2.554
 7665SOL     OW23893   4.112   0.494   4.100
 7665SOL    HW123894   4.178   0.435   4.147
 7665SOL    HW223895   4.158   0.576   4.067
 7666SOL     OW23896   0.311   6.962   1.084
 7666SOL    HW123897   0.385   6.934   1.145
 7666SOL    HW223898   0.348   7.019   1.010
 7667SOL     OW23899   4.612   5.921   1.561
 7667SOL    HW123900   4.518   5.887   1.557
 7667SOL    HW223901   4.626   5.972   1.646
 7668SOL     OW23902   2.913   4.591   0.906
 7668SOL    HW123903   2.844   4.635   0.964
 7668SOL    HW223904   2.957   4.517   0.957
 7669SOL     OW23905   5.384   1.550   5.321
 7669SOL    HW123906   5.375   1.454   5.347
 7669SOL    HW223907   5.452   1.559   5.248
 7670SOL     OW23908   1.348   5.833   5.963
 7670SOL    HW123909   1.336   5.763   5.892
 7670SOL    HW223910   1.442   5.868   5.960
 7671SOL     OW23911   4.509   0.921   4.800
 7671SOL    HW123912   4.518   0.951   4.895
 7671SOL    HW223913   4.596   0.936   4.752
 7672SOL     OW23914   5.790   6.095   3.749
 7672SOL    HW123915   5.823   6.127   3.837
 7672SOL    HW223916   5.739   6.168   3.704
 7673SOL     OW23917   2.283   5.344   0.331
 7673SOL    HW123918   2.231   5.347   0.417
 7673SOL    HW223919   2.225   5.374   0.256
 7674SOL     OW23920   6.635   2.405   4.034
 7674SOL    HW123921   6.603   2.407   3.939
 7674SOL    HW223922   6.563   2.367   4.092
 7675SOL     OW23923   5.140   0.786   2.914
 7675SOL    HW123924   5.179   0.735   2.990
 7675SOL    HW223925   5.040   0.783   2.919
 7676SOL     OW23926   1.245   2.085   0.325
 7676SOL    HW123927   1.333   2.130   0.341
 7676SOL    HW223928   1.243   1.998   0.374
 7677SOL     OW23929   0.495   3.886   1.808
 7677SOL    HW123930   0.584   3.932   1.806
 7677SOL    HW223931   0.497   3.813   1.877
 7678SOL     OW23932   1.692   1.504   5.798
 7678SOL    HW123933   1.621   1.570   5.823
 7678SOL    HW223934   1.705   1.505   5.698
 7679SOL     OW23935   1.738   6.357   5.215
 7679SOL    HW123936   1.792   6.410   5.280
 7679SOL    HW223937   1.797   6.291   5.168
 7680SOL     OW23938   1.910   2.400   6.902
 7680SOL    HW123939   1.884   2.351   6.985
 7680SOL    HW223940   1.837   2.392   6.835
 7681SOL     OW23941   3.018   6.917   0.444
 7681SOL    HW123942   3.068   6.840   0.486
 7681SOL    HW223943   3.018   6.907   0.345
 7682SOL     OW23944   2.898   0.286   2.120
 7682SOL    HW123945   2.960   0.362   2.141
 7682SOL    HW223946   2.805   0.322   2.107
 7683SOL     OW23947   6.543   2.096   4.300
 7683SOL    HW123948   6.560   2.006   4.260
 7683SOL    HW223949   6.543   2.088   4.400
 7684SOL     OW23950   5.359   2.049   0.672
 7684SOL    HW123951   5.387   2.131   0.721
 7684SOL    HW223952   5.272   2.065   0.625
 7685SOL     OW23953   3.565   3.480   0.042
 7685SOL    HW123954   3.561   3.416   6.989
 7685SOL    HW223955   3.603   3.567   0.011
 7686SOL     OW23956   5.064   0.399   3.661
 7686SOL    HW123957   5.043   0.317   3.713
 7686SOL    HW223958   5.060   0.479   3.720
 7687SOL     OW23959   5.816   5.581   5.553
 7687SOL    HW123960   5.869   5.522   5.492
 7687SOL    HW223961   5.745   5.629   5.501
 7688SOL     OW23962   0.192   0.650   6.018
 7688SOL    HW123963   0.268   0.608   5.968
 7688SOL    HW223964   0.212   0.746   6.034
 7689SOL     OW23965   5.473   5.504   3.388
 7689SOL    HW123966   5.501   5.576   3.452
 7689SOL    HW223967   5.384   5.467   3.417
 7690SOL     OW23968   6.036   5.052   1.074
 7690SOL    HW123969   5.960   5.116   1.084
 7690SOL    HW223970   6.100   5.088   1.006
 7691SOL     OW23971   5.143   2.551   4.457
 7691SOL    HW123972   5.131   2.632   4.400
 7691SOL    HW223973   5.119   2.573   4.551
 7692SOL     OW23974   0.824   6.765   1.418
 7692SOL    HW123975   0.838   6.787   1.515
 7692SOL    HW223976   0.892   6.813   1.363
 7693SOL     OW23977   4.403   6.660   0.873
 7693SOL    HW123978   4.329   6.644   0.938
 7693SOL    HW223979   4.490   6.665   0.922
 7694SOL     OW23980   0.269   4.471   4.112
 7694SOL    HW123981   0.339   4.524   4.160
 7694SOL    HW223982   0.272   4.493   4.014
 7695SOL     OW23983   3.860   6.897   0.763
 7695SOL    HW123984   3.784   6.950   0.801
 7695SOL    HW223985   3.833   6.802   0.753
 7696SOL     OW23986   6.628   1.870   4.946
 7696SOL    HW123987   6.642   1.850   4.849
 7696SOL    HW223988   6.659   1.963   4.966
 7697SOL     OW23989   3.127   0.689   2.612
 7697SOL    HW123990   3.149   0.779   2.573
 7697SOL    HW223991   3.195   0.622   2.583
 7698SOL     OW23992   0.193   3.010   4.628
 7698SOL    HW123993   0.129   2.933   4.620
 7698SOL    HW223994   0.181   3.071   4.549
 7699SOL     OW23995   3.830   5.927   6.741
 7699SOL    HW123996   3.762   5.865   6.702
 7699SOL    HW223997   3.855   5.895   6.833
 7700SOL     OW23998   4.558   6.315   5.402
 7700SOL    HW123999   4.548   6.407   5.364
 7700SOL    HW224000   4.621   6.318   5.480
 7701SOL     OW24001   6.539   1.680   6.736
 7701SOL    HW124002   6.604   1.679   6.660
 7701SOL    HW224003   6.462   1.621   6.714
 7702SOL     OW24004   3.244   6.256   5.891
 7702SOL    HW124005   3.275   6.242   5.797
 7702SOL    HW224006   3.258   6.351   5.918
 7703SOL     OW24007   6.882   1.579   4.677
 7703SOL    HW124008   6.933   1.562   4.593
 7703SOL    HW224009   6.945   1.585   4.755
 7704SOL     OW24010   4.995   4.795   5.461
 7704SOL    HW124011   4.979   4.724   5.393
 7704SOL    HW224012   4.908   4.830   5.495
 7705SOL     OW24013   3.551   5.086   6.448
 7705SOL    HW124014   3.473   5.132   6.406
 7705SOL    HW224015   3.542   5.090   6.548
 7706SOL     OW24016   5.010   1.371   5.614
 7706SOL    HW124017   5.093   1.377   5.670
 7706SOL    HW224018   4.930   1.394   5.669
 7707SOL     OW24019   1.123   5.890   6.684
 7707SOL    HW124020   1.214   5.858   6.657
 7707SOL    HW224021   1.101   5.975   6.636
 7708SOL     OW24022   4.881   5.996   5.299
 7708SOL    HW124023   4.889   5.924   5.229
 7708SOL    HW224024   4.804   6.055   5.276
 7709SOL     OW24025   5.297   3.679   1.954
 7709SOL    HW124026   5.338   3.680   1.862
 7709SOL    HW224027   5.361   3.719   2.019
 7710SOL     OW24028   2.909   0.733   0.880
 7710SOL    HW124029   2.910   0.722   0.979
 7710SOL    HW224030   2.896   0.829   0.857
 7711SOL     OW24031   6.186   6.288   5.182
 7711SOL    HW124032   6.277   6.255   5.159
 7711SOL    HW224033   6.158   6.249   5.270
 7712SOL     OW24034   6.484   3.766   1.379
 7712SOL    HW124035   6.534   3.846   1.346
 7712SOL    HW224036   6.549   3.694   1.404
 7713SOL     OW24037   1.837   4.266   0.319
 7713SOL    HW124038   1.816   4.331   0.246
 7713SOL    HW224039   1.935   4.246   0.319
 7714SOL     OW24040   6.522   5.675   5.111
 7714SOL    HW124041   6.542   5.585   5.152
 7714SOL    HW224042   6.489   5.737   5.182
 7715SOL     OW24043   4.812   1.486   1.168
 7715SOL    HW124044   4.768   1.503   1.079
 7715SOL    HW224045   4.769   1.407   1.211
 7716SOL     OW24046   6.052   3.606   3.398
 7716SOL    HW124047   6.120   3.647   3.459
 7716SOL    HW224048   5.981   3.673   3.377
 7717SOL     OW24049   2.595   1.283   4.971
 7717SOL    HW124050   2.647   1.282   4.886
 7717SOL    HW224051   2.656   1.304   5.047
 7718SOL     OW24052   2.021   1.935   2.686
 7718SOL    HW124053   1.925   1.954   2.709
 7718SOL    HW224054   2.058   2.012   2.634
 7719SOL     OW24055   6.964   3.887   3.702
 7719SOL    HW124056   7.000   3.951   3.770
 7719SOL    HW224057   6.869   3.911   3.681
 7720SOL     OW24058   6.949   6.900   0.312
 7720SOL    HW124059   6.865   6.846   0.307
 7720SOL    HW224060   6.936   6.976   0.375
 7721SOL     OW24061   1.297   4.321   2.702
 7721SOL    HW124062   1.324   4.251   2.636
 7721SOL    HW224063   1.369   4.332   2.770
 7722SOL     OW24064   0.548   5.433   2.307
 7722SOL    HW124065   0.503   5.483   2.380
 7722SOL    HW224066   0.583   5.346   2.342
 7723SOL     OW24067   6.559   4.301   0.328
 7723SOL    HW124068   6.508   4.363   0.387
 7723SOL    HW224069   6.583   4.348   0.243
 7724SOL     OW24070   2.279   4.151   1.986
 7724SOL    HW124071   2.320   4.238   2.013
 7724SOL    HW224072   2.317   4.121   1.898
 7725SOL     OW24073   5.649   2.686   3.252
 7725SOL    HW124074   5.701   2.628   3.190
 7725SOL    HW224075   5.594   2.751   3.199
 7726SOL     OW24076   0.194   5.769   3.930
 7726SOL    HW124077   0.175   5.680   3.888
 7726SOL    HW224078   0.118   5.795   3.990
 7727SOL     OW24079   6.517   1.393   3.030
 7727SOL    HW124080   6.485   1.487   3.016
 7727SOL    HW224081   6.459   1.349   3.099
 7728SOL     OW24082   1.225   3.996   3.533
 7728SOL    HW124083   1.157   3.971   3.602
 7728SOL    HW224084   1.260   4.087   3.553
 7729SOL     OW24085   6.109   2.889   1.790
 7729SOL    HW124086   6.120   2.981   1.753
 7729SOL    HW224087   6.081   2.894   1.886
 7730SOL     OW24088   6.070   5.366   1.846
 7730SOL    HW124089   5.994   5.430   1.832
 7730SOL    HW224090   6.141   5.383   1.777
 7731SOL     OW24091   6.106   1.252   0.901
 7731SOL    HW124092   6.132   1.321   0.969
 7731SOL    HW224093   6.006   1.247   0.895
 7732SOL     OW24094   4.536   6.058   0.939
 7732SOL    HW124095   4.566   6.146   0.975
 7732SOL    HW224096   4.501   6.002   1.013
 7733SOL     OW24097   4.392   6.422   2.088
 7733SOL    HW124098   4.318   6.484   2.063
 7733SOL    HW224099   4.471   6.438   2.029
 7734SOL     OW24100   1.919   4.082   3.768
 7734SOL    HW124101   1.958   4.165   3.727
 7734SOL    HW224102   1.899   4.015   3.696
 7735SOL     OW24103   3.618   5.866   6.233
 7735SOL    HW124104   3.662   5.861   6.323
 7735SOL    HW224105   3.652   5.947   6.184
 7736SOL     OW24106   5.268   4.552   6.653
 7736SOL    HW124107   5.172   4.531   6.633
 7736SOL    HW224108   5.327   4.508   6.585
 7737SOL     OW24109   4.363   0.715   1.233
 7737SOL    HW124110   4.421   0.729   1.314
 7737SOL    HW224111   4.310   0.631   1.245
 7738SOL     OW24112   1.851   5.849   6.902
 7738SOL    HW124113   1.905   5.929   6.879
 7738SOL    HW224114   1.836   5.845   7.000
 7739SOL     OW24115   0.453   1.300   1.735
 7739SOL    HW124116   0.413   1.209   1.735
 7739SOL    HW224117   0.545   1.296   1.774
 7740SOL     OW24118   0.795   0.570   2.905
 7740SOL    HW124119   0.777   0.492   2.845
 7740SOL    HW224120   0.805   0.538   2.999
 7741SOL     OW24121   1.037   6.129   4.542
 7741SOL    HW124122   1.014   6.081   4.628
 7741SOL    HW224123   0.963   6.115   4.476
 7742SOL     OW24124   6.772   2.202   3.462
 7742SOL    HW124125   6.755   2.283   3.406
 7742SOL    HW224126   6.701   2.194   3.532
 7743SOL     OW24127   4.518   2.404   6.117
 7743SOL    HW124128   4.592   2.351   6.158
 7743SOL    HW224129   4.512   2.383   6.020
 7744SOL     OW24130   0.481   6.017   4.216
 7744SOL    HW124131   0.431   5.945   4.167
 7744SOL    HW224132   0.420   6.062   4.281
 7745SOL     OW24133   3.249   2.051   5.719
 7745SOL    HW124134   3.200   1.973   5.757
 7745SOL    HW224135   3.241   2.051   5.619
 7746SOL     OW24136   2.599   6.781   0.072
 7746SOL    HW124137   2.597   6.873   0.033
 7746SOL    HW224138   2.525   6.771   0.139
 7747SOL     OW24139   4.151   5.895   1.519
 7747SOL    HW124140   4.154   5.981   1.570
 7747SOL    HW224141   4.244   5.862   1.503
 7748SOL     OW24142   3.117   3.986   5.777
 7748SOL    HW124143   3.091   4.047   5.853
 7748SOL    HW224144   3.215   3.965   5.783
 7749SOL     OW24145   4.091   3.380   6.131
 7749SOL    HW124146   4.069   3.403   6.036
 7749SOL    HW224147   4.086   3.281   6.143
 7750SOL     OW24148   0.175   6.014   1.509
 7750SOL    HW124149   0.205   6.088   1.450
 7750SOL    HW224150   0.232   5.933   1.491
 7751SOL     OW24151   1.234   1.535   2.338
 7751SOL    HW124152   1.305   1.497   2.397
 7751SOL    HW224153   1.161   1.467   2.325
 7752SOL     OW24154   5.064   6.965   5.517
 7752SOL    HW124155   4.998   0.012   5.540
 7752SOL    HW224156   5.100   6.981   5.425
 7753SOL     OW24157   2.342   1.523   5.015
 7753SOL    HW124158   2.292   1.596   4.970
 7753SOL    HW224159   2.388   1.467   4.946
 7754SOL     OW24160   3.791   5.848   1.518
 7754SOL    HW124161   3.810   5.884   1.426
 7754SOL    HW224162   3.861   5.782   1.543
 7755SOL     OW24163   1.247   3.159   6.359
 7755SOL    HW124164   1.162   3.150   6.308
 7755SOL    HW224165   1.230   3.206   6.445
 7756SOL     OW24166   3.001   6.276   2.005
 7756SOL    HW124167   3.100   6.294   2.000
 7756SOL    HW224168   2.967   6.254   1.914
 7757SOL     OW24169   6.651   4.283   1.229
 7757SOL    HW124170   6.726   4.301   1.292
 7757SOL    HW224171   6.665   4.195   1.184
 7758SOL     OW24172   1.607   6.687   6.381
 7758SOL    HW124173   1.650   6.633   6.308
 7758SOL    HW224174   1.601   6.782   6.353
 7759SOL     OW24175   3.132   2.277   5.872
 7759SOL    HW124176   3.126   2.188   5.827
 7759SOL    HW224177   3.109   2.268   5.969
 7760SOL     OW24178   4.986   2.035   2.163
 7760SOL    HW124179   5.057   2.028   2.093
 7760SOL    HW224180   5.017   2.097   2.236
 7761SOL     OW24181   5.773   6.370   4.862
 7761SOL    HW124182   5.803   6.432   4.790
 7761SOL    HW224183   5.707   6.418   4.921
 7762SOL     OW24184   1.792   0.762   3.700
 7762SOL    HW124185   1.701   0.721   3.687
 7762SOL    HW224186   1.786   0.860   3.687
 7763SOL     OW24187   2.357   6.852   5.318
 7763SOL    HW124188   2.308   6.783   5.372
 7763SOL    HW224189   2.342   6.942   5.358
 7764SOL     OW24190   3.075   4.247   5.642
 7764SOL    HW124191   3.062   4.229   5.740
 7764SOL    HW224192   3.047   4.341   5.622
 7765SOL     OW24193   6.385   3.538   4.374
 7765SOL    HW124194   6.479   3.570   4.359
 7765SOL    HW224195   6.369   3.458   4.317
 7766SOL     OW24196   0.698   3.985   0.010
 7766SOL    HW124197   0.773   3.923   7.011
 7766SOL    HW224198   0.683   3.983   0.109
 7767SOL     OW24199   4.624   0.052   2.317
 7767SOL    HW124200   4.643   0.019   2.410
 7767SOL    HW224201   4.525   0.052   2.302
 7768SOL     OW24202   4.806   4.322   3.635
 7768SOL    HW124203   4.832   4.415   3.662
 7768SOL    HW224204   4.730   4.291   3.692
 7769SOL     OW24205   3.818   1.538   5.072
 7769SOL    HW124206   3.750   1.548   4.999
 7769SOL    HW224207   3.870   1.622   5.082
 7770SOL     OW24208   0.091   3.679   4.723
 7770SOL    HW124209   0.159   3.706   4.791
 7770SOL    HW224210   0.123   3.598   4.674
 7771SOL     OW24211   2.732   2.178   6.353
 7771SOL    HW124212   2.770   2.187   6.261
 7771SOL    HW224213   2.650   2.121   6.350
 7772SOL     OW24214   4.968   1.037   0.762
 7772SOL    HW124215   4.918   1.020   0.678
 7772SOL    HW224216   4.909   1.084   0.827
 7773SOL     OW24217   2.231   5.778   6.522
 7773SOL    HW124218   2.315   5.740   6.485
 7773SOL    HW224219   2.190   5.713   6.586
 7774SOL     OW24220   4.742   2.409   4.232
 7774SOL    HW124221   4.684   2.413   4.150
 7774SOL    HW224222   4.785   2.320   4.238
 7775SOL     OW24223   3.961   0.218   6.956
 7775SOL    HW124224   3.983   0.295   7.016
 7775SOL    HW224225   3.958   0.134   7.010
 7776SOL     OW24226   0.003   6.675   6.283
 7776SOL    HW124227   0.007   6.736   6.363
 7776SOL    HW224228   6.970   6.596   6.305
 7777SOL     OW24229   6.192   5.580   4.630
 7777SOL    HW124230   6.195   5.624   4.720
 7777SOL    HW224231   6.101   5.545   4.613
 7778SOL     OW24232   6.067   4.184   2.407
 7778SOL    HW124233   6.055   4.093   2.447
 7778SOL    HW224234   6.159   4.217   2.427
 7779SOL     OW24235   3.609   0.409   2.714
 7779SOL    HW124236   3.612   0.406   2.614
 7779SOL    HW224237   3.518   0.382   2.746
 7780SOL     OW24238   6.980   6.182   6.150
 7780SOL    HW124239   6.908   6.222   6.094
 7780SOL    HW224240   0.011   6.254   6.192
 7781SOL     OW24241   1.646   3.935   0.279
 7781SOL    HW124242   1.705   3.949   0.199
 7781SOL    HW224243   1.641   4.020   0.332
 7782SOL     OW24244   5.795   4.416   3.327
 7782SOL    HW124245   5.749   4.380   3.246
 7782SOL    HW224246   5.789   4.516   3.327
 7783SOL     OW24247   0.372   0.008   5.714
 7783SOL    HW124248   0.310   6.968   5.761
 7783SOL    HW224249   0.445   6.981   5.669
 7784SOL     OW24250   2.836   2.380   1.652
 7784SOL    HW124251   2.772   2.304   1.656
 7784SOL    HW224252   2.861   2.409   1.744
 7785SOL     OW24253   1.368   6.491   3.565
 7785SOL    HW124254   1.323   6.558   3.506
 7785SOL    HW224255   1.407   6.418   3.510
 7786SOL     OW24256   4.663   1.109   6.808
 7786SOL    HW124257   4.688   1.114   6.905
 7786SOL    HW224258   4.567   1.135   6.796
 7787SOL     OW24259   2.219   3.013   0.999
 7787SOL    HW124260   2.224   2.942   1.069
 7787SOL    HW224261   2.129   3.055   1.000
 7788SOL     OW24262   1.418   6.135   1.823
 7788SOL    HW124263   1.325   6.170   1.810
 7788SOL    HW224264   1.474   6.206   1.866
 7789SOL     OW24265   3.303   6.953   6.197
 7789SOL    HW124266   3.401   6.967   6.206
 7789SOL    HW224267   3.260   0.011   6.160
 7790SOL     OW24268   6.512   5.069   2.597
 7790SOL    HW124269   6.597   5.121   2.588
 7790SOL    HW224270   6.530   4.986   2.651
 7791SOL     OW24271   1.963   5.310   1.559
 7791SOL    HW124272   2.027   5.382   1.530
 7791SOL    HW224273   1.969   5.234   1.494
 7792SOL     OW24274   0.181   1.074   2.612
 7792SOL    HW124275   0.206   1.041   2.703
 7792SOL    HW224276   0.203   1.005   2.544
 7793SOL     OW24277   5.160   1.236   6.570
 7793SOL    HW124278   5.138   1.219   6.474
 7793SOL    HW224279   5.253   1.204   6.589
 7794SOL     OW24280   0.479   5.460   2.022
 7794SOL    HW124281   0.500   5.435   2.116
 7794SOL    HW224282   0.396   5.515   2.019
 7795SOL     OW24283   3.220   5.092   5.538
 7795SOL    HW124284   3.281   5.042   5.599
 7795SOL    HW224285   3.193   5.032   5.462
 7796SOL     OW24286   4.062   3.453   5.872
 7796SOL    HW124287   4.098   3.470   5.780
 7796SOL    HW224288   3.962   3.464   5.872
 7797SOL     OW24289   1.466   5.194   1.972
 7797SOL    HW124290   1.415   5.225   2.052
 7797SOL    HW224291   1.413   5.213   1.890
 7798SOL     OW24292   1.119   1.269   1.702
 7798SOL    HW124293   1.087   1.334   1.634
 7798SOL    HW224294   1.170   1.195   1.657
 7799SOL     OW24295   2.868   6.050   2.826
 7799SOL    HW124296   2.805   6.107   2.878
 7799SOL    HW224297   2.942   6.020   2.885
 7800SOL     OW24298   0.478   5.927   1.786
 7800SOL    HW124299   0.555   5.871   1.755
 7800SOL    HW224300   0.455   5.902   1.880
 7801SOL     OW24301   1.740   1.984   2.706
 7801SOL    HW124302   1.779   2.072   2.680
 7801SOL    HW224303   1.675   1.996   2.780
 7802SOL     OW24304   6.908   4.653   6.595
 7802SOL    HW124305   6.986   4.693   6.644
 7802SOL    HW224306   6.928   4.558   6.574
 7803SOL     OW24307   5.545   2.081   6.957
 7803SOL    HW124308   5.536   2.178   6.976
 7803SOL    HW224309   5.462   2.047   6.913
 7804SOL     OW24310   3.032   1.849   4.078
 7804SOL    HW124311   3.126   1.814   4.072
 7804SOL    HW224312   2.994   1.860   3.986
 7805SOL     OW24313   5.157   2.888   1.821
 7805SOL    HW124314   5.141   2.829   1.901
 7805SOL    HW224315   5.072   2.935   1.797
 7806SOL     OW24316   6.608   2.336   6.545
 7806SOL    HW124317   6.557   2.288   6.615
 7806SOL    HW224318   6.677   2.275   6.506
 7807SOL     OW24319   1.319   4.476   6.191
 7807SOL    HW124320   1.303   4.377   6.195
 7807SOL    HW224321   1.408   4.497   6.230
 7808SOL     OW24322   4.682   4.415   2.549
 7808SOL    HW124323   4.699   4.319   2.527
 7808SOL    HW224324   4.642   4.460   2.469
 7809SOL     OW24325   4.962   5.209   4.573
 7809SOL    HW124326   5.008   5.123   4.551
 7809SOL    HW224327   4.908   5.198   4.656
 7810SOL     OW24328   3.648   0.039   4.575
 7810SOL    HW124329   3.747   0.055   4.573
 7810SOL    HW224330   3.608   0.087   4.654
 7811SOL     OW24331   1.231   5.729   2.945
 7811SOL    HW124332   1.281   5.678   2.875
 7811SOL    HW224333   1.294   5.758   3.017
 7812SOL     OW24334   2.341   3.210   5.369
 7812SOL    HW124335   2.352   3.302   5.331
 7812SOL    HW224336   2.414   3.151   5.334
 7813SOL     OW24337   4.439   2.687   1.210
 7813SOL    HW124338   4.404   2.780   1.203
 7813SOL    HW224339   4.498   2.680   1.291
 7814SOL     OW24340   6.796   3.295   2.660
 7814SOL    HW124341   6.728   3.226   2.685
 7814SOL    HW224342   6.880   3.250   2.629
 7815SOL     OW24343   5.464   2.056   5.340
 7815SOL    HW124344   5.395   2.101   5.396
 7815SOL    HW224345   5.506   1.981   5.391
 7816SOL     OW24346   0.301   1.627   5.904
 7816SOL    HW124347   0.354   1.575   5.836
 7816SOL    HW224348   0.259   1.563   5.969
 7817SOL     OW24349   3.948   3.870   5.652
 7817SOL    HW124350   3.960   3.968   5.665
 7817SOL    HW224351   4.037   3.824   5.658
 7818SOL     OW24352   4.553   1.299   2.159
 7818SOL    HW124353   4.500   1.240   2.099
 7818SOL    HW224354   4.511   1.390   2.162
 7819SOL     OW24355   0.287   3.807   4.296
 7819SOL    HW124356   0.302   3.888   4.238
 7819SOL    HW224357   0.215   3.826   4.363
 7820SOL     OW24358   2.100   1.104   5.632
 7820SOL    HW124359   2.115   1.179   5.568
 7820SOL    HW224360   2.037   1.133   5.704
 7821SOL     OW24361   6.115   5.715   0.256
 7821SOL    HW124362   6.028   5.737   0.300
 7821SOL    HW224363   6.104   5.720   0.157
 7822SOL     OW24364   1.109   1.801   5.574
 7822SOL    HW124365   1.088   1.737   5.501
 7822SOL    HW224366   1.047   1.785   5.651
 7823SOL     OW24367   1.241   4.219   6.190
 7823SOL    HW124368   1.278   4.127   6.175
 7823SOL    HW224369   1.162   4.214   6.250
 7824SOL     OW24370   5.822   0.762   4.212
 7824SOL    HW124371   5.839   0.811   4.126
 7824SOL    HW224372   5.903   0.767   4.270
 7825SOL     OW24373   2.471   2.766   1.779
 7825SOL    HW124374   2.410   2.782   1.856
 7825SOL    HW224375   2.536   2.693   1.802
 7826SOL     OW24376   5.516   1.655   6.959
 7826SOL    HW124377   5.466   1.699   0.010
 7826SOL    HW224378   5.452   1.609   6.899
 7827SOL     OW24379   3.690   4.767   1.388
 7827SOL    HW124380   3.780   4.737   1.356
 7827SOL    HW224381   3.633   4.789   1.309
 7828SOL     OW24382   0.580   5.864   0.973
 7828SOL    HW124383   0.603   5.950   1.019
 7828SOL    HW224384   0.627   5.789   1.018
 7829SOL     OW24385   2.592   3.571   1.386
 7829SOL    HW124386   2.581   3.498   1.319
 7829SOL    HW224387   2.529   3.646   1.364
 7830SOL     OW24388   5.595   3.753   5.970
 7830SOL    HW124389   5.530   3.678   5.958
 7830SOL    HW224390   5.635   3.747   6.062
 7831SOL     OW24391   1.291   4.319   0.089
 7831SOL    HW124392   1.359   4.334   0.160
 7831SOL    HW224393   1.288   4.400   0.029
 7832SOL     OW24394   3.255   1.571   5.141
 7832SOL    HW124395   3.156   1.573   5.131
 7832SOL    HW224396   3.286   1.477   5.150
 7833SOL     OW24397   1.273   0.647   0.818
 7833SOL    HW124398   1.247   0.719   0.754
 7833SOL    HW224399   1.193   0.619   0.871
 7834SOL     OW24400   0.113   1.607   2.104
 7834SOL    HW124401   0.157   1.536   2.049
 7834SOL    HW224402   0.116   1.581   2.201
 7835SOL     OW24403   2.285   2.867   4.791
 7835SOL    HW124404   2.368   2.893   4.840
 7835SOL    HW224405   2.309   2.811   4.712
 7836SOL     OW24406   2.959   0.295   6.683
 7836SOL    HW124407   2.930   0.292   6.588
 7836SOL    HW224408   2.967   0.390   6.713
 7837SOL     OW24409   6.153   6.697   1.910
 7837SOL    HW124410   6.131   6.650   1.824
 7837SOL    HW224411   6.092   6.663   1.982
 7838SOL     OW24412   4.496   6.395   5.712
 7838SOL    HW124413   4.519   6.455   5.788
 7838SOL    HW224414   4.564   6.321   5.707
 7839SOL     OW24415   6.153   4.037   4.482
 7839SOL    HW124416   6.239   3.988   4.491
 7839SOL    HW224417   6.166   4.116   4.422
 7840SOL     OW24418   4.862   2.157   4.237
 7840SOL    HW124419   4.814   2.142   4.323
 7840SOL    HW224420   4.958   2.178   4.256
 7841SOL     OW24421   5.320   2.361   6.501
 7841SOL    HW124422   5.353   2.355   6.407
 7841SOL    HW224423   5.373   2.431   6.550
 7842SOL     OW24424   1.284   0.974   3.461
 7842SOL    HW124425   1.374   1.006   3.489
 7842SOL    HW224426   1.294   0.905   3.389
 7843SOL     OW24427   5.704   4.074   1.370
 7843SOL    HW124428   5.709   4.060   1.271
 7843SOL    HW224429   5.754   4.157   1.394
 7844SOL     OW24430   4.336   0.540   3.722
 7844SOL    HW124431   4.250   0.515   3.677
 7844SOL    HW224432   4.343   0.640   3.727
 7845SOL     OW24433   1.173   0.841   3.859
 7845SOL    HW124434   1.112   0.767   3.832
 7845SOL    HW224435   1.127   0.902   3.923
 7846SOL     OW24436   2.589   0.822   1.315
 7846SOL    HW124437   2.577   0.795   1.411
 7846SOL    HW224438   2.661   0.891   1.309
 7847SOL     OW24439   0.244   1.004   1.029
 7847SOL    HW124440   0.287   1.019   0.939
 7847SOL    HW224441   0.315   0.984   1.096
 7848SOL     OW24442   3.517   4.564   0.869
 7848SOL    HW124443   3.455   4.498   0.827
 7848SOL    HW224444   3.465   4.644   0.898
 7849SOL     OW24445   5.377   3.746   3.681
 7849SOL    HW124446   5.429   3.666   3.709
 7849SOL    HW224447   5.389   3.761   3.583
 7850SOL     OW24448   6.980   0.626   3.912
 7850SOL    HW124449   6.890   0.663   3.934
 7850SOL    HW224450   7.020   0.680   3.837
 7851SOL     OW24451   5.974   6.495   0.159
 7851SOL    HW124452   6.072   6.509   0.155
 7851SOL    HW224453   5.951   6.444   0.242
 7852SOL     OW24454   3.041   6.299   0.057
 7852SOL    HW124455   3.106   6.367   0.023
 7852SOL    HW224456   3.083   6.208   0.055
 7853SOL     OW24457   3.231   1.652   0.359
 7853SOL    HW124458   3.138   1.670   0.325
 7853SOL    HW224459   3.297   1.704   0.305
 7854SOL     OW24460   3.616   3.872   0.884
 7854SOL    HW124461   3.539   3.852   0.823
 7854SOL    HW224462   3.584   3.879   0.978
 7855SOL     OW24463   4.140   5.861   6.182
 7855SOL    HW124464   4.070   5.851   6.111
 7855SOL    HW224465   4.185   5.950   6.171
 7856SOL     OW24466   6.317   4.342   4.573
 7856SOL    HW124467   6.276   4.330   4.483
 7856SOL    HW224468   6.252   4.311   4.643
 7857SOL     OW24469   6.558   2.425   5.761
 7857SOL    HW124470   6.549   2.431   5.860
 7857SOL    HW224471   6.623   2.353   5.738
 7858SOL     OW24472   5.096   4.492   3.159
 7858SOL    HW124473   5.131   4.518   3.249
 7858SOL    HW224474   5.113   4.394   3.144
 7859SOL     OW24475   0.205   3.924   6.307
 7859SOL    HW124476   0.119   3.927   6.359
 7859SOL    HW224477   0.219   4.013   6.263
 7860SOL     OW24478   3.930   6.336   2.708
 7860SOL    HW124479   3.967   6.398   2.777
 7860SOL    HW224480   3.853   6.285   2.747
 7861SOL     OW24481   4.233   5.318   1.806
 7861SOL    HW124482   4.300   5.282   1.741
 7861SOL    HW224483   4.232   5.260   1.887
 7862SOL     OW24484   2.984   4.320   1.685
 7862SOL    HW124485   2.961   4.386   1.756
 7862SOL    HW224486   2.900   4.275   1.653
 7863SOL     OW24487   6.495   5.966   3.292
 7863SOL    HW124488   6.417   6.013   3.250
 7863SOL    HW224489   6.485   5.867   3.279
 7864SOL     OW24490   6.939   6.119   5.632
 7864SOL    HW124491   6.967   6.068   5.550
 7864SOL    HW224492   6.846   6.092   5.657
 7865SOL     OW24493   4.414   6.586   3.929
 7865SOL    HW124494   4.360   6.634   3.998
 7865SOL    HW224495   4.482   6.648   3.891
 7866SOL     OW24496   2.486   1.584   2.125
 7866SOL    HW124497   2.511   1.489   2.107
 7866SOL    HW224498   2.509   1.640   2.046
 7867SOL     OW24499   5.489   5.236   2.334
 7867SOL    HW124500   5.463   5.158   2.278
 7867SOL    HW224501   5.466   5.217   2.430
 7868SOL     OW24502   5.341   6.671   1.703
 7868SOL    HW124503   5.292   6.586   1.684
 7868SOL    HW224504   5.432   6.650   1.739
 7869SOL     OW24505   6.205   3.836   0.937
 7869SOL    HW124506   6.212   3.740   0.962
 7869SOL    HW224507   6.112   3.857   0.908
 7870SOL     OW24508   6.155   4.909   3.372
 7870SOL    HW124509   6.193   4.924   3.463
 7870SOL    HW224510   6.186   4.983   3.311
 7871SOL     OW24511   5.676   3.852   3.138
 7871SOL    HW124512   5.649   3.886   3.048
 7871SOL    HW224513   5.595   3.821   3.188
 7872SOL     OW24514   1.119   4.543   2.210
 7872SOL    HW124515   1.140   4.629   2.257
 7872SOL    HW224516   1.199   4.483   2.212
 7873SOL     OW24517   6.799   0.520   5.370
 7873SOL    HW124518   6.822   0.449   5.437
 7873SOL    HW224519   6.764   0.601   5.417
 7874SOL     OW24520   6.623   1.395   6.740
 7874SOL    HW124521   6.628   1.452   6.822
 7874SOL    HW224522   6.671   1.309   6.756
 7875SOL     OW24523   4.427   4.183   6.659
 7875SOL    HW124524   4.386   4.193   6.750
 7875SOL    HW224525   4.482   4.100   6.656
 7876SOL     OW24526   6.687   0.475   4.757
 7876SOL    HW124527   6.681   0.562   4.806
 7876SOL    HW224528   6.696   0.492   4.659
 7877SOL     OW24529   0.184   2.703   2.411
 7877SOL    HW124530   0.197   2.625   2.350
 7877SOL    HW224531   0.273   2.731   2.449
 7878SOL     OW24532   5.178   4.525   2.874
 7878SOL    HW124533   5.236   4.489   2.947
 7878SOL    HW224534   5.082   4.509   2.897
 7879SOL     OW24535   4.308   6.197   3.185
 7879SOL    HW124536   4.305   6.228   3.280
 7879SOL    HW224537   4.395   6.151   3.168
 7880SOL     OW24538   0.217   6.250   0.487
 7880SOL    HW124539   0.157   6.324   0.516
 7880SOL    HW224540   0.241   6.194   0.566
 7881SOL     OW24541   0.291   4.099   4.609
 7881SOL    HW124542   0.269   4.050   4.694
 7881SOL    HW224543   0.390   4.100   4.596
 7882SOL     OW24544   1.727   2.563   2.390
 7882SOL    HW124545   1.822   2.540   2.366
 7882SOL    HW224546   1.726   2.646   2.445
 7883SOL     OW24547   1.992   0.543   1.595
 7883SOL    HW124548   2.062   0.527   1.525
 7883SOL    HW224549   1.945   0.628   1.575
 7884SOL     OW24550   1.537   4.353   3.475
 7884SOL    HW124551   1.546   4.449   3.499
 7884SOL    HW224552   1.487   4.344   3.389
 7885SOL     OW24553   5.860   5.583   3.223
 7885SOL    HW124554   5.861   5.682   3.214
 7885SOL    HW224555   5.774   5.547   3.184
 7886SOL     OW24556   5.740   3.794   1.485
 7886SOL    HW124557   5.766   3.880   1.441
 7886SOL    HW224558   5.683   3.741   1.424
 7887SOL     OW24559   3.213   2.664   5.390
 7887SOL    HW124560   3.222   2.602   5.313
 7887SOL    HW224561   3.300   2.670   5.439
 7888SOL     OW24562   0.110   1.697   4.160
 7888SOL    HW124563   0.081   1.741   4.075
 7888SOL    HW224564   0.119   1.598   4.146
 7889SOL     OW24565   0.402   5.515   0.003
 7889SOL    HW124566   0.439   5.506   6.934
 7889SOL    HW224567   0.372   5.609   0.017
 7890SOL     OW24568   1.450   2.558   3.950
 7890SOL    HW124569   1.520   2.629   3.958
 7890SOL    HW224570   1.359   2.600   3.954
 7891SOL     OW24571   0.894   3.179   4.233
 7891SOL    HW124572   0.860   3.185   4.139
 7891SOL    HW224573   0.888   3.269   4.276
 7892SOL     OW24574   1.200   2.013   4.269
 7892SOL    HW124575   1.193   2.095   4.325
 7892SOL    HW224576   1.232   1.937   4.327
 7893SOL     OW24577   6.063   6.291   1.651
 7893SOL    HW124578   6.091   6.374   1.699
 7893SOL    HW224579   6.139   6.227   1.649
 7894SOL     OW24580   2.281   1.487   0.476
 7894SOL    HW124581   2.263   1.389   0.470
 7894SOL    HW224582   2.342   1.506   0.553
 7895SOL     OW24583   3.474   6.235   4.221
 7895SOL    HW124584   3.556   6.269   4.266
 7895SOL    HW224585   3.449   6.146   4.260
 7896SOL     OW24586   4.916   3.214   1.334
 7896SOL    HW124587   4.878   3.281   1.271
 7896SOL    HW224588   4.996   3.252   1.380
 7897SOL     OW24589   3.883   3.810   6.822
 7897SOL    HW124590   3.896   3.806   6.723
 7897SOL    HW224591   3.878   3.906   6.851
 7898SOL     OW24592   4.964   0.091   4.195
 7898SOL    HW124593   4.926   0.083   4.103
 7898SOL    HW224594   4.906   0.042   4.259
 7899SOL     OW24595   5.370   6.305   1.522
 7899SOL    HW124596   5.309   6.231   1.551
 7899SOL    HW224597   5.459   6.266   1.495
 7900SOL     OW24598   0.670   3.709   0.387
 7900SOL    HW124599   0.691   3.733   0.292
 7900SOL    HW224600   0.622   3.784   0.431
 7901SOL     OW24601   5.390   1.419   5.913
 7901SOL    HW124602   5.334   1.486   5.961
 7901SOL    HW224603   5.356   1.327   5.931
 7902SOL     OW24604   0.050   6.211   3.471
 7902SOL    HW124605   0.103   6.283   3.517
 7902SOL    HW224606   0.087   6.195   3.380
 7903SOL     OW24607   4.207   1.648   3.858
 7903SOL    HW124608   4.184   1.727   3.915
 7903SOL    HW224609   4.279   1.674   3.793
 7904SOL     OW24610   5.950   0.189   3.399
 7904SOL    HW124611   6.042   0.155   3.384
 7904SOL    HW224612   5.886   0.137   3.342
 7905SOL     OW24613   5.271   0.802   0.463
 7905SOL    HW124614   5.212   0.735   0.509
 7905SOL    HW224615   5.288   0.879   0.525
 7906SOL     OW24616   1.266   5.089   1.044
 7906SOL    HW124617   1.338   5.095   0.975
 7906SOL    HW224618   1.307   5.094   1.135
 7907SOL     OW24619   6.121   0.840   3.118
 7907SOL    HW124620   6.208   0.816   3.075
 7907SOL    HW224621   6.054   0.863   3.048
 7908SOL     OW24622   0.985   2.204   6.616
 7908SOL    HW124623   1.050   2.216   6.690
 7908SOL    HW224624   0.996   2.278   6.550
 7909SOL     OW24625   5.165   4.221   3.148
 7909SOL    HW124626   5.162   4.203   3.049
 7909SOL    HW224627   5.102   4.160   3.195
 7910SOL     OW24628   1.604   3.228   1.260
 7910SOL    HW124629   1.585   3.164   1.187
 7910SOL    HW224630   1.537   3.217   1.333
 7911SOL     OW24631   0.623   3.730   1.303
 7911SOL    HW124632   0.589   3.824   1.309
 7911SOL    HW224633   0.576   3.681   1.231
 7912SOL     OW24634   5.520   4.983   0.477
 7912SOL    HW124635   5.423   4.962   0.486
 7912SOL    HW224636   5.533   5.082   0.478
 7913SOL     OW24637   1.950   4.282   0.980
 7913SOL    HW124638   2.003   4.276   0.895
 7913SOL    HW224639   1.881   4.354   0.971
 7914SOL     OW24640   0.185   5.372   6.934
 7914SOL    HW124641   0.218   5.360   6.840
 7914SOL    HW224642   0.241   5.442   6.980
 7915SOL     OW24643   4.164   0.956   3.120
 7915SOL    HW124644   4.159   1.052   3.150
 7915SOL    HW224645   4.224   0.949   3.041
 7916SOL     OW24646   0.620   0.529   4.729
 7916SOL    HW124647   0.649   0.562   4.639
 7916SOL    HW224648   0.689   0.466   4.765
 7917SOL     OW24649   3.995   2.462   5.558
 7917SOL    HW124650   3.903   2.434   5.585
 7917SOL    HW224651   4.015   2.427   5.466
 7918SOL     OW24652   0.940   1.289   5.175
 7918SOL    HW124653   0.930   1.338   5.088
 7918SOL    HW224654   1.026   1.238   5.174
 7919SOL     OW24655   1.014   4.997   2.779
 7919SOL    HW124656   1.063   5.076   2.743
 7919SOL    HW224657   1.024   4.993   2.878
 7920SOL     OW24658   4.864   0.980   2.126
 7920SOL    HW124659   4.945   1.011   2.175
 7920SOL    HW224660   4.806   0.927   2.188
 7921SOL     OW24661   5.727   1.511   1.485
 7921SOL    HW124662   5.734   1.548   1.577
 7921SOL    HW224663   5.817   1.514   1.441
 7922SOL     OW24664   0.580   6.522   6.761
 7922SOL    HW124665   0.674   6.530   6.796
 7922SOL    HW224666   0.517   6.564   6.827
 7923SOL     OW24667   3.039   2.450   6.666
 7923SOL    HW124668   3.123   2.473   6.618
 7923SOL    HW224669   3.048   2.359   6.707
 7924SOL     OW24670   5.134   6.682   1.229
 7924SOL    HW124671   5.200   6.713   1.161
 7924SOL    HW224672   5.155   6.725   1.317
 7925SOL     OW24673   2.013   6.430   0.939
 7925SOL    HW124674   1.914   6.439   0.928
 7925SOL    HW224675   2.060   6.471   0.861
 7926SOL     OW24676   5.395   1.109   6.614
 7926SOL    HW124677   5.363   1.044   6.683
 7926SOL    HW224678   5.485   1.080   6.582
 7927SOL     OW24679   5.460   0.314   1.862
 7927SOL    HW124680   5.435   0.233   1.810
 7927SOL    HW224681   5.432   0.396   1.811
 7928SOL     OW24682   6.757   1.154   3.147
 7928SOL    HW124683   6.814   1.225   3.106
 7928SOL    HW224684   6.810   1.103   3.214
 7929SOL     OW24685   4.575   3.880   6.309
 7929SOL    HW124686   4.568   3.861   6.211
 7929SOL    HW224687   4.557   3.796   6.360
 7930SOL     OW24688   2.988   5.452   6.036
 7930SOL    HW124689   3.059   5.496   6.089
 7930SOL    HW224690   2.907   5.511   6.032
 7931SOL     OW24691   3.600   2.982   0.662
 7931SOL    HW124692   3.579   2.893   0.621
 7931SOL    HW224693   3.684   3.018   0.622
 7932SOL     OW24694   0.061   4.917   1.285
 7932SOL    HW124695   6.989   4.905   1.257
 7932SOL    HW224696   0.089   4.838   1.340
 7933SOL     OW24697   6.608   0.626   5.879
 7933SOL    HW124698   6.679   0.668   5.935
 7933SOL    HW224699   6.647   0.601   5.790
 7934SOL     OW24700   1.518   4.719   0.751
 7934SOL    HW124701   1.593   4.764   0.703
 7934SOL    HW224702   1.545   4.700   0.846
 7935SOL     OW24703   5.006   4.199   2.638
 7935SOL    HW124704   4.913   4.214   2.605
 7935SOL    HW224705   5.012   4.223   2.735
 7936SOL     OW24706   2.918   5.674   3.115
 7936SOL    HW124707   3.001   5.729   3.108
 7936SOL    HW224708   2.927   5.592   3.059
 7937SOL     OW24709   1.974   5.470   4.360
 7937SOL    HW124710   2.028   5.460   4.276
 7937SOL    HW224711   1.933   5.383   4.384
 7938SOL     OW24712   5.077   6.724   5.244
 7938SOL    HW124713   5.089   6.788   5.168
 7938SOL    HW224714   5.097   6.771   5.330
 7939SOL     OW24715   0.358   2.082   5.720
 7939SOL    HW124716   0.317   2.173   5.732
 7939SOL    HW224717   0.364   2.060   5.623
 7940SOL     OW24718   3.596   1.790   2.201
 7940SOL    HW124719   3.532   1.776   2.276
 7940SOL    HW224720   3.616   1.888   2.193
 7941SOL     OW24721   4.804   6.550   3.094
 7941SOL    HW124722   4.788   6.533   3.191
 7941SOL    HW224723   4.731   6.507   3.040
 7942SOL     OW24724   0.590   2.468   2.490
 7942SOL    HW124725   0.601   2.380   2.442
 7942SOL    HW224726   0.616   2.457   2.586
 7943SOL     OW24727   1.035   4.663   5.762
 7943SOL    HW124728   1.078   4.751   5.745
 7943SOL    HW224729   1.098   4.604   5.814
 7944SOL     OW24730   0.763   2.334   1.660
 7944SOL    HW124731   0.845   2.351   1.715
 7944SOL    HW224732   0.693   2.292   1.717
 7945SOL     OW24733   6.485   5.313   2.812
 7945SOL    HW124734   6.397   5.290   2.854
 7945SOL    HW224735   6.496   5.259   2.728
 7946SOL     OW24736   3.953   0.192   5.969
 7946SOL    HW124737   3.981   0.096   5.957
 7946SOL    HW224738   4.000   0.248   5.901
 7947SOL     OW24739   2.471   2.017   5.300
 7947SOL    HW124740   2.423   1.992   5.384
 7947SOL    HW224741   2.448   2.112   5.276
 7948SOL     OW24742   1.045   4.700   1.167
 7948SOL    HW124743   0.984   4.728   1.242
 7948SOL    HW224744   0.990   4.668   1.090
 7949SOL     OW24745   4.212   4.029   5.591
 7949SOL    HW124746   4.116   4.042   5.616
 7949SOL    HW224747   4.268   4.026   5.674
 7950SOL     OW24748   5.010   6.221   4.977
 7950SOL    HW124749   5.049   6.154   5.039
 7950SOL    HW224750   4.966   6.294   5.030
 7951SOL     OW24751   1.771   4.820   3.065
 7951SOL    HW124752   1.766   4.737   3.009
 7951SOL    HW224753   1.797   4.898   3.008
 7952SOL     OW24754   6.497   3.362   6.883
 7952SOL    HW124755   6.584   3.350   6.835
 7952SOL    HW224756   6.498   3.448   6.933
 7953SOL     OW24757   4.752   2.136   1.566
 7953SOL    HW124758   4.731   2.114   1.470
 7953SOL    HW224759   4.708   2.068   1.625
 7954SOL     OW24760   4.192   3.660   6.085
 7954SOL    HW124761   4.175   3.567   6.117
 7954SOL    HW224762   4.270   3.660   6.022
 7955SOL     OW24763   2.331   1.646   6.421
 7955SOL    HW124764   2.295   1.564   6.467
 7955SOL    HW224765   2.256   1.699   6.383
 7956SOL     OW24766   5.790   1.603   1.738
 7956SOL    HW124767   5.776   1.635   1.832
 7956SOL    HW224768   5.886   1.578   1.725
 7957SOL     OW24769   3.621   0.812   6.297
 7957SOL    HW124770   3.550   0.753   6.259
 7957SOL    HW224771   3.582   0.866   6.372
 7958SOL     OW24772   5.614   4.227   6.279
 7958SOL    HW124773   5.592   4.322   6.298
 7958SOL    HW224774   5.542   4.186   6.223
 7959SOL     OW24775   5.043   0.773   6.488
 7959SOL    HW124776   5.022   0.863   6.526
 7959SOL    HW224777   5.033   0.704   6.560
 7960SOL     OW24778   0.746   1.683   6.244
 7960SOL    HW124779   0.679   1.752   6.271
 7960SOL    HW224780   0.701   1.594   6.240
 7961SOL     OW24781   6.745   6.972   0.980
 7961SOL    HW124782   6.662   6.966   0.926
 7961SOL    HW224783   6.812   6.907   0.945
 7962SOL     OW24784   0.231   1.883   5.830
 7962SOL    HW124785   0.287   1.960   5.799
 7962SOL    HW224786   0.288   1.801   5.833
 7963SOL     OW24787   6.567   5.202   4.018
 7963SOL    HW124788   6.504   5.186   3.942
 7963SOL    HW224789   6.647   5.143   4.008
 7964SOL     OW24790   6.456   2.467   1.987
 7964SOL    HW124791   6.393   2.489   1.911
 7964SOL    HW224792   6.547   2.500   1.965
 7965SOL     OW24793   3.892   2.556   6.486
 7965SOL    HW124794   3.921   2.585   6.395
 7965SOL    HW224795   3.963   2.578   6.552
 7966SOL     OW24796   3.801   3.920   5.882
 7966SOL    HW124797   3.749   4.004   5.867
 7966SOL    HW224798   3.853   3.898   5.800
 7967SOL     OW24799   2.173   5.232   2.298
 7967SOL    HW124800   2.200   5.320   2.336
 7967SOL    HW224801   2.221   5.159   2.346
 7968SOL     OW24802   5.983   2.252   5.411
 7968SOL    HW124803   5.995   2.176   5.474
 7968SOL    HW224804   5.993   2.220   5.317
 7969SOL     OW24805   4.971   6.339   0.196
 7969SOL    HW124806   4.959   6.384   0.285
 7969SOL    HW224807   5.044   6.384   0.145
 7970SOL     OW24808   6.117   2.754   3.021
 7970SOL    HW124809   6.166   2.825   2.970
 7970SOL    HW224810   6.020   2.759   3.000
 7971SOL     OW24811   2.899   0.987   1.576
 7971SOL    HW124812   2.847   0.988   1.490
 7971SOL    HW224813   2.997   0.990   1.555
 7972SOL     OW24814   3.238   3.768   1.722
 7972SOL    HW124815   3.284   3.840   1.671
 7972SOL    HW224816   3.273   3.765   1.816
 7973SOL     OW24817   5.337   4.263   4.460
 7973SOL    HW124818   5.287   4.180   4.483
 7973SOL    HW224819   5.280   4.321   4.402
 7974SOL     OW24820   6.053   1.028   5.268
 7974SOL    HW124821   6.087   0.978   5.189
 7974SOL    HW224822   6.014   1.115   5.238
 7975SOL     OW24823   4.584   0.644   0.685
 7975SOL    HW124824   4.554   0.653   0.780
 7975SOL    HW224825   4.523   0.696   0.626
 7976SOL     OW24826   0.908   6.918   5.731
 7976SOL    HW124827   0.926   6.952   5.823
 7976SOL    HW224828   0.886   6.995   5.671
 7977SOL     OW24829   5.441   5.864   2.115
 7977SOL    HW124830   5.463   5.958   2.090
 7977SOL    HW224831   5.512   5.803   2.079
 7978SOL     OW24832   0.308   3.050   6.580
 7978SOL    HW124833   0.303   3.104   6.665
 7978SOL    HW224834   0.344   3.107   6.507
 7979SOL     OW24835   1.975   4.460   6.010
 7979SOL    HW124836   2.050   4.412   5.965
 7979SOL    HW224837   1.888   4.420   5.982
 7980SOL     OW24838   3.062   5.491   6.407
 7980SOL    HW124839   3.094   5.549   6.482
 7980SOL    HW224840   3.104   5.401   6.414
 7981SOL     OW24841   1.112   5.014   1.953
 7981SOL    HW124842   1.134   4.920   1.983
 7981SOL    HW224843   1.049   5.010   1.876
 7982SOL     OW24844   1.833   1.888   6.078
 7982SOL    HW124845   1.812   1.980   6.111
 7982SOL    HW224846   1.750   1.832   6.080
 7983SOL     OW24847   6.045   1.264   1.388
 7983SOL    HW124848   6.031   1.347   1.441
 7983SOL    HW224849   5.986   1.191   1.424
 7984SOL     OW24850   0.832   1.639   0.578
 7984SOL    HW124851   0.930   1.624   0.593
 7984SOL    HW224852   0.780   1.564   0.618
 7985SOL     OW24853   2.212   2.267   4.370
 7985SOL    HW124854   2.193   2.294   4.276
 7985SOL    HW224855   2.231   2.349   4.425
 7986SOL     OW24856   3.837   1.332   5.438
 7986SOL    HW124857   3.762   1.377   5.389
 7986SOL    HW224858   3.864   1.249   5.389
 7987SOL     OW24859   2.329   3.644   0.757
 7987SOL    HW124860   2.371   3.646   0.848
 7987SOL    HW224861   2.257   3.576   0.755
 7988SOL     OW24862   0.873   1.114   1.729
 7988SOL    HW124863   0.960   1.141   1.771
 7988SOL    HW224864   0.890   1.063   1.646
 7989SOL     OW24865   2.056   4.013   0.307
 7989SOL    HW124866   2.112   4.096   0.311
 7989SOL    HW224867   1.987   4.023   0.235
 7990SOL     OW24868   2.753   5.909   4.411
 7990SOL    HW124869   2.693   5.889   4.334
 7990SOL    HW224870   2.821   5.836   4.420
 7991SOL     OW24871   5.700   1.334   4.610
 7991SOL    HW124872   5.799   1.348   4.611
 7991SOL    HW224873   5.674   1.274   4.686
 7992SOL     OW24874   1.851   0.153   0.319
 7992SOL    HW124875   1.916   0.176   0.392
 7992SOL    HW224876   1.829   0.236   0.267
 7993SOL     OW24877   0.585   0.011   1.562
 7993SOL    HW124878   0.501   6.999   1.521
 7993SOL    HW224879   0.601   6.991   1.650
 7994SOL     OW24880   4.846   0.707   3.014
 7994SOL    HW124881   4.834   0.703   3.114
 7994SOL    HW224882   4.884   0.620   2.982
 7995SOL     OW24883   5.544   4.625   3.085
 7995SOL    HW124884   5.642   4.612   3.095
 7995SOL    HW224885   5.515   4.597   2.993
 7996SOL     OW24886   4.146   6.643   4.044
 7996SOL    HW124887   4.105   6.693   3.968
 7996SOL    HW224888   4.075   6.593   4.094
 7997SOL     OW24889   0.355   1.849   0.802
 7997SOL    HW124890   0.259   1.878   0.802
 7997SOL    HW224891   0.391   1.854   0.709
 7998SOL     OW24892   2.781   6.350   0.171
 7998SOL    HW124893   2.735   6.409   0.106
 7998SOL    HW224894   2.876   6.337   0.143
 7999SOL     OW24895   1.185   1.970   6.248
 7999SOL    HW124896   1.194   1.879   6.286
 7999SOL    HW224897   1.274   2.015   6.246
 8000SOL     OW24898   5.854   6.974   6.246
 8000SOL    HW124899   5.875   0.000   6.330
 8000SOL    HW224900   5.800   0.008   6.185
 8001SOL     OW24901   4.273   6.141   1.653
 8001SOL    HW124902   4.301   6.068   1.716
 8001SOL    HW224903   4.321   6.131   1.566
 8002SOL     OW24904   0.739   1.500   5.797
 8002SOL    HW124905   0.706   1.532   5.708
 8002SOL    HW224906   0.664   1.459   5.848
 8003SOL     OW24907   1.518   5.923   1.965
 8003SOL    HW124908   1.481   6.004   1.922
 8003SOL    HW224909   1.503   5.928   2.064
 8004SOL     OW24910   1.951   3.284   3.597
 8004SOL    HW124911   2.008   3.280   3.515
 8004SOL    HW224912   1.866   3.332   3.576
 8005SOL     OW24913   2.980   0.490   3.289
 8005SOL    HW124914   2.931   0.575   3.267
 8005SOL    HW224915   2.917   0.413   3.287
 8006SOL     OW24916   2.662   5.529   5.784
 8006SOL    HW124917   2.618   5.604   5.735
 8006SOL    HW224918   2.600   5.450   5.786
 8007SOL     OW24919   5.632   2.120   6.105
 8007SOL    HW124920   5.675   2.079   6.185
 8007SOL    HW224921   5.698   2.125   6.030
 8008SOL     OW24922   3.314   5.852   6.989
 8008SOL    HW124923   3.406   5.876   7.020
 8008SOL    HW224924   3.247   5.911   0.010
 8009SOL     OW24925   4.497   1.429   1.018
 8009SOL    HW124926   4.488   1.468   0.927
 8009SOL    HW224927   4.485   1.501   1.087
 8010SOL     OW24928   2.964   2.380   5.327
 8010SOL    HW124929   3.012   2.385   5.240
 8010SOL    HW224930   3.031   2.377   5.402
 8011SOL     OW24931   3.445   2.080   1.624
 8011SOL    HW124932   3.477   2.034   1.707
 8011SOL    HW224933   3.475   2.175   1.624
 8012SOL     OW24934   1.012   3.124   6.215
 8012SOL    HW124935   0.935   3.183   6.195
 8012SOL    HW224936   1.015   3.049   6.149
 8013SOL     OW24937   0.896   3.239   3.471
 8013SOL    HW124938   0.941   3.326   3.486
 8013SOL    HW224939   0.922   3.175   3.544
 8014SOL     OW24940   1.866   0.494   4.421
 8014SOL    HW124941   1.799   0.459   4.356
 8014SOL    HW224942   1.956   0.456   4.399
 8015SOL     OW24943   2.218   0.088   5.879
 8015SOL    HW124944   2.170   0.087   5.966
 8015SOL    HW224945   2.251   0.181   5.861
 8016SOL     OW24946   4.157   1.424   5.030
 8016SOL    HW124947   4.090   1.355   5.057
 8016SOL    HW224948   4.132   1.512   5.069
 8017SOL     OW24949   6.603   0.026   6.652
 8017SOL    HW124950   6.506   0.026   6.676
 8017SOL    HW224951   6.625   0.111   6.603
 8018SOL     OW24952   3.646   2.649   6.592
 8018SOL    HW124953   3.745   2.656   6.585
 8018SOL    HW224954   3.619   2.632   6.687
 8019SOL     OW24955   2.131   3.918   0.969
 8019SOL    HW124956   2.117   3.819   0.965
 8019SOL    HW224957   2.197   3.945   0.899
 8020SOL     OW24958   6.229   0.964   6.124
 8020SOL    HW124959   6.189   0.900   6.189
 8020SOL    HW224960   6.166   1.040   6.109
 8021SOL     OW24961   1.611   2.659   1.216
 8021SOL    HW124962   1.547   2.715   1.269
 8021SOL    HW224963   1.703   2.671   1.253
 8022SOL     OW24964   6.125   0.615   1.681
 8022SOL    HW124965   6.177   0.659   1.755
 8022SOL    HW224966   6.188   0.564   1.622
 8023SOL     OW24967   5.893   5.081   2.659
 8023SOL    HW124968   5.858   5.175   2.655
 8023SOL    HW224969   5.889   5.041   2.567
 8024SOL     OW24970   1.376   5.857   5.592
 8024SOL    HW124971   1.308   5.889   5.658
 8024SOL    HW224972   1.363   5.905   5.506
 8025SOL     OW24973   2.022   4.891   0.981
 8025SOL    HW124974   1.995   4.986   0.997
 8025SOL    HW224975   2.107   4.872   1.031
 8026SOL     OW24976   0.179   4.236   0.728
 8026SOL    HW124977   0.173   4.290   0.645
 8026SOL    HW224978   0.269   4.193   0.734
 8027SOL     OW24979   3.317   6.439   5.243
 8027SOL    HW124980   3.282   6.373   5.177
 8027SOL    HW224981   3.245   6.463   5.308
 8028SOL     OW24982   2.682   6.112   4.708
 8028SOL    HW124983   2.770   6.150   4.681
 8028SOL    HW224984   2.661   6.031   4.653
 8029SOL     OW24985   4.873   2.385   2.006
 8029SOL    HW124986   4.963   2.425   2.023
 8029SOL    HW224987   4.842   2.409   1.914
 8030SOL     OW24988   6.019   5.185   0.304
 8030SOL    HW124989   6.013   5.281   0.332
 8030SOL    HW224990   6.005   5.126   0.384
 8031SOL     OW24991   6.138   6.299   3.111
 8031SOL    HW124992   6.205   6.234   3.144
 8031SOL    HW224993   6.175   6.392   3.117
 8032SOL     OW24994   5.169   3.934   1.484
 8032SOL    HW124995   5.079   3.937   1.528
 8032SOL    HW224996   5.210   3.844   1.499
 8033SOL     OW24997   4.626   3.301   0.280
 8033SOL    HW124998   4.585   3.221   0.324
 8033SOL    HW224999   4.578   3.321   0.194
 8034SOL     OW25000   5.598   0.047   5.844
 8034SOL    HW125001   5.587   6.982   5.798
 8034SOL    HW225002   5.516   0.102   5.828
 8035SOL     OW25003   4.798   1.237   2.042
 8035SOL    HW125004   4.852   1.162   2.081
 8035SOL    HW225005   4.713   1.247   2.094
 8036SOL     OW25006   0.078   3.343   3.471
 8036SOL    HW125007   0.151   3.323   3.536
 8036SOL    HW225008   0.065   3.442   3.466
 8037SOL     OW25009   1.836   3.332   7.019
 8037SOL    HW125010   1.831   3.431   0.005
 8037SOL    HW225011   1.756   3.290   0.040
 8038SOL     OW25012   4.897   6.228   2.113
 8038SOL    HW125013   4.820   6.185   2.160
 8038SOL    HW225014   4.971   6.244   2.177
 8039SOL     OW25015   0.316   2.466   4.769
 8039SOL    HW125016   0.235   2.409   4.779
 8039SOL    HW225017   0.398   2.410   4.781
 8040SOL     OW25018   2.018   6.380   6.957
 8040SOL    HW125019   1.924   6.387   6.991
 8040SOL    HW225020   2.020   6.404   6.860
 8041SOL     OW25021   3.231   1.153   2.681
 8041SOL    HW125022   3.256   1.056   2.678
 8041SOL    HW225023   3.283   1.198   2.754
 8042SOL     OW25024   4.534   4.122   5.317
 8042SOL    HW125025   4.558   4.123   5.414
 8042SOL    HW225026   4.437   4.100   5.307
 8043SOL     OW25027   3.762   4.449   0.296
 8043SOL    HW125028   3.815   4.524   0.257
 8043SOL    HW225029   3.823   4.384   0.342
 8044SOL     OW25030   3.235   3.198   0.875
 8044SOL    HW125031   3.212   3.162   0.785
 8044SOL    HW225032   3.260   3.123   0.936
 8045SOL     OW25033   6.688   1.898   2.663
 8045SOL    HW125034   6.697   1.996   2.642
 8045SOL    HW225035   6.746   1.875   2.741
 8046SOL     OW25036   0.629   4.755   2.186
 8046SOL    HW125037   0.671   4.706   2.111
 8046SOL    HW225038   0.613   4.693   2.263
 8047SOL     OW25039   4.225   6.576   6.806
 8047SOL    HW125040   4.162   6.576   6.728
 8047SOL    HW225041   4.175   6.596   6.890
 8048SOL     OW25042   3.377   3.067   6.758
 8048SOL    HW125043   3.300   3.103   6.706
 8048SOL    HW225044   3.343   3.030   6.845
 8049SOL     OW25045   1.001   6.789   0.139
 8049SOL    HW125046   1.074   6.842   0.181
 8049SOL    HW225047   1.020   6.774   0.042
 8050SOL     OW25048   2.139   3.385   4.499
 8050SOL    HW125049   2.112   3.452   4.569
 8050SOL    HW225050   2.153   3.431   4.412
 8051SOL     OW25051   4.498   5.721   4.496
 8051SOL    HW125052   4.513   5.794   4.563
 8051SOL    HW225053   4.546   5.744   4.411
 8052SOL     OW25054   2.419   1.957   1.862
 8052SOL    HW125055   2.325   1.923   1.869
 8052SOL    HW225056   2.441   2.010   1.943
 8053SOL     OW25057   2.938   2.799   5.429
 8053SOL    HW125058   2.945   2.898   5.443
 8053SOL    HW225059   3.030   2.760   5.423
 8054SOL     OW25060   6.126   3.724   4.788
 8054SOL    HW125061   6.110   3.737   4.690
 8054SOL    HW225062   6.165   3.633   4.803
 8055SOL     OW25063   6.898   0.871   5.481
 8055SOL    HW125064   6.826   0.818   5.525
 8055SOL    HW225065   6.861   0.959   5.451
 8056SOL     OW25066   3.480   0.036   3.229
 8056SOL    HW125067   3.486   0.066   3.134
 8056SOL    HW225068   3.440   6.968   3.232
 8057SOL     OW25069   2.920   2.196   2.514
 8057SOL    HW125070   2.953   2.102   2.516
 8057SOL    HW225071   2.916   2.232   2.607
 8058SOL     OW25072   3.311   6.210   3.310
 8058SOL    HW125073   3.222   6.229   3.352
 8058SOL    HW225074   3.309   6.237   3.214
 8059SOL     OW25075   3.355   0.808   5.835
 8059SOL    HW125076   3.264   0.786   5.870
 8059SOL    HW225077   3.362   0.907   5.821
 8060SOL     OW25078   0.094   1.834   6.089
 8060SOL    HW125079   0.139   1.847   6.001
 8060SOL    HW225080   0.162   1.807   6.157
 8061SOL     OW25081   0.438   0.320   2.794
 8061SOL    HW125082   0.344   0.294   2.772
 8061SOL    HW225083   0.454   0.415   2.769
 8062SOL     OW25084   3.979   5.665   4.971
 8062SOL    HW125085   4.003   5.728   5.045
 8062SOL    HW225086   3.893   5.620   4.993
 8063SOL     OW25087   2.790   1.124   3.240
 8063SOL    HW125088   2.698   1.086   3.252
 8063SOL    HW225089   2.798   1.161   3.147
 8064SOL     OW25090   6.154   3.096   0.069
 8064SOL    HW125091   6.199   3.136   7.013
 8064SOL    HW225092   6.217   3.094   0.146
 8065SOL     OW25093   3.516   6.591   4.237
 8065SOL    HW125094   3.595   6.565   4.292
 8065SOL    HW225095   3.495   6.688   4.252
 8066SOL     OW25096   6.378   0.305   4.325
 8066SOL    HW125097   6.343   0.338   4.412
 8066SOL    HW225098   6.477   0.291   4.332
 8067SOL     OW25099   4.746   2.356   3.700
 8067SOL    HW125100   4.780   2.281   3.757
 8067SOL    HW225101   4.705   2.319   3.617
 8068SOL     OW25102   0.416   4.681   0.658
 8068SOL    HW125103   0.473   4.756   0.692
 8068SOL    HW225104   0.413   4.608   0.726
 8069SOL     OW25105   2.429   5.097   2.066
 8069SOL    HW125106   2.330   5.106   2.078
 8069SOL    HW225107   2.456   5.003   2.087
 8070SOL     OW25108   4.174   2.777   0.462
 8070SOL    HW125109   4.221   2.692   0.487
 8070SOL    HW225110   4.133   2.767   0.371
 8071SOL     OW25111   3.453   6.649   5.020
 8071SOL    HW125112   3.373   6.679   4.967
 8071SOL    HW225113   3.532   6.703   4.993
 8072SOL     OW25114   3.235   2.510   0.788
 8072SOL    HW125115   3.214   2.456   0.870
 8072SOL    HW225116   3.170   2.486   0.715
 8073SOL     OW25117   2.416   5.739   5.159
 8073SOL    HW125118   2.447   5.681   5.083
 8073SOL    HW225119   2.435   5.835   5.137
 8074SOL     OW25120   2.840   1.007   0.873
 8074SOL    HW125121   2.791   1.092   0.889
 8074SOL    HW225122   2.936   1.017   0.901
 8075SOL     OW25123   0.305   0.219   0.228
 8075SOL    HW125124   0.343   0.127   0.241
 8075SOL    HW225125   0.307   0.243   0.131
 8076SOL     OW25126   6.714   0.296   5.206
 8076SOL    HW125127   6.746   0.368   5.268
 8076SOL    HW225128   6.755   0.310   5.116
 8077SOL     OW25129   4.063   6.422   2.464
 8077SOL    HW125130   4.015   6.423   2.377
 8077SOL    HW225131   4.006   6.376   2.533
 8078SOL     OW25132   1.113   1.940   0.980
 8078SOL    HW125133   1.019   1.912   0.999
 8078SOL    HW225134   1.168   1.928   1.063
 8079SOL     OW25135   6.693   1.606   3.829
 8079SOL    HW125136   6.606   1.613   3.781
 8079SOL    HW225137   6.724   1.511   3.829
 8080SOL     OW25138   1.207   2.233   2.184
 8080SOL    HW125139   1.276   2.177   2.229
 8080SOL    HW225140   1.245   2.274   2.101
 8081SOL     OW25141   6.424   5.517   5.825
 8081SOL    HW125142   6.506   5.474   5.787
 8081SOL    HW225143   6.343   5.472   5.790
 8082SOL     OW25144   3.763   0.852   1.989
 8082SOL    HW125145   3.674   0.811   2.009
 8082SOL    HW225146   3.765   0.885   1.895
 8083SOL     OW25147   5.107   2.793   4.313
 8083SOL    HW125148   5.159   2.877   4.325
 8083SOL    HW225149   5.109   2.766   4.216
 8084SOL     OW25150   2.846   0.667   6.607
 8084SOL    HW125151   2.778   0.671   6.534
 8084SOL    HW225152   2.847   0.755   6.656
 8085SOL     OW25153   6.118   5.927   3.021
 8085SOL    HW125154   6.176   5.902   2.943
 8085SOL    HW225155   6.037   5.975   2.988
 8086SOL     OW25156   0.090   1.276   1.100
 8086SOL    HW125157   0.139   1.359   1.125
 8086SOL    HW225158   0.152   1.213   1.053
 8087SOL     OW25159   1.739   0.535   6.283
 8087SOL    HW125160   1.656   0.558   6.334
 8087SOL    HW225161   1.819   0.550   6.342
 8088SOL     OW25162   5.678   0.485   0.019
 8088SOL    HW125163   5.734   0.568   0.026
 8088SOL    HW225164   5.736   0.405   0.034
 8089SOL     OW25165   6.121   2.998   6.515
 8089SOL    HW125166   6.040   3.049   6.543
 8089SOL    HW225167   6.124   2.992   6.416
 8090SOL     OW25168   3.957   1.101   6.403
 8090SOL    HW125169   3.997   1.018   6.441
 8090SOL    HW225170   3.878   1.129   6.458
 8091SOL     OW25171   1.233   4.055   5.455
 8091SOL    HW125172   1.209   4.044   5.358
 8091SOL    HW225173   1.282   3.974   5.486
 8092SOL     OW25174   4.870   2.014   5.403
 8092SOL    HW125175   4.969   2.028   5.412
 8092SOL    HW225176   4.852   1.919   5.377
 8093SOL     OW25177   3.000   5.430   3.320
 8093SOL    HW125178   3.017   5.355   3.257
 8093SOL    HW225179   2.902   5.445   3.328
 8094SOL     OW25180   0.186   3.059   5.769
 8094SOL    HW125181   0.280   3.091   5.760
 8094SOL    HW225182   0.141   3.059   5.680
 8095SOL     OW25183   0.989   4.329   4.870
 8095SOL    HW125184   1.073   4.379   4.852
 8095SOL    HW225185   0.911   4.380   4.835
 8096SOL     OW25186   2.331   0.683   2.151
 8096SOL    HW125187   2.305   0.757   2.088
 8096SOL    HW225188   2.305   0.595   2.112
 8097SOL     OW25189   4.257   0.047   4.488
 8097SOL    HW125190   4.232   0.039   4.391
 8097SOL    HW225191   4.231   0.138   4.521
 8098SOL     OW25192   2.690   6.173   3.728
 8098SOL    HW125193   2.631   6.120   3.788
 8098SOL    HW225194   2.757   6.113   3.685
 8099SOL     OW25195   4.603   6.412   4.588
 8099SOL    HW125196   4.504   6.412   4.581
 8099SOL    HW225197   4.635   6.321   4.614
 8100SOL     OW25198   6.857   1.475   0.071
 8100SOL    HW125199   6.868   1.540   7.020
 8100SOL    HW225200   6.876   1.383   0.038
 8101SOL     OW25201   1.267   5.619   0.944
 8101SOL    HW125202   1.336   5.619   0.871
 8101SOL    HW225203   1.293   5.686   1.014
 8102SOL     OW25204   0.596   4.189   3.141
 8102SOL    HW125205   0.501   4.190   3.172
 8102SOL    HW225206   0.635   4.098   3.157
 8103SOL     OW25207   3.838   0.607   2.065
 8103SOL    HW125208   3.806   0.700   2.047
 8103SOL    HW225209   3.925   0.592   2.018
 8104SOL     OW25210   1.657   0.524   5.817
 8104SOL    HW125211   1.635   0.607   5.767
 8104SOL    HW225212   1.582   0.502   5.880
 8105SOL     OW25213   0.267   2.509   2.238
 8105SOL    HW125214   0.209   2.512   2.157
 8105SOL    HW225215   0.248   2.426   2.290
 8106SOL     OW25216   2.844   6.337   2.866
 8106SOL    HW125217   2.823   6.378   2.955
 8106SOL    HW225218   2.833   6.406   2.795
 8107SOL     OW25219   1.536   5.799   4.059
 8107SOL    HW125220   1.599   5.722   4.052
 8107SOL    HW225221   1.512   5.815   4.155
 8108SOL     OW25222   6.950   2.388   6.644
 8108SOL    HW125223   6.872   2.445   6.618
 8108SOL    HW225224   6.924   2.291   6.636
 8109SOL     OW25225   0.185   3.698   6.684
 8109SOL    HW125226   0.093   3.658   6.682
 8109SOL    HW225227   0.249   3.637   6.639
 8110SOL     OW25228   3.809   5.395   1.995
 8110SOL    HW125229   3.803   5.310   2.047
 8110SOL    HW225230   3.905   5.425   1.991
 8111SOL     OW25231   5.133   1.068   4.459
 8111SOL    HW125232   5.117   1.091   4.363
 8111SOL    HW225233   5.054   1.096   4.514
 8112SOL     OW25234   2.432   2.626   4.684
 8112SOL    HW125235   2.513   2.614   4.627
 8112SOL    HW225236   2.439   2.568   4.765
 8113SOL     OW25237   6.774   3.760   1.094
 8113SOL    HW125238   6.797   3.838   1.036
 8113SOL    HW225239   6.817   3.677   1.057
 8114SOL     OW25240   1.698   3.702   2.260
 8114SOL    HW125241   1.783   3.754   2.266
 8114SOL    HW225242   1.719   3.604   2.259
 8115SOL     OW25243   3.077   6.293   6.241
 8115SOL    HW125244   3.031   6.245   6.167
 8115SOL    HW225245   3.052   6.252   6.328
 8116SOL     OW25246   3.942   4.671   0.219
 8116SOL    HW125247   4.002   4.651   0.142
 8116SOL    HW225248   3.919   4.768   0.220
 8117SOL     OW25249   2.063   0.494   3.211
 8117SOL    HW125250   2.137   0.513   3.146
 8117SOL    HW225251   1.976   0.525   3.173
 8118SOL     OW25252   5.427   4.169   6.063
 8118SOL    HW125253   5.371   4.243   6.027
 8118SOL    HW225254   5.485   4.132   5.990
 8119SOL     OW25255   5.301   6.508   6.282
 8119SOL    HW125256   5.400   6.520   6.281
 8119SOL    HW225257   5.278   6.412   6.263
 8120SOL     OW25258   2.848   5.174   0.959
 8120SOL    HW125259   2.859   5.145   1.054
 8120SOL    HW225260   2.804   5.101   0.907
 8121SOL     OW25261   0.617   4.669   1.347
 8121SOL    HW125262   0.620   4.631   1.254
 8121SOL    HW225263   0.522   4.686   1.373
 8122SOL     OW25264   0.592   4.661   2.989
 8122SOL    HW125265   0.498   4.633   3.009
 8122SOL    HW225266   0.630   4.602   2.917
 8123SOL     OW25267   0.263   2.077   0.069
 8123SOL    HW125268   0.351   2.042   0.100
 8123SOL    HW225269   0.207   2.001   0.034
 8124SOL     OW25270   5.599   5.940   2.987
 8124SOL    HW125271   5.610   6.039   2.995
 8124SOL    HW225272   5.503   5.916   2.996
 8125SOL     OW25273   1.417   0.924   3.168
 8125SOL    HW125274   1.318   0.909   3.175
 8125SOL    HW225275   1.450   0.882   3.084
 8126SOL     OW25276   5.530   4.825   3.289
 8126SOL    HW125277   5.442   4.823   3.337
 8126SOL    HW225278   5.540   4.741   3.234
 8127SOL     OW25279   2.881   3.444   6.404
 8127SOL    HW125280   2.840   3.384   6.335
 8127SOL    HW225281   2.978   3.458   6.382
 8128SOL     OW25282   3.029   2.159   2.259
 8128SOL    HW125283   3.008   2.186   2.353
 8128SOL    HW225284   2.965   2.203   2.197
 8129SOL     OW25285   3.759   1.903   6.317
 8129SOL    HW125286   3.743   1.909   6.218
 8129SOL    HW225287   3.700   1.968   6.364
 8130SOL     OW25288   0.567   6.024   6.622
 8130SOL    HW125289   0.570   5.937   6.671
 8130SOL    HW225290   0.646   6.079   6.647
 8131SOL     OW25291   3.050   1.607   1.812
 8131SOL    HW125292   3.101   1.673   1.867
 8131SOL    HW225293   3.109   1.572   1.739
 8132SOL     OW25294   5.751   6.876   4.936
 8132SOL    HW125295   5.811   6.811   4.982
 8132SOL    HW225296   5.707   6.936   5.004
 8133SOL     OW25297   3.538   5.354   2.354
 8133SOL    HW125298   3.464   5.408   2.395
 8133SOL    HW225299   3.502   5.269   2.318
 8134SOL     OW25300   0.308   1.740   6.244
 8134SOL    HW125301   0.319   1.756   6.342
 8134SOL    HW225302   0.394   1.759   6.197
 8135SOL     OW25303   2.332   0.901   1.487
 8135SOL    HW125304   2.387   0.979   1.458
 8135SOL    HW225305   2.242   0.905   1.444
 8136SOL     OW25306   5.082   5.284   2.249
 8136SOL    HW125307   5.108   5.345   2.175
 8136SOL    HW225308   5.093   5.330   2.336
 8137SOL     OW25309   3.277   1.008   5.191
 8137SOL    HW125310   3.280   1.026   5.290
 8137SOL    HW225311   3.182   1.005   5.161
 8138SOL     OW25312   5.527   1.330   1.460
 8138SOL    HW125313   5.461   1.401   1.438
 8138SOL    HW225314   5.617   1.372   1.476
 8139SOL     OW25315   0.370   0.958   2.019
 8139SOL    HW125316   0.304   0.932   1.949
 8139SOL    HW225317   0.445   0.892   2.020
 8140SOL     OW25318   5.709   0.334   5.849
 8140SOL    HW125319   5.707   0.286   5.762
 8140SOL    HW225320   5.620   0.328   5.893
 8141SOL     OW25321   4.456   5.399   5.831
 8141SOL    HW125322   4.432   5.433   5.922
 8141SOL    HW225323   4.446   5.473   5.764
 8142SOL     OW25324   6.781   5.078   0.661
 8142SOL    HW125325   6.838   5.112   0.735
 8142SOL    HW225326   6.725   5.153   0.625
 8143SOL     OW25327   6.444   4.469   0.520
 8143SOL    HW125328   6.534   4.500   0.550
 8143SOL    HW225329   6.400   4.419   0.595
 8144SOL     OW25330   5.766   6.129   6.856
 8144SOL    HW125331   5.807   6.058   6.913
 8144SOL    HW225332   5.825   6.210   6.855
 8145SOL     OW25333   5.609   5.937   1.423
 8145SOL    HW125334   5.607   5.875   1.502
 8145SOL    HW225335   5.594   5.884   1.339
 8146SOL     OW25336   3.419   1.332   5.266
 8146SOL    HW125337   3.408   1.297   5.173
 8146SOL    HW225338   3.509   1.375   5.275
 8147SOL     OW25339   5.835   2.419   3.306
 8147SOL    HW125340   5.914   2.468   3.342
 8147SOL    HW225341   5.786   2.374   3.382
 8148SOL     OW25342   5.306   4.011   1.904
 8148SOL    HW125343   5.209   4.014   1.882
 8148SOL    HW225344   5.319   4.024   2.002
 8149SOL     OW25345   2.291   5.492   2.096
 8149SOL    HW125346   2.373   5.551   2.095
 8149SOL    HW225347   2.255   5.488   2.189
 8150SOL     OW25348   0.353   5.361   0.266
 8150SOL    HW125349   0.375   5.404   0.354
 8150SOL    HW225350   0.379   5.422   0.192
 8151SOL     OW25351   6.723   2.188   2.636
 8151SOL    HW125352   6.685   2.211   2.726
 8151SOL    HW225353   6.821   2.205   2.636
 8152SOL     OW25354   0.305   2.075   2.650
 8152SOL    HW125355   0.391   2.033   2.679
 8152SOL    HW225356   0.308   2.174   2.664
 8153SOL     OW25357   3.587   0.575   3.268
 8153SOL    HW125358   3.630   0.617   3.347
 8153SOL    HW225359   3.556   0.483   3.292
 8154SOL     OW25360   2.437   6.113   3.524
 8154SOL    HW125361   2.489   6.050   3.583
 8154SOL    HW225362   2.347   6.129   3.565
 8155SOL     OW25363   2.707   3.456   1.792
 8155SOL    HW125364   2.699   3.372   1.738
 8155SOL    HW225365   2.625   3.470   1.847
 8156SOL     OW25366   5.504   6.924   6.075
 8156SOL    HW125367   5.507   6.998   6.008
 8156SOL    HW225368   5.442   6.852   6.043
 8157SOL     OW25369   6.052   5.549   6.308
 8157SOL    HW125370   5.996   5.537   6.225
 8157SOL    HW225371   6.135   5.598   6.285
 8158SOL     OW25372   0.702   5.363   1.061
 8158SOL    HW125373   0.621   5.314   1.094
 8158SOL    HW225374   0.762   5.299   1.014
 8159SOL     OW25375   2.615   5.897   2.577
 8159SOL    HW125376   2.540   5.912   2.513
 8159SOL    HW225377   2.687   5.964   2.560
 8160SOL     OW25378   4.462   1.647   1.659
 8160SOL    HW125379   4.519   1.589   1.601
 8160SOL    HW225380   4.422   1.721   1.604
 8161SOL     OW25381   5.089   0.627   0.614
 8161SOL    HW125382   4.997   0.599   0.641
 8161SOL    HW225383   5.142   0.547   0.585
 8162SOL     OW25384   6.203   6.922   5.995
 8162SOL    HW125385   6.146   6.887   6.070
 8162SOL    HW225386   6.148   6.926   5.911
 8163SOL     OW25387   2.165   4.037   5.910
 8163SOL    HW125388   2.233   4.027   5.838
 8163SOL    HW225389   2.077   4.062   5.870
 8164SOL     OW25390   5.757   3.783   0.298
 8164SOL    HW125391   5.686   3.764   0.229
 8164SOL    HW225392   5.846   3.752   0.264
 8165SOL     OW25393   1.466   4.422   0.274
 8165SOL    HW125394   1.415   4.508   0.264
 8165SOL    HW225395   1.558   4.435   0.237
 8166SOL     OW25396   2.616   1.297   2.104
 8166SOL    HW125397   2.590   1.310   2.008
 8166SOL    HW225398   2.708   1.334   2.119
 8167SOL     OW25399   5.666   1.359   4.343
 8167SOL    HW125400   5.701   1.442   4.299
 8167SOL    HW225401   5.665   1.371   4.442
 8168SOL     OW25402   3.302   1.492   2.565
 8168SOL    HW125403   3.389   1.450   2.538
 8168SOL    HW225404   3.320   1.568   2.628
 8169SOL     OW25405   4.766   3.233   0.876
 8169SOL    HW125406   4.781   3.135   0.862
 8169SOL    HW225407   4.854   3.281   0.875
 8170SOL     OW25408   1.836   5.903   3.269
 8170SOL    HW125409   1.761   5.911   3.335
 8170SOL    HW225410   1.888   5.988   3.267
 8171SOL     OW25411   0.897   1.856   6.744
 8171SOL    HW125412   0.972   1.890   6.801
 8171SOL    HW225413   0.913   1.879   6.649
 8172SOL     OW25414   0.330   0.774   1.295
 8172SOL    HW125415   0.289   0.759   1.385
 8172SOL    HW225416   0.381   0.692   1.268
 8173SOL     OW25417   3.462   2.514   0.598
 8173SOL    HW125418   3.442   2.455   0.520
 8173SOL    HW225419   3.398   2.495   0.672
 8174SOL     OW25420   5.146   1.952   1.424
 8174SOL    HW125421   5.063   2.007   1.419
 8174SOL    HW225422   5.176   1.944   1.519
 8175SOL     OW25423   0.444   2.826   6.460
 8175SOL    HW125424   0.464   2.822   6.558
 8175SOL    HW225425   0.417   2.919   6.435
 8176SOL     OW25426   2.593   5.898   2.045
 8176SOL    HW125427   2.622   5.929   1.954
 8176SOL    HW225428   2.660   5.927   2.113
 8177SOL     OW25429   1.576   6.062   3.963
 8177SOL    HW125430   1.493   6.117   3.972
 8177SOL    HW225431   1.553   5.965   3.975
 8178SOL     OW25432   1.677   0.298   6.132
 8178SOL    HW125433   1.727   0.370   6.180
 8178SOL    HW225434   1.742   0.231   6.096
 8179SOL     OW25435   3.758   3.320   0.297
 8179SOL    HW125436   3.770   3.225   0.269
 8179SOL    HW225437   3.661   3.341   0.303
 8180SOL     OW25438   6.356   6.886   4.079
 8180SOL    HW125439   6.358   6.786   4.081
 8180SOL    HW225440   6.449   6.921   4.081
 8181SOL     OW25441   2.211   1.439   2.723
 8181SOL    HW125442   2.279   1.451   2.796
 8181SOL    HW225443   2.258   1.428   2.635
 8182SOL     OW25444   3.637   1.557   6.710
 8182SOL    HW125445   3.640   1.603   6.622
 8182SOL    HW225446   3.578   1.477   6.704
 8183SOL     OW25447   0.315   3.124   5.242
 8183SOL    HW125448   0.377   3.187   5.289
 8183SOL    HW225449   0.221   3.159   5.248
 8184SOL     OW25450   5.911   1.504   6.056
 8184SOL    HW125451   5.816   1.490   6.029
 8184SOL    HW225452   5.962   1.418   6.046
 8185SOL     OW25453   2.853   0.468   0.258
 8185SOL    HW125454   2.942   0.515   0.260
 8185SOL    HW225455   2.824   0.449   0.351
 8186SOL     OW25456   3.283   5.938   6.039
 8186SOL    HW125457   3.291   5.951   6.138
 8186SOL    HW225458   3.285   6.027   5.993
 8187SOL     OW25459   1.395   1.743   5.024
 8187SOL    HW125460   1.411   1.821   4.963
 8187SOL    HW225461   1.364   1.777   5.113
 8188SOL     OW25462   4.858   1.791   2.449
 8188SOL    HW125463   4.910   1.744   2.520
 8188SOL    HW225464   4.833   1.883   2.481
 8189SOL     OW25465   4.870   4.243   2.176
 8189SOL    HW125466   4.930   4.170   2.207
 8189SOL    HW225467   4.832   4.219   2.086
 8190SOL     OW25468   5.320   4.621   4.210
 8190SOL    HW125469   5.238   4.674   4.233
 8190SOL    HW225470   5.399   4.660   4.256
 8191SOL     OW25471   1.938   5.316   3.589
 8191SOL    HW125472   1.993   5.280   3.664
 8191SOL    HW225473   1.850   5.347   3.624
 8192SOL     OW25474   2.946   5.667   0.301
 8192SOL    HW125475   2.930   5.584   0.247
 8192SOL    HW225476   2.858   5.708   0.324
 8193SOL     OW25477   5.874   6.301   5.109
 8193SOL    HW125478   5.923   6.383   5.139
 8193SOL    HW225479   5.825   6.321   5.023
 8194SOL     OW25480   6.333   2.678   6.901
 8194SOL    HW125481   6.293   2.596   6.861
 8194SOL    HW225482   6.296   2.759   6.855
 8195SOL     OW25483   0.205   0.575   0.909
 8195SOL    HW125484   0.273   0.582   0.837
 8195SOL    HW225485   0.114   0.567   0.869
 8196SOL     OW25486   3.974   6.522   5.421
 8196SOL    HW125487   3.966   6.583   5.343
 8196SOL    HW225488   3.921   6.558   5.497
 8197SOL     OW25489   5.917   1.403   6.335
 8197SOL    HW125490   5.871   1.375   6.419
 8197SOL    HW225491   5.928   1.502   6.334
 8198SOL     OW25492   3.340   6.522   2.436
 8198SOL    HW125493   3.291   6.534   2.350
 8198SOL    HW225494   3.356   6.424   2.452
 8199SOL     OW25495   0.105   4.087   0.132
 8199SOL    HW125496   0.071   4.038   0.213
 8199SOL    HW225497   0.117   4.022   0.057
 8200SOL     OW25498   4.345   5.097   1.213
 8200SOL    HW125499   4.378   5.009   1.247
 8200SOL    HW225500   4.396   5.123   1.131
 8201SOL     OW25501   5.261   0.382   4.614
 8201SOL    HW125502   5.319   0.316   4.661
 8201SOL    HW225503   5.277   0.474   4.651
 8202SOL     OW25504   1.463   5.286   4.331
 8202SOL    HW125505   1.505   5.213   4.277
 8202SOL    HW225506   1.383   5.249   4.379
 8203SOL     OW25507   4.726   3.521   0.925
 8203SOL    HW125508   4.680   3.473   0.850
 8203SOL    HW225509   4.822   3.534   0.902
 8204SOL     OW25510   3.430   6.554   1.410
 8204SOL    HW125511   3.364   6.573   1.483
 8204SOL    HW225512   3.483   6.637   1.390
 8205SOL     OW25513   5.384   5.060   1.373
 8205SOL    HW125514   5.469   5.039   1.325
 8205SOL    HW225515   5.360   4.984   1.433
 8206SOL     OW25516   2.845   2.727   6.033
 8206SOL    HW125517   2.922   2.791   6.033
 8206SOL    HW225518   2.813   2.713   6.127
 8207SOL     OW25519   3.244   4.590   5.408
 8207SOL    HW125520   3.153   4.630   5.416
 8207SOL    HW225521   3.296   4.641   5.340
 8208SOL     OW25522   2.890   6.073   1.470
 8208SOL    HW125523   2.927   5.999   1.415
 8208SOL    HW225524   2.798   6.097   1.437
 8209SOL     OW25525   1.618   1.047   5.675
 8209SOL    HW125526   1.532   1.056   5.725
 8209SOL    HW225527   1.695   1.059   5.737
 8210SOL     OW25528   2.580   0.775   0.350
 8210SOL    HW125529   2.587   0.743   0.256
 8210SOL    HW225530   2.491   0.817   0.365
 8211SOL     OW25531   3.492   4.125   4.708
 8211SOL    HW125532   3.545   4.041   4.696
 8211SOL    HW225533   3.525   4.173   4.790
 8212SOL     OW25534   2.570   0.239   0.730
 8212SOL    HW125535   2.544   0.146   0.757
 8212SOL    HW225536   2.645   0.271   0.788
 8213SOL     OW25537   4.637   5.238   3.425
 8213SOL    HW125538   4.624   5.202   3.332
 8213SOL    HW225539   4.676   5.167   3.483
 8214SOL     OW25540   2.566   6.011   3.957
 8214SOL    HW125541   2.587   6.001   4.055
 8214SOL    HW225542   2.476   6.053   3.947
 8215SOL     OW25543   4.079   6.228   6.998
 8215SOL    HW125544   4.174   6.250   6.977
 8215SOL    HW225545   4.074   6.137   0.016
 8216SOL     OW25546   5.199   6.646   2.648
 8216SOL    HW125547   5.190   6.562   2.702
 8216SOL    HW225548   5.276   6.638   2.586
 8217SOL     OW25549   2.129   4.122   2.933
 8217SOL    HW125550   2.124   4.033   2.887
 8217SOL    HW225551   2.103   4.193   2.868
 8218SOL     OW25552   1.913   0.263   4.862
 8218SOL    HW125553   1.896   0.206   4.942
 8218SOL    HW225554   1.969   0.213   4.796
 8219SOL     OW25555   3.056   4.049   2.040
 8219SOL    HW125556   2.998   4.128   2.058
 8219SOL    HW225557   3.032   4.011   1.951
 8220SOL     OW25558   3.464   4.245   5.186
 8220SOL    HW125559   3.389   4.188   5.153
 8220SOL    HW225560   3.467   4.241   5.286
 8221SOL     OW25561   6.021   4.273   2.853
 8221SOL    HW125562   5.960   4.222   2.913
 8221SOL    HW225563   5.967   4.332   2.792
 8222SOL     OW25564   5.772   3.218   1.181
 8222SOL    HW125565   5.710   3.178   1.249
 8222SOL    HW225566   5.840   3.150   1.153
 8223SOL     OW25567   6.735   5.279   5.034
 8223SOL    HW125568   6.736   5.262   4.935
 8223SOL    HW225569   6.746   5.192   5.082
 8224SOL     OW25570   4.957   1.497   0.724
 8224SOL    HW125571   4.891   1.519   0.652
 8224SOL    HW225572   4.949   1.564   0.798
 8225SOL     OW25573   3.896   0.480   0.459
 8225SOL    HW125574   3.862   0.565   0.499
 8225SOL    HW225575   3.912   0.413   0.531
 8226SOL     OW25576   3.891   0.679   0.157
 8226SOL    HW125577   3.873   0.585   0.127
 8226SOL    HW225578   3.850   0.695   0.247
 8227SOL     OW25579   5.548   1.459   2.892
 8227SOL    HW125580   5.479   1.492   2.827
 8227SOL    HW225581   5.591   1.538   2.936
 8228SOL     OW25582   0.805   1.177   4.875
 8228SOL    HW125583   0.842   1.266   4.900
 8228SOL    HW225584   0.879   1.111   4.864
 8229SOL     OW25585   3.757   4.774   1.009
 8229SOL    HW125586   3.852   4.790   1.038
 8229SOL    HW225587   3.738   4.676   1.008
 8230SOL     OW25588   4.259   0.252   5.442
 8230SOL    HW125589   4.294   0.341   5.470
 8230SOL    HW225590   4.218   0.260   5.351
 8231SOL     OW25591   3.422   1.457   1.925
 8231SOL    HW125592   3.346   1.487   1.982
 8231SOL    HW225593   3.509   1.482   1.967
 8232SOL     OW25594   4.166   1.387   2.307
 8232SOL    HW125595   4.169   1.297   2.264
 8232SOL    HW225596   4.091   1.440   2.269
 8233SOL     OW25597   0.769   1.156   5.918
 8233SOL    HW125598   0.796   1.076   5.972
 8233SOL    HW225599   0.824   1.235   5.946
 8234SOL     OW25600   3.025   3.689   6.981
 8234SOL    HW125601   3.105   3.639   7.014
 8234SOL    HW225602   3.044   3.787   6.984
 8235SOL     OW25603   6.839   5.140   6.527
 8235SOL    HW125604   6.783   5.057   6.531
 8235SOL    HW225605   6.873   5.161   6.619
 8236SOL     OW25606   0.441   5.928   5.898
 8236SOL    HW125607   0.421   5.844   5.847
 8236SOL    HW225608   0.472   5.904   5.990
 8237SOL     OW25609   4.345   5.493   6.574
 8237SOL    HW125610   4.401   5.557   6.522
 8237SOL    HW225611   4.262   5.539   6.606
 8238SOL     OW25612   1.908   5.534   0.402
 8238SOL    HW125613   1.983   5.593   0.429
 8238SOL    HW225614   1.882   5.553   0.307
 8239SOL     OW25615   0.715   1.842   4.822
 8239SOL    HW125616   0.813   1.861   4.827
 8239SOL    HW225617   0.698   1.773   4.751
 8240SOL     OW25618   3.687   2.971   3.549
 8240SOL    HW125619   3.710   3.002   3.457
 8240SOL    HW225620   3.589   2.957   3.556
 8241SOL     OW25621   1.529   3.194   6.645
 8241SOL    HW125622   1.604   3.261   6.649
 8241SOL    HW225623   1.564   3.104   6.670
 8242SOL     OW25624   0.818   3.766   4.345
 8242SOL    HW125625   0.829   3.791   4.249
 8242SOL    HW225626   0.722   3.746   4.364
 8243SOL     OW25627   0.418   4.882   6.077
 8243SOL    HW125628   0.437   4.925   5.989
 8243SOL    HW225629   0.445   4.785   6.073
 8244SOL     OW25630   0.591   0.165   3.386
 8244SOL    HW125631   0.528   0.096   3.350
 8244SOL    HW225632   0.658   0.189   3.316
 8245SOL     OW25633   4.891   1.191   3.768
 8245SOL    HW125634   4.831   1.269   3.789
 8245SOL    HW225635   4.941   1.210   3.684
 8246SOL     OW25636   1.134   4.163   6.620
 8246SOL    HW125637   1.095   4.075   6.646
 8246SOL    HW225638   1.230   4.166   6.647
 8247SOL     OW25639   3.055   5.048   3.582
 8247SOL    HW125640   2.993   5.126   3.590
 8247SOL    HW225641   3.049   5.009   3.490
 8248SOL     OW25642   0.924   5.470   3.182
 8248SOL    HW125643   0.984   5.535   3.135
 8248SOL    HW225644   0.974   5.384   3.196
 8249SOL     OW25645   2.368   2.523   5.457
 8249SOL    HW125646   2.367   2.424   5.448
 8249SOL    HW225647   2.281   2.555   5.493
 8250SOL     OW25648   2.443   1.801   0.380
 8250SOL    HW125649   2.528   1.848   0.401
 8250SOL    HW225650   2.444   1.709   0.420
 8251SOL     OW25651   0.070   2.353   4.550
 8251SOL    HW125652   0.079   2.390   4.457
 8251SOL    HW225653   0.037   2.424   4.612
 8252SOL     OW25654   2.464   2.203   6.908
 8252SOL    HW125655   2.393   2.229   6.843
 8252SOL    HW225656   2.448   2.251   6.995
 8253SOL     OW25657   3.103   5.818   6.322
 8253SOL    HW125658   3.110   5.773   6.411
 8253SOL    HW225659   3.131   5.754   6.250
 8254SOL     OW25660   6.040   4.825   0.072
 8254SOL    HW125661   6.100   4.904   0.081
 8254SOL    HW225662   5.976   4.822   0.148
 8255SOL     OW25663   0.363   6.963   6.021
 8255SOL    HW125664   0.340   0.037   6.026
 8255SOL    HW225665   0.452   6.953   5.976
 8256SOL     OW25666   1.217   6.299   2.523
 8256SOL    HW125667   1.282   6.295   2.448
 8256SOL    HW225668   1.124   6.301   2.486
 8257SOL     OW25669   5.609   3.903   4.260
 8257SOL    HW125670   5.677   3.975   4.277
 8257SOL    HW225671   5.520   3.945   4.242
 8258SOL     OW25672   5.703   2.877   1.732
 8258SOL    HW125673   5.605   2.858   1.741
 8258SOL    HW225674   5.736   2.838   1.647
 8259SOL     OW25675   4.318   2.315   4.636
 8259SOL    HW125676   4.403   2.355   4.603
 8259SOL    HW225677   4.315   2.218   4.612
 8260SOL     OW25678   2.625   6.886   0.417
 8260SOL    HW125679   2.586   6.794   0.405
 8260SOL    HW225680   2.686   6.906   0.341
 8261SOL     OW25681   5.836   5.812   3.052
 8261SOL    HW125682   5.895   5.779   2.979
 8261SOL    HW225683   5.766   5.871   3.014
 8262SOL     OW25684   0.391   4.824   0.438
 8262SOL    HW125685   0.454   4.901   0.453
 8262SOL    HW225686   0.388   4.767   0.520
 8263SOL     OW25687   0.080   2.544   6.422
 8263SOL    HW125688   0.173   2.547   6.458
 8263SOL    HW225689   0.015   2.556   6.496
 8264SOL     OW25690   2.171   6.990   1.789
 8264SOL    HW125691   2.260   6.955   1.819
 8264SOL    HW225692   2.100   6.955   1.850
 8265SOL     OW25693   4.452   0.376   1.350
 8265SOL    HW125694   4.362   0.421   1.352
 8265SOL    HW225695   4.472   0.340   1.441
 8266SOL     OW25696   2.650   0.380   4.053
 8266SOL    HW125697   2.737   0.336   4.076
 8266SOL    HW225698   2.594   0.388   4.135
 8267SOL     OW25699   1.173   4.561   2.658
 8267SOL    HW125700   1.221   4.474   2.651
 8267SOL    HW225701   1.075   4.546   2.647
 8268SOL     OW25702   3.266   3.708   6.494
 8268SOL    HW125703   3.270   3.703   6.594
 8268SOL    HW225704   3.205   3.782   6.467
 8269SOL     OW25705   4.285   2.342   3.310
 8269SOL    HW125706   4.306   2.401   3.388
 8269SOL    HW225707   4.205   2.286   3.332
 8270SOL     OW25708   3.523   6.983   5.924
 8270SOL    HW125709   3.431   6.952   5.901
 8270SOL    HW225710   3.519   0.021   6.003
 8271SOL     OW25711   5.401   6.300   4.254
 8271SOL    HW125712   5.312   6.259   4.235
 8271SOL    HW225713   5.403   6.332   4.349
 8272SOL     OW25714   0.730   0.579   2.468
 8272SOL    HW125715   0.762   0.666   2.507
 8272SOL    HW225716   0.780   0.561   2.384
 8273SOL     OW25717   2.318   6.868   6.935
 8273SOL    HW125718   2.304   6.901   0.005
 8273SOL    HW225719   2.412   6.885   6.908
 8274SOL     OW25720   4.928   5.324   0.089
 8274SOL    HW125721   4.829   5.309   0.083
 8274SOL    HW225722   4.945   5.414   0.130
 8275SOL     OW25723   6.945   0.061   4.196
 8275SOL    HW125724   6.969   0.001   4.273
 8275SOL    HW225725   0.005   0.090   4.149
 8276SOL     OW25726   6.916   2.501   5.666
 8276SOL    HW125727   6.995   2.537   5.716
 8276SOL    HW225728   6.836   2.505   5.725
 8277SOL     OW25729   1.536   6.180   5.385
 8277SOL    HW125730   1.635   6.168   5.389
 8277SOL    HW225731   1.509   6.252   5.449
 8278SOL     OW25732   3.621   2.104   6.482
 8278SOL    HW125733   3.536   2.131   6.527
 8278SOL    HW225734   3.695   2.164   6.512
 8279SOL     OW25735   4.607   5.847   6.750
 8279SOL    HW125736   4.671   5.788   6.702
 8279SOL    HW225737   4.657   5.914   6.805
 8280SOL     OW25738   5.325   2.638   0.477
 8280SOL    HW125739   5.239   2.681   0.450
 8280SOL    HW225740   5.399   2.705   0.475
 8281SOL     OW25741   1.226   5.074   0.682
 8281SOL    HW125742   1.299   5.096   0.747
 8281SOL    HW225743   1.232   5.136   0.603
 8282SOL     OW25744   2.573   2.627   1.385
 8282SOL    HW125745   2.533   2.702   1.438
 8282SOL    HW225746   2.515   2.608   1.306
 8283SOL     OW25747   0.632   5.007   4.103
 8283SOL    HW125748   0.558   4.954   4.061
 8283SOL    HW225749   0.695   5.037   4.031
 8284SOL     OW25750   2.708   2.395   2.931
 8284SOL    HW125751   2.644   2.346   2.872
 8284SOL    HW225752   2.658   2.435   3.008
 8285SOL     OW25753   3.042   4.195   5.932
 8285SOL    HW125754   3.089   4.251   6.001
 8285SOL    HW225755   2.951   4.233   5.915
 8286SOL     OW25756   5.636   0.854   4.655
 8286SOL    HW125757   5.615   0.847   4.752
 8286SOL    HW225758   5.619   0.766   4.611
 8287SOL     OW25759   1.313   0.144   3.476
 8287SOL    HW125760   1.351   0.180   3.391
 8287SOL    HW225761   1.370   0.068   3.508
 8288SOL     OW25762   2.330   1.909   2.294
 8288SOL    HW125763   2.399   1.878   2.359
 8288SOL    HW225764   2.352   2.002   2.263
 8289SOL     OW25765   5.764   1.864   5.315
 8289SOL    HW125766   5.750   1.929   5.239
 8289SOL    HW225767   5.705   1.889   5.391
 8290SOL     OW25768   3.611   2.591   1.690
 8290SOL    HW125769   3.630   2.501   1.731
 8290SOL    HW225770   3.610   2.661   1.762
 8291SOL     OW25771   5.535   6.670   6.714
 8291SOL    HW125772   5.585   6.657   6.629
 8291SOL    HW225773   5.491   6.584   6.740
 8292SOL     OW25774   0.822   5.175   5.492
 8292SOL    HW125775   0.762   5.098   5.469
 8292SOL    HW225776   0.857   5.162   5.585
 8293SOL     OW25777   2.143   4.761   2.305
 8293SOL    HW125778   2.239   4.735   2.297
 8293SOL    HW225779   2.127   4.804   2.394
 8294SOL     OW25780   0.194   3.748   5.963
 8294SOL    HW125781   0.173   3.692   5.882
 8294SOL    HW225782   0.257   3.821   5.938
 8295SOL     OW25783   5.144   3.915   2.718
 8295SOL    HW125784   5.182   3.983   2.656
 8295SOL    HW225785   5.096   3.961   2.793
 8296SOL     OW25786   3.150   5.853   0.530
 8296SOL    HW125787   3.150   5.833   0.432
 8296SOL    HW225788   3.056   5.864   0.562
 8297SOL     OW25789   0.059   4.432   2.650
 8297SOL    HW125790   6.997   4.437   2.600
 8297SOL    HW225791   0.070   4.341   2.690
 8298SOL     OW25792   0.792   1.145   6.892
 8298SOL    HW125793   0.729   1.076   6.857
 8298SOL    HW225794   0.741   1.211   6.948
 8299SOL     OW25795   0.034   3.722   2.021
 8299SOL    HW125796   6.974   3.729   2.076
 8299SOL    HW225797   0.114   3.729   2.081
 8300SOL     OW25798   6.280   5.450   4.097
 8300SOL    HW125799   6.337   5.428   4.018
 8300SOL    HW225800   6.338   5.457   4.178
 8301SOL     OW25801   3.753   0.063   0.345
 8301SOL    HW125802   3.774   0.160   0.357
 8301SOL    HW225803   3.765   0.015   0.432
 8302SOL     OW25804   3.279   6.284   4.046
 8302SOL    HW125805   3.297   6.370   3.997
 8302SOL    HW225806   3.347   6.272   4.118
 8303SOL     OW25807   6.305   0.375   1.946
 8303SOL    HW125808   6.264   0.440   2.011
 8303SOL    HW225809   6.400   0.358   1.972
 8304SOL     OW25810   5.730   3.340   3.731
 8304SOL    HW125811   5.784   3.320   3.649
 8304SOL    HW225812   5.751   3.432   3.764
 8305SOL     OW25813   4.453   5.522   3.822
 8305SOL    HW125814   4.438   5.437   3.874
 8305SOL    HW225815   4.410   5.598   3.870
 8306SOL     OW25816   6.636   0.653   2.118
 8306SOL    HW125817   6.579   0.732   2.094
 8306SOL    HW225818   6.588   0.569   2.095
 8307SOL     OW25819   1.547   4.786   1.902
 8307SOL    HW125820   1.497   4.768   1.986
 8307SOL    HW225821   1.541   4.707   1.841
 8308SOL     OW25822   1.122   4.700   0.038
 8308SOL    HW125823   1.041   4.643   0.050
 8308SOL    HW225824   1.171   4.707   0.125
 8309SOL     OW25825   6.716   4.686   4.881
 8309SOL    HW125826   6.702   4.597   4.839
 8309SOL    HW225827   6.628   4.726   4.905
 8310SOL     OW25828   0.395   6.870   0.507
 8310SOL    HW125829   0.415   6.895   0.412
 8310SOL    HW225830   0.342   6.943   0.550
 8311SOL     OW25831   5.445   6.429   4.000
 8311SOL    HW125832   5.449   6.416   4.099
 8311SOL    HW225833   5.471   6.345   3.953
 8312SOL     OW25834   5.169   0.081   6.852
 8312SOL    HW125835   5.153   7.006   6.852
 8312SOL    HW225836   5.216   0.107   6.936
 8313SOL     OW25837   4.107   0.225   5.225
 8313SOL    HW125838   4.023   0.277   5.241
 8313SOL    HW225839   4.084   0.131   5.199
 8314SOL     OW25840   5.203   6.352   5.941
 8314SOL    HW125841   5.289   6.340   5.990
 8314SOL    HW225842   5.211   6.315   5.849
 8315SOL     OW25843   3.816   3.416   4.554
 8315SOL    HW125844   3.760   3.349   4.602
 8315SOL    HW225845   3.907   3.378   4.539
 8316SOL     OW25846   0.803   3.163   0.331
 8316SOL    HW125847   0.728   3.098   0.327
 8316SOL    HW225848   0.875   3.128   0.392
 8317SOL     OW25849   2.217   1.758   4.932
 8317SOL    HW125850   2.216   1.819   5.012
 8317SOL    HW225851   2.189   1.809   4.851
 8318SOL     OW25852   3.967   0.373   6.728
 8318SOL    HW125853   3.944   0.316   6.807
 8318SOL    HW225854   4.066   0.370   6.712
 8319SOL     OW25855   1.233   0.285   6.088
 8319SOL    HW125856   1.141   0.321   6.105
 8319SOL    HW225857   1.284   0.285   6.174
 8320SOL     OW25858   3.558   4.107   4.343
 8320SOL    HW125859   3.581   4.170   4.269
 8320SOL    HW225860   3.498   4.154   4.408
 8321SOL     OW25861   0.307   0.495   0.007
 8321SOL    HW125862   0.274   0.584   0.038
 8321SOL    HW225863   0.394   0.474   0.053
 8322SOL     OW25864   6.971   1.117   0.588
 8322SOL    HW125865   6.872   1.128   0.596
 8322SOL    HW225866   6.999   1.035   0.639
 8323SOL     OW25867   4.767   4.737   1.018
 8323SOL    HW125868   4.740   4.737   0.922
 8323SOL    HW225869   4.867   4.738   1.025
 8324SOL     OW25870   6.145   0.347   6.618
 8324SOL    HW125871   6.136   0.258   6.574
 8324SOL    HW225872   6.054   0.388   6.631
 8325SOL     OW25873   1.695   5.649   4.643
 8325SOL    HW125874   1.770   5.588   4.668
 8325SOL    HW225875   1.657   5.621   4.555
 8326SOL     OW25876   2.763   3.789   0.170
 8326SOL    HW125877   2.757   3.784   0.269
 8326SOL    HW225878   2.707   3.717   0.129
 8327SOL     OW25879   0.703   0.947   5.423
 8327SOL    HW125880   0.729   0.861   5.467
 8327SOL    HW225881   0.782   0.987   5.378
 8328SOL     OW25882   0.566   5.962   5.643
 8328SOL    HW125883   0.486   6.020   5.662
 8328SOL    HW225884   0.622   6.005   5.573
 8329SOL     OW25885   0.755   2.782   4.952
 8329SOL    HW125886   0.763   2.763   4.855
 8329SOL    HW225887   0.750   2.696   5.003
 8330SOL     OW25888   3.942   1.016   6.822
 8330SOL    HW125889   3.854   1.034   6.779
 8330SOL    HW225890   3.991   1.102   6.834
 8331SOL     OW25891   2.129   1.816   0.572
 8331SOL    HW125892   2.175   1.802   0.484
 8331SOL    HW225893   2.195   1.803   0.646
 8332SOL     OW25894   5.519   5.175   1.613
 8332SOL    HW125895   5.552   5.101   1.671
 8332SOL    HW225896   5.521   5.146   1.517
 8333SOL     OW25897   2.142   4.772   1.208
 8333SOL    HW125898   2.059   4.717   1.197
 8333SOL    HW225899   2.171   4.769   1.303
 8334SOL     OW25900   3.321   2.413   6.767
 8334SOL    HW125901   3.274   2.379   6.848
 8334SOL    HW225902   3.409   2.453   6.794
 8335SOL     OW25903   4.728   3.084   6.724
 8335SOL    HW125904   4.762   3.022   6.653
 8335SOL    HW225905   4.643   3.049   6.761
 8336SOL     OW25906   1.432   3.234   2.836
 8336SOL    HW125907   1.470   3.314   2.790
 8336SOL    HW225908   1.506   3.184   2.882
 8337SOL     OW25909   0.623   1.636   4.674
 8337SOL    HW125910   0.614   1.562   4.607
 8337SOL    HW225911   0.574   1.610   4.758
 8338SOL     OW25912   3.837   4.883   2.145
 8338SOL    HW125913   3.919   4.877   2.088
 8338SOL    HW225914   3.758   4.851   2.093
 8339SOL     OW25915   0.082   0.373   0.307
 8339SOL    HW125916   0.149   0.448   0.306
 8339SOL    HW225917   0.129   0.286   0.291
 8340SOL     OW25918   5.226   2.474   0.685
 8340SOL    HW125919   5.286   2.517   0.617
 8340SOL    HW225920   5.144   2.439   0.639
 8341SOL     OW25921   3.405   0.086   6.874
 8341SOL    HW125922   3.464   0.009   6.852
 8341SOL    HW225923   3.448   0.171   6.843
 8342SOL     OW25924   3.494   6.534   6.970
 8342SOL    HW125925   3.556   6.499   6.900
 8342SOL    HW225926   3.433   6.602   6.930
 8343SOL     OW25927   6.561   4.559   3.770
 8343SOL    HW125928   6.577   4.513   3.682
 8343SOL    HW225929   6.478   4.614   3.763
 8344SOL     OW25930   0.681   4.903   4.391
 8344SOL    HW125931   0.674   4.924   4.293
 8344SOL    HW225932   0.640   4.976   4.444
 8345SOL     OW25933   5.334   0.894   3.199
 8345SOL    HW125934   5.422   0.941   3.193
 8345SOL    HW225935   5.272   0.947   3.257
 8346SOL     OW25936   4.639   3.247   5.981
 8346SOL    HW125937   4.580   3.318   6.019
 8346SOL    HW225938   4.587   3.191   5.916
 8347SOL     OW25939   2.323   6.816   5.960
 8347SOL    HW125940   2.381   6.794   5.881
 8347SOL    HW225941   2.368   6.884   6.017
 8348SOL     OW25942   3.624   6.736   1.322
 8348SOL    HW125943   3.624   6.716   1.224
 8348SOL    HW225944   3.698   6.800   1.343
 8349SOL     OW25945   0.434   6.468   2.274
 8349SOL    HW125946   0.526   6.467   2.313
 8349SOL    HW225947   0.432   6.529   2.195
 8350SOL     OW25948   2.857   6.982   6.324
 8350SOL    HW125949   2.803   0.002   6.395
 8350SOL    HW225950   2.798   6.952   6.250
 8351SOL     OW25951   6.484   5.103   4.482
 8351SOL    HW125952   6.528   5.191   4.469
 8351SOL    HW225953   6.432   5.079   4.400
 8352SOL     OW25954   2.528   6.295   1.814
 8352SOL    HW125955   2.560   6.201   1.805
 8352SOL    HW225956   2.604   6.358   1.795
 8353SOL     OW25957   1.013   4.072   1.592
 8353SOL    HW125958   1.068   4.006   1.541
 8353SOL    HW225959   1.046   4.076   1.686
 8354SOL     OW25960   3.759   6.292   3.759
 8354SOL    HW125961   3.672   6.335   3.734
 8354SOL    HW225962   3.754   6.258   3.853
 8355SOL     OW25963   1.305   6.859   6.306
 8355SOL    HW125964   1.403   6.863   6.289
 8355SOL    HW225965   1.256   6.860   6.219
 8356SOL     OW25966   1.729   5.663   1.622
 8356SOL    HW125967   1.682   5.748   1.646
 8356SOL    HW225968   1.821   5.663   1.660
 8357SOL     OW25969   4.058   5.437   5.808
 8357SOL    HW125970   3.973   5.485   5.787
 8357SOL    HW225971   4.038   5.345   5.841
 8358SOL     OW25972   1.327   2.675   5.578
 8358SOL    HW125973   1.369   2.694   5.489
 8358SOL    HW225974   1.253   2.609   5.566
 8359SOL     OW25975   2.912   0.791   4.706
 8359SOL    HW125976   2.892   0.735   4.625
 8359SOL    HW225977   3.011   0.802   4.715
 8360SOL     OW25978   4.719   6.450   0.742
 8360SOL    HW125979   4.674   6.433   0.655
 8360SOL    HW225980   4.759   6.541   0.742
 8361SOL     OW25981   2.023   0.297   6.597
 8361SOL    HW125982   1.982   0.269   6.684
 8361SOL    HW225983   2.078   0.222   6.560
 8362SOL     OW25984   6.673   2.923   0.321
 8362SOL    HW125985   6.742   2.961   0.259
 8362SOL    HW225986   6.614   2.860   0.271
 8363SOL     OW25987   4.057   2.387   0.412
 8363SOL    HW125988   4.001   2.404   0.493
 8363SOL    HW225989   4.004   2.405   0.329
 8364SOL     OW25990   0.286   2.682   3.537
 8364SOL    HW125991   0.319   2.753   3.599
 8364SOL    HW225992   0.328   2.595   3.563
 8365SOL     OW25993   1.713   2.444   1.911
 8365SOL    HW125994   1.779   2.370   1.917
 8365SOL    HW225995   1.664   2.438   1.824
 8366SOL     OW25996   4.293   5.735   1.138
 8366SOL    HW125997   4.241   5.791   1.074
 8366SOL    HW225998   4.389   5.732   1.108
 8367SOL     OW25999   3.189   5.175   4.723
 8367SOL    HW126000   3.201   5.076   4.729
 8367SOL    HW226001   3.095   5.198   4.749
 8368SOL     OW26002   0.833   6.364   6.952
 8368SOL    HW126003   0.765   6.407   7.012
 8368SOL    HW226004   0.910   6.333   7.007
 8369SOL     OW26005   1.147   1.684   0.848
 8369SOL    HW126006   1.148   1.783   0.857
 8369SOL    HW226007   1.130   1.660   0.752
 8370SOL     OW26008   2.876   1.932   6.786
 8370SOL    HW126009   2.816   1.863   6.745
 8370SOL    HW226010   2.827   2.019   6.792
 8371SOL     OW26011   1.590   3.251   5.495
 8371SOL    HW126012   1.648   3.290   5.423
 8371SOL    HW226013   1.513   3.313   5.512
 8372SOL     OW26014   2.536   6.656   2.230
 8372SOL    HW126015   2.630   6.680   2.208
 8372SOL    HW226016   2.485   6.636   2.146
 8373SOL     OW26017   1.098   1.640   4.460
 8373SOL    HW126018   1.146   1.727   4.465
 8373SOL    HW226019   1.116   1.597   4.371
 8374SOL     OW26020   1.440   0.813   3.923
 8374SOL    HW126021   1.428   0.752   4.001
 8374SOL    HW226022   1.352   0.827   3.877
 8375SOL     OW26023   4.456   0.783   5.793
 8375SOL    HW126024   4.397   0.724   5.739
 8375SOL    HW226025   4.400   0.845   5.849
 8376SOL     OW26026   1.555   0.986   3.543
 8376SOL    HW126027   1.600   0.946   3.463
 8376SOL    HW226028   1.590   1.079   3.557
 8377SOL     OW26029   5.334   5.417   0.116
 8377SOL    HW126030   5.241   5.390   0.091
 8377SOL    HW226031   5.333   5.460   0.206
 8378SOL     OW26032   5.235   5.083   3.381
 8378SOL    HW126033   5.161   5.093   3.447
 8378SOL    HW226034   5.321   5.068   3.430
 8379SOL     OW26035   4.932   1.906   1.663
 8379SOL    HW126036   4.833   1.893   1.673
 8379SOL    HW226037   4.961   1.983   1.720
 8380SOL     OW26038   0.335   6.660   6.909
 8380SOL    HW126039   0.238   6.649   6.929
 8380SOL    HW226040   0.389   6.621   6.984
 8381SOL     OW26041   0.243   2.310   2.804
 8381SOL    HW126042   0.165   2.349   2.852
 8381SOL    HW226043   0.265   2.367   2.725
 8382SOL     OW26044   2.590   0.001   6.988
 8382SOL    HW126045   2.589   0.063   6.910
 8382SOL    HW226046   2.600   0.053   0.049
 8383SOL     OW26047   2.465   0.515   4.790
 8383SOL    HW126048   2.544   0.466   4.827
 8383SOL    HW226049   2.424   0.571   4.862
 8384SOL     OW26050   6.413   1.783   1.281
 8384SOL    HW126051   6.476   1.857   1.302
 8384SOL    HW226052   6.465   1.701   1.255
 8385SOL     OW26053   4.511   3.259   0.999
 8385SOL    HW126054   4.610   3.257   0.985
 8385SOL    HW226055   4.474   3.166   0.995
 8386SOL     OW26056   1.846   6.550   1.456
 8386SOL    HW126057   1.867   6.609   1.534
 8386SOL    HW226058   1.747   6.549   1.440
 8387SOL     OW26059   2.451   1.613   1.748
 8387SOL    HW126060   2.365   1.583   1.706
 8387SOL    HW226061   2.498   1.676   1.687
 8388SOL     OW26062   1.482   6.863   0.563
 8388SOL    HW126063   1.541   6.942   0.581
 8388SOL    HW226064   1.502   6.790   0.629
 8389SOL     OW26065   1.651   3.276   4.306
 8389SOL    HW126066   1.726   3.337   4.281
 8389SOL    HW226067   1.671   3.183   4.275
 8390SOL     OW26068   2.985   0.780   6.136
 8390SOL    HW126069   3.005   0.800   6.231
 8390SOL    HW226070   2.896   0.818   6.112
 8391SOL     OW26071   5.113   5.660   1.608
 8391SOL    HW126072   5.041   5.729   1.618
 8391SOL    HW226073   5.194   5.702   1.567
 8392SOL     OW26074   6.332   5.984   5.011
 8392SOL    HW126075   6.287   5.946   5.091
 8392SOL    HW226076   6.278   6.059   4.974
 8393SOL     OW26077   6.948   0.082   3.724
 8393SOL    HW126078   6.892   0.114   3.647
 8393SOL    HW226079   6.950   7.006   3.725
 8394SOL     OW26080   0.735   1.585   2.574
 8394SOL    HW126081   0.834   1.592   2.589
 8394SOL    HW226082   0.716   1.504   2.518
 8395SOL     OW26083   0.300   6.145   4.379
 8395SOL    HW126084   0.232   6.086   4.336
 8395SOL    HW226085   0.258   6.232   4.403
 8396SOL     OW26086   4.088   4.707   2.717
 8396SOL    HW126087   4.131   4.713   2.626
 8396SOL    HW226088   3.993   4.737   2.711
 8397SOL     OW26089   2.316   6.914   2.542
 8397SOL    HW126090   2.357   6.836   2.589
 8397SOL    HW226091   2.230   6.939   2.588
 8398SOL     OW26092   4.071   1.807   0.251
 8398SOL    HW126093   4.138   1.733   0.240
 8398SOL    HW226094   4.025   1.823   0.163
 8399SOL     OW26095   5.901   5.936   0.930
 8399SOL    HW126096   5.914   5.989   0.846
 8399SOL    HW226097   5.824   5.873   0.917
 8400SOL     OW26098   6.983   0.160   2.980
 8400SOL    HW126099   6.903   0.214   2.956
 8400SOL    HW226100   6.955   0.078   3.029
 8401SOL     OW26101   4.461   3.052   5.870
 8401SOL    HW126102   4.389   3.119   5.887
 8401SOL    HW226103   4.419   2.963   5.850
 8402SOL     OW26104   3.519   2.080   5.793
 8402SOL    HW126105   3.420   2.084   5.780
 8402SOL    HW226106   3.548   1.985   5.805
 8403SOL     OW26107   0.651   1.290   3.256
 8403SOL    HW126108   0.670   1.387   3.268
 8403SOL    HW226109   0.621   1.251   3.343
 8404SOL     OW26110   5.663   6.644   6.455
 8404SOL    HW126111   5.624   6.568   6.404
 8404SOL    HW226112   5.645   6.730   6.406
 8405SOL     OW26113   1.875   2.082   6.836
 8405SOL    HW126114   1.891   1.991   6.797
 8405SOL    HW226115   1.819   2.136   6.774
 8406SOL     OW26116   4.517   1.648   0.811
 8406SOL    HW126117   4.563   1.675   0.726
 8406SOL    HW226118   4.445   1.715   0.833
 8407SOL     OW26119   6.044   4.650   4.811
 8407SOL    HW126120   6.105   4.724   4.783
 8407SOL    HW226121   6.089   4.593   4.879
 8408SOL     OW26122   5.220   0.027   3.870
 8408SOL    HW126123   5.243   0.123   3.854
 8408SOL    HW226124   5.263   7.020   3.955
 8409SOL     OW26125   0.657   1.896   3.752
 8409SOL    HW126126   0.559   1.919   3.752
 8409SOL    HW226127   0.711   1.981   3.749
 8410SOL     OW26128   4.939   1.019   1.547
 8410SOL    HW126129   4.998   0.945   1.578
 8410SOL    HW226130   4.978   1.107   1.574
 8411SOL     OW26131   1.388   5.134   3.565
 8411SOL    HW126132   1.451   5.127   3.488
 8411SOL    HW226133   1.320   5.204   3.546
 8412SOL     OW26134   4.334   2.034   0.956
 8412SOL    HW126135   4.282   2.084   0.887
 8412SOL    HW226136   4.280   1.958   0.990
 8413SOL     OW26137   4.035   5.418   0.584
 8413SOL    HW126138   4.073   5.436   0.675
 8413SOL    HW226139   4.101   5.365   0.530
 8414SOL     OW26140   3.823   0.503   2.308
 8414SOL    HW126141   3.828   0.564   2.229
 8414SOL    HW226142   3.908   0.509   2.361
 8415SOL     OW26143   6.770   5.045   3.941
 8415SOL    HW126144   6.779   4.947   3.926
 8415SOL    HW226145   6.744   5.091   3.856
 8416SOL     OW26146   5.386   4.064   2.647
 8416SOL    HW126147   5.343   4.077   2.557
 8416SOL    HW226148   5.474   4.018   2.635
 8417SOL     OW26149   2.227   6.221   5.665
 8417SOL    HW126150   2.314   6.208   5.712
 8417SOL    HW226151   2.153   6.184   5.721
 8418SOL     OW26152   5.346   5.587   1.820
 8418SOL    HW126153   5.290   5.647   1.877
 8418SOL    HW226154   5.293   5.559   1.740
 8419SOL     OW26155   4.718   0.870   2.336
 8419SOL    HW126156   4.730   0.829   2.427
 8419SOL    HW226157   4.686   0.964   2.346
 8420SOL     OW26158   4.114   6.904   0.676
 8420SOL    HW126159   4.017   6.883   0.679
 8420SOL    HW226160   4.139   6.961   0.755
 8421SOL     OW26161   2.648   6.728   1.010
 8421SOL    HW126162   2.638   6.798   0.939
 8421SOL    HW226163   2.576   6.660   1.000
 8422SOL     OW26164   5.754   6.227   0.958
 8422SOL    HW126165   5.708   6.148   0.999
 8422SOL    HW226166   5.809   6.197   0.880
 8423SOL     OW26167   3.743   4.854   6.860
 8423SOL    HW126168   3.840   4.831   6.855
 8423SOL    HW226169   3.688   4.773   6.841
 8424SOL     OW26170   3.256   1.918   2.524
 8424SOL    HW126171   3.217   1.884   2.610
 8424SOL    HW226172   3.334   1.976   2.544
 8425SOL     OW26173   6.724   5.405   0.909
 8425SOL    HW126174   6.783   5.377   0.985
 8425SOL    HW226175   6.781   5.427   0.830
 8426SOL     OW26176   3.818   3.255   3.585
 8426SOL    HW126177   3.856   3.314   3.656
 8426SOL    HW226178   3.757   3.187   3.627
 8427SOL     OW26179   1.573   4.099   5.821
 8427SOL    HW126180   1.668   4.093   5.793
 8427SOL    HW226181   1.553   4.192   5.851
 8428SOL     OW26182   6.793   4.610   1.933
 8428SOL    HW126183   6.752   4.667   2.003
 8428SOL    HW226184   6.725   4.545   1.898
 8429SOL     OW26185   2.448   4.863   4.455
 8429SOL    HW126186   2.425   4.859   4.358
 8429SOL    HW226187   2.530   4.809   4.472
 8430SOL     OW26188   4.498   5.341   2.969
 8430SOL    HW126189   4.449   5.259   2.998
 8430SOL    HW226190   4.563   5.367   3.040
 8431SOL     OW26191   2.382   5.335   1.380
 8431SOL    HW126192   2.397   5.434   1.377
 8431SOL    HW226193   2.435   5.291   1.307
 8432SOL     OW26194   4.079   5.109   5.879
 8432SOL    HW126195   4.084   5.075   5.974
 8432SOL    HW226196   3.983   5.127   5.856
 8433SOL     OW26197   0.702   2.968   6.794
 8433SOL    HW126198   0.696   2.939   6.698
 8433SOL    HW226199   0.649   2.907   6.851
 8434SOL     OW26200   3.245   0.104   5.102
 8434SOL    HW126201   3.186   0.167   5.152
 8434SOL    HW226202   3.337   0.106   5.141
 8435SOL     OW26203   5.019   1.648   1.600
 8435SOL    HW126204   4.935   1.595   1.615
 8435SOL    HW226205   5.003   1.743   1.629
 8436SOL     OW26206   3.945   6.206   3.455
 8436SOL    HW126207   3.971   6.300   3.435
 8436SOL    HW226208   3.876   6.205   3.528
 8437SOL     OW26209   0.820   0.347   1.886
 8437SOL    HW126210   0.791   0.266   1.835
 8437SOL    HW226211   0.866   0.319   1.970
 8438SOL     OW26212   2.773   4.762   2.655
 8438SOL    HW126213   2.871   4.775   2.642
 8438SOL    HW226214   2.727   4.851   2.656
 8439SOL     OW26215   6.524   5.755   1.733
 8439SOL    HW126216   6.446   5.724   1.788
 8439SOL    HW226217   6.566   5.676   1.688
 8440SOL     OW26218   6.703   1.053   2.714
 8440SOL    HW126219   6.691   1.146   2.749
 8440SOL    HW226220   6.800   1.033   2.706
 8441SOL     OW26221   5.864   6.119   0.723
 8441SOL    HW126222   5.784   6.095   0.667
 8441SOL    HW226223   5.947   6.090   0.676
 8442SOL     OW26224   3.995   3.294   6.671
 8442SOL    HW126225   3.962   3.294   6.577
 8442SOL    HW226226   3.998   3.201   6.706
 8443SOL     OW26227   1.149   0.172   2.628
 8443SOL    HW126228   1.050   0.173   2.646
 8443SOL    HW226229   1.190   0.092   2.671
 8444SOL     OW26230   3.033   6.309   3.386
 8444SOL    HW126231   3.064   6.375   3.317
 8444SOL    HW226232   2.978   6.355   3.455
 8445SOL     OW26233   2.830   5.002   2.446
 8445SOL    HW126234   2.927   5.015   2.467
 8445SOL    HW226235   2.815   5.020   2.348
 8446SOL     OW26236   5.010   5.916   2.109
 8446SOL    HW126237   4.947   5.859   2.161
 8446SOL    HW226238   4.998   6.011   2.134
 8447SOL     OW26239   5.639   2.419   2.642
 8447SOL    HW126240   5.721   2.429   2.585
 8447SOL    HW226241   5.614   2.508   2.680
 8448SOL     OW26242   0.306   4.211   5.610
 8448SOL    HW126243   0.344   4.225   5.518
 8448SOL    HW226244   0.380   4.213   5.677
 8449SOL     OW26245   0.078   3.465   4.375
 8449SOL    HW126246   0.064   3.388   4.313
 8449SOL    HW226247   7.013   3.499   4.407
 8450SOL     OW26248   2.103   5.716   2.422
 8450SOL    HW126249   2.099   5.783   2.496
 8450SOL    HW226250   2.010   5.686   2.399
 8451SOL     OW26251   3.524   2.688   1.148
 8451SOL    HW126252   3.554   2.757   1.082
 8451SOL    HW226253   3.433   2.655   1.122
 8452SOL     OW26254   6.992   0.027   1.244
 8452SOL    HW126255   0.034   0.060   1.312
 8452SOL    HW226256   0.010   6.977   1.191
 8453SOL     OW26257   6.764   4.937   5.955
 8453SOL    HW126258   6.745   4.869   5.884
 8453SOL    HW226259   6.736   4.900   6.044
 8454SOL     OW26260   1.476   5.887   2.224
 8454SOL    HW126261   1.399   5.826   2.202
 8454SOL    HW226262   1.483   5.896   2.323
 8455SOL     OW26263   5.015   1.591   1.308
 8455SOL    HW126264   4.934   1.557   1.259
 8455SOL    HW226265   5.002   1.576   1.406
 8456SOL     OW26266   5.849   5.522   3.485
 8456SOL    HW126267   5.778   5.575   3.531
 8456SOL    HW226268   5.846   5.538   3.387
 8457SOL     OW26269   6.812   6.710   5.612
 8457SOL    HW126270   6.754   6.704   5.531
 8457SOL    HW226271   6.818   6.621   5.656
 8458SOL     OW26272   1.887   0.938   6.744
 8458SOL    HW126273   1.789   0.919   6.758
 8458SOL    HW226274   1.918   0.891   6.661
 8459SOL     OW26275   3.695   6.714   1.852
 8459SOL    HW126276   3.655   6.664   1.928
 8459SOL    HW226277   3.691   6.812   1.871
 8460SOL     OW26278   3.896   2.915   6.528
 8460SOL    HW126279   3.943   2.960   6.452
 8460SOL    HW226280   3.801   2.898   6.503
 8461SOL     OW26281   0.581   3.282   1.328
 8461SOL    HW126282   0.508   3.213   1.334
 8461SOL    HW226283   0.563   3.355   1.394
 8462SOL     OW26284   3.915   3.054   6.809
 8462SOL    HW126285   3.848   3.026   6.740
 8462SOL    HW226286   3.878   3.039   6.900
 8463SOL     OW26287   0.142   2.289   0.181
 8463SOL    HW126288   0.128   2.237   0.266
 8463SOL    HW226289   0.205   2.239   0.122
 8464SOL     OW26290   0.142   4.104   5.213
 8464SOL    HW126291   0.178   4.197   5.218
 8464SOL    HW226292   0.198   4.043   5.270
 8465SOL     OW26293   2.557   2.322   1.127
 8465SOL    HW126294   2.523   2.411   1.155
 8465SOL    HW226295   2.526   2.302   1.034
 8466SOL     OW26296   6.699   0.097   5.371
 8466SOL    HW126297   6.780   0.072   5.425
 8466SOL    HW226298   6.718   0.181   5.320
 8467SOL     OW26299   4.302   1.066   0.877
 8467SOL    HW126300   4.316   1.035   0.971
 8467SOL    HW226301   4.298   1.166   0.875
 8468SOL     OW26302   6.206   3.461   6.189
 8468SOL    HW126303   6.199   3.362   6.200
 8468SOL    HW226304   6.278   3.482   6.123
 8469SOL     OW26305   2.890   2.703   5.666
 8469SOL    HW126306   2.919   2.729   5.574
 8469SOL    HW226307   2.949   2.630   5.700
 8470SOL     OW26308   1.191   4.748   0.652
 8470SOL    HW126309   1.201   4.845   0.629
 8470SOL    HW226310   1.124   4.737   0.725
 8471SOL     OW26311   3.430   0.579   5.512
 8471SOL    HW126312   3.414   0.499   5.570
 8471SOL    HW226313   3.492   0.642   5.560
 8472SOL     OW26314   5.664   1.555   5.483
 8472SOL    HW126315   5.608   1.479   5.515
 8472SOL    HW226316   5.608   1.618   5.429
 8473SOL     OW26317   4.578   4.938   0.598
 8473SOL    HW126318   4.489   4.983   0.612
 8473SOL    HW226319   4.592   4.921   0.501
 8474SOL     OW26320   3.014   3.653   2.784
 8474SOL    HW126321   3.111   3.656   2.809
 8474SOL    HW226322   2.995   3.728   2.721
 8475SOL     OW26323   6.785   3.020   1.941
 8475SOL    HW126324   6.808   2.950   2.008
 8475SOL    HW226325   6.761   2.976   1.854
 8476SOL     OW26326   0.259   1.093   1.623
 8476SOL    HW126327   0.258   1.070   1.526
 8476SOL    HW226328   0.167   1.118   1.652
 8477SOL     OW26329   5.219   6.279   1.952
 8477SOL    HW126330   5.136   6.230   1.924
 8477SOL    HW226331   5.252   6.335   1.876
 8478SOL     OW26332   1.110   1.631   5.844
 8478SOL    HW126333   1.025   1.662   5.888
 8478SOL    HW226334   1.176   1.604   5.914
 8479SOL     OW26335   1.175   2.748   1.738
 8479SOL    HW126336   1.126   2.667   1.707
 8479SOL    HW226337   1.222   2.790   1.659
 8480SOL     OW26338   4.816   2.772   6.789
 8480SOL    HW126339   4.822   2.706   6.715
 8480SOL    HW226340   4.734   2.828   6.777
 8481SOL     OW26341   4.210   2.071   5.150
 8481SOL    HW126342   4.262   1.996   5.192
 8481SOL    HW226343   4.195   2.051   5.053
 8482SOL     OW26344   4.341   0.072   1.290
 8482SOL    HW126345   4.402   0.150   1.276
 8482SOL    HW226346   4.390   7.012   1.266
 8483SOL     OW26347   2.412   5.472   3.038
 8483SOL    HW126348   2.368   5.544   2.985
 8483SOL    HW226349   2.346   5.398   3.056
 8484SOL     OW26350   0.157   5.935   4.771
 8484SOL    HW126351   0.067   5.942   4.815
 8484SOL    HW226352   0.147   5.889   4.683
 8485SOL     OW26353   3.873   2.477   0.653
 8485SOL    HW126354   3.862   2.561   0.600
 8485SOL    HW226355   3.802   2.471   0.722
 8486SOL     OW26356   1.630   1.064   2.845
 8486SOL    HW126357   1.575   1.124   2.903
 8486SOL    HW226358   1.593   1.064   2.752
 8487SOL     OW26359   5.279   1.957   6.080
 8487SOL    HW126360   5.247   2.037   6.131
 8487SOL    HW226361   5.325   1.894   6.143
 8488SOL     OW26362   5.625   5.454   3.188
 8488SOL    HW126363   5.577   5.468   3.101
 8488SOL    HW226364   5.568   5.487   3.263
 8489SOL     OW26365   0.062   0.361   1.500
 8489SOL    HW126366   0.115   0.381   1.418
 8489SOL    HW226367   0.010   0.441   1.527
 8490SOL     OW26368   3.360   6.654   5.651
 8490SOL    HW126369   3.380   6.560   5.624
 8490SOL    HW226370   3.436   6.713   5.625
 8491SOL     OW26371   2.093   6.142   2.697
 8491SOL    HW126372   2.188   6.113   2.696
 8491SOL    HW226373   2.037   6.074   2.650
 8492SOL     OW26374   6.061   4.871   3.889
 8492SOL    HW126375   6.033   4.841   3.980
 8492SOL    HW226376   6.002   4.830   3.820
 8493SOL     OW26377   2.353   1.275   0.152
 8493SOL    HW126378   2.271   1.234   0.192
 8493SOL    HW226379   2.385   1.219   0.076
 8494SOL     OW26380   4.693   5.248   2.171
 8494SOL    HW126381   4.780   5.297   2.173
 8494SOL    HW226382   4.703   5.165   2.116
 8495SOL     OW26383   0.096   5.568   0.681
 8495SOL    HW126384   0.035   5.499   0.642
 8495SOL    HW226385   0.045   5.626   0.744
 8496SOL     OW26386   5.281   1.298   2.272
 8496SOL    HW126387   5.227   1.329   2.194
 8496SOL    HW226388   5.372   1.270   2.241
 8497SOL     OW26389   0.727   7.018   3.621
 8497SOL    HW126390   0.740   6.991   3.526
 8497SOL    HW226391   0.813   0.028   3.659
 8498SOL     OW26392   5.772   6.572   3.338
 8498SOL    HW126393   5.705   6.497   3.342
 8498SOL    HW226394   5.859   6.540   3.375
 8499SOL     OW26395   0.872   4.596   6.984
 8499SOL    HW126396   0.873   4.583   6.885
 8499SOL    HW226397   0.796   4.656   7.008
 8500SOL     OW26398   1.734   6.513   6.162
 8500SOL    HW126399   1.819   6.467   6.187
 8500SOL    HW226400   1.682   6.456   6.099
 8501SOL     OW26401   0.901   2.720   6.943
 8501SOL    HW126402   0.819   2.767   6.974
 8501SOL    HW226403   0.876   2.635   6.897
 8502SOL     OW26404   0.832   2.856   0.899
 8502SOL    HW126405   0.749   2.862   0.843
 8502SOL    HW226406   0.807   2.856   0.996
 8503SOL     OW26407   6.176   5.907   5.226
 8503SOL    HW126408   6.263   5.892   5.272
 8503SOL    HW226409   6.103   5.864   5.279
 8504SOL     OW26410   1.625   5.152   2.208
 8504SOL    HW126411   1.578   5.143   2.121
 8504SOL    HW226412   1.723   5.164   2.192
 8505SOL     OW26413   5.425   3.441   2.741
 8505SOL    HW126414   5.518   3.421   2.772
 8505SOL    HW226415   5.421   3.534   2.705
 8506SOL     OW26416   0.890   0.925   0.063
 8506SOL    HW126417   0.850   0.938   0.154
 8506SOL    HW226418   0.845   0.986   7.022
 8507SOL     OW26419   3.923   0.085   4.522
 8507SOL    HW126420   3.928   7.011   4.500
 8507SOL    HW226421   4.012   0.116   4.554
 8508SOL     OW26422   4.057   1.648   5.766
 8508SOL    HW126423   4.029   1.557   5.735
 8508SOL    HW226424   4.026   1.717   5.700
 8509SOL     OW26425   5.760   6.425   3.912
 8509SOL    HW126426   5.690   6.480   3.868
 8509SOL    HW226427   5.722   6.378   3.992
 8510SOL     OW26428   5.619   3.421   3.375
 8510SOL    HW126429   5.521   3.441   3.389
 8510SOL    HW226430   5.644   3.443   3.281
 8511SOL     OW26431   0.010   2.926   2.336
 8511SOL    HW126432   6.990   2.990   2.400
 8511SOL    HW226433   0.084   2.879   2.382
 8512SOL     OW26434   2.818   0.186   2.628
 8512SOL    HW126435   2.724   0.191   2.663
 8512SOL    HW226436   2.823   0.117   2.555
 8513SOL     OW26437   6.766   5.850   0.887
 8513SOL    HW126438   6.775   5.833   0.985
 8513SOL    HW226439   6.678   5.813   0.855
 8514SOL     OW26440   3.542   0.090   2.939
 8514SOL    HW126441   3.461   0.075   2.883
 8514SOL    HW226442   3.603   0.155   2.894
 8515SOL     OW26443   4.543   2.151   0.696
 8515SOL    HW126444   4.553   2.249   0.718
 8515SOL    HW226445   4.583   2.097   0.771
 8516SOL     OW26446   6.620   1.596   2.299
 8516SOL    HW126447   6.529   1.559   2.315
 8516SOL    HW226448   6.687   1.542   2.351
 8517SOL     OW26449   0.909   2.818   6.159
 8517SOL    HW126450   0.997   2.831   6.115
 8517SOL    HW226451   0.854   2.754   6.105
 8518SOL     OW26452   4.168   4.627   0.356
 8518SOL    HW126453   4.077   4.647   0.319
 8518SOL    HW226454   4.160   4.615   0.455
 8519SOL     OW26455   2.016   5.826   2.132
 8519SOL    HW126456   2.098   5.790   2.177
 8519SOL    HW226457   1.945   5.842   2.201
 8520SOL     OW26458   4.029   1.281   0.524
 8520SOL    HW126459   4.100   1.228   0.479
 8520SOL    HW226460   3.940   1.240   0.506
 8521SOL     OW26461   1.337   6.265   5.787
 8521SOL    HW126462   1.363   6.320   5.707
 8521SOL    HW226463   1.367   6.171   5.773
 8522SOL     OW26464   1.860   5.586   2.317
 8522SOL    HW126465   1.860   5.556   2.221
 8522SOL    HW226466   1.766   5.606   2.345
 8523SOL     OW26467   2.237   0.471   5.600
 8523SOL    HW126468   2.313   0.422   5.642
 8523SOL    HW226469   2.222   0.436   5.507
 8524SOL     OW26470   1.153   3.113   4.488
 8524SOL    HW126471   1.093   3.194   4.495
 8524SOL    HW226472   1.101   3.031   4.512
 8525SOL     OW26473   6.066   3.765   2.830
 8525SOL    HW126474   6.120   3.714   2.762
 8525SOL    HW226475   6.126   3.799   2.902
 8526SOL     OW26476   2.885   3.648   1.834
 8526SOL    HW126477   2.820   3.572   1.829
 8526SOL    HW226478   2.961   3.622   1.894
 8527SOL     OW26479   4.216   0.729   4.360
 8527SOL    HW126480   4.272   0.775   4.430
 8527SOL    HW226481   4.134   0.692   4.403
 8528SOL     OW26482   4.762   4.071   6.272
 8528SOL    HW126483   4.683   4.010   6.283
 8528SOL    HW226484   4.846   4.016   6.272
 8529SOL     OW26485   1.047   6.041   0.233
 8529SOL    HW126486   1.058   5.967   0.299
 8529SOL    HW226487   1.067   6.008   0.141
 8530SOL     OW26488   1.424   5.105   5.168
 8530SOL    HW126489   1.332   5.067   5.167
 8530SOL    HW226490   1.431   5.176   5.238
 8531SOL     OW26491   5.656   4.305   3.117
 8531SOL    HW126492   5.720   4.234   3.086
 8531SOL    HW226493   5.585   4.318   3.048
 8532SOL     OW26494   4.344   4.690   4.749
 8532SOL    HW126495   4.358   4.785   4.775
 8532SOL    HW226496   4.346   4.632   4.830
 8533SOL     OW26497   2.153   1.316   5.481
 8533SOL    HW126498   2.205   1.387   5.530
 8533SOL    HW226499   2.191   1.304   5.390
 8534SOL     OW26500   0.725   4.691   2.570
 8534SOL    HW126501   0.778   4.757   2.623
 8534SOL    HW226502   0.768   4.679   2.480
 8535SOL     OW26503   0.866   2.222   4.763
 8535SOL    HW126504   0.923   2.156   4.714
 8535SOL    HW226505   0.889   2.222   4.860
 8536SOL     OW26506   6.644   2.702   5.058
 8536SOL    HW126507   6.579   2.648   5.112
 8536SOL    HW226508   6.649   2.664   4.965
 8537SOL     OW26509   6.085   1.581   0.756
 8537SOL    HW126510   6.049   1.603   0.665
 8537SOL    HW226511   6.101   1.483   0.762
 8538SOL     OW26512   0.302   0.939   5.067
 8538SOL    HW126513   0.377   0.944   5.132
 8538SOL    HW226514   0.240   1.016   5.081
 8539SOL     OW26515   6.493   2.306   2.857
 8539SOL    HW126516   6.457   2.294   2.765
 8539SOL    HW226517   6.563   2.237   2.876
 8540SOL     OW26518   3.331   1.114   0.985
 8540SOL    HW126519   3.254   1.136   0.924
 8540SOL    HW226520   3.322   1.019   1.016
 8541SOL     OW26521   2.936   1.585   5.387
 8541SOL    HW126522   2.994   1.505   5.372
 8541SOL    HW226523   2.906   1.622   5.299
 8542SOL     OW26524   3.238   4.361   6.439
 8542SOL    HW126525   3.226   4.381   6.342
 8542SOL    HW226526   3.335   4.346   6.458
 8543SOL     OW26527   2.254   2.179   5.759
 8543SOL    HW126528   2.201   2.109   5.806
 8543SOL    HW226529   2.212   2.268   5.773
 8544SOL     OW26530   5.133   3.676   5.312
 8544SOL    HW126531   5.207   3.612   5.289
 8544SOL    HW226532   5.048   3.625   5.323
 8545SOL     OW26533   3.455   6.772   4.708
 8545SOL    HW126534   3.525   6.773   4.780
 8545SOL    HW226535   3.468   6.691   4.651
 8546SOL     OW26536   5.484   0.611   0.886
 8546SOL    HW126537   5.403   0.602   0.944
 8546SOL    HW226538   5.484   0.702   0.844
 8547SOL     OW26539   7.023   0.094   5.212
 8547SOL    HW126540   7.007   0.054   5.302
 8547SOL    HW226541   0.038   0.186   5.222
 8548SOL     OW26542   0.097   3.202   5.522
 8548SOL    HW126543   0.150   3.269   5.574
 8548SOL    HW226544   0.076   3.239   5.432
 8549SOL     OW26545   1.316   2.069   3.804
 8549SOL    HW126546   1.313   2.104   3.711
 8549SOL    HW226547   1.412   2.055   3.831
 8550SOL     OW26548   0.702   4.413   6.473
 8550SOL    HW126549   0.784   4.451   6.430
 8550SOL    HW226550   0.727   4.331   6.525
 8551SOL     OW26551   2.052   2.364   6.250
 8551SOL    HW126552   2.006   2.407   6.172
 8551SOL    HW226553   2.135   2.414   6.272
 8552SOL     OW26554   3.334   0.542   1.916
 8552SOL    HW126555   3.269   0.617   1.923
 8552SOL    HW226556   3.421   0.577   1.879
 8553SOL     OW26557   3.934   3.616   0.982
 8553SOL    HW126558   3.839   3.586   0.973
 8553SOL    HW226559   3.995   3.540   0.960
 8554SOL     OW26560   0.928   6.846   1.131
 8554SOL    HW126561   0.979   6.844   1.044
 8554SOL    HW226562   0.901   6.940   1.151
 8555SOL     OW26563   4.072   1.232   3.774
 8555SOL    HW126564   4.103   1.311   3.722
 8555SOL    HW226565   3.978   1.211   3.750
 8556SOL     OW26566   1.657   6.245   6.049
 8556SOL    HW126567   1.686   6.284   5.962
 8556SOL    HW226568   1.727   6.184   6.084
 8557SOL     OW26569   6.760   0.859   0.786
 8557SOL    HW126570   6.801   0.822   0.702
 8557SOL    HW226571   6.685   0.921   0.762
 8558SOL     OW26572   2.393   4.333   3.351
 8558SOL    HW126573   2.389   4.286   3.264
 8558SOL    HW226574   2.301   4.358   3.380
 8559SOL     OW26575   0.239   6.326   2.696
 8559SOL    HW126576   0.191   6.300   2.612
 8559SOL    HW226577   0.304   6.254   2.721
 8560SOL     OW26578   1.792   5.360   1.206
 8560SOL    HW126579   1.754   5.421   1.276
 8560SOL    HW226580   1.787   5.405   1.117
 8561SOL     OW26581   3.993   0.366   2.938
 8561SOL    HW126582   3.956   0.436   2.997
 8561SOL    HW226583   3.998   0.401   2.844
 8562SOL     OW26584   3.978   1.367   0.245
 8562SOL    HW126585   4.013   1.387   0.336
 8562SOL    HW226586   3.879   1.381   0.243
 8563SOL     OW26587   1.497   5.912   2.498
 8563SOL    HW126588   1.402   5.943   2.500
 8563SOL    HW226589   1.550   5.961   2.568
 8564SOL     OW26590   3.929   6.165   6.311
 8564SOL    HW126591   3.870   6.239   6.344
 8564SOL    HW226592   3.894   6.077   6.344
 8565SOL     OW26593   3.421   5.326   1.702
 8565SOL    HW126594   3.516   5.357   1.704
 8565SOL    HW226595   3.417   5.233   1.666
 8566SOL     OW26596   2.846   0.705   2.532
 8566SOL    HW126597   2.936   0.672   2.560
 8566SOL    HW226598   2.812   0.650   2.455
 8567SOL     OW26599   1.576   1.675   1.646
 8567SOL    HW126600   1.512   1.598   1.640
 8567SOL    HW226601   1.604   1.702   1.554
 8568SOL     OW26602   6.928   1.474   0.637
 8568SOL    HW126603   6.875   1.389   0.640
 8568SOL    HW226604   6.876   1.544   0.589
 8569SOL     OW26605   5.212   2.133   5.880
 8569SOL    HW126606   5.259   2.071   5.942
 8569SOL    HW226607   5.161   2.079   5.812
 8570SOL     OW26608   1.721   1.753   4.641
 8570SOL    HW126609   1.774   1.837   4.647
 8570SOL    HW226610   1.625   1.772   4.659
 8571SOL     OW26611   1.632   1.494   4.706
 8571SOL    HW126612   1.683   1.577   4.682
 8571SOL    HW226613   1.612   1.442   4.623
 8572SOL     OW26614   2.749   4.188   5.541
 8572SOL    HW126615   2.772   4.272   5.492
 8572SOL    HW226616   2.832   4.139   5.565
 8573SOL     OW26617   2.867   5.866   0.036
 8573SOL    HW126618   2.843   5.834   0.127
 8573SOL    HW226619   2.850   5.794   6.993
 8574SOL     OW26620   6.702   6.719   6.188
 8574SOL    HW126621   6.692   6.813   6.157
 8574SOL    HW226622   6.799   6.694   6.190
 8575SOL     OW26623   3.580   0.885   2.460
 8575SOL    HW126624   3.518   0.953   2.421
 8575SOL    HW226625   3.550   0.793   2.435
 8576SOL     OW26626   1.012   4.287   4.201
 8576SOL    HW126627   1.031   4.374   4.247
 8576SOL    HW226628   0.919   4.290   4.163
 8577SOL     OW26629   1.743   1.144   6.180
 8577SOL    HW126630   1.748   1.188   6.270
 8577SOL    HW226631   1.656   1.095   6.172
 8578SOL     OW26632   6.371   6.350   5.696
 8578SOL    HW126633   6.298   6.281   5.692
 8578SOL    HW226634   6.332   6.441   5.681
 8579SOL     OW26635   2.300   6.377   2.787
 8579SOL    HW126636   2.390   6.354   2.749
 8579SOL    HW226637   2.254   6.293   2.816
 8580SOL     OW26638   0.838   6.433   1.080
 8580SOL    HW126639   0.876   6.479   1.161
 8580SOL    HW226640   0.867   6.338   1.079
 8581SOL     OW26641   3.812   5.226   1.512
 8581SOL    HW126642   3.877   5.152   1.525
 8581SOL    HW226643   3.719   5.188   1.507
 8582SOL     OW26644   4.098   4.857   5.722
 8582SOL    HW126645   4.018   4.903   5.684
 8582SOL    HW226646   4.120   4.896   5.811
 8583SOL     OW26647   4.434   0.155   3.008
 8583SOL    HW126648   4.507   0.116   3.066
 8583SOL    HW226649   4.402   0.241   3.048
 8584SOL     OW26650   7.009   0.984   4.561
 8584SOL    HW126651   7.003   0.885   4.554
 8584SOL    HW226652   6.925   1.019   4.603
 8585SOL     OW26653   5.794   2.046   1.080
 8585SOL    HW126654   5.786   1.950   1.053
 8585SOL    HW226655   5.802   2.052   1.180
 8586SOL     OW26656   5.620   6.611   1.331
 8586SOL    HW126657   5.585   6.564   1.412
 8586SOL    HW226658   5.666   6.544   1.272
 8587SOL     OW26659   1.050   2.041   4.657
 8587SOL    HW126660   1.006   1.951   4.661
 8587SOL    HW226661   1.122   2.046   4.725
 8588SOL     OW26662   4.156   1.223   0.065
 8588SOL    HW126663   4.119   1.263   0.149
 8588SOL    HW226664   4.236   1.168   0.088
 8589SOL     OW26665   6.854   2.976   4.992
 8589SOL    HW126666   6.781   2.909   5.002
 8589SOL    HW226667   6.918   2.946   4.921
 8590SOL     OW26668   6.904   6.973   3.117
 8590SOL    HW126669   6.934   6.879   3.101
 8590SOL    HW226670   6.916   6.995   3.214
 8591SOL     OW26671   6.371   4.568   0.276
 8591SOL    HW126672   6.416   4.555   0.365
 8591SOL    HW226673   6.276   4.539   0.283
 8592SOL     OW26674   0.567   2.336   0.449
 8592SOL    HW126675   0.561   2.244   0.488
 8592SOL    HW226676   0.526   2.401   0.512
 8593SOL     OW26677   2.880   0.917   6.732
 8593SOL    HW126678   2.957   0.980   6.731
 8593SOL    HW226679   2.794   0.968   6.725
 8594SOL     OW26680   6.100   2.607   5.749
 8594SOL    HW126681   6.113   2.704   5.769
 8594SOL    HW226682   6.045   2.564   5.820
 8595SOL     OW26683   5.377   0.280   3.713
 8595SOL    HW126684   5.338   0.357   3.664
 8595SOL    HW226685   5.457   0.246   3.663
 8596SOL     OW26686   1.249   3.743   3.046
 8596SOL    HW126687   1.336   3.715   3.004
 8596SOL    HW226688   1.192   3.662   3.058
 8597SOL     OW26689   6.276   2.783   0.530
 8597SOL    HW126690   6.334   2.713   0.489
 8597SOL    HW226691   6.319   2.873   0.517
 8598SOL     OW26692   5.604   0.579   5.131
 8598SOL    HW126693   5.700   0.573   5.161
 8598SOL    HW226694   5.545   0.580   5.212
 8599SOL     OW26695   1.447   2.885   3.766
 8599SOL    HW126696   1.486   2.945   3.836
 8599SOL    HW226697   1.520   2.844   3.712
 8600SOL     OW26698   4.957   3.819   1.041
 8600SOL    HW126699   4.893   3.783   1.110
 8600SOL    HW226700   5.049   3.787   1.062
 8601SOL     OW26701   0.238   1.035   3.633
 8601SOL    HW126702   0.210   1.128   3.612
 8601SOL    HW226703   0.231   1.019   3.731
 8602SOL     OW26704   2.448   6.774   3.230
 8602SOL    HW126705   2.514   6.845   3.255
 8602SOL    HW226706   2.471   6.737   3.140
 8603SOL     OW26707   5.997   1.117   6.363
 8603SOL    HW126708   5.993   1.210   6.327
 8603SOL    HW226709   5.910   1.071   6.345
 8604SOL     OW26710   0.919   2.900   6.432
 8604SOL    HW126711   0.927   2.877   6.335
 8604SOL    HW226712   1.005   2.881   6.478
 8605SOL     OW26713   1.131   4.530   4.304
 8605SOL    HW126714   1.066   4.603   4.325
 8605SOL    HW226715   1.199   4.523   4.377
 8606SOL     OW26716   3.094   2.238   6.842
 8606SOL    HW126717   3.092   2.150   6.795
 8606SOL    HW226718   3.111   2.223   6.939
 8607SOL     OW26719   2.055   4.933   7.003
 8607SOL    HW126720   2.154   4.922   6.993
 8607SOL    HW226721   2.009   4.855   6.961
 8608SOL     OW26722   2.011   4.542   2.790
 8608SOL    HW126723   2.029   4.635   2.758
 8608SOL    HW226724   1.925   4.541   2.842
 8609SOL     OW26725   4.911   0.809   3.721
 8609SOL    HW126726   4.893   0.768   3.632
 8609SOL    HW226727   4.829   0.803   3.778
 8610SOL     OW26728   6.986   6.733   3.120
 8610SOL    HW126729   0.030   6.735   3.193
 8610SOL    HW226730   6.953   6.640   3.106
 8611SOL     OW26731   2.944   0.946   4.120
 8611SOL    HW126732   2.992   0.872   4.166
 8611SOL    HW226733   2.991   1.033   4.137
 8612SOL     OW26734   2.936   3.304   2.500
 8612SOL    HW126735   2.979   3.215   2.517
 8612SOL    HW226736   2.885   3.300   2.414
 8613SOL     OW26737   2.245   2.601   1.899
 8613SOL    HW126738   2.313   2.565   1.964
 8613SOL    HW226739   2.236   2.699   1.913
 8614SOL     OW26740   0.900   2.500   2.784
 8614SOL    HW126741   0.981   2.478   2.731
 8614SOL    HW226742   0.848   2.572   2.737
 8615SOL     OW26743   4.769   1.838   5.002
 8615SOL    HW126744   4.805   1.834   4.910
 8615SOL    HW226745   4.719   1.924   5.014
 8616SOL     OW26746   2.675   4.618   2.461
 8616SOL    HW126747   2.711   4.674   2.535
 8616SOL    HW226748   2.723   4.640   2.376
 8617SOL     OW26749   5.557   0.319   3.923
 8617SOL    HW126750   5.482   0.316   3.857
 8617SOL    HW226751   5.629   0.255   3.894
 8618SOL     OW26752   6.559   3.953   0.605
 8618SOL    HW126753   6.577   3.952   0.506
 8618SOL    HW226754   6.639   3.990   0.653
 8619SOL     OW26755   4.411   5.063   3.030
 8619SOL    HW126756   4.387   5.049   3.126
 8619SOL    HW226757   4.445   4.977   2.992
 8620SOL     OW26758   1.661   0.362   4.263
 8620SOL    HW126759   1.628   0.366   4.169
 8620SOL    HW226760   1.587   0.384   4.326
 8621SOL     OW26761   4.848   2.854   2.192
 8621SOL    HW126762   4.837   2.884   2.286
 8621SOL    HW226763   4.814   2.925   2.130
 8622SOL     OW26764   6.190   5.050   2.042
 8622SOL    HW126765   6.211   4.965   1.994
 8622SOL    HW226766   6.275   5.101   2.060
 8623SOL     OW26767   0.165   3.250   4.895
 8623SOL    HW126768   0.074   3.274   4.860
 8623SOL    HW226769   0.178   3.151   4.888
 8624SOL     OW26770   3.608   3.952   6.326
 8624SOL    HW126771   3.577   4.002   6.245
 8624SOL    HW226772   3.706   3.967   6.339
 8625SOL     OW26773   4.548   1.227   6.057
 8625SOL    HW126774   4.491   1.174   6.120
 8625SOL    HW226775   4.616   1.279   6.109
 8626SOL     OW26776   3.839   3.168   0.604
 8626SOL    HW126777   3.927   3.184   0.650
 8626SOL    HW226778   3.770   3.229   0.642
 8627SOL     OW26779   2.234   1.673   2.189
 8627SOL    HW126780   2.271   1.765   2.200
 8627SOL    HW226781   2.308   1.606   2.196
 8628SOL     OW26782   6.710   6.794   0.330
 8628SOL    HW126783   6.665   6.775   0.242
 8628SOL    HW226784   6.663   6.869   0.376
 8629SOL     OW26785   0.770   6.722   4.604
 8629SOL    HW126786   0.742   6.679   4.518
 8629SOL    HW226787   0.708   6.798   4.624
 8630SOL     OW26788   4.987   3.511   3.567
 8630SOL    HW126789   5.003   3.433   3.626
 8630SOL    HW226790   5.014   3.595   3.614
 8631SOL     OW26791   1.959   6.323   6.138
 8631SOL    HW126792   2.041   6.347   6.087
 8631SOL    HW226793   1.984   6.300   6.232
 8632SOL     OW26794   4.109   4.502   5.430
 8632SOL    HW126795   4.087   4.600   5.434
 8632SOL    HW226796   4.169   4.485   5.352
 8633SOL     OW26797   5.839   3.645   5.744
 8633SOL    HW126798   5.759   3.673   5.690
 8633SOL    HW226799   5.917   3.701   5.719
 8634SOL     OW26800   5.350   4.677   6.902
 8634SOL    HW126801   5.310   4.742   6.967
 8634SOL    HW226802   5.292   4.670   6.821
 8635SOL     OW26803   6.202   2.463   6.790
 8635SOL    HW126804   6.152   2.442   6.874
 8635SOL    HW226805   6.141   2.451   6.711
 8636SOL     OW26806   4.024   5.693   0.577
 8636SOL    HW126807   4.021   5.593   0.578
 8636SOL    HW226808   4.035   5.727   0.670
 8637SOL     OW26809   2.326   1.435   6.165
 8637SOL    HW126810   2.409   1.429   6.219
 8637SOL    HW226811   2.254   1.381   6.208
 8638SOL     OW26812   3.869   2.608   5.339
 8638SOL    HW126813   3.939   2.556   5.289
 8638SOL    HW226814   3.786   2.613   5.283
 8639SOL     OW26815   4.783   3.519   6.887
 8639SOL    HW126816   4.745   3.585   6.951
 8639SOL    HW226817   4.872   3.487   6.920
 8640SOL     OW26818   3.920   3.461   1.415
 8640SOL    HW126819   3.844   3.446   1.351
 8640SOL    HW226820   3.893   3.530   1.482
 8641SOL     OW26821   4.443   5.004   3.621
 8641SOL    HW126822   4.406   5.097   3.622
 8641SOL    HW226823   4.511   4.995   3.693
 8642SOL     OW26824   6.961   6.851   3.638
 8642SOL    HW126825   6.868   6.815   3.647
 8642SOL    HW226826   0.003   6.777   3.651
 8643SOL     OW26827   1.722   7.018   0.504
 8643SOL    HW126828   1.752   7.016   0.599
 8643SOL    HW226829   1.795   0.031   0.446
 8644SOL     OW26830   6.584   2.162   6.768
 8644SOL    HW126831   6.539   2.085   6.814
 8644SOL    HW226832   6.630   2.219   6.837
 8645SOL     OW26833   4.959   4.939   1.659
 8645SOL    HW126834   5.014   4.924   1.578
 8645SOL    HW226835   4.867   4.902   1.645
 8646SOL     OW26836   0.602   1.773   6.725
 8646SOL    HW126837   0.691   1.809   6.698
 8646SOL    HW226838   0.613   1.705   6.796
 8647SOL     OW26839   2.888   5.541   1.235
 8647SOL    HW126840   2.801   5.498   1.210
 8647SOL    HW226841   2.891   5.634   1.198
 8648SOL     OW26842   5.810   6.860   0.958
 8648SOL    HW126843   5.862   6.783   0.995
 8648SOL    HW226844   5.826   6.941   1.015
 8649SOL     OW26845   4.648   6.301   6.836
 8649SOL    HW126846   4.710   6.329   6.762
 8649SOL    HW226847   4.579   6.372   6.850
 8650SOL     OW26848   1.611   6.743   4.114
 8650SOL    HW126849   1.685   6.676   4.124
 8650SOL    HW226850   1.570   6.761   4.204
 8651SOL     OW26851   2.984   1.712   0.762
 8651SOL    HW126852   3.080   1.684   0.768
 8651SOL    HW226853   2.959   1.764   0.843
 8652SOL     OW26854   0.934   4.838   4.011
 8652SOL    HW126855   0.973   4.852   4.101
 8652SOL    HW226856   0.898   4.924   3.975
 8653SOL     OW26857   6.358   1.575   5.500
 8653SOL    HW126858   6.315   1.583   5.590
 8653SOL    HW226859   6.447   1.530   5.510
 8654SOL     OW26860   0.826   4.845   1.349
 8654SOL    HW126861   0.889   4.840   1.427
 8654SOL    HW226862   0.736   4.811   1.377
 8655SOL     OW26863   6.435   1.243   5.146
 8655SOL    HW126864   6.508   1.304   5.115
 8655SOL    HW226865   6.445   1.227   5.244
 8656SOL     OW26866   5.327   0.209   2.081
 8656SOL    HW126867   5.390   0.229   2.006
 8656SOL    HW226868   5.369   0.234   2.168
 8657SOL     OW26869   5.968   6.326   0.377
 8657SOL    HW126870   5.920   6.359   0.458
 8657SOL    HW226871   6.041   6.263   0.405
 8658SOL     OW26872   5.476   5.643   0.500
 8658SOL    HW126873   5.394   5.596   0.467
 8658SOL    HW226874   5.466   5.741   0.485
 8659SOL     OW26875   4.398   2.433   3.065
 8659SOL    HW126876   4.462   2.507   3.087
 8659SOL    HW226877   4.338   2.417   3.144
 8660SOL     OW26878   0.577   2.423   2.055
 8660SOL    HW126879   0.660   2.448   2.006
 8660SOL    HW226880   0.593   2.427   2.154
 8661SOL     OW26881   6.051   3.573   2.430
 8661SOL    HW126882   6.104   3.581   2.514
 8661SOL    HW226883   5.954   3.586   2.449
 8662SOL     OW26884   3.314   6.085   2.143
 8662SOL    HW126885   3.411   6.096   2.163
 8662SOL    HW226886   3.292   6.132   2.057
 8663SOL     OW26887   2.621   5.144   2.907
 8663SOL    HW126888   2.577   5.075   2.965
 8663SOL    HW226889   2.560   5.166   2.830
 8664SOL     OW26890   2.656   5.696   3.018
 8664SOL    HW126891   2.616   5.606   3.036
 8664SOL    HW226892   2.751   5.697   3.049
 8665SOL     OW26893   6.630   5.502   5.435
 8665SOL    HW126894   6.615   5.466   5.343
 8665SOL    HW226895   6.635   5.427   5.500
 8666SOL     OW26896   5.560   6.913   4.499
 8666SOL    HW126897   5.655   6.880   4.501
 8666SOL    HW226898   5.501   6.844   4.541
 8667SOL     OW26899   5.358   1.229   4.651
 8667SOL    HW126900   5.281   1.185   4.604
 8667SOL    HW226901   5.408   1.287   4.585
 8668SOL     OW26902   5.130   2.922   4.636
 8668SOL    HW126903   5.126   2.937   4.537
 8668SOL    HW226904   5.144   3.009   4.682
 8669SOL     OW26905   6.734   6.761   6.767
 8669SOL    HW126906   6.640   6.795   6.778
 8669SOL    HW226907   6.748   6.733   6.672
 8670SOL     OW26908   5.525   5.303   5.866
 8670SOL    HW126909   5.464   5.293   5.945
 8670SOL    HW226910   5.490   5.374   5.805
 8671SOL     OW26911   0.739   1.583   2.208
 8671SOL    HW126912   0.708   1.507   2.265
 8671SOL    HW226913   0.673   1.657   2.212
 8672SOL     OW26914   0.470   6.986   3.616
 8672SOL    HW126915   0.417   0.044   3.596
 8672SOL    HW226916   0.566   7.010   3.632
 8673SOL     OW26917   0.062   1.656   0.407
 8673SOL    HW126918   0.019   1.719   0.471
 8673SOL    HW226919   7.023   1.581   0.387
 8674SOL     OW26920   6.840   4.232   2.985
 8674SOL    HW126921   6.775   4.173   3.034
 8674SOL    HW226922   6.853   4.317   3.037
 8675SOL     OW26923   4.340   0.914   5.976
 8675SOL    HW126924   4.388   0.949   6.057
 8675SOL    HW226925   4.268   0.978   5.950
 8676SOL     OW26926   5.619   1.083   1.366
 8676SOL    HW126927   5.597   1.176   1.397
 8676SOL    HW226928   5.543   1.022   1.390
 8677SOL     OW26929   1.582   6.065   5.774
 8677SOL    HW126930   1.617   5.995   5.711
 8677SOL    HW226931   1.619   6.049   5.865
 8678SOL     OW26932   0.729   6.828   0.507
 8678SOL    HW126933   0.748   6.741   0.462
 8678SOL    HW226934   0.708   6.898   0.439
 8679SOL     OW26935   1.860   1.480   4.347
 8679SOL    HW126936   1.804   1.416   4.398
 8679SOL    HW226937   1.824   1.573   4.358
 8680SOL     OW26938   6.494   2.524   6.337
 8680SOL    HW126939   6.537   2.460   6.401
 8680SOL    HW226940   6.405   2.553   6.373
 8681SOL     OW26941   4.564   5.274   1.404
 8681SOL    HW126942   4.515   5.338   1.346
 8681SOL    HW226943   4.653   5.252   1.364
 8682SOL     OW26944   0.022   0.210   0.991
 8682SOL    HW126945   6.993   0.289   1.021
 8682SOL    HW226946   7.011   0.127   1.035
 8683SOL     OW26947   1.453   3.329   4.528
 8683SOL    HW126948   1.496   3.343   4.617
 8683SOL    HW226949   1.522   3.299   4.462
 8684SOL     OW26950   0.107   3.876   4.495
 8684SOL    HW126951   0.075   3.811   4.564
 8684SOL    HW226952   0.157   3.950   4.540
 8685SOL     OW26953   5.401   2.677   6.350
 8685SOL    HW126954   5.478   2.726   6.309
 8685SOL    HW226955   5.338   2.742   6.391
 8686SOL     OW26956   5.971   6.659   2.888
 8686SOL    HW126957   5.917   6.575   2.891
 8686SOL    HW226958   5.963   6.701   2.798
 8687SOL     OW26959   6.230   4.303   2.673
 8687SOL    HW126960   6.164   4.297   2.748
 8687SOL    HW226961   6.206   4.380   2.614
 8688SOL     OW26962   2.017   4.430   6.550
 8688SOL    HW126963   2.107   4.396   6.576
 8688SOL    HW226964   1.993   4.395   6.460
 8689SOL     OW26965   4.540   3.089   0.719
 8689SOL    HW126966   4.585   3.038   0.792
 8689SOL    HW226967   4.459   3.135   0.756
 8690SOL     OW26968   0.644   2.443   2.751
 8690SOL    HW126969   0.580   2.490   2.811
 8690SOL    HW226970   0.737   2.457   2.783
 8691SOL     OW26971   3.658   1.466   5.294
 8691SOL    HW126972   3.633   1.554   5.335
 8691SOL    HW226973   3.710   1.481   5.211
 8692SOL     OW26974   3.746   1.587   5.735
 8692SOL    HW126975   3.814   1.515   5.752
 8692SOL    HW226976   3.792   1.669   5.702
 8693SOL     OW26977   6.825   1.220   6.605
 8693SOL    HW126978   6.870   1.132   6.586
 8693SOL    HW226979   6.834   1.279   6.525
 8694SOL     OW26980   5.748   2.004   5.078
 8694SOL    HW126981   5.722   2.015   4.982
 8694SOL    HW226982   5.815   2.074   5.103
 8695SOL     OW26983   4.618   3.235   6.325
 8695SOL    HW126984   4.695   3.274   6.376
 8695SOL    HW226985   4.569   3.169   6.383
 8696SOL     OW26986   2.608   6.280   4.889
 8696SOL    HW126987   2.632   6.206   4.825
 8696SOL    HW226988   2.690   6.307   4.941
 8697SOL     OW26989   1.176   4.528   5.950
 8697SOL    HW126990   1.090   4.521   6.000
 8697SOL    HW226991   1.252   4.535   6.015
 8698SOL     OW26992   5.035   5.893   6.205
 8698SOL    HW126993   5.021   5.959   6.279
 8698SOL    HW226994   5.066   5.806   6.244
 8699SOL     OW26995   2.170   3.369   6.217
 8699SOL    HW126996   2.256   3.358   6.167
 8699SOL    HW226997   2.103   3.302   6.185
 8700SOL     OW26998   1.301   1.127   5.375
 8700SOL    HW126999   1.299   1.034   5.411
 8700SOL    HW227000   1.324   1.191   5.448
 8701SOL     OW27001   1.866   1.412   6.774
 8701SOL    HW127002   1.915   1.499   6.765
 8701SOL    HW227003   1.778   1.429   6.818
 8702SOL     OW27004   4.849   5.487   2.110
 8702SOL    HW127005   4.850   5.585   2.128
 8702SOL    HW227006   4.933   5.461   2.063
 8703SOL     OW27007   3.402   4.571   6.705
 8703SOL    HW127008   3.374   4.606   6.616
 8703SOL    HW227009   3.437   4.477   6.694
 8704SOL     OW27010   6.990   3.007   3.592
 8704SOL    HW127011   6.936   3.081   3.552
 8704SOL    HW227012   0.053   3.044   3.625
 8705SOL     OW27013   4.457   2.207   6.589
 8705SOL    HW127014   4.545   2.210   6.542
 8705SOL    HW227015   4.409   2.294   6.577
 8706SOL     OW27016   5.893   2.887   0.246
 8706SOL    HW127017   5.937   2.798   0.232
 8706SOL    HW227018   5.862   2.893   0.341
 8707SOL     OW27019   0.755   2.142   3.708
 8707SOL    HW127020   0.849   2.172   3.722
 8707SOL    HW227021   0.694   2.221   3.708
 8708SOL     OW27022   4.445   1.732   4.407
 8708SOL    HW127023   4.541   1.743   4.432
 8708SOL    HW227024   4.419   1.636   4.418
 8709SOL     OW27025   6.961   0.276   6.649
 8709SOL    HW127026   0.022   0.304   6.695
 8709SOL    HW227027   6.954   0.177   6.649
 8710SOL     OW27028   1.990   2.013   3.519
 8710SOL    HW127029   2.007   1.962   3.435
 8710SOL    HW227030   1.914   1.972   3.568
 8711SOL     OW27031   1.245   0.668   1.477
 8711SOL    HW127032   1.336   0.627   1.477
 8711SOL    HW227033   1.217   0.687   1.383
 8712SOL     OW27034   2.872   1.693   4.901
 8712SOL    HW127035   2.792   1.693   4.960
 8712SOL    HW227036   2.904   1.787   4.887
 8713SOL     OW27037   0.298   4.032   1.409
 8713SOL    HW127038   0.263   4.115   1.365
 8713SOL    HW227039   0.223   3.988   1.459
 8714SOL     OW27040   0.447   6.642   0.298
 8714SOL    HW127041   0.387   6.563   0.311
 8714SOL    HW227042   0.542   6.610   0.293
 8715SOL     OW27043   3.303   1.809   0.065
 8715SOL    HW127044   3.336   1.733   0.009
 8715SOL    HW227045   3.351   1.893   0.040
 8716SOL     OW27046   0.070   6.594   0.916
 8716SOL    HW127047   0.019   6.630   0.837
 8716SOL    HW227048   0.018   6.520   0.959
 8717SOL     OW27049   2.395   3.248   6.088
 8717SOL    HW127050   2.339   3.172   6.121
 8717SOL    HW227051   2.489   3.236   6.121
 8718SOL     OW27052   1.418   2.930   6.427
 8718SOL    HW127053   1.379   2.851   6.380
 8718SOL    HW227054   1.377   3.013   6.391
 8719SOL     OW27055   4.376   1.416   6.979
 8719SOL    HW127056   4.278   1.413   6.957
 8719SOL    HW227057   4.405   1.327   7.013
 8720SOL     OW27058   6.977   5.258   5.583
 8720SOL    HW127059   7.012   5.165   5.579
 8720SOL    HW227060   6.999   5.299   5.671
 8721SOL     OW27061   6.456   6.790   6.780
 8721SOL    HW127062   6.411   6.875   6.755
 8721SOL    HW227063   6.391   6.732   6.830
 8722SOL     OW27064   3.128   0.908   0.558
 8722SOL    HW127065   3.222   0.883   0.535
 8722SOL    HW227066   3.080   0.937   0.475
 8723SOL     OW27067   5.564   6.429   2.269
 8723SOL    HW127068   5.583   6.526   2.285
 8723SOL    HW227069   5.626   6.373   2.323
 8724SOL     OW27070   5.162   6.891   4.247
 8724SOL    HW127071   5.213   6.920   4.328
 8724SOL    HW227072   5.082   6.950   4.235
 8725SOL     OW27073   0.071   6.234   4.729
 8725SOL    HW127074   0.111   6.298   4.663
 8725SOL    HW227075   0.144   6.190   4.781
 8726SOL     OW27076   6.702   1.324   0.609
 8726SOL    HW127077   6.674   1.349   0.516
 8726SOL    HW227078   6.660   1.387   0.674
 8727SOL     OW27079   5.846   0.049   6.908
 8727SOL    HW127080   5.818   6.980   6.880
 8727SOL    HW227081   5.790   0.116   6.859
 8728SOL     OW27082   5.266   1.072   2.596
 8728SOL    HW127083   5.199   1.018   2.544
 8728SOL    HW227084   5.339   1.103   2.535
 8729SOL     OW27085   3.147   5.524   5.459
 8729SOL    HW127086   3.158   5.470   5.375
 8729SOL    HW227087   3.161   5.621   5.438
 8730SOL     OW27088   5.385   4.248   3.396
 8730SOL    HW127089   5.318   4.240   3.322
 8730SOL    HW227090   5.399   4.345   3.417
 8731SOL     OW27091   0.395   3.001   2.742
 8731SOL    HW127092   0.480   3.053   2.754
 8731SOL    HW227093   0.317   3.058   2.770
 8732SOL     OW27094   5.036   4.715   1.105
 8732SOL    HW127095   5.103   4.784   1.133
 8732SOL    HW227096   5.027   4.646   1.177
 8733SOL     OW27097   0.620   5.361   1.441
 8733SOL    HW127098   0.650   5.272   1.407
 8733SOL    HW227099   0.694   5.428   1.427
 8734SOL     OW27100   6.839   3.242   2.396
 8734SOL    HW127101   6.775   3.216   2.324
 8734SOL    HW227102   6.789   3.289   2.469
 8735SOL     OW27103   1.252   3.646   4.922
 8735SOL    HW127104   1.164   3.694   4.931
 8735SOL    HW227105   1.262   3.612   4.829
 8736SOL     OW27106   0.768   5.532   1.953
 8736SOL    HW127107   0.675   5.497   1.945
 8736SOL    HW227108   0.821   5.506   1.873
 8737SOL     OW27109   2.685   5.898   6.327
 8737SOL    HW127110   2.663   5.994   6.344
 8737SOL    HW227111   2.779   5.890   6.295
 8738SOL     OW27112   1.641   4.133   3.609
 8738SOL    HW127113   1.613   4.139   3.705
 8738SOL    HW227114   1.613   4.215   3.560
 8739SOL     OW27115   5.163   4.495   4.850
 8739SOL    HW127116   5.258   4.465   4.858
 8739SOL    HW227117   5.103   4.426   4.889
 8740SOL     OW27118   3.827   2.149   2.971
 8740SOL    HW127119   3.919   2.116   2.952
 8740SOL    HW227120   3.764   2.113   2.902
 8741SOL     OW27121   2.567   0.025   2.466
 8741SOL    HW127122   2.644   6.990   2.491
 8741SOL    HW227123   2.484   7.014   2.509
 8742SOL     OW27124   4.056   0.929   2.629
 8742SOL    HW127125   4.065   0.901   2.725
 8742SOL    HW227126   3.992   1.006   2.624
 8743SOL     OW27127   2.200   1.184   1.727
 8743SOL    HW127128   2.143   1.114   1.685
 8743SOL    HW227129   2.160   1.213   1.813
 8744SOL     OW27130   4.749   2.740   0.082
 8744SOL    HW127131   4.844   2.739   0.053
 8744SOL    HW227132   4.738   2.679   0.161
 8745SOL     OW27133   6.836   2.117   6.657
 8745SOL    HW127134   6.757   2.133   6.716
 8745SOL    HW227135   6.822   2.034   6.603
 8746SOL     OW27136   4.964   5.362   4.073
 8746SOL    HW127137   4.995   5.364   4.168
 8746SOL    HW227138   4.931   5.452   4.046
 8747SOL     OW27139   6.666   1.176   2.132
 8747SOL    HW127140   6.735   1.215   2.193
 8747SOL    HW227141   6.582   1.231   2.139
 8748SOL     OW27142   1.091   1.408   3.966
 8748SOL    HW127143   1.099   1.450   3.876
 8748SOL    HW227144   1.044   1.320   3.957
 8749SOL     OW27145   2.530   1.284   5.690
 8749SOL    HW127146   2.437   1.290   5.727
 8749SOL    HW227147   2.578   1.207   5.732
 8750SOL     OW27148   4.024   2.718   5.630
 8750SOL    HW127149   4.018   2.629   5.586
 8750SOL    HW227150   4.034   2.705   5.729
 8751SOL     OW27151   6.543   0.233   0.359
 8751SOL    HW127152   6.619   0.254   0.420
 8751SOL    HW227153   6.470   0.301   0.373
 8752SOL     OW27154   5.432   3.017   6.822
 8752SOL    HW127155   5.443   2.997   6.919
 8752SOL    HW227156   5.501   2.967   6.769
 8753SOL     OW27157   2.321   3.419   0.057
 8753SOL    HW127158   2.407   3.384   0.020
 8753SOL    HW227159   2.257   3.344   0.069
 8754SOL     OW27160   2.736   4.961   6.547
 8754SOL    HW127161   2.705   4.982   6.455
 8754SOL    HW227162   2.717   4.865   6.569
 8755SOL     OW27163   1.024   0.812   0.890
 8755SOL    HW127164   1.084   0.887   0.916
 8755SOL    HW227165   0.956   0.844   0.824
 8756SOL     OW27166   2.116   3.083   3.696
 8756SOL    HW127167   2.067   3.032   3.767
 8756SOL    HW227168   2.078   3.175   3.688
 8757SOL     OW27169   4.859   6.254   6.012
 8757SOL    HW127170   4.916   6.187   5.964
 8757SOL    HW227171   4.844   6.333   5.952
 8758SOL     OW27172   4.428   6.971   3.457
 8758SOL    HW127173   4.335   7.006   3.465
 8758SOL    HW227174   4.477   7.022   3.386
 8759SOL     OW27175   6.410   1.893   6.827
 8759SOL    HW127176   6.336   1.843   6.872
 8759SOL    HW227177   6.479   1.828   6.793
 8760SOL     OW27178   2.382   2.141   4.088
 8760SOL    HW127179   2.303   2.102   4.135
 8760SOL    HW227180   2.375   2.122   3.990
 8761SOL     OW27181   5.293   1.738   2.111
 8761SOL    HW127182   5.380   1.754   2.158
 8761SOL    HW227183   5.219   1.736   2.178
 8762SOL     OW27184   1.775   6.143   3.804
 8762SOL    HW127185   1.696   6.152   3.864
 8762SOL    HW227186   1.801   6.046   3.798
 8763SOL     OW27187   6.733   0.755   4.818
 8763SOL    HW127188   6.670   0.813   4.766
 8763SOL    HW227189   6.824   0.758   4.775
 8764SOL     OW27190   4.252   6.107   6.147
 8764SOL    HW127191   4.198   6.158   6.214
 8764SOL    HW227192   4.315   6.169   6.100
 8765SOL     OW27193   5.936   0.813   5.426
 8765SOL    HW127194   5.842   0.839   5.448
 8765SOL    HW227195   5.982   0.889   5.381
 8766SOL     OW27196   4.276   4.325   5.573
 8766SOL    HW127197   4.214   4.252   5.604
 8766SOL    HW227198   4.227   4.385   5.510
 8767SOL     OW27199   3.379   0.213   3.867
 8767SOL    HW127200   3.408   0.236   3.775
 8767SOL    HW227201   3.457   0.180   3.920
 8768SOL     OW27202   0.857   2.200   0.036
 8768SOL    HW127203   0.872   2.149   6.975
 8768SOL    HW227204   0.943   2.203   0.088
 8769SOL     OW27205   6.658   1.396   1.655
 8769SOL    HW127206   6.741   1.368   1.703
 8769SOL    HW227207   6.645   1.338   1.575
 8770SOL     OW27208   5.355   4.064   2.194
 8770SOL    HW127209   5.410   4.144   2.169
 8770SOL    HW227210   5.275   4.092   2.246
 8771SOL     OW27211   0.491   3.536   6.274
 8771SOL    HW127212   0.495   3.436   6.266
 8771SOL    HW227213   0.572   3.569   6.323
 8772SOL     OW27214   5.334   0.632   4.712
 8772SOL    HW127215   5.281   0.714   4.734
 8772SOL    HW227216   5.364   0.588   4.797
 8773SOL     OW27217   6.192   2.290   3.573
 8773SOL    HW127218   6.178   2.354   3.498
 8773SOL    HW227219   6.118   2.223   3.575
 8774SOL     OW27220   0.758   6.942   6.653
 8774SOL    HW127221   0.733   6.956   6.558
 8774SOL    HW227222   0.675   6.925   6.707
 8775SOL     OW27223   5.634   1.652   5.193
 8775SOL    HW127224   5.666   1.734   5.238
 8775SOL    HW227225   5.610   1.673   5.098
 8776SOL     OW27226   5.046   3.115   1.083
 8776SOL    HW127227   5.136   3.072   1.074
 8776SOL    HW227228   5.001   3.081   1.166
 8777SOL     OW27229   0.835   3.438   2.733
 8777SOL    HW127230   0.928   3.411   2.707
 8777SOL    HW227231   0.829   3.448   2.832
 8778SOL     OW27232   4.362   4.124   5.877
 8778SOL    HW127233   4.297   4.180   5.928
 8778SOL    HW227234   4.452   4.169   5.877
 8779SOL     OW27235   2.604   5.455   2.505
 8779SOL    HW127236   2.611   5.377   2.444
 8779SOL    HW227237   2.679   5.452   2.571
 8780SOL     OW27238   0.218   5.863   2.451
 8780SOL    HW127239   0.186   5.833   2.541
 8780SOL    HW227240   0.316   5.883   2.455
 8781SOL     OW27241   4.771   0.089   2.955
 8781SOL    HW127242   4.695   0.029   2.980
 8781SOL    HW227243   4.760   0.177   3.000
 8782SOL     OW27244   5.799   1.330   2.131
 8782SOL    HW127245   5.844   1.418   2.145
 8782SOL    HW227246   5.866   1.257   2.133
 8783SOL     OW27247   5.625   2.874   4.030
 8783SOL    HW127248   5.690   2.922   4.089
 8783SOL    HW227249   5.665   2.861   3.940
 8784SOL     OW27250   6.242   5.965   0.727
 8784SOL    HW127251   6.314   5.928   0.668
 8784SOL    HW227252   6.277   6.046   0.775
 8785SOL     OW27253   0.539   5.329   5.891
 8785SOL    HW127254   0.577   5.305   5.980
 8785SOL    HW227255   0.603   5.388   5.842
 8786SOL     OW27256   4.087   1.931   2.629
 8786SOL    HW127257   4.065   1.907   2.534
 8786SOL    HW227258   4.002   1.943   2.681
 8787SOL     OW27259   3.682   0.586   1.389
 8787SOL    HW127260   3.590   0.582   1.428
 8787SOL    HW227261   3.693   0.514   1.321
 8788SOL     OW27262   6.968   0.916   5.111
 8788SOL    HW127263   6.870   0.897   5.115
 8788SOL    HW227264   6.987   0.979   5.035
 8789SOL     OW27265   0.017   3.829   5.239
 8789SOL    HW127266   7.001   3.848   5.329
 8789SOL    HW227267   0.060   3.911   5.203
 8790SOL     OW27268   6.364   2.174   0.341
 8790SOL    HW127269   6.449   2.179   0.289
 8790SOL    HW227270   6.334   2.078   0.346
 8791SOL     OW27271   4.508   5.934   5.123
 8791SOL    HW127272   4.563   5.893   5.050
 8791SOL    HW227273   4.417   5.957   5.087
 8792SOL     OW27274   3.702   5.607   2.306
 8792SOL    HW127275   3.624   5.671   2.301
 8792SOL    HW227276   3.670   5.514   2.289
 8793SOL     OW27277   0.926   4.890   4.658
 8793SOL    HW127278   0.875   4.839   4.588
 8793SOL    HW227279   0.865   4.912   4.734
 8794SOL     OW27280   5.937   1.269   3.517
 8794SOL    HW127281   5.963   1.201   3.585
 8794SOL    HW227282   5.848   1.245   3.478
 8795SOL     OW27283   1.177   4.949   5.235
 8795SOL    HW127284   1.190   4.881   5.307
 8795SOL    HW227285   1.087   4.991   5.243
 8796SOL     OW27286   6.210   3.821   3.075
 8796SOL    HW127287   6.270   3.742   3.086
 8796SOL    HW227288   6.199   3.867   3.163
 8797SOL     OW27289   0.290   0.412   4.190
 8797SOL    HW127290   0.225   0.434   4.263
 8797SOL    HW227291   0.375   0.378   4.229
 8798SOL     OW27292   4.542   6.617   5.561
 8798SOL    HW127293   4.639   6.630   5.582
 8798SOL    HW227294   4.507   6.538   5.611
 8799SOL     OW27295   1.814   4.874   2.347
 8799SOL    HW127296   1.867   4.900   2.267
 8799SOL    HW227297   1.759   4.793   2.326
 8800SOL     OW27298   6.121   6.255   5.475
 8800SOL    HW127299   6.063   6.183   5.512
 8800SOL    HW227300   6.217   6.227   5.482
 8801SOL     OW27301   6.035   1.906   5.392
 8801SOL    HW127302   6.107   1.899   5.323
 8801SOL    HW227303   5.946   1.892   5.349
 8802SOL     OW27304   1.339   6.007   5.374
 8802SOL    HW127305   1.246   6.043   5.362
 8802SOL    HW227306   1.404   6.083   5.370
 8803SOL     OW27307   6.798   0.966   0.337
 8803SOL    HW127308   6.826   1.053   0.296
 8803SOL    HW227309   6.714   0.979   0.391
 8804SOL     OW27310   1.979   6.027   1.316
 8804SOL    HW127311   1.933   5.941   1.292
 8804SOL    HW227312   2.046   6.010   1.389
 8805SOL     OW27313   4.127   5.524   3.492
 8805SOL    HW127314   4.171   5.447   3.540
 8805SOL    HW227315   4.180   5.607   3.508
 8806SOL     OW27316   2.351   6.015   0.521
 8806SOL    HW127317   2.263   6.025   0.474
 8806SOL    HW227318   2.346   6.057   0.611
 8807SOL     OW27319   4.764   2.012   0.043
 8807SOL    HW127320   4.728   2.089   7.014
 8807SOL    HW227321   4.849   2.040   0.089
 8808SOL     OW27322   1.362   2.552   0.551
 8808SOL    HW127323   1.430   2.584   0.616
 8808SOL    HW227324   1.373   2.600   0.464
 8809SOL     OW27325   2.149   4.046   3.232
 8809SOL    HW127326   2.056   4.082   3.226
 8809SOL    HW227327   2.168   4.016   3.325
 8810SOL     OW27328   5.917   1.235   5.161
 8810SOL    HW127329   5.971   1.319   5.150
 8810SOL    HW227330   5.825   1.250   5.126
 8811SOL     OW27331   4.999   0.207   2.494
 8811SOL    HW127332   4.959   0.195   2.585
 8811SOL    HW227333   4.966   0.292   2.454
 8812SOL     OW27334   3.285   0.322   6.767
 8812SOL    HW127335   3.257   0.300   6.674
 8812SOL    HW227336   3.287   0.239   6.823
 8813SOL     OW27337   2.065   4.289   2.473
 8813SOL    HW127338   2.005   4.358   2.433
 8813SOL    HW227339   2.098   4.321   2.562
 8814SOL     OW27340   5.724   7.011   0.629
 8814SOL    HW127341   5.699   0.013   0.536
 8814SOL    HW227342   5.670   6.932   0.658
 8815SOL     OW27343   5.771   0.997   0.665
 8815SOL    HW127344   5.860   0.952   0.664
 8815SOL    HW227345   5.767   1.067   0.594
 8816SOL     OW27346   0.105   6.492   6.537
 8816SOL    HW127347   0.143   6.413   6.584
 8816SOL    HW227348   0.150   6.576   6.567
 8817SOL     OW27349   0.870   3.433   4.320
 8817SOL    HW127350   0.919   3.461   4.237
 8817SOL    HW227351   0.780   3.477   4.322
 8818SOL     OW27352   1.654   6.769   3.262
 8818SOL    HW127353   1.713   6.781   3.341
 8818SOL    HW227354   1.601   6.853   3.247
 8819SOL     OW27355   5.601   4.240   5.290
 8819SOL    HW127356   5.626   4.314   5.352
 8819SOL    HW227357   5.613   4.152   5.337
 8820SOL     OW27358   3.250   0.917   4.376
 8820SOL    HW127359   3.225   1.010   4.401
 8820SOL    HW227360   3.289   0.917   4.283
 8821SOL     OW27361   0.940   5.000   0.192
 8821SOL    HW127362   0.921   5.079   0.134
 8821SOL    HW227363   0.870   4.930   0.177
 8822SOL     OW27364   6.927   7.000   3.391
 8822SOL    HW127365   6.901   6.951   3.474
 8822SOL    HW227366   6.978   0.059   3.414
 8823SOL     OW27367   2.763   0.474   2.884
 8823SOL    HW127368   2.713   0.484   2.798
 8823SOL    HW227369   2.850   0.524   2.879
 8824SOL     OW27370   1.506   0.182   1.882
 8824SOL    HW127371   1.605   0.196   1.888
 8824SOL    HW227372   1.481   0.169   1.786
 8825SOL     OW27373   0.531   0.867   1.609
 8825SOL    HW127374   0.455   0.880   1.546
 8825SOL    HW227375   0.517   0.782   1.661
 8826SOL     OW27376   1.059   3.317   0.679
 8826SOL    HW127377   1.093   3.223   0.676
 8826SOL    HW227378   0.978   3.325   0.620
 8827SOL     OW27379   3.977   0.765   2.411
 8827SOL    HW127380   3.989   0.839   2.476
 8827SOL    HW227381   4.057   0.705   2.413
 8828SOL     OW27382   3.924   4.476   6.432
 8828SOL    HW127383   3.849   4.518   6.383
 8828SOL    HW227384   3.938   4.383   6.398
 8829SOL     OW27385   6.130   1.833   2.055
 8829SOL    HW127386   6.167   1.867   2.141
 8829SOL    HW227387   6.078   1.906   2.010
 8830SOL     OW27388   2.159   1.573   1.788
 8830SOL    HW127389   2.089   1.626   1.837
 8830SOL    HW227390   2.181   1.619   1.702
 8831SOL     OW27391   6.851   2.861   2.136
 8831SOL    HW127392   6.926   2.908   2.183
 8831SOL    HW227393   6.778   2.841   2.202
 8832SOL     OW27394   6.981   6.295   4.279
 8832SOL    HW127395   0.036   6.327   4.227
 8832SOL    HW227396   7.011   6.247   4.361
 8833SOL     OW27397   3.720   3.431   1.234
 8833SOL    HW127398   3.651   3.374   1.280
 8833SOL    HW227399   3.775   3.374   1.174
 8834SOL     OW27400   5.910   3.478   4.951
 8834SOL    HW127401   5.996   3.484   4.901
 8834SOL    HW227402   5.835   3.510   4.894
 8835SOL     OW27403   5.927   1.003   5.931
 8835SOL    HW127404   5.958   1.092   5.963
 8835SOL    HW227405   5.926   0.938   6.007
 8836SOL     OW27406   6.296   2.579   0.344
 8836SOL    HW127407   6.247   2.492   0.352
 8836SOL    HW227408   6.263   2.628   0.263
 8837SOL     OW27409   0.349   6.865   1.856
 8837SOL    HW127410   0.284   6.937   1.833
 8837SOL    HW227411   0.330   6.783   1.802
 8838SOL     OW27412   0.950   4.124   2.481
 8838SOL    HW127413   0.942   4.039   2.534
 8838SOL    HW227414   0.966   4.201   2.543
 8839SOL     OW27415   4.826   5.452   2.500
 8839SOL    HW127416   4.810   5.426   2.596
 8839SOL    HW227417   4.918   5.489   2.491
 8840SOL     OW27418   6.231   0.592   2.081
 8840SOL    HW127419   6.133   0.611   2.093
 8840SOL    HW227420   6.280   0.613   2.165
 8841SOL     OW27421   4.186   1.082   2.255
 8841SOL    HW127422   4.095   1.045   2.235
 8841SOL    HW227423   4.212   1.057   2.348
 8842SOL     OW27424   3.043   3.939   4.188
 8842SOL    HW127425   3.053   3.867   4.255
 8842SOL    HW227426   3.009   3.901   4.102
 8843SOL     OW27427   1.940   3.249   4.999
 8843SOL    HW127428   2.022   3.297   5.029
 8843SOL    HW227429   1.966   3.161   4.958
 8844SOL     OW27430   6.732   2.153   5.709
 8844SOL    HW127431   6.723   2.054   5.721
 8844SOL    HW227432   6.698   2.179   5.618
 8845SOL     OW27433   2.234   5.196   1.031
 8845SOL    HW127434   2.321   5.170   0.989
 8845SOL    HW227435   2.233   5.294   1.048
 8846SOL     OW27436   5.629   4.771   4.339
 8846SOL    HW127437   5.608   4.861   4.376
 8846SOL    HW227438   5.673   4.715   4.410
 8847SOL     OW27439   1.635   1.269   2.203
 8847SOL    HW127440   1.634   1.369   2.210
 8847SOL    HW227441   1.726   1.239   2.176
 8848SOL     OW27442   3.161   1.821   1.982
 8848SOL    HW127443   3.202   1.910   1.961
 8848SOL    HW227444   3.101   1.830   2.061
 8849SOL     OW27445   2.438   5.328   3.890
 8849SOL    HW127446   2.367   5.301   3.955
 8849SOL    HW227447   2.422   5.283   3.802
 8850SOL     OW27448   2.656   1.413   0.702
 8850SOL    HW127449   2.643   1.442   0.607
 8850SOL    HW227450   2.752   1.427   0.727
 8851SOL     OW27451   0.910   4.504   2.679
 8851SOL    HW127452   0.842   4.494   2.752
 8851SOL    HW227453   0.868   4.551   2.601
 8852SOL     OW27454   5.160   3.189   6.408
 8852SOL    HW127455   5.184   3.186   6.505
 8852SOL    HW227456   5.070   3.232   6.398
 8853SOL     OW27457   3.372   0.900   4.950
 8853SOL    HW127458   3.357   0.925   5.045
 8853SOL    HW227459   3.466   0.922   4.923
 8854SOL     OW27460   2.265   0.358   5.888
 8854SOL    HW127461   2.353   0.364   5.935
 8854SOL    HW227462   2.192   0.390   5.949
 8855SOL     OW27463   6.164   5.768   6.975
 8855SOL    HW127464   6.180   5.725   6.886
 8855SOL    HW227465   6.236   5.836   6.992
 8856SOL     OW27466   6.890   0.262   4.643
 8856SOL    HW127467   6.892   0.360   4.662
 8856SOL    HW227468   6.844   0.214   4.718
 8857SOL     OW27469   5.991   1.966   3.199
 8857SOL    HW127470   6.011   1.929   3.290
 8857SOL    HW227471   5.981   2.066   3.206
 8858SOL     OW27472   1.594   3.524   5.916
 8858SOL    HW127473   1.501   3.558   5.903
 8858SOL    HW227474   1.647   3.591   5.969
 8859SOL     OW27475   0.990   6.925   5.270
 8859SOL    HW127476   0.919   6.973   5.218
 8859SOL    HW227477   0.983   6.951   5.367
 8860SOL     OW27478   1.534   3.925   2.293
 8860SOL    HW127479   1.479   3.893   2.370
 8860SOL    HW227480   1.595   3.851   2.263
 8861SOL     OW27481   3.320   3.062   6.140
 8861SOL    HW127482   3.323   3.127   6.216
 8861SOL    HW227483   3.304   3.112   6.055
 8862SOL     OW27484   6.007   1.549   4.252
 8862SOL    HW127485   5.916   1.569   4.214
 8862SOL    HW227486   6.051   1.478   4.197
 8863SOL     OW27487   2.330   5.896   4.634
 8863SOL    HW127488   2.368   5.989   4.635
 8863SOL    HW227489   2.231   5.901   4.634
 8864SOL     OW27490   2.559   3.336   6.323
 8864SOL    HW127491   2.630   3.270   6.345
 8864SOL    HW227492   2.479   3.320   6.381
 8865SOL     OW27493   2.910   1.026   4.502
 8865SOL    HW127494   2.875   0.972   4.579
 8865SOL    HW227495   2.933   0.965   4.427
 8866SOL     OW27496   4.485   6.640   3.143
 8866SOL    HW127497   4.543   6.592   3.209
 8866SOL    HW227498   4.534   6.647   3.055
 8867SOL     OW27499   5.667   2.603   2.996
 8867SOL    HW127500   5.717   2.519   2.975
 8867SOL    HW227501   5.569   2.588   2.982
 8868SOL     OW27502   5.181   3.570   0.607
 8868SOL    HW127503   5.227   3.649   0.646
 8868SOL    HW227504   5.225   3.486   0.639
 8869SOL     OW27505   4.279   4.665   3.374
 8869SOL    HW127506   4.310   4.734   3.309
 8869SOL    HW227507   4.353   4.599   3.390
 8870SOL     OW27508   3.198   0.425   0.917
 8870SOL    HW127509   3.218   0.337   0.875
 8870SOL    HW227510   3.099   0.439   0.919
 8871SOL     OW27511   3.043   1.648   3.658
 8871SOL    HW127512   3.011   1.633   3.752
 8871SOL    HW227513   3.054   1.559   3.613
 8872SOL     OW27514   1.622   3.990   4.216
 8872SOL    HW127515   1.651   3.962   4.308
 8872SOL    HW227516   1.561   3.920   4.178
 8873SOL     OW27517   6.554   5.886   2.274
 8873SOL    HW127518   6.611   5.922   2.200
 8873SOL    HW227519   6.508   5.961   2.321
 8874SOL     OW27520   2.132   0.055   1.401
 8874SOL    HW127521   2.069   7.005   1.425
 8874SOL    HW227522   2.123   0.129   1.468
 8875SOL     OW27523   1.336   2.769   4.426
 8875SOL    HW127524   1.310   2.673   4.437
 8875SOL    HW227525   1.303   2.822   4.504
 8876SOL     OW27526   0.136   0.120   4.792
 8876SOL    HW127527   0.061   0.064   4.828
 8876SOL    HW227528   0.105   0.214   4.781
 8877SOL     OW27529   2.571   0.639   4.280
 8877SOL    HW127530   2.645   0.642   4.213
 8877SOL    HW227531   2.607   0.664   4.370
 8878SOL     OW27532   0.426   4.803   1.082
 8878SOL    HW127533   0.343   4.859   1.081
 8878SOL    HW227534   0.503   4.856   1.048
 8879SOL     OW27535   5.502   5.025   0.971
 8879SOL    HW127536   5.515   5.102   1.034
 8879SOL    HW227537   5.427   4.968   1.003
 8880SOL     OW27538   0.543   5.652   4.862
 8880SOL    HW127539   0.506   5.560   4.849
 8880SOL    HW227540   0.634   5.646   4.901
 8881SOL     OW27541   5.885   0.444   3.317
 8881SOL    HW127542   5.866   0.467   3.222
 8881SOL    HW227543   5.914   0.349   3.323
 8882SOL     OW27544   5.070   0.755   0.133
 8882SOL    HW127545   4.995   0.815   0.160
 8882SOL    HW227546   5.149   0.772   0.192
 8883SOL     OW27547   0.541   1.171   6.251
 8883SOL    HW127548   0.593   1.087   6.230
 8883SOL    HW227549   0.466   1.180   6.185
 8884SOL     OW27550   5.575   6.407   6.348
 8884SOL    HW127551   5.531   6.343   6.411
 8884SOL    HW227552   5.670   6.378   6.333
 8885SOL     OW27553   6.315   3.560   1.264
 8885SOL    HW127554   6.321   3.631   1.335
 8885SOL    HW227555   6.219   3.534   1.252
 8886SOL     OW27556   3.096   5.810   5.354
 8886SOL    HW127557   3.129   5.884   5.413
 8886SOL    HW227558   3.003   5.785   5.380
 8887SOL     OW27559   3.105   1.086   0.802
 8887SOL    HW127560   3.056   1.158   0.753
 8887SOL    HW227561   3.152   1.027   0.736
 8888SOL     OW27562   1.416   1.998   1.008
 8888SOL    HW127563   1.411   1.930   1.081
 8888SOL    HW227564   1.401   1.953   0.920
 8889SOL     OW27565   5.009   6.292   5.589
 8889SOL    HW127566   5.074   6.249   5.652
 8889SOL    HW227567   5.037   6.386   5.571
 8890SOL     OW27568   6.459   6.165   5.165
 8890SOL    HW127569   6.454   6.079   5.113
 8890SOL    HW227570   6.553   6.196   5.169
 8891SOL     OW27571   5.989   2.962   5.870
 8891SOL    HW127572   5.915   2.923   5.926
 8891SOL    HW227573   5.999   3.059   5.890
 8892SOL     OW27574   2.825   6.383   3.535
 8892SOL    HW127575   2.854   6.401   3.630
 8892SOL    HW227576   2.770   6.300   3.532
 8893SOL     OW27577   0.585   0.752   2.040
 8893SOL    HW127578   0.673   0.796   2.059
 8893SOL    HW227579   0.591   0.654   2.059
 8894SOL     OW27580   4.272   3.115   6.172
 8894SOL    HW127581   4.234   3.059   6.246
 8894SOL    HW227582   4.321   3.192   6.212
 8895SOL     OW27583   0.503   0.612   1.713
 8895SOL    HW127584   0.599   0.616   1.739
 8895SOL    HW227585   0.456   0.544   1.768
 8896SOL     OW27586   0.929   3.324   4.843
 8896SOL    HW127587   0.934   3.224   4.843
 8896SOL    HW227588   1.007   3.362   4.893
 8897SOL     OW27589   1.782   1.631   2.049
 8897SOL    HW127590   1.741   1.607   2.137
 8897SOL    HW227591   1.775   1.729   2.034
 8898SOL     OW27592   6.394   3.350   4.638
 8898SOL    HW127593   6.394   3.410   4.558
 8898SOL    HW227594   6.478   3.364   4.690
 8899SOL     OW27595   1.900   4.182   6.720
 8899SOL    HW127596   1.890   4.280   6.735
 8899SOL    HW227597   1.817   4.134   6.750
 8900SOL     OW27598   5.589   3.350   2.982
 8900SOL    HW127599   5.662   3.418   2.991
 8900SOL    HW227600   5.612   3.269   3.034
 8901SOL     OW27601   2.230   0.615   3.796
 8901SOL    HW127602   2.289   0.658   3.865
 8901SOL    HW227603   2.185   0.686   3.742
 8902SOL     OW27604   2.930   5.961   6.183
 8902SOL    HW127605   2.995   6.015   6.129
 8902SOL    HW227606   2.979   5.907   6.251
 8903SOL     OW27607   2.329   1.401   4.091
 8903SOL    HW127608   2.298   1.490   4.124
 8903SOL    HW227609   2.409   1.372   4.143
 8904SOL     OW27610   6.678   5.096   3.680
 8904SOL    HW127611   6.736   5.165   3.638
 8904SOL    HW227612   6.583   5.126   3.677
 8905SOL     OW27613   1.755   4.289   4.513
 8905SOL    HW127614   1.671   4.256   4.471
 8905SOL    HW227615   1.757   4.389   4.511
 8906SOL     OW27616   6.871   0.008   6.655
 8906SOL    HW127617   6.910   6.970   6.587
 8906SOL    HW227618   6.774   7.010   6.668
 8907SOL     OW27619   3.432   2.157   5.284
 8907SOL    HW127620   3.359   2.098   5.320
 8907SOL    HW227621   3.395   2.249   5.267
 8908SOL     OW27622   1.478   2.824   0.269
 8908SOL    HW127623   1.488   2.923   0.271
 8908SOL    HW227624   1.387   2.798   0.301
 8909SOL     OW27625   2.006   0.689   5.364
 8909SOL    HW127626   2.067   0.729   5.432
 8909SOL    HW227627   1.940   0.629   5.410
 8910SOL     OW27628   2.012   3.033   5.924
 8910SOL    HW127629   2.043   2.986   6.006
 8910SOL    HW227630   2.050   3.126   5.922
 8911SOL     OW27631   3.457   2.144   4.682
 8911SOL    HW127632   3.377   2.149   4.741
 8911SOL    HW227633   3.539   2.164   4.735
 8912SOL     OW27634   4.113   1.227   6.833
 8912SOL    HW127635   4.195   1.195   6.785
 8912SOL    HW227636   4.128   1.222   6.932
 8913SOL     OW27637   4.918   4.623   1.345
 8913SOL    HW127638   4.963   4.550   1.396
 8913SOL    HW227639   4.820   4.601   1.336
 8914SOL     OW27640   4.754   1.025   5.632
 8914SOL    HW127641   4.743   1.098   5.699
 8914SOL    HW227642   4.820   1.054   5.562
 8915SOL     OW27643   1.415   2.294   4.013
 8915SOL    HW127644   1.322   2.262   3.993
 8915SOL    HW227645   1.430   2.382   3.967
 8916SOL     OW27646   0.364   3.405   1.710
 8916SOL    HW127647   0.311   3.439   1.788
 8916SOL    HW227648   0.452   3.371   1.742
 8917SOL     OW27649   5.807   4.964   5.991
 8917SOL    HW127650   5.863   4.898   5.941
 8917SOL    HW227651   5.849   4.983   6.080
 8918SOL     OW27652   6.589   6.139   0.165
 8918SOL    HW127653   6.538   6.067   0.212
 8918SOL    HW227654   6.684   6.109   0.153
 8919SOL     OW27655   4.295   3.665   0.327
 8919SOL    HW127656   4.200   3.636   0.334
 8919SOL    HW227657   4.307   3.754   0.370
 8920SOL     OW27658   6.792   6.431   6.649
 8920SOL    HW127659   6.812   6.352   6.591
 8920SOL    HW227660   6.869   6.495   6.645
 8921SOL     OW27661   1.744   1.729   3.017
 8921SOL    HW127662   1.843   1.712   3.018
 8921SOL    HW227663   1.697   1.647   2.986
 8922SOL     OW27664   2.415   5.316   0.809
 8922SOL    HW127665   2.428   5.221   0.838
 8922SOL    HW227666   2.491   5.344   0.750
 8923SOL     OW27667   2.252   3.650   6.380
 8923SOL    HW127668   2.249   3.750   6.369
 8923SOL    HW227669   2.274   3.608   6.292
 8924SOL     OW27670   3.215   5.640   5.798
 8924SOL    HW127671   3.185   5.564   5.740
 8924SOL    HW227672   3.140   5.669   5.858
 8925SOL     OW27673   0.983   0.923   2.274
 8925SOL    HW127674   0.948   0.870   2.196
 8925SOL    HW227675   1.029   1.005   2.240
 8926SOL     OW27676   5.488   2.697   0.768
 8926SOL    HW127677   5.484   2.728   0.672
 8926SOL    HW227678   5.551   2.620   0.775
 8927SOL     OW27679   2.545   2.061   4.847
 8927SOL    HW127680   2.589   2.150   4.857
 8927SOL    HW227681   2.464   2.070   4.790
 8928SOL     OW27682   6.958   1.096   4.912
 8928SOL    HW127683   7.006   1.179   4.884
 8928SOL    HW227684   6.881   1.079   4.851
 8929SOL     OW27685   0.374   3.671   3.929
 8929SOL    HW127686   0.394   3.632   4.019
 8929SOL    HW227687   0.285   3.717   3.932
 8930SOL     OW27688   1.817   4.912   4.970
 8930SOL    HW127689   1.836   4.882   5.064
 8930SOL    HW227690   1.886   4.979   4.942
 8931SOL     OW27691   3.981   2.709   0.925
 8931SOL    HW127692   3.891   2.679   0.892
 8931SOL    HW227693   4.037   2.630   0.948
 8932SOL     OW27694   5.372   0.010   6.389
 8932SOL    HW127695   5.447   6.969   6.378
 8932SOL    HW227696   5.303   7.019   6.318
 8933SOL     OW27697   0.865   2.018   5.532
 8933SOL    HW127698   0.933   1.947   5.551
 8933SOL    HW227699   0.880   2.054   5.440
 8934SOL     OW27700   2.697   5.247   3.394
 8934SOL    HW127701   2.600   5.268   3.406
 8934SOL    HW227702   2.718   5.242   3.297
 8935SOL     OW27703   4.854   3.576   2.030
 8935SOL    HW127704   4.758   3.601   2.016
 8935SOL    HW227705   4.883   3.513   1.958
 8936SOL     OW27706   0.441   3.735   0.785
 8936SOL    HW127707   0.436   3.639   0.758
 8936SOL    HW227708   0.518   3.747   0.849
 8937SOL     OW27709   0.529   0.902   4.121
 8937SOL    HW127710   0.558   0.856   4.038
 8937SOL    HW227711   0.590   0.978   4.141
 8938SOL     OW27712   6.313   1.347   0.699
 8938SOL    HW127713   6.249   1.295   0.756
 8938SOL    HW227714   6.384   1.285   0.664
 8939SOL     OW27715   6.605   2.953   4.792
 8939SOL    HW127716   6.600   3.030   4.728
 8939SOL    HW227717   6.536   2.964   4.864
 8940SOL     OW27718   6.242   2.725   0.129
 8940SOL    HW127719   6.276   2.683   0.045
 8940SOL    HW227720   6.159   2.777   0.109
 8941SOL     OW27721   4.978   2.129   1.820
 8941SOL    HW127722   4.921   2.203   1.856
 8941SOL    HW227723   5.063   2.167   1.783
 8942SOL     OW27724   0.364   4.941   4.014
 8942SOL    HW127725   0.320   4.875   3.953
 8942SOL    HW227726   0.331   5.033   3.992
 8943SOL     OW27727   4.349   4.461   0.152
 8943SOL    HW127728   4.323   4.557   0.162
 8943SOL    HW227729   4.336   4.414   0.239
 8944SOL     OW27730   4.796   4.707   4.085
 8944SOL    HW127731   4.876   4.758   4.053
 8944SOL    HW227732   4.734   4.769   4.133
 8945SOL     OW27733   6.819   3.242   5.046
 8945SOL    HW127734   6.833   3.145   5.024
 8945SOL    HW227735   6.829   3.297   4.963
 8946SOL     OW27736   3.998   0.483   4.766
 8946SOL    HW127737   3.973   0.511   4.859
 8946SOL    HW227738   4.025   0.563   4.713
 8947SOL     OW27739   1.431   4.406   6.626
 8947SOL    HW127740   1.354   4.456   6.587
 8947SOL    HW227741   1.408   4.309   6.633
 8948SOL     OW27742   6.717   6.170   3.908
 8948SOL    HW127743   6.756   6.262   3.914
 8948SOL    HW227744   6.787   6.102   3.929
 8949SOL     OW27745   3.735   6.062   0.137
 8949SOL    HW127746   3.762   6.148   0.092
 8949SOL    HW227747   3.736   6.075   0.236
 8950SOL     OW27748   4.691   3.820   0.937
 8950SOL    HW127749   4.784   3.855   0.951
 8950SOL    HW227750   4.696   3.722   0.917
 8951SOL     OW27751   2.340   1.148   3.977
 8951SOL    HW127752   2.310   1.233   4.020
 8951SOL    HW227753   2.341   1.075   4.046
 8952SOL     OW27754   1.984   4.512   3.910
 8952SOL    HW127755   2.020   4.481   3.822
 8952SOL    HW227756   1.888   4.537   3.900
 8953SOL     OW27757   2.378   5.323   1.647
 8953SOL    HW127758   2.428   5.242   1.679
 8953SOL    HW227759   2.373   5.322   1.548
 8954SOL     OW27760   0.830   5.757   4.083
 8954SOL    HW127761   0.923   5.722   4.070
 8954SOL    HW227762   0.771   5.682   4.113
 8955SOL     OW27763   6.815   2.923   2.642
 8955SOL    HW127764   6.858   2.849   2.591
 8955SOL    HW227765   6.885   2.982   2.681
 8956SOL     OW27766   0.931   6.973   6.851
 8956SOL    HW127767   1.001   6.903   6.863
 8956SOL    HW227768   0.867   6.945   6.780
 8957SOL     OW27769   1.763   5.377   1.767
 8957SOL    HW127770   1.718   5.466   1.754
 8957SOL    HW227771   1.835   5.366   1.698
 8958SOL     OW27772   1.455   3.054   4.798
 8958SOL    HW127773   1.474   3.034   4.702
 8958SOL    HW227774   1.482   2.975   4.853
 8959SOL     OW27775   0.781   3.402   1.995
 8959SOL    HW127776   0.750   3.493   2.021
 8959SOL    HW227777   0.805   3.350   2.076
 8960SOL     OW27778   6.540   4.495   4.019
 8960SOL    HW127779   6.479   4.417   4.034
 8960SOL    HW227780   6.549   4.512   3.921
 8961SOL     OW27781   2.917   0.310   4.046
 8961SOL    HW127782   2.983   0.303   4.120
 8961SOL    HW227783   2.911   0.223   3.997
 8962SOL     OW27784   0.921   5.974   1.530
 8962SOL    HW127785   0.842   5.914   1.519
 8962SOL    HW227786   0.988   5.931   1.591
 8963SOL     OW27787   3.585   5.819   4.404
 8963SOL    HW127788   3.602   5.742   4.467
 8963SOL    HW227789   3.624   5.796   4.315
 8964SOL     OW27790   5.708   3.944   2.877
 8964SOL    HW127791   5.751   3.869   2.828
 8964SOL    HW227792   5.636   3.984   2.820
 8965SOL     OW27793   3.155   4.563   0.216
 8965SOL    HW127794   3.189   4.628   0.147
 8965SOL    HW227795   3.223   4.491   0.229
 8966SOL     OW27796   6.444   5.521   6.088
 8966SOL    HW127797   6.430   5.423   6.099
 8966SOL    HW227798   6.439   5.545   5.991
 8967SOL     OW27799   3.905   0.529   3.761
 8967SOL    HW127800   3.857   0.581   3.832
 8967SOL    HW227801   3.936   0.442   3.799
 8968SOL     OW27802   2.446   4.700   1.720
 8968SOL    HW127803   2.491   4.786   1.696
 8968SOL    HW227804   2.469   4.675   1.814
 8969SOL     OW27805   0.404   6.761   3.432
 8969SOL    HW127806   0.420   6.848   3.478
 8969SOL    HW227807   0.425   6.685   3.494
 8970SOL     OW27808   1.616   2.560   6.090
 8970SOL    HW127809   1.562   2.613   6.025
 8970SOL    HW227810   1.678   2.621   6.139
 8971SOL     OW27811   4.806   6.607   1.360
 8971SOL    HW127812   4.775   6.642   1.448
 8971SOL    HW227813   4.826   6.683   1.299
 8972SOL     OW27814   5.481   4.728   0.267
 8972SOL    HW127815   5.565   4.777   0.288
 8972SOL    HW227816   5.418   4.789   0.219
 8973SOL     OW27817   0.432   2.734   2.197
 8973SOL    HW127818   0.394   2.655   2.245
 8973SOL    HW227819   0.403   2.731   2.101
 8974SOL     OW27820   2.132   3.734   4.185
 8974SOL    HW127821   2.183   3.790   4.250
 8974SOL    HW227822   2.139   3.774   4.094
 8975SOL     OW27823   0.484   6.732   6.558
 8975SOL    HW127824   0.473   6.743   6.656
 8975SOL    HW227825   0.402   6.763   6.511
 8976SOL     OW27826   6.292   6.417   1.301
 8976SOL    HW127827   6.259   6.465   1.382
 8976SOL    HW227828   6.355   6.477   1.251
 8977SOL     OW27829   0.053   5.292   6.096
 8977SOL    HW127830   0.098   5.380   6.089
 8977SOL    HW227831   6.978   5.305   6.100
 8978SOL     OW27832   5.226   6.390   4.957
 8978SOL    HW127833   5.230   6.399   5.056
 8978SOL    HW227834   5.140   6.346   4.931
 8979SOL     OW27835   1.046   5.549   5.968
 8979SOL    HW127836   1.129   5.585   6.012
 8979SOL    HW227837   1.013   5.615   5.901
 8980SOL     OW27838   4.380   1.987   5.727
 8980SOL    HW127839   4.350   2.009   5.820
 8980SOL    HW227840   4.361   1.891   5.708
 8981SOL     OW27841   4.641   2.052   5.686
 8981SOL    HW127842   4.656   2.105   5.602
 8981SOL    HW227843   4.545   2.026   5.693
 8982SOL     OW27844   6.284   1.688   1.642
 8982SOL    HW127845   6.273   1.779   1.682
 8982SOL    HW227846   6.356   1.639   1.691
 8983SOL     OW27847   1.254   5.145   2.158
 8983SOL    HW127848   1.174   5.109   2.111
 8983SOL    HW227849   1.314   5.070   2.185
 8984SOL     OW27850   5.811   0.245   4.376
 8984SOL    HW127851   5.721   0.244   4.333
 8984SOL    HW227852   5.848   0.339   4.373
 8985SOL     OW27853   4.946   1.729   0.854
 8985SOL    HW127854   4.875   1.702   0.918
 8985SOL    HW227855   5.022   1.771   0.904
 8986SOL     OW27856   5.369   4.439   1.972
 8986SOL    HW127857   5.292   4.396   1.925
 8986SOL    HW227858   5.412   4.373   2.033
 8987SOL     OW27859   2.962   0.421   1.042
 8987SOL    HW127860   2.883   0.476   1.070
 8987SOL    HW227861   3.014   0.394   1.123
 8988SOL     OW27862   1.830   5.478   0.968
 8988SOL    HW127863   1.899   5.548   0.949
 8988SOL    HW227864   1.740   5.521   0.973
 8989SOL     OW27865   5.095   3.087   3.082
 8989SOL    HW127866   5.186   3.073   3.042
 8989SOL    HW227867   5.031   3.021   3.042
 8990SOL     OW27868   2.625   6.022   0.647
 8990SOL    HW127869   2.574   6.023   0.561
 8990SOL    HW227870   2.660   6.114   0.667
 8991SOL     OW27871   1.991   2.827   0.887
 8991SOL    HW127872   2.016   2.850   0.793
 8991SOL    HW227873   1.957   2.909   0.934
 8992SOL     OW27874   0.440   3.157   0.293
 8992SOL    HW127875   0.504   3.161   0.216
 8992SOL    HW227876   0.410   3.249   0.316
 8993SOL     OW27877   4.759   1.755   3.961
 8993SOL    HW127878   4.839   1.733   3.904
 8993SOL    HW227879   4.790   1.787   4.050
 8994SOL     OW27880   1.619   5.064   4.535
 8994SOL    HW127881   1.610   5.137   4.604
 8994SOL    HW227882   1.534   5.012   4.531
 8995SOL     OW27883   0.971   2.800   5.131
 8995SOL    HW127884   0.948   2.839   5.221
 8995SOL    HW227885   0.893   2.809   5.070
 8996SOL     OW27886   0.515   3.941   0.987
 8996SOL    HW127887   0.484   3.847   1.005
 8996SOL    HW227888   0.467   4.004   1.047
 8997SOL     OW27889   5.107   1.070   5.850
 8997SOL    HW127890   5.097   1.006   5.774
 8997SOL    HW227891   5.018   1.084   5.893
 8998SOL     OW27892   0.097   2.286   4.864
 8998SOL    HW127893   0.073   2.309   4.958
 8998SOL    HW227894   0.024   2.317   4.803
 8999SOL     OW27895   5.042   1.239   6.321
 8999SOL    HW127896   4.950   1.273   6.301
 8999SOL    HW227897   5.099   1.248   6.239
 9000SOL     OW27898   3.246   3.882   6.965
 9000SOL    HW127899   3.196   3.920   0.020
 9000SOL    HW227900   3.344   3.885   6.984
 9001SOL     OW27901   1.396   4.795   3.440
 9001SOL    HW127902   1.401   4.878   3.495
 9001SOL    HW227903   1.453   4.724   3.482
 9002SOL     OW27904   6.501   5.241   5.629
 9002SOL    HW127905   6.563   5.284   5.695
 9002SOL    HW227906   6.553   5.180   5.569
 9003SOL     OW27907   6.627   2.479   0.196
 9003SOL    HW127908   6.624   2.379   0.196
 9003SOL    HW227909   6.717   2.509   0.162
 9004SOL     OW27910   5.172   6.805   1.484
 9004SOL    HW127911   5.244   6.756   1.533
 9004SOL    HW227912   5.092   6.814   1.543
 9005SOL     OW27913   5.087   1.967   4.048
 9005SOL    HW127914   5.119   2.019   3.969
 9005SOL    HW227915   5.044   1.882   4.018
 9006SOL     OW27916   1.377   5.381   1.153
 9006SOL    HW127917   1.395   5.300   1.210
 9006SOL    HW227918   1.407   5.362   1.059
 9007SOL     OW27919   2.872   5.263   3.602
 9007SOL    HW127920   2.821   5.195   3.654
 9007SOL    HW227921   2.830   5.275   3.512
 9008SOL     OW27922   6.809   4.576   2.642
 9008SOL    HW127923   6.753   4.615   2.569
 9008SOL    HW227924   6.760   4.582   2.729
 9009SOL     OW27925   2.700   0.005   0.950
 9009SOL    HW127926   2.635   0.040   1.019
 9009SOL    HW227927   2.787   7.008   0.994
 9010SOL     OW27928   1.084   6.554   4.645
 9010SOL    HW127929   1.138   6.495   4.705
 9010SOL    HW227930   0.993   6.514   4.634
 9011SOL     OW27931   4.128   2.253   1.275
 9011SOL    HW127932   4.223   2.223   1.279
 9011SOL    HW227933   4.110   2.319   1.348
 9012SOL     OW27934   1.439   5.025   0.846
 9012SOL    HW127935   1.488   4.980   0.921
 9012SOL    HW227936   1.471   4.988   0.759
 9013SOL     OW27937   6.325   5.967   4.281
 9013SOL    HW127938   6.347   5.908   4.358
 9013SOL    HW227939   6.232   5.948   4.249
 9014SOL     OW27940   1.682   1.309   0.086
 9014SOL    HW127941   1.631   1.234   0.044
 9014SOL    HW227942   1.654   1.395   0.044
 9015SOL     OW27943   0.234   1.104   6.657
 9015SOL    HW127944   0.209   1.170   6.728
 9015SOL    HW227945   0.328   1.121   6.628
 9016SOL     OW27946   6.606   6.270   5.834
 9016SOL    HW127947   6.508   6.260   5.815
 9016SOL    HW227948   6.631   6.367   5.830
 9017SOL     OW27949   6.158   1.967   4.290
 9017SOL    HW127950   6.172   2.008   4.381
 9017SOL    HW227951   6.077   2.007   4.247
 9018SOL     OW27952   3.899   1.257   5.004
 9018SOL    HW127953   3.867   1.343   5.041
 9018SOL    HW227954   3.826   1.189   5.007
 9019SOL     OW27955   2.451   6.419   6.844
 9019SOL    HW127956   2.405   6.465   6.768
 9019SOL    HW227957   2.441   6.320   6.834
 9020SOL     OW27958   1.567   4.409   2.258
 9020SOL    HW127959   1.552   4.371   2.167
 9020SOL    HW227960   1.495   4.474   2.280
 9021SOL     OW27961   6.817   6.661   3.975
 9021SOL    HW127962   6.725   6.688   3.946
 9021SOL    HW227963   6.840   6.572   3.934
 9022SOL     OW27964   2.365   7.002   0.416
 9022SOL    HW127965   2.440   0.035   0.380
 9022SOL    HW227966   2.401   6.911   0.438
 9023SOL     OW27967   3.298   3.545   3.822
 9023SOL    HW127968   3.371   3.477   3.836
 9023SOL    HW227969   3.307   3.618   3.890
 9024SOL     OW27970   1.624   5.884   6.030
 9024SOL    HW127971   1.618   5.795   6.076
 9024SOL    HW227972   1.715   5.923   6.043
 9025SOL     OW27973   6.440   5.285   1.266
 9025SOL    HW127974   6.507   5.258   1.335
 9025SOL    HW227975   6.353   5.307   1.311
 9026SOL     OW27976   3.888   3.150   4.265
 9026SOL    HW127977   3.814   3.083   4.273
 9026SOL    HW227978   3.915   3.159   4.169
 9027SOL     OW27979   2.941   2.047   3.182
 9027SOL    HW127980   2.903   2.139   3.176
 9027SOL    HW227981   3.028   2.043   3.134
 9028SOL     OW27982   1.959   4.656   6.288
 9028SOL    HW127983   1.989   4.668   6.383
 9028SOL    HW227984   2.002   4.725   6.230
 9029SOL     OW27985   3.826   4.913   4.881
 9029SOL    HW127986   3.784   4.826   4.855
 9029SOL    HW227987   3.781   4.949   4.963
 9030SOL     OW27988   1.904   0.973   2.326
 9030SOL    HW127989   1.909   1.064   2.285
 9030SOL    HW227990   1.979   0.917   2.290
 9031SOL     OW27991   2.821   5.756   5.429
 9031SOL    HW127992   2.821   5.664   5.389
 9031SOL    HW227993   2.788   5.751   5.523
 9032SOL     OW27994   3.021   2.487   1.250
 9032SOL    HW127995   3.025   2.396   1.291
 9032SOL    HW227996   2.959   2.544   1.303
 9033SOL     OW27997   1.960   3.050   4.657
 9033SOL    HW127998   2.059   3.063   4.654
 9033SOL    HW227999   1.939   2.968   4.710
 9034SOL     OW28000   2.844   6.731   5.296
 9034SOL    HW128001   2.756   6.686   5.313
 9034SOL    HW228002   2.846   6.765   5.202
 9035SOL     OW28003   0.396   6.681   5.108
 9035SOL    HW128004   0.401   6.598   5.053
 9035SOL    HW228005   0.397   6.657   5.205
 9036SOL     OW28006   2.009   2.460   5.194
 9036SOL    HW128007   2.036   2.421   5.282
 9036SOL    HW228008   2.061   2.544   5.178
 9037SOL     OW28009   2.291   3.955   6.388
 9037SOL    HW128010   2.209   3.986   6.437
 9037SOL    HW228011   2.372   3.974   6.443
 9038SOL     OW28012   5.333   1.076   6.344
 9038SOL    HW128013   5.338   1.036   6.435
 9038SOL    HW228014   5.362   1.009   6.276
 9039SOL     OW28015   1.574   4.347   5.439
 9039SOL    HW128016   1.573   4.261   5.388
 9039SOL    HW228017   1.605   4.331   5.532
 9040SOL     OW28018   3.093   0.814   3.107
 9040SOL    HW128019   3.137   0.725   3.101
 9040SOL    HW228020   3.019   0.820   3.040
 9041SOL     OW28021   0.730   1.976   1.772
 9041SOL    HW128022   0.672   2.050   1.738
 9041SOL    HW228023   0.727   1.975   1.872
 9042SOL     OW28024   2.790   6.689   3.290
 9042SOL    HW128025   2.741   6.771   3.260
 9042SOL    HW228026   2.730   6.635   3.349
 9043SOL     OW28027   1.870   2.229   5.843
 9043SOL    HW128028   1.833   2.157   5.785
 9043SOL    HW228029   1.801   2.258   5.909
 9044SOL     OW28030   6.011   0.865   0.583
 9044SOL    HW128031   6.032   0.831   0.492
 9044SOL    HW228032   6.004   0.787   0.646
 9045SOL     OW28033   4.072   0.479   3.221
 9045SOL    HW128034   4.067   0.461   3.319
 9045SOL    HW228035   3.980   0.484   3.182
 9046SOL     OW28036   3.487   3.961   5.515
 9046SOL    HW128037   3.391   3.965   5.488
 9046SOL    HW228038   3.518   4.053   5.541
 9047SOL     OW28039   1.858   4.058   5.028
 9047SOL    HW128040   1.948   4.032   5.063
 9047SOL    HW228041   1.869   4.110   4.943
 9048SOL     OW28042   1.807   3.621   6.043
 9048SOL    HW128043   1.848   3.695   5.990
 9048SOL    HW228044   1.848   3.534   6.015
 9049SOL     OW28045   5.289   6.239   6.214
 9049SOL    HW128046   5.363   6.197   6.267
 9049SOL    HW228047   5.243   6.169   6.160
 9050SOL     OW28048   0.855   5.203   0.012
 9050SOL    HW128049   0.932   5.245   6.989
 9050SOL    HW228050   0.814   5.269   0.075
 9051SOL     OW28051   4.187   6.166   0.849
 9051SOL    HW128052   4.273   6.217   0.842
 9051SOL    HW228053   4.158   6.138   0.757
 9052SOL     OW28054   2.681   4.710   4.605
 9052SOL    HW128055   2.770   4.753   4.594
 9052SOL    HW228056   2.654   4.711   4.702
 9053SOL     OW28057   2.370   2.615   4.041
 9053SOL    HW128058   2.440   2.544   4.033
 9053SOL    HW228059   2.368   2.670   3.958
 9054SOL     OW28060   2.053   0.299   1.896
 9054SOL    HW128061   2.138   0.255   1.922
 9054SOL    HW228062   2.072   0.388   1.855
 9055SOL     OW28063   0.660   3.433   3.682
 9055SOL    HW128064   0.712   3.348   3.682
 9055SOL    HW228065   0.722   3.510   3.700
 9056SOL     OW28066   5.327   0.691   1.609
 9056SOL    HW128067   5.401   0.700   1.675
 9056SOL    HW228068   5.336   0.603   1.561
 9057SOL     OW28069   6.022   4.772   6.553
 9057SOL    HW128070   5.927   4.802   6.543
 9057SOL    HW228071   6.036   4.731   6.643
 9058SOL     OW28072   1.838   2.008   4.692
 9058SOL    HW128073   1.770   2.036   4.760
 9058SOL    HW228074   1.849   2.080   4.624
 9059SOL     OW28075   6.014   0.869   3.378
 9059SOL    HW128076   6.056   0.856   3.289
 9059SOL    HW228077   6.064   0.938   3.429
 9060SOL     OW28078   6.686   3.424   2.108
 9060SOL    HW128079   6.785   3.417   2.097
 9060SOL    HW228080   6.648   3.334   2.128
 9061SOL     OW28081   4.650   5.442   3.177
 9061SOL    HW128082   4.650   5.539   3.201
 9061SOL    HW228083   4.661   5.386   3.259
 9062SOL     OW28084   1.393   4.708   2.106
 9062SOL    HW128085   1.399   4.779   2.176
 9062SOL    HW228086   1.338   4.741   2.030
 9063SOL     OW28087   2.916   1.478   2.668
 9063SOL    HW128088   2.818   1.464   2.651
 9063SOL    HW228089   2.940   1.438   2.757
 9064SOL     OW28090   6.665   4.159   4.359
 9064SOL    HW128091   6.755   4.197   4.338
 9064SOL    HW228092   6.601   4.185   4.286
 9065SOL     OW28093   2.682   5.998   5.463
 9065SOL    HW128094   2.616   5.927   5.489
 9065SOL    HW228095   2.750   5.959   5.401
 9066SOL     OW28096   6.476   0.028   5.981
 9066SOL    HW128097   6.385   7.010   5.977
 9066SOL    HW228098   6.492   0.082   5.899
 9067SOL     OW28099   6.725   6.110   4.557
 9067SOL    HW128100   6.821   6.081   4.563
 9067SOL    HW228101   6.710   6.188   4.618
 9068SOL     OW28102   4.050   0.052   4.981
 9068SOL    HW128103   3.989   0.107   4.924
 9068SOL    HW228104   4.145   0.078   4.963
 9069SOL     OW28105   5.084   2.459   2.807
 9069SOL    HW128106   5.056   2.435   2.900
 9069SOL    HW228107   5.036   2.542   2.779
 9070SOL     OW28108   1.608   2.409   6.402
 9070SOL    HW128109   1.621   2.483   6.337
 9070SOL    HW228110   1.696   2.365   6.420
 9071SOL     OW28111   5.135   0.661   6.245
 9071SOL    HW128112   5.114   0.743   6.192
 9071SOL    HW228113   5.101   0.672   6.338
 9072SOL     OW28114   5.051   6.879   1.796
 9072SOL    HW128115   5.086   6.937   1.869
 9072SOL    HW228116   5.039   6.933   1.713
 9073SOL     OW28117   4.315   6.711   0.627
 9073SOL    HW128118   4.271   6.800   0.623
 9073SOL    HW228119   4.353   6.697   0.719
 9074SOL     OW28120   1.740   0.838   1.249
 9074SOL    HW128121   1.711   0.752   1.209
 9074SOL    HW228122   1.666   0.905   1.242
 9075SOL     OW28123   6.868   0.819   2.199
 9075SOL    HW128124   6.909   0.866   2.122
 9075SOL    HW228125   6.803   0.751   2.166
 9076SOL     OW28126   4.729   1.420   3.836
 9076SOL    HW128127   4.733   1.476   3.919
 9076SOL    HW228128   4.634   1.408   3.808
 9077SOL     OW28129   4.740   1.362   6.229
 9077SOL    HW128130   4.760   1.460   6.228
 9077SOL    HW228131   4.704   1.337   6.319
 9078SOL     OW28132   5.578   5.127   6.193
 9078SOL    HW128133   5.669   5.141   6.154
 9078SOL    HW228134   5.522   5.208   6.179
 9079SOL     OW28135   1.484   0.301   5.183
 9079SOL    HW128136   1.506   0.238   5.109
 9079SOL    HW228137   1.538   0.279   5.263
 9080SOL     OW28138   6.284   2.922   6.786
 9080SOL    HW128139   6.351   2.920   6.711
 9080SOL    HW228140   6.289   3.011   6.831
 9081SOL     OW28141   3.431   1.676   1.301
 9081SOL    HW128142   3.492   1.732   1.357
 9081SOL    HW228143   3.341   1.719   1.295
 9082SOL     OW28144   2.786   6.674   4.792
 9082SOL    HW128145   2.732   6.655   4.710
 9082SOL    HW228146   2.739   6.637   4.872
 9083SOL     OW28147   4.518   4.631   6.071
 9083SOL    HW128148   4.567   4.567   6.130
 9083SOL    HW228149   4.539   4.611   5.975
 9084SOL     OW28150   0.803   2.077   6.285
 9084SOL    HW128151   0.775   2.097   6.379
 9084SOL    HW228152   0.884   2.131   6.263
 9085SOL     OW28153   2.598   5.805   1.308
 9085SOL    HW128154   2.613   5.857   1.393
 9085SOL    HW228155   2.503   5.776   1.303
 9086SOL     OW28156   6.139   4.171   0.959
 9086SOL    HW128157   6.198   4.094   0.937
 9086SOL    HW228158   6.094   4.156   1.047
 9087SOL     OW28159   5.610   3.121   2.760
 9087SOL    HW128160   5.676   3.099   2.831
 9087SOL    HW228161   5.552   3.197   2.790
 9088SOL     OW28162   5.713   6.962   1.838
 9088SOL    HW128163   5.739   0.007   1.906
 9088SOL    HW228164   5.617   6.937   1.852
 9089SOL     OW28165   3.996   5.599   4.711
 9089SOL    HW128166   3.961   5.599   4.805
 9089SOL    HW228167   4.038   5.511   4.691
 9090SOL     OW28168   4.970   6.516   4.701
 9090SOL    HW128169   4.994   6.466   4.619
 9090SOL    HW228170   4.898   6.466   4.751
 9091SOL     OW28171   2.988   2.716   0.948
 9091SOL    HW128172   3.053   2.648   0.981
 9091SOL    HW228173   2.956   2.772   1.025
 9092SOL     OW28174   1.520   0.948   6.100
 9092SOL    HW128175   1.587   0.918   6.168
 9092SOL    HW228176   1.488   0.869   6.048
 9093SOL     OW28177   1.698   6.430   0.034
 9093SOL    HW128178   1.689   6.478   6.970
 9093SOL    HW228179   1.644   6.346   0.032
 9094SOL     OW28180   0.823   5.390   2.870
 9094SOL    HW128181   0.726   5.403   2.886
 9094SOL    HW228182   0.875   5.464   2.913
 9095SOL     OW28183   5.394   3.970   6.277
 9095SOL    HW128184   5.397   4.041   6.207
 9095SOL    HW228185   5.356   4.008   6.362
 9096SOL     OW28186   4.945   3.281   2.836
 9096SOL    HW128187   4.943   3.372   2.878
 9096SOL    HW228188   4.900   3.284   2.747
 9097SOL     OW28189   0.160   3.126   0.088
 9097SOL    HW128190   0.163   3.180   0.172
 9097SOL    HW228191   0.089   3.056   0.096
 9098SOL     OW28192   3.519   3.193   0.940
 9098SOL    HW128193   3.588   3.128   0.908
 9098SOL    HW228194   3.454   3.211   0.866
 9099SOL     OW28195   3.273   3.524   0.811
 9099SOL    HW128196   3.264   3.433   0.769
 9099SOL    HW228197   3.285   3.514   0.909
 9100SOL     OW28198   0.771   2.719   2.695
 9100SOL    HW128199   0.743   2.777   2.771
 9100SOL    HW228200   0.720   2.744   2.612
 9101SOL     OW28201   2.283   2.901   2.590
 9101SOL    HW128202   2.307   2.927   2.683
 9101SOL    HW228203   2.233   2.976   2.546
 9102SOL     OW28204   3.691   6.353   1.670
 9102SOL    HW128205   3.727   6.261   1.688
 9102SOL    HW228206   3.694   6.371   1.571
 9103SOL     OW28207   6.740   3.882   0.080
 9103SOL    HW128208   6.825   3.834   0.059
 9103SOL    HW228209   6.745   3.976   0.045
 9104SOL     OW28210   4.025   6.081   2.165
 9104SOL    HW128211   3.972   6.012   2.116
 9104SOL    HW228212   3.980   6.170   2.159
 9105SOL     OW28213   1.449   0.759   0.503
 9105SOL    HW128214   1.432   0.753   0.405
 9105SOL    HW228215   1.364   0.777   0.551
 9106SOL     OW28216   5.528   3.913   6.774
 9106SOL    HW128217   5.441   3.893   6.820
 9106SOL    HW228218   5.584   3.971   6.833
 9107SOL     OW28219   4.207   0.244   6.613
 9107SOL    HW128220   4.275   0.244   6.541
 9107SOL    HW228221   4.242   0.294   6.692
 9108SOL     OW28222   4.673   4.683   5.499
 9108SOL    HW128223   4.640   4.717   5.411
 9108SOL    HW228224   4.700   4.587   5.490
 9109SOL     OW28225   1.348   2.518   2.772
 9109SOL    HW128226   1.303   2.550   2.855
 9109SOL    HW228227   1.290   2.451   2.726
 9110SOL     OW28228   2.001   4.283   4.156
 9110SOL    HW128229   2.096   4.298   4.130
 9110SOL    HW228230   1.986   4.314   4.250
 9111SOL     OW28231   4.553   3.552   0.347
 9111SOL    HW128232   4.595   3.465   0.320
 9111SOL    HW228233   4.467   3.564   0.298
 9112SOL     OW28234   0.411   4.855   4.594
 9112SOL    HW128235   0.417   4.952   4.573
 9112SOL    HW228236   0.445   4.802   4.516
 9113SOL     OW28237   4.396   6.336   0.874
 9113SOL    HW128238   4.381   6.431   0.848
 9113SOL    HW228239   4.490   6.324   0.905
 9114SOL     OW28240   1.914   4.777   1.698
 9114SOL    HW128241   2.000   4.829   1.706
 9114SOL    HW228242   1.864   4.784   1.784
 9115SOL     OW28243   1.151   5.940   5.702
 9115SOL    HW128244   1.070   5.929   5.645
 9115SOL    HW228245   1.149   6.031   5.745
 9116SOL     OW28246   6.494   2.470   0.812
 9116SOL    HW128247   6.412   2.524   0.795
 9116SOL    HW228248   6.469   2.373   0.819
 9117SOL     OW28249   5.822   2.769   6.789
 9117SOL    HW128250   5.814   2.684   6.840
 9117SOL    HW228251   5.902   2.820   6.820
 9118SOL     OW28252   6.543   5.753   0.763
 9118SOL    HW128253   6.492   5.706   0.835
 9118SOL    HW228254   6.482   5.775   0.687
 9119SOL     OW28255   5.234   1.536   2.455
 9119SOL    HW128256   5.276   1.460   2.405
 9119SOL    HW228257   5.189   1.597   2.391
 9120SOL     OW28258   5.857   3.358   5.745
 9120SOL    HW128259   5.863   3.347   5.845
 9120SOL    HW228260   5.834   3.453   5.724
 9121SOL     OW28261   1.889   2.720   6.648
 9121SOL    HW128262   1.858   2.815   6.657
 9121SOL    HW228263   1.814   2.658   6.672
 9122SOL     OW28264   1.540   3.009   2.037
 9122SOL    HW128265   1.542   3.106   2.014
 9122SOL    HW228266   1.448   2.973   2.023
 9123SOL     OW28267   3.594   0.290   4.737
 9123SOL    HW128268   3.513   0.245   4.773
 9123SOL    HW228269   3.594   0.386   4.767
 9124SOL     OW28270   5.546   6.866   5.697
 9124SOL    HW128271   5.563   6.917   5.612
 9124SOL    HW228272   5.455   6.825   5.694
 9125SOL     OW28273   5.085   3.733   2.099
 9125SOL    HW128274   5.010   3.667   2.097
 9125SOL    HW228275   5.150   3.712   2.025
 9126SOL     OW28276   5.637   2.355   2.323
 9126SOL    HW128277   5.681   2.424   2.265
 9126SOL    HW228278   5.561   2.396   2.372
 9127SOL     OW28279   6.611   1.442   6.007
 9127SOL    HW128280   6.528   1.407   5.963
 9127SOL    HW228281   6.589   1.525   6.059
 9128SOL     OW28282   4.367   1.221   5.019
 9128SOL    HW128283   4.300   1.154   4.989
 9128SOL    HW228284   4.321   1.306   5.044
 9129SOL     OW28285   0.383   3.112   1.298
 9129SOL    HW128286   0.289   3.145   1.300
 9129SOL    HW228287   0.405   3.078   1.207
 9130SOL     OW28288   6.806   3.400   0.853
 9130SOL    HW128289   6.807   3.324   0.787
 9130SOL    HW228290   6.830   3.485   0.806
 9131SOL     OW28291   6.933   2.987   6.080
 9131SOL    HW128292   6.914   2.924   6.156
 9131SOL    HW228293   6.996   3.058   6.109
 9132SOL     OW28294   0.169   4.952   4.430
 9132SOL    HW128295   0.157   4.908   4.519
 9132SOL    HW228296   0.255   5.003   4.430
 9133SOL     OW28297   3.720   6.307   1.387
 9133SOL    HW128298   3.751   6.387   1.337
 9133SOL    HW228299   3.777   6.228   1.364
 9134SOL     OW28300   4.222   5.715   0.360
 9134SOL    HW128301   4.129   5.705   0.396
 9134SOL    HW228302   4.258   5.805   0.387
 9135SOL     OW28303   6.365   6.004   2.033
 9135SOL    HW128304   6.459   6.033   2.014
 9135SOL    HW228305   6.366   5.914   2.077
 9136SOL     OW28306   5.425   5.448   5.645
 9136SOL    HW128307   5.326   5.448   5.660
 9136SOL    HW228308   5.450   5.528   5.590
 9137SOL     OW28309   4.992   2.410   1.275
 9137SOL    HW128310   5.082   2.433   1.239
 9137SOL    HW228311   4.996   2.321   1.321
 9138SOL     OW28312   6.286   5.728   5.674
 9138SOL    HW128313   6.324   5.660   5.737
 9138SOL    HW228314   6.271   5.686   5.585
 9139SOL     OW28315   2.343   1.845   4.557
 9139SOL    HW128316   2.399   1.771   4.593
 9139SOL    HW228317   2.255   1.847   4.605
 9140SOL     OW28318   6.142   2.941   2.847
 9140SOL    HW128319   6.185   3.019   2.800
 9140SOL    HW228320   6.049   2.928   2.812
 9141SOL     OW28321   5.896   0.499   6.618
 9141SOL    HW128322   5.841   0.581   6.600
 9141SOL    HW228323   5.846   0.418   6.587
 9142SOL     OW28324   0.959   2.339   1.037
 9142SOL    HW128325   0.962   2.438   1.026
 9142SOL    HW228326   0.910   2.298   0.960
 9143SOL     OW28327   5.350   2.981   1.070
 9143SOL    HW128328   5.409   2.967   0.990
 9143SOL    HW228329   5.281   2.908   1.073
 9144SOL     OW28330   2.470   5.309   5.831
 9144SOL    HW128331   2.538   5.280   5.897
 9144SOL    HW228332   2.480   5.255   5.747
 9145SOL     OW28333   6.684   5.498   0.035
 9145SOL    HW128334   6.657   5.571   0.099
 9145SOL    HW228335   6.714   5.419   0.087
 9146SOL     OW28336   5.067   2.827   3.160
 9146SOL    HW128337   5.125   2.781   3.228
 9146SOL    HW228338   5.092   2.796   3.069
 9147SOL     OW28339   5.934   0.183   3.993
 9147SOL    HW128340   5.901   0.276   4.010
 9147SOL    HW228341   5.974   0.147   4.077
 9148SOL     OW28342   5.186   6.312   0.625
 9148SOL    HW128343   5.122   6.242   0.655
 9148SOL    HW228344   5.140   6.373   0.560
 9149SOL     OW28345   5.302   3.211   3.496
 9149SOL    HW128346   5.393   3.174   3.515
 9149SOL    HW228347   5.251   3.145   3.441
 9150SOL     OW28348   2.978   5.286   2.637
 9150SOL    HW128349   2.949   5.205   2.688
 9150SOL    HW228350   2.978   5.266   2.539
 9151SOL     OW28351   1.708   4.613   3.885
 9151SOL    HW128352   1.631   4.551   3.899
 9151SOL    HW228353   1.684   4.705   3.916
 9152SOL     OW28354   2.420   4.803   4.996
 9152SOL    HW128355   2.349   4.736   5.018
 9152SOL    HW228356   2.441   4.857   5.077
 9153SOL     OW28357   0.771   3.168   0.960
 9153SOL    HW128358   0.815   3.086   0.924
 9153SOL    HW228359   0.839   3.240   0.973
 9154SOL     OW28360   4.379   5.023   6.330
 9154SOL    HW128361   4.417   5.058   6.416
 9154SOL    HW228362   4.352   4.927   6.342
 9155SOL     OW28363   1.349   3.357   1.742
 9155SOL    HW128364   1.266   3.400   1.778
 9155SOL    HW228365   1.384   3.411   1.665
 9156SOL     OW28366   1.333   2.683   0.940
 9156SOL    HW128367   1.256   2.742   0.918
 9156SOL    HW228368   1.406   2.697   0.873
 9157SOL     OW28369   6.792   4.588   6.060
 9157SOL    HW128370   6.759   4.590   6.155
 9157SOL    HW228371   6.800   4.494   6.029
 9158SOL     OW28372   5.653   3.386   4.557
 9158SOL    HW128373   5.723   3.421   4.496
 9158SOL    HW228374   5.563   3.404   4.518
 9159SOL     OW28375   1.861   0.046   2.127
 9159SOL    HW128376   1.884   6.981   2.087
 9159SOL    HW228377   1.932   0.071   2.194
 9160SOL     OW28378   6.553   0.558   5.133
 9160SOL    HW128379   6.624   0.489   5.120
 9160SOL    HW228380   6.516   0.552   5.225
 9161SOL     OW28381   4.601   4.500   4.974
 9161SOL    HW128382   4.511   4.524   4.938
 9161SOL    HW228383   4.592   4.473   5.070
 9162SOL     OW28384   4.747   0.885   4.680
 9162SOL    HW128385   4.811   0.824   4.634
 9162SOL    HW228386   4.796   0.959   4.724
 9163SOL     OW28387   1.694   3.029   4.243
 9163SOL    HW128388   1.652   2.938   4.241
 9163SOL    HW228389   1.792   3.020   4.264
 9164SOL     OW28390   2.776   1.268   6.449
 9164SOL    HW128391   2.847   1.245   6.382
 9164SOL    HW228392   2.809   1.342   6.508
 9165SOL     OW28393   5.960   2.058   5.599
 9165SOL    HW128394   5.973   1.990   5.527
 9165SOL    HW228395   5.867   2.094   5.595
 9166SOL     OW28396   4.162   5.912   0.982
 9166SOL    HW128397   4.163   6.008   0.954
 9166SOL    HW228398   4.072   5.873   0.963
 9167SOL     OW28399   2.314   2.391   6.746
 9167SOL    HW128400   2.395   2.443   6.772
 9167SOL    HW228401   2.232   2.444   6.767
 9168SOL     OW28402   6.952   0.286   6.381
 9168SOL    HW128403   7.010   0.328   6.311
 9168SOL    HW228404   6.977   0.322   6.471
 9169SOL     OW28405   6.025   1.149   4.424
 9169SOL    HW128406   6.053   1.079   4.490
 9169SOL    HW228407   5.939   1.123   4.381
 9170SOL     OW28408   1.392   5.621   6.864
 9170SOL    HW128409   1.425   5.616   6.770
 9170SOL    HW228410   1.456   5.573   6.924
 9171SOL     OW28411   3.963   5.109   0.978
 9171SOL    HW128412   3.888   5.175   0.980
 9171SOL    HW228413   4.037   5.144   0.921
 9172SOL     OW28414   3.691   0.975   3.854
 9172SOL    HW128415   3.600   0.985   3.814
 9172SOL    HW228416   3.683   0.954   3.952
 9173SOL     OW28417   6.295   3.615   5.076
 9173SOL    HW128418   6.258   3.707   5.059
 9173SOL    HW228419   6.374   3.599   5.017
 9174SOL     OW28420   5.413   3.766   1.747
 9174SOL    HW128421   5.368   3.779   1.658
 9174SOL    HW228422   5.386   3.840   1.809
 9175SOL     OW28423   0.864   0.491   5.010
 9175SOL    HW128424   0.909   0.454   4.929
 9175SOL    HW228425   0.851   0.590   4.999
 9176SOL     OW28426   3.008   1.155   5.281
 9176SOL    HW128427   3.066   1.236   5.293
 9176SOL    HW228428   2.992   1.113   5.371
 9177SOL     OW28429   0.844   5.005   5.080
 9177SOL    HW128430   0.763   5.052   5.114
 9177SOL    HW228431   0.823   4.961   4.993
 9178SOL     OW28432   1.484   5.560   0.394
 9178SOL    HW128433   1.392   5.531   0.367
 9178SOL    HW228434   1.552   5.518   0.333
 9179SOL     OW28435   2.654   5.015   4.572
 9179SOL    HW128436   2.685   5.030   4.665
 9179SOL    HW228437   2.557   4.991   4.573
 9180SOL     OW28438   6.389   2.754   3.267
 9180SOL    HW128439   6.483   2.780   3.290
 9180SOL    HW228440   6.384   2.727   3.171
 9181SOL     OW28441   4.318   1.835   5.257
 9181SOL    HW128442   4.391   1.837   5.189
 9181SOL    HW228443   4.345   1.890   5.336
 9182SOL     OW28444   2.749   6.742   2.107
 9182SOL    HW128445   2.691   6.823   2.105
 9182SOL    HW228446   2.845   6.769   2.113
 9183SOL     OW28447   4.888   5.758   0.711
 9183SOL    HW128448   4.799   5.725   0.680
 9183SOL    HW228449   4.960   5.702   0.670
 9184SOL     OW28450   5.122   1.284   0.756
 9184SOL    HW128451   5.079   1.195   0.738
 9184SOL    HW228452   5.059   1.357   0.732
 9185SOL     OW28453   4.179   6.810   4.289
 9185SOL    HW128454   4.128   6.750   4.351
 9185SOL    HW228455   4.191   6.765   4.201
 9186SOL     OW28456   5.776   5.827   4.443
 9186SOL    HW128457   5.803   5.869   4.357
 9186SOL    HW228458   5.816   5.878   4.519
 9187SOL     OW28459   2.502   1.832   0.868
 9187SOL    HW128460   2.584   1.885   0.846
 9187SOL    HW228461   2.495   1.821   0.967
 9188SOL     OW28462   1.334   6.424   1.191
 9188SOL    HW128463   1.273   6.502   1.178
 9188SOL    HW228464   1.281   6.347   1.229
 9189SOL     OW28465   4.384   5.786   1.545
 9189SOL    HW128466   4.356   5.732   1.466
 9189SOL    HW228467   4.351   5.742   1.629
 9190SOL     OW28468   3.142   4.381   6.173
 9190SOL    HW128469   3.217   4.402   6.111
 9190SOL    HW228470   3.060   4.431   6.144
 9191SOL     OW28471   6.534   2.511   6.041
 9191SOL    HW128472   6.553   2.608   6.025
 9191SOL    HW228473   6.530   2.494   6.139
 9192SOL     OW28474   0.687   3.208   6.153
 9192SOL    HW128475   0.610   3.244   6.100
 9192SOL    HW228476   0.772   3.231   6.106
 9193SOL     OW28477   4.858   4.578   6.774
 9193SOL    HW128478   4.843   4.493   6.825
 9193SOL    HW228479   4.862   4.655   6.838
 9194SOL     OW28480   3.180   0.595   3.471
 9194SOL    HW128481   3.263   0.646   3.447
 9194SOL    HW228482   3.147   0.545   3.391
 9195SOL     OW28483   1.795   1.756   3.672
 9195SOL    HW128484   1.767   1.852   3.670
 9195SOL    HW228485   1.725   1.700   3.627
 9196SOL     OW28486   5.257   0.134   2.475
 9196SOL    HW128487   5.163   0.156   2.450
 9196SOL    HW228488   5.271   0.035   2.470
 9197SOL     OW28489   1.960   5.159   1.325
 9197SOL    HW128490   1.912   5.218   1.261
 9197SOL    HW228491   1.986   5.073   1.279
 9198SOL     OW28492   6.329   5.243   6.858
 9198SOL    HW128493   6.384   5.326   6.862
 9198SOL    HW228494   6.289   5.234   6.767
 9199SOL     OW28495   1.013   3.964   6.113
 9199SOL    HW128496   1.008   3.938   6.210
 9199SOL    HW228497   1.006   4.063   6.104
 9200SOL     OW28498   2.647   6.512   7.005
 9200SOL    HW128499   2.573   6.490   6.942
 9200SOL    HW228500   2.646   6.610   0.001
 9201SOL     OW28501   6.999   2.743   0.292
 9201SOL    HW128502   6.983   2.710   0.199
 9201SOL    HW228503   6.959   2.679   0.358
 9202SOL     OW28504   1.360   6.274   2.291
 9202SOL    HW128505   1.351   6.341   2.217
 9202SOL    HW228506   1.358   6.181   2.253
 9203SOL     OW28507   0.523   4.008   6.418
 9203SOL    HW128508   0.549   4.071   6.491
 9203SOL    HW228509   0.577   4.028   6.336
 9204SOL     OW28510   4.875   2.864   6.062
 9204SOL    HW128511   4.868   2.830   5.968
 9204SOL    HW228512   4.841   2.958   6.066
 9205SOL     OW28513   5.941   4.661   3.726
 9205SOL    HW128514   5.849   4.655   3.686
 9205SOL    HW228515   5.947   4.596   3.802
 9206SOL     OW28516   3.940   5.878   2.726
 9206SOL    HW128517   4.020   5.874   2.666
 9206SOL    HW228518   3.857   5.871   2.671
 9207SOL     OW28519   5.236   3.768   6.153
 9207SOL    HW128520   5.248   3.776   6.054
 9207SOL    HW228521   5.288   3.841   6.198
 9208SOL     OW28522   5.849   4.276   3.581
 9208SOL    HW128523   5.821   4.323   3.498
 9208SOL    HW228524   5.786   4.299   3.655
 9209SOL     OW28525   4.136   0.571   7.013
 9209SOL    HW128526   4.077   0.635   6.965
 9209SOL    HW228527   4.089   0.538   0.072
 9210SOL     OW28528   7.017   0.695   2.386
 9210SOL    HW128529   6.970   0.757   2.323
 9210SOL    HW228530   6.962   0.613   2.400
 9211SOL     OW28531   0.853   2.358   6.056
 9211SOL    HW128532   0.846   2.434   5.991
 9211SOL    HW228533   0.945   2.320   6.053
 9212SOL     OW28534   5.057   5.823   4.177
 9212SOL    HW128535   5.119   5.765   4.124
 9212SOL    HW228536   5.106   5.903   4.210
 9213SOL     OW28537   5.686   3.473   5.204
 9213SOL    HW128538   5.633   3.397   5.169
 9213SOL    HW228539   5.653   3.559   5.164
 9214SOL     OW28540   6.658   3.541   6.668
 9214SOL    HW128541   6.570   3.579   6.695
 9214SOL    HW228542   6.655   3.512   6.572
 9215SOL     OW28543   0.948   2.520   1.306
 9215SOL    HW128544   0.925   2.481   1.217
 9215SOL    HW228545   0.864   2.545   1.354
 9216SOL     OW28546   3.270   0.371   2.109
 9216SOL    HW128547   3.293   0.422   2.026
 9216SOL    HW228548   3.345   0.308   2.130
 9217SOL     OW28549   0.291   2.501   0.216
 9217SOL    HW128550   0.230   2.541   0.285
 9217SOL    HW228551   0.250   2.417   0.180
 9218SOL     OW28552   1.707   6.990   0.153
 9218SOL    HW128553   1.734   6.895   0.174
 9218SOL    HW228554   1.759   0.029   0.211
 9219SOL     OW28555   6.366   3.173   0.993
 9219SOL    HW128556   6.459   3.211   0.989
 9219SOL    HW228557   6.371   3.075   1.014
 9220SOL     OW28558   1.529   6.523   1.404
 9220SOL    HW128559   1.488   6.469   1.330
 9220SOL    HW228560   1.518   6.473   1.491
 9221SOL     OW28561   3.512   0.665   3.031
 9221SOL    HW128562   3.533   0.618   3.117
 9221SOL    HW228563   3.426   0.629   2.994
 9222SOL     OW28564   2.675   6.818   6.195
 9222SOL    HW128565   2.705   6.744   6.136
 9222SOL    HW228566   2.585   6.850   6.167
 9223SOL     OW28567   0.979   1.177   4.046
 9223SOL    HW128568   0.972   1.081   4.017
 9223SOL    HW228569   1.005   1.181   4.142
 9224SOL     OW28570   1.310   4.949   4.780
 9224SOL    HW128571   1.390   4.952   4.840
 9224SOL    HW228572   1.227   4.955   4.835
 9225SOL     OW28573   2.976   6.751   6.235
 9225SOL    HW128574   2.943   6.831   6.285
 9225SOL    HW228575   3.065   6.724   6.271
 9226SOL     OW28576   6.129   6.550   0.753
 9226SOL    HW128577   6.191   6.535   0.830
 9226SOL    HW228578   6.125   6.647   0.731
 9227SOL     OW28579   1.172   5.527   0.434
 9227SOL    HW128580   1.177   5.586   0.354
 9227SOL    HW228581   1.183   5.581   0.517
 9228SOL     OW28582   1.025   2.214   5.326
 9228SOL    HW128583   1.113   2.239   5.366
 9228SOL    HW228584   1.033   2.123   5.284
 9229SOL     OW28585   0.812   5.867   5.026
 9229SOL    HW128586   0.875   5.933   5.068
 9229SOL    HW228587   0.861   5.782   5.008
 9230SOL     OW28588   4.367   1.339   3.251
 9230SOL    HW128589   4.414   1.267   3.200
 9230SOL    HW228590   4.402   1.428   3.224
 9231SOL     OW28591   0.349   4.461   4.565
 9231SOL    HW128592   0.382   4.548   4.527
 9231SOL    HW228593   0.424   4.415   4.613
 9232SOL     OW28594   3.729   5.404   0.505
 9232SOL    HW128595   3.827   5.385   0.514
 9232SOL    HW228596   3.677   5.320   0.520
 9233SOL     OW28597   5.555   5.442   1.854
 9233SOL    HW128598   5.568   5.387   1.771
 9233SOL    HW228599   5.476   5.502   1.843
 9234SOL     OW28600   3.475   5.876   5.833
 9234SOL    HW128601   3.417   5.856   5.912
 9234SOL    HW228602   3.424   5.855   5.749
 9235SOL     OW28603   1.414   2.965   3.462
 9235SOL    HW128604   1.479   2.912   3.516
 9235SOL    HW228605   1.328   2.975   3.513
 9236SOL     OW28606   2.605   4.528   5.724
 9236SOL    HW128607   2.559   4.458   5.670
 9236SOL    HW228608   2.572   4.619   5.697
 9237SOL     OW28609   1.904   5.459   4.650
 9237SOL    HW128610   1.913   5.490   4.555
 9237SOL    HW228611   1.955   5.374   4.662
 9238SOL     OW28612   3.556   1.512   6.983
 9238SOL    HW128613   3.584   1.550   6.895
 9238SOL    HW228614   3.458   1.488   6.979
 9239SOL     OW28615   0.083   4.389   0.483
 9239SOL    HW128616   0.080   4.461   0.552
 9239SOL    HW228617   0.163   4.403   0.423
 9240SOL     OW28618   5.297   1.517   1.412
 9240SOL    HW128619   5.306   1.588   1.482
 9240SOL    HW228620   5.280   1.560   1.324
 9241SOL     OW28621   0.621   5.429   5.466
 9241SOL    HW128622   0.689   5.366   5.504
 9241SOL    HW228623   0.537   5.379   5.445
 9242SOL     OW28624   0.470   5.456   0.514
 9242SOL    HW128625   0.554   5.406   0.495
 9242SOL    HW228626   0.485   5.554   0.500
 9243SOL     OW28627   5.662   6.873   1.310
 9243SOL    HW128628   5.646   6.778   1.285
 9243SOL    HW228629   5.687   6.879   1.406
 9244SOL     OW28630   4.033   5.716   6.411
 9244SOL    HW128631   4.059   5.676   6.323
 9244SOL    HW228632   3.934   5.724   6.417
 9245SOL     OW28633   1.212   4.723   3.266
 9245SOL    HW128634   1.142   4.670   3.313
 9245SOL    HW228635   1.281   4.754   3.331
 9246SOL     OW28636   0.311   5.226   2.604
 9246SOL    HW128637   0.215   5.223   2.576
 9246SOL    HW228638   0.369   5.209   2.524
 9247SOL     OW28639   1.466   6.520   2.925
 9247SOL    HW128640   1.430   6.454   2.991
 9247SOL    HW228641   1.401   6.529   2.849
 9248SOL     OW28642   1.670   2.371   4.963
 9248SOL    HW128643   1.694   2.460   4.924
 9248SOL    HW228644   1.618   2.384   5.047
 9249SOL     OW28645   4.712   3.989   0.258
 9249SOL    HW128646   4.783   3.959   0.194
 9249SOL    HW228647   4.700   3.921   0.330
 9250SOL     OW28648   5.627   2.983   4.414
 9250SOL    HW128649   5.719   2.996   4.378
 9250SOL    HW228650   5.614   3.043   4.494
 9251SOL     OW28651   4.061   2.040   2.966
 9251SOL    HW128652   4.095   2.006   3.053
 9251SOL    HW228653   4.133   2.035   2.897
 9252SOL     OW28654   5.855   0.587   4.603
 9252SOL    HW128655   5.763   0.549   4.599
 9252SOL    HW228656   5.907   0.558   4.523
 9253SOL     OW28657   5.652   6.392   5.432
 9253SOL    HW128658   5.561   6.406   5.394
 9253SOL    HW228659   5.679   6.472   5.485
 9254SOL     OW28660   6.407   4.310   3.105
 9254SOL    HW128661   6.427   4.287   3.010
 9254SOL    HW228662   6.312   4.288   3.125
 9255SOL     OW28663   4.961   3.703   0.265
 9255SOL    HW128664   4.957   3.727   0.362
 9255SOL    HW228665   4.907   3.620   0.249
 9256SOL     OW28666   4.344   6.973   2.578
 9256SOL    HW128667   4.343   0.048   2.588
 9256SOL    HW228668   4.413   6.934   2.639
 9257SOL     OW28669   0.997   3.845   2.805
 9257SOL    HW128670   1.062   3.918   2.829
 9257SOL    HW228671   0.956   3.865   2.716
 9258SOL     OW28672   3.502   3.406   3.978
 9258SOL    HW128673   3.532   3.332   4.038
 9258SOL    HW228674   3.501   3.492   4.028
 9259SOL     OW28675   1.373   2.698   6.779
 9259SOL    HW128676   1.289   2.748   6.758
 9259SOL    HW228677   1.410   2.731   6.866
 9260SOL     OW28678   5.171   1.781   4.703
 9260SOL    HW128679   5.189   1.688   4.733
 9260SOL    HW228680   5.251   1.838   4.724
 9261SOL     OW28681   4.721   0.638   6.640
 9261SOL    HW128682   4.735   0.607   6.734
 9261SOL    HW228683   4.712   0.738   6.639
 9262SOL     OW28684   0.173   3.644   5.715
 9262SOL    HW128685   0.183   3.720   5.651
 9262SOL    HW228686   0.223   3.564   5.681
 9263SOL     OW28687   5.680   5.459   1.597
 9263SOL    HW128688   5.601   5.420   1.550
 9263SOL    HW228689   5.764   5.420   1.558
 9264SOL     OW28690   5.703   4.100   0.337
 9264SOL    HW128691   5.690   4.078   0.433
 9264SOL    HW228692   5.624   4.070   0.284
 9265SOL     OW28693   3.960   1.828   7.003
 9265SOL    HW128694   3.908   1.750   0.014
 9265SOL    HW228695   4.037   1.794   6.948
 9266SOL     OW28696   2.662   6.633   1.875
 9266SOL    HW128697   2.690   6.671   1.963
 9266SOL    HW228698   2.585   6.571   1.888
 9267SOL     OW28699   0.694   3.929   5.691
 9267SOL    HW128700   0.760   3.859   5.663
 9267SOL    HW228701   0.657   3.906   5.780
 9268SOL     OW28702   1.587   5.263   1.554
 9268SOL    HW128703   1.650   5.186   1.562
 9268SOL    HW228704   1.636   5.348   1.574
 9269SOL     OW28705   2.999   1.689   5.912
 9269SOL    HW128706   2.970   1.694   5.816
 9269SOL    HW228707   3.090   1.729   5.921
 9270SOL     OW28708   4.395   6.589   5.928
 9270SOL    HW128709   4.476   6.648   5.923
 9270SOL    HW228710   4.350   6.586   5.838
 9271SOL     OW28711   1.274   6.965   0.161
 9271SOL    HW128712   1.331   6.949   0.242
 9271SOL    HW228713   1.321   0.004   0.099
 9272SOL     OW28714   1.786   5.307   5.022
 9272SOL    HW128715   1.854   5.289   4.950
 9272SOL    HW228716   1.831   5.351   5.099
 9273SOL     OW28717   5.520   6.151   3.494
 9273SOL    HW128718   5.431   6.146   3.541
 9273SOL    HW228719   5.578   6.218   3.540
 9274SOL     OW28720   6.514   2.721   0.204
 9274SOL    HW128721   6.418   2.704   0.180
 9274SOL    HW228722   6.559   2.634   0.222
 9275SOL     OW28723   6.791   2.292   6.926
 9275SOL    HW128724   6.853   2.361   6.889
 9275SOL    HW228725   6.819   2.267   7.019
 9276SOL     OW28726   1.824   4.484   2.482
 9276SOL    HW128727   1.729   4.504   2.507
 9276SOL    HW228728   1.837   4.498   2.384
 9277SOL     OW28729   5.386   3.164   0.509
 9277SOL    HW128730   5.349   3.082   0.554
 9277SOL    HW228731   5.365   3.244   0.564
 9278SOL     OW28732   1.142   0.452   5.637
 9278SOL    HW128733   1.074   0.403   5.581
 9278SOL    HW228734   1.102   0.475   5.725
 9279SOL     OW28735   5.303   0.829   2.244
 9279SOL    HW128736   5.206   0.814   2.226
 9279SOL    HW228737   5.345   0.877   2.166
 9280SOL     OW28738   1.456   1.174   3.033
 9280SOL    HW128739   1.490   1.251   3.087
 9280SOL    HW228740   1.463   1.091   3.087
 9281SOL     OW28741   3.122   4.404   0.964
 9281SOL    HW128742   3.213   4.418   0.926
 9281SOL    HW228743   3.121   4.430   1.061
 9282SOL     OW28744   5.157   0.761   4.468
 9282SOL    HW128745   5.155   0.854   4.504
 9282SOL    HW228746   5.238   0.748   4.412
 9283SOL     OW28747   5.891   0.475   4.038
 9283SOL    HW128748   5.836   0.526   3.972
 9283SOL    HW228749   5.980   0.520   4.049
 9284SOL     OW28750   3.383   4.625   6.453
 9284SOL    HW128751   3.376   4.671   6.364
 9284SOL    HW228752   3.424   4.535   6.440
 9285SOL     OW28753   4.938   2.639   1.091
 9285SOL    HW128754   4.871   2.622   1.018
 9285SOL    HW228755   4.940   2.560   1.153
 9286SOL     OW28756   5.244   6.411   6.579
 9286SOL    HW128757   5.249   6.392   6.481
 9286SOL    HW228758   5.204   6.502   6.593
 9287SOL     OW28759   3.121   5.234   6.789
 9287SOL    HW128760   3.075   5.170   6.728
 9287SOL    HW228761   3.210   5.198   6.816
 9288SOL     OW28762   3.795   1.600   4.310
 9288SOL    HW128763   3.759   1.693   4.318
 9288SOL    HW228764   3.725   1.535   4.339
 9289SOL     OW28765   4.068   1.316   2.553
 9289SOL    HW128766   4.067   1.364   2.465
 9289SOL    HW228767   4.132   1.362   2.615
 9290SOL     OW28768   5.018   1.373   3.241
 9290SOL    HW128769   5.076   1.442   3.196
 9290SOL    HW228770   4.936   1.358   3.186
 9291SOL     OW28771   1.987   6.952   3.919
 9291SOL    HW128772   1.887   6.963   3.922
 9291SOL    HW228773   2.009   6.856   3.899
 9292SOL     OW28774   1.131   3.497   6.729
 9292SOL    HW128775   1.196   3.427   6.701
 9292SOL    HW228776   1.071   3.519   6.652
 9293SOL     OW28777   5.307   3.836   6.940
 9293SOL    HW128778   5.285   3.933   6.950
 9293SOL    HW228779   5.266   3.785   7.015
 9294SOL     OW28780   3.210   6.926   4.766
 9294SOL    HW128781   3.292   6.912   4.710
 9294SOL    HW228782   3.141   6.857   4.742
 9295SOL     OW28783   5.345   2.326   3.966
 9295SOL    HW128784   5.338   2.317   4.065
 9295SOL    HW228785   5.409   2.400   3.944
 9296SOL     OW28786   0.727   6.582   6.465
 9296SOL    HW128787   0.661   6.545   6.399
 9296SOL    HW228788   0.679   6.610   6.548
 9297SOL     OW28789   6.667   1.441   0.377
 9297SOL    HW128790   6.699   1.533   0.399
 9297SOL    HW228791   6.568   1.441   0.366
 9298SOL     OW28792   1.582   0.768   4.525
 9298SOL    HW128793   1.667   0.811   4.493
 9298SOL    HW228794   1.538   0.827   4.592
 9299SOL     OW28795   0.845   2.412   3.859
 9299SOL    HW128796   0.763   2.395   3.805
 9299SOL    HW228797   0.832   2.378   3.952
 9300SOL     OW28798   0.864   4.629   5.524
 9300SOL    HW128799   0.798   4.704   5.535
 9300SOL    HW228800   0.935   4.637   5.594
 9301SOL     OW28801   4.653   4.215   3.844
 9301SOL    HW128802   4.648   4.313   3.864
 9301SOL    HW228803   4.568   4.171   3.872
 9302SOL     OW28804   2.217   2.846   4.492
 9302SOL    HW128805   2.232   2.943   4.513
 9302SOL    HW228806   2.305   2.800   4.483
 9303SOL     OW28807   3.364   5.520   0.546
 9303SOL    HW128808   3.358   5.582   0.468
 9303SOL    HW228809   3.412   5.566   0.621
 9304SOL     OW28810   4.657   4.487   2.237
 9304SOL    HW128811   4.616   4.396   2.225
 9304SOL    HW228812   4.749   4.486   2.199
 9305SOL     OW28813   3.576   1.053   1.486
 9305SOL    HW128814   3.643   1.032   1.415
 9305SOL    HW228815   3.484   1.031   1.452
 9306SOL     OW28816   0.211   4.414   4.781
 9306SOL    HW128817   0.249   4.424   4.689
 9306SOL    HW228818   0.180   4.503   4.814
 9307SOL     OW28819   1.020   3.575   1.213
 9307SOL    HW128820   0.942   3.638   1.220
 9307SOL    HW228821   1.004   3.497   1.274
 9308SOL     OW28822   1.728   4.423   0.707
 9308SOL    HW128823   1.785   4.436   0.625
 9308SOL    HW228824   1.775   4.463   0.786
 9309SOL     OW28825   3.303   4.872   5.746
 9309SOL    HW128826   3.357   4.791   5.770
 9309SOL    HW228827   3.211   4.862   5.784
 9310SOL     OW28828   4.371   5.470   6.084
 9310SOL    HW128829   4.427   5.518   6.151
 9310SOL    HW228830   4.339   5.384   6.123
 9311SOL     OW28831   4.233   4.797   2.213
 9311SOL    HW128832   4.299   4.736   2.170
 9311SOL    HW228833   4.182   4.847   2.143
 9312SOL     OW28834   0.884   3.151   1.401
 9312SOL    HW128835   0.933   3.084   1.345
 9312SOL    HW228836   0.786   3.146   1.382
 9313SOL     OW28837   0.278   0.337   1.063
 9313SOL    HW128838   0.283   0.424   1.014
 9313SOL    HW228839   0.216   0.275   1.015
 9314SOL     OW28840   4.638   6.138   6.130
 9314SOL    HW128841   4.586   6.215   6.168
 9314SOL    HW228842   4.722   6.172   6.089
 9315SOL     OW28843   6.551   0.995   5.208
 9315SOL    HW128844   6.598   0.936   5.142
 9315SOL    HW228845   6.500   1.066   5.159
 9316SOL     OW28846   3.952   5.573   5.400
 9316SOL    HW128847   3.880   5.544   5.463
 9316SOL    HW228848   4.039   5.577   5.449
 9317SOL     OW28849   6.648   5.298   3.314
 9317SOL    HW128850   6.716   5.229   3.289
 9317SOL    HW228851   6.607   5.336   3.231
 9318SOL     OW28852   6.582   0.428   6.054
 9318SOL    HW128853   6.609   0.337   6.025
 9318SOL    HW228854   6.602   0.494   5.982
 9319SOL     OW28855   1.219   2.772   0.368
 9319SOL    HW128856   1.145   2.713   0.335
 9319SOL    HW228857   1.209   2.863   0.330
 9320SOL     OW28858   3.814   0.719   5.737
 9320SOL    HW128859   3.886   0.663   5.779
 9320SOL    HW228860   3.852   0.807   5.709
 9321SOL     OW28861   6.182   0.358   3.493
 9321SOL    HW128862   6.156   0.262   3.481
 9321SOL    HW228863   6.132   0.396   3.571
 9322SOL     OW28864   1.189   4.715   6.673
 9322SOL    HW128865   1.160   4.763   6.590
 9322SOL    HW228866   1.141   4.753   6.752
 9323SOL     OW28867   1.238   0.630   5.461
 9323SOL    HW128868   1.207   0.721   5.487
 9323SOL    HW228869   1.194   0.562   5.520
 9324SOL     OW28870   1.226   4.527   0.516
 9324SOL    HW128871   1.205   4.611   0.566
 9324SOL    HW228872   1.314   4.491   0.547
 9325SOL     OW28873   4.871   1.265   6.716
 9325SOL    HW128874   4.795   1.232   6.772
 9325SOL    HW228875   4.955   1.260   6.769
 9326SOL     OW28876   2.286   6.121   0.758
 9326SOL    HW128877   2.265   6.175   0.840
 9326SOL    HW228878   2.275   6.024   0.779
 9327SOL     OW28879   5.302   6.891   3.091
 9327SOL    HW128880   5.304   6.805   3.143
 9327SOL    HW228881   5.363   6.957   3.134
 9328SOL     OW28882   3.074   0.781   5.879
 9328SOL    HW128883   3.057   0.788   5.977
 9328SOL    HW228884   3.068   0.685   5.851
 9329SOL     OW28885   5.961   4.050   1.720
 9329SOL    HW128886   6.033   4.072   1.654
 9329SOL    HW228887   5.935   4.132   1.770
 9330SOL     OW28888   6.097   6.672   6.718
 9330SOL    HW128889   6.129   6.715   6.802
 9330SOL    HW228890   6.173   6.626   6.672
 9331SOL     OW28891   1.570   1.106   6.637
 9331SOL    HW128892   1.593   1.014   6.668
 9331SOL    HW228893   1.477   1.106   6.599
 9332SOL     OW28894   3.872   4.078   1.769
 9332SOL    HW128895   3.867   4.169   1.727
 9332SOL    HW228896   3.791   4.025   1.744
 9333SOL     OW28897   4.105   3.792   1.393
 9333SOL    HW128898   4.081   3.811   1.298
 9333SOL    HW228899   4.030   3.822   1.453
 9334SOL     OW28900   5.316   5.823   3.731
 9334SOL    HW128901   5.346   5.797   3.639
 9334SOL    HW228902   5.396   5.851   3.785
 9335SOL     OW28903   0.964   1.320   6.450
 9335SOL    HW128904   1.046   1.312   6.394
 9335SOL    HW228905   0.973   1.399   6.511
 9336SOL     OW28906   2.776   5.190   5.497
 9336SOL    HW128907   2.765   5.194   5.398
 9336SOL    HW228908   2.837   5.263   5.527
 9337SOL     OW28909   4.847   1.859   4.191
 9337SOL    HW128910   4.803   1.855   4.281
 9337SOL    HW228911   4.902   1.942   4.184
 9338SOL     OW28912   4.450   0.761   2.157
 9338SOL    HW128913   4.523   0.696   2.179
 9338SOL    HW228914   4.400   0.785   2.241
 9339SOL     OW28915   5.803   0.298   1.249
 9339SOL    HW128916   5.791   0.331   1.156
 9339SOL    HW228917   5.803   0.376   1.312
 9340SOL     OW28918   5.815   3.427   4.315
 9340SOL    HW128919   5.815   3.526   4.297
 9340SOL    HW228920   5.723   3.390   4.299
 9341SOL     OW28921   6.711   5.662   0.558
 9341SOL    HW128922   6.756   5.740   0.513
 9341SOL    HW228923   6.662   5.693   0.639
 9342SOL     OW28924   1.811   6.842   3.479
 9342SOL    HW128925   1.864   6.776   3.534
 9342SOL    HW228926   1.774   6.912   3.540
 9343SOL     OW28927   6.231   3.971   2.471
 9343SOL    HW128928   6.306   4.008   2.416
 9343SOL    HW228929   6.269   3.927   2.553
 9344SOL     OW28930   4.426   6.191   2.321
 9344SOL    HW128931   4.462   6.284   2.329
 9344SOL    HW228932   4.330   6.189   2.347
 9345SOL     OW28933   6.126   4.847   2.317
 9345SOL    HW128934   6.219   4.842   2.353
 9345SOL    HW228935   6.123   4.802   2.228
 9346SOL     OW28936   6.592   0.664   0.890
 9346SOL    HW128937   6.505   0.701   0.923
 9346SOL    HW228938   6.652   0.740   0.861
 9347SOL     OW28939   1.495   3.676   0.796
 9347SOL    HW128940   1.495   3.600   0.862
 9347SOL    HW228941   1.542   3.755   0.836
 9348SOL     OW28942   3.596   5.841   1.993
 9348SOL    HW128943   3.574   5.911   2.061
 9348SOL    HW228944   3.568   5.873   1.902
 9349SOL     OW28945   0.506   6.073   3.529
 9349SOL    HW128946   0.593   6.050   3.572
 9349SOL    HW228947   0.446   5.993   3.529
 9350SOL     OW28948   0.753   3.763   5.350
 9350SOL    HW128949   0.719   3.773   5.257
 9350SOL    HW228950   0.812   3.841   5.371
 9351SOL     OW28951   2.464   0.259   6.598
 9351SOL    HW128952   2.463   0.357   6.577
 9351SOL    HW228953   2.452   0.246   6.697
 9352SOL     OW28954   3.554   1.959   0.025
 9352SOL    HW128955   3.492   2.011   6.991
 9352SOL    HW228956   3.602   2.022   0.087
 9353SOL     OW28957   0.513   4.067   0.258
 9353SOL    HW128958   0.602   4.109   0.270
 9353SOL    HW228959   0.450   4.102   0.328
 9354SOL     OW28960   0.220   1.738   6.630
 9354SOL    HW128961   0.203   1.808   6.561
 9354SOL    HW228962   0.196   1.648   6.594
 9355SOL     OW28963   0.399   2.522   4.120
 9355SOL    HW128964   0.494   2.494   4.136
 9355SOL    HW228965   0.387   2.617   4.147
 9356SOL     OW28966   4.900   0.659   1.774
 9356SOL    HW128967   4.825   0.640   1.711
 9356SOL    HW228968   4.864   0.667   1.867
 9357SOL     OW28969   1.112   3.233   5.910
 9357SOL    HW128970   1.091   3.199   5.819
 9357SOL    HW228971   1.206   3.267   5.913
 9358SOL     OW28972   6.565   3.954   2.187
 9358SOL    HW128973   6.526   3.868   2.154
 9358SOL    HW228974   6.547   4.027   2.120
 9359SOL     OW28975   1.450   4.725   6.565
 9359SOL    HW128976   1.379   4.744   6.632
 9359SOL    HW228977   1.521   4.667   6.608
 9360SOL     OW28978   1.222   5.299   6.169
 9360SOL    HW128979   1.245   5.393   6.144
 9360SOL    HW228980   1.275   5.235   6.113
 9361SOL     OW28981   1.490   4.891   3.723
 9361SOL    HW128982   1.451   4.976   3.687
 9361SOL    HW228983   1.495   4.897   3.823
 9362SOL     OW28984   1.015   1.314   2.349
 9362SOL    HW128985   0.916   1.317   2.331
 9362SOL    HW228986   1.056   1.239   2.298
 9363SOL     OW28987   2.827   5.145   2.182
 9363SOL    HW128988   2.881   5.064   2.159
 9363SOL    HW228989   2.884   5.227   2.171
 9364SOL     OW28990   2.328   2.087   0.308
 9364SOL    HW128991   2.239   2.131   0.291
 9364SOL    HW228992   2.320   1.989   0.287
 9365SOL     OW28993   3.253   1.627   3.359
 9365SOL    HW128994   3.342   1.622   3.314
 9365SOL    HW228995   3.245   1.713   3.410
 9366SOL     OW28996   2.909   5.504   0.085
 9366SOL    HW128997   2.903   5.468   7.016
 9366SOL    HW228998   2.958   5.439   0.143
 9367SOL     OW28999   6.479   6.999   2.095
 9367SOL    HW129000   6.469   6.978   1.998
 9367SOL    HW229001   6.399   0.026   2.126
 9368SOL     OW29002   3.199   0.128   2.568
 9368SOL    HW129003   3.259   0.172   2.501
 9368SOL    HW229004   3.137   0.065   2.520
 9369SOL     OW29005   6.537   6.726   3.898
 9369SOL    HW129006   6.476   6.784   3.844
 9369SOL    HW229007   6.485   6.680   3.969
 9370SOL     OW29008   5.374   6.714   4.628
 9370SOL    HW129009   5.357   6.696   4.725
 9370SOL    HW229010   5.339   6.639   4.573
 9371SOL     OW29011   2.549   5.787   0.769
 9371SOL    HW129012   2.588   5.778   0.861
 9371SOL    HW229013   2.575   5.876   0.730
 9372SOL     OW29014   5.255   0.423   1.463
 9372SOL    HW129015   5.298   0.354   1.405
 9372SOL    HW229016   5.235   0.383   1.552
 9373SOL     OW29017   5.112   2.093   0.519
 9373SOL    HW129018   5.116   2.192   0.514
 9373SOL    HW229019   5.115   2.054   0.427
 9374SOL     OW29020   0.444   3.216   6.399
 9374SOL    HW129021   0.441   3.305   6.445
 9374SOL    HW229022   0.536   3.178   6.406
 9375SOL     OW29023   0.033   1.725   0.850
 9375SOL    HW129024   0.067   1.650   0.793
 9375SOL    HW229025   0.070   1.811   0.817
 9376SOL     OW29026   2.151   3.828   1.904
 9376SOL    HW129027   2.150   3.915   1.854
 9376SOL    HW229028   2.180   3.845   1.998
 9377SOL     OW29029   1.501   5.101   3.335
 9377SOL    HW129030   1.597   5.108   3.360
 9377SOL    HW229031   1.491   5.046   3.252
 9378SOL     OW29032   3.822   1.227   3.671
 9378SOL    HW129033   3.781   1.305   3.718
 9378SOL    HW229034   3.783   1.142   3.709
 9379SOL     OW29035   4.928   0.127   4.642
 9379SOL    HW129036   4.981   0.210   4.620
 9379SOL    HW229037   4.847   0.152   4.694
 9380SOL     OW29038   3.624   5.637   5.326
 9380SOL    HW129039   3.554   5.570   5.298
 9380SOL    HW229040   3.603   5.726   5.285
 9381SOL     OW29041   5.292   3.239   5.283
 9381SOL    HW129042   5.234   3.177   5.231
 9381SOL    HW229043   5.326   3.193   5.365
 9382SOL     OW29044   4.129   1.393   4.002
 9382SOL    HW129045   4.161   1.470   3.947
 9382SOL    HW229046   4.147   1.308   3.952
 9383SOL     OW29047   5.662   4.600   4.576
 9383SOL    HW129048   5.673   4.688   4.622
 9383SOL    HW229049   5.570   4.565   4.593
 9384SOL     OW29050   3.523   0.237   2.109
 9384SOL    HW129051   3.599   0.210   2.168
 9384SOL    HW229052   3.553   0.311   2.049
 9385SOL     OW29053   4.381   1.448   4.455
 9385SOL    HW129054   4.325   1.425   4.376
 9385SOL    HW229055   4.473   1.411   4.442
 9386SOL     OW29056   3.127   5.530   4.943
 9386SOL    HW129057   3.189   5.461   4.907
 9386SOL    HW229058   3.088   5.583   4.867
 9387SOL     OW29059   3.187   2.264   0.963
 9387SOL    HW129060   3.225   2.208   1.037
 9387SOL    HW229061   3.102   2.307   0.994
 9388SOL     OW29062   1.695   6.492   3.325
 9388SOL    HW129063   1.725   6.435   3.249
 9388SOL    HW229064   1.678   6.585   3.292
 9389SOL     OW29065   3.094   6.246   2.799
 9389SOL    HW129066   2.998   6.265   2.819
 9389SOL    HW229067   3.102   6.158   2.752
 9390SOL     OW29068   5.944   5.398   5.904
 9390SOL    HW129069   5.975   5.452   5.982
 9390SOL    HW229070   5.998   5.421   5.823
 9391SOL     OW29071   0.374   0.765   5.542
 9391SOL    HW129072   0.344   0.706   5.466
 9391SOL    HW229073   0.353   0.860   5.520
 9392SOL     OW29074   4.861   4.370   4.363
 9392SOL    HW129075   4.935   4.383   4.297
 9392SOL    HW229076   4.787   4.318   4.320
 9393SOL     OW29077   2.746   6.890   5.530
 9393SOL    HW129078   2.735   6.811   5.590
 9393SOL    HW229079   2.752   6.860   5.435
 9394SOL     OW29080   6.427   0.588   1.201
 9394SOL    HW129081   6.441   0.490   1.185
 9394SOL    HW229082   6.410   0.603   1.298
 9395SOL     OW29083   2.417   0.680   0.768
 9395SOL    HW129084   2.370   0.768   0.771
 9395SOL    HW229085   2.494   0.685   0.705
 9396SOL     OW29086   1.696   4.511   5.002
 9396SOL    HW129087   1.671   4.577   5.072
 9396SOL    HW229088   1.631   4.434   5.004
 9397SOL     OW29089   2.770   6.659   5.690
 9397SOL    HW129090   2.819   6.604   5.758
 9397SOL    HW229091   2.782   6.618   5.600
 9398SOL     OW29092   6.181   1.527   5.699
 9398SOL    HW129093   6.099   1.472   5.715
 9398SOL    HW229094   6.156   1.624   5.698
 9399SOL     OW29095   0.775   2.751   4.229
 9399SOL    HW129096   0.872   2.729   4.237
 9399SOL    HW229097   0.753   2.828   4.289
 9400SOL     OW29098   4.509   0.411   0.544
 9400SOL    HW129099   4.506   0.355   0.627
 9400SOL    HW229100   4.561   0.494   0.561
 9401SOL     OW29101   0.311   2.151   2.211
 9401SOL    HW129102   0.306   2.229   2.275
 9401SOL    HW229103   0.322   2.067   2.263
 9402SOL     OW29104   1.505   4.368   3.177
 9402SOL    HW129105   1.494   4.315   3.092
 9402SOL    HW229106   1.448   4.450   3.173
 9403SOL     OW29107   6.585   1.579   1.975
 9403SOL    HW129108   6.551   1.596   1.882
 9403SOL    HW229109   6.684   1.567   1.973
 9404SOL     OW29110   0.000   2.174   1.276
 9404SOL    HW129111   0.066   2.211   1.343
 9404SOL    HW229112   0.048   2.112   1.214
 9405SOL     OW29113   1.520   4.148   4.438
 9405SOL    HW129114   1.516   4.078   4.509
 9405SOL    HW229115   1.442   4.138   4.376
 9406SOL     OW29116   1.164   2.996   0.231
 9406SOL    HW129117   1.236   3.063   0.216
 9406SOL    HW229118   1.101   2.996   0.154
 9407SOL     OW29119   2.830   5.093   4.387
 9407SOL    HW129120   2.879   5.015   4.349
 9407SOL    HW229121   2.745   5.062   4.430
 9408SOL     OW29122   0.579   1.936   6.334
 9408SOL    HW129123   0.667   1.956   6.290
 9408SOL    HW229124   0.528   2.022   6.347
 9409SOL     OW29125   6.464   5.644   2.137
 9409SOL    HW129126   6.525   5.642   2.058
 9409SOL    HW229127   6.490   5.719   2.198
 9410SOL     OW29128   5.057   1.278   1.621
 9410SOL    HW129129   5.102   1.332   1.692
 9410SOL    HW229130   4.992   1.336   1.572
 9411SOL     OW29131   3.251   3.865   2.983
 9411SOL    HW129132   3.327   3.840   3.043
 9411SOL    HW229133   3.169   3.883   3.037
 9412SOL     OW29134   1.477   0.362   2.314
 9412SOL    HW129135   1.559   0.323   2.355
 9412SOL    HW229136   1.490   0.371   2.215
 9413SOL     OW29137   5.094   4.993   4.550
 9413SOL    HW129138   5.164   5.023   4.485
 9413SOL    HW229139   5.100   4.893   4.561
 9414SOL     OW29140   3.083   1.729   4.326
 9414SOL    HW129141   3.064   1.805   4.387
 9414SOL    HW229142   3.090   1.763   4.232
 9415SOL     OW29143   2.446   0.022   1.642
 9415SOL    HW129144   2.393   0.104   1.621
 9415SOL    HW229145   2.472   6.999   1.558
 9416SOL     OW29146   0.468   1.076   5.268
 9416SOL    HW129147   0.496   1.132   5.190
 9416SOL    HW229148   0.548   1.035   5.311
 9417SOL     OW29149   3.961   6.521   1.540
 9417SOL    HW129150   4.035   6.587   1.551
 9417SOL    HW229151   3.878   6.555   1.584
 9418SOL     OW29152   2.253   1.347   2.456
 9418SOL    HW129153   2.171   1.296   2.482
 9418SOL    HW229154   2.323   1.283   2.425
 9419SOL     OW29155   2.765   3.402   6.844
 9419SOL    HW129156   2.861   3.391   6.869
 9419SOL    HW229157   2.711   3.334   6.894
 9420SOL     OW29158   5.463   4.526   0.075
 9420SOL    HW129159   5.466   4.593   0.150
 9420SOL    HW229160   5.411   4.565   7.023
 9421SOL     OW29161   2.761   5.292   4.197
 9421SOL    HW129162   2.703   5.221   4.159
 9421SOL    HW229163   2.813   5.255   4.275
 9422SOL     OW29164   3.168   5.822   3.902
 9422SOL    HW129165   3.151   5.845   3.806
 9422SOL    HW229166   3.120   5.887   3.961
 9423SOL     OW29167   4.360   6.557   2.793
 9423SOL    HW129168   4.341   6.520   2.702
 9423SOL    HW229169   4.331   6.491   2.862
 9424SOL     OW29170   5.184   1.498   4.663
 9424SOL    HW129171   5.170   1.464   4.570
 9424SOL    HW229172   5.265   1.454   4.702
 9425SOL     OW29173   5.545   5.215   1.150
 9425SOL    HW129174   5.645   5.216   1.148
 9425SOL    HW229175   5.513   5.253   1.237
 9426SOL     OW29176   1.953   1.653   6.029
 9426SOL    HW129177   2.050   1.654   6.005
 9426SOL    HW229178   1.924   1.745   6.055
 9427SOL     OW29179   2.346   6.090   2.993
 9427SOL    HW129180   2.385   6.115   2.904
 9427SOL    HW229181   2.392   6.142   3.065
 9428SOL     OW29182   6.457   0.096   0.142
 9428SOL    HW129183   6.526   0.064   0.078
 9428SOL    HW229184   6.501   0.144   0.218
 9429SOL     OW29185   1.594   2.174   3.849
 9429SOL    HW129186   1.647   2.251   3.815
 9429SOL    HW229187   1.535   2.204   3.924
 9430SOL     OW29188   0.661   2.505   4.172
 9430SOL    HW129189   0.734   2.444   4.141
 9430SOL    HW229190   0.688   2.600   4.157
 9431SOL     OW29191   6.303   4.438   1.117
 9431SOL    HW129192   6.385   4.418   1.065
 9431SOL    HW229193   6.229   4.463   1.055
 9432SOL     OW29194   6.241   1.714   4.423
 9432SOL    HW129195   6.197   1.781   4.363
 9432SOL    HW229196   6.230   1.622   4.384
 9433SOL     OW29197   4.114   5.999   3.517
 9433SOL    HW129198   4.106   6.082   3.463
 9433SOL    HW229199   4.025   5.955   3.526
 9434SOL     OW29200   5.921   5.152   3.539
 9434SOL    HW129201   5.827   5.179   3.516
 9434SOL    HW229202   5.967   5.121   3.455
 9435SOL     OW29203   0.081   2.056   2.802
 9435SOL    HW129204   0.139   2.136   2.815
 9435SOL    HW229205   0.137   1.978   2.777
 9436SOL     OW29206   1.453   1.383   2.383
 9436SOL    HW129207   1.465   1.285   2.399
 9436SOL    HW229208   1.538   1.422   2.348
 9437SOL     OW29209   0.951   5.215   3.692
 9437SOL    HW129210   0.970   5.307   3.726
 9437SOL    HW229211   0.886   5.220   3.617
 9438SOL     OW29212   0.867   0.251   2.144
 9438SOL    HW129213   0.894   0.309   2.221
 9438SOL    HW229214   0.775   0.214   2.160
 9439SOL     OW29215   0.271   3.038   0.771
 9439SOL    HW129216   0.332   3.111   0.802
 9439SOL    HW229217   0.306   3.000   0.685
 9440SOL     OW29218   2.841   4.762   3.317
 9440SOL    HW129219   2.752   4.808   3.315
 9440SOL    HW229220   2.857   4.725   3.409
 9441SOL     OW29221   6.421   5.901   5.846
 9441SOL    HW129222   6.377   5.847   5.774
 9441SOL    HW229223   6.364   5.899   5.928
 9442SOL     OW29224   4.694   3.467   1.482
 9442SOL    HW129225   4.637   3.400   1.435
 9442SOL    HW229226   4.654   3.558   1.470
 9443SOL     OW29227   2.607   5.865   1.600
 9443SOL    HW129228   2.680   5.818   1.650
 9443SOL    HW229229   2.520   5.821   1.619
 9444SOL     OW29230   1.693   4.154   0.704
 9444SOL    HW129231   1.696   4.252   0.724
 9444SOL    HW229232   1.771   4.109   0.747
 9445SOL     OW29233   0.031   2.283   3.471
 9445SOL    HW129234   0.114   2.229   3.454
 9445SOL    HW229235   6.975   2.223   3.462
 9446SOL     OW29236   0.089   5.270   4.286
 9446SOL    HW129237   0.063   5.341   4.220
 9446SOL    HW229238   0.131   5.193   4.238
 9447SOL     OW29239   5.105   4.807   2.946
 9447SOL    HW129240   5.130   4.882   3.008
 9447SOL    HW229241   5.074   4.729   2.999
 9448SOL     OW29242   6.179   6.997   5.542
 9448SOL    HW129243   6.136   6.979   5.631
 9448SOL    HW229244   6.134   0.051   5.499
 9449SOL     OW29245   5.377   6.841   0.622
 9449SOL    HW129246   5.449   6.804   0.681
 9449SOL    HW229247   5.362   6.938   0.643
 9450SOL     OW29248   1.760   5.192   3.870
 9450SOL    HW129249   1.701   5.247   3.811
 9450SOL    HW229250   1.805   5.121   3.815
 9451SOL     OW29251   3.915   5.878   6.009
 9451SOL    HW129252   3.924   5.877   5.909
 9451SOL    HW229253   3.851   5.950   6.035
 9452SOL     OW29254   0.411   3.888   0.080
 9452SOL    HW129255   0.442   3.972   0.126
 9452SOL    HW229256   0.458   3.809   0.119
 9453SOL     OW29257   2.411   4.758   2.692
 9453SOL    HW129258   2.360   4.833   2.735
 9453SOL    HW229259   2.498   4.792   2.657
 9454SOL     OW29260   4.265   3.621   0.053
 9454SOL    HW129261   4.243   3.646   0.147
 9454SOL    HW229262   4.182   3.623   7.021
 9455SOL     OW29263   2.383   1.995   2.709
 9455SOL    HW129264   2.328   2.021   2.630
 9455SOL    HW229265   2.343   1.915   2.753
 9456SOL     OW29266   6.219   4.302   1.932
 9456SOL    HW129267   6.119   4.311   1.931
 9456SOL    HW229268   6.244   4.207   1.911
 9457SOL     OW29269   0.456   4.651   4.387
 9457SOL    HW129270   0.547   4.610   4.378
 9457SOL    HW229271   0.414   4.659   4.297
 9458SOL     OW29272   0.014   3.979   0.404
 9458SOL    HW129273   0.011   3.944   0.498
 9458SOL    HW229274   6.945   4.000   0.374
 9459SOL     OW29275   5.455   4.203   3.907
 9459SOL    HW129276   5.396   4.282   3.924
 9459SOL    HW229277   5.446   4.137   3.981
 9460SOL     OW29278   2.026   2.679   4.572
 9460SOL    HW129279   1.958   2.670   4.499
 9460SOL    HW229280   2.100   2.738   4.541
 9461SOL     OW29281   0.802   1.225   0.720
 9461SOL    HW129282   0.733   1.154   0.706
 9461SOL    HW229283   0.759   1.315   0.715
 9462SOL     OW29284   1.633   2.826   3.575
 9462SOL    HW129285   1.674   2.753   3.521
 9462SOL    HW229286   1.696   2.904   3.578
 9463SOL     OW29287   4.926   0.032   1.240
 9463SOL    HW129288   4.985   0.039   1.321
 9463SOL    HW229289   4.978   7.014   1.165
 9464SOL     OW29290   6.003   0.535   1.158
 9464SOL    HW129291   6.004   0.495   1.066
 9464SOL    HW229292   5.987   0.633   1.152
 9465SOL     OW29293   0.143   3.921   1.642
 9465SOL    HW129294   0.126   4.008   1.689
 9465SOL    HW229295   0.060   3.892   1.595
 9466SOL     OW29296   3.985   5.138   6.286
 9466SOL    HW129297   3.890   5.117   6.266
 9466SOL    HW229298   3.997   5.237   6.293
 9467SOL     OW29299   1.570   2.645   0.724
 9467SOL    HW129300   1.608   2.573   0.782
 9467SOL    HW229301   1.631   2.725   0.726
 9468SOL     OW29302   6.623   3.434   6.430
 9468SOL    HW129303   6.587   3.362   6.490
 9468SOL    HW229304   6.646   3.394   6.341
 9469SOL     OW29305   6.800   6.040   0.701
 9469SOL    HW129306   6.774   5.957   0.751
 9469SOL    HW229307   6.758   6.119   0.745
 9470SOL     OW29308   4.625   4.029   6.550
 9470SOL    HW129309   4.688   3.952   6.564
 9470SOL    HW229310   4.557   4.004   6.481
 9471SOL     OW29311   5.717   2.166   5.556
 9471SOL    HW129312   5.622   2.158   5.588
 9471SOL    HW229313   5.731   2.258   5.519
 9472SOL     OW29314   0.963   4.212   6.021
 9472SOL    HW129315   0.958   4.311   6.031
 9472SOL    HW229316   0.947   4.187   5.925
 9473SOL     OW29317   3.201   3.690   6.755
 9473SOL    HW129318   3.143   3.623   6.802
 9473SOL    HW229319   3.210   3.772   6.811
 9474SOL     OW29320   5.848   3.348   1.568
 9474SOL    HW129321   5.934   3.330   1.520
 9474SOL    HW229322   5.832   3.278   1.637
 9475SOL     OW29323   4.564   3.021   6.961
 9475SOL    HW129324   4.616   2.990   0.017
 9475SOL    HW229325   4.466   3.024   6.984
 9476SOL     OW29326   3.477   3.701   5.600
 9476SOL    HW129327   3.487   3.793   5.561
 9476SOL    HW229328   3.452   3.708   5.696
 9477SOL     OW29329   1.771   3.285   1.027
 9477SOL    HW129330   1.713   3.294   1.108
 9477SOL    HW229331   1.763   3.367   0.971
 9478SOL     OW29332   4.410   2.975   0.996
 9478SOL    HW129333   4.423   2.887   0.951
 9478SOL    HW229334   4.445   2.971   1.090
 9479SOL     OW29335   4.145   0.251   1.137
 9479SOL    HW129336   4.196   0.248   1.051
 9479SOL    HW229337   4.181   0.181   1.199
 9480SOL     OW29338   6.197   5.056   0.122
 9480SOL    HW129339   6.122   5.085   0.182
 9480SOL    HW229340   6.281   5.050   0.176
 9481SOL     OW29341   4.996   2.395   3.040
 9481SOL    HW129342   4.953   2.451   3.111
 9481SOL    HW229343   4.945   2.310   3.030
 9482SOL     OW29344   6.300   6.875   2.461
 9482SOL    HW129345   6.216   6.887   2.407
 9482SOL    HW229346   6.286   6.803   2.529
 9483SOL     OW29347   1.620   0.863   6.757
 9483SOL    HW129348   1.549   0.842   6.689
 9483SOL    HW229349   1.610   0.802   6.835
 9484SOL     OW29350   2.513   0.318   4.367
 9484SOL    HW129351   2.477   0.228   4.390
 9484SOL    HW229352   2.438   0.384   4.361
 9485SOL     OW29353   6.140   1.704   1.307
 9485SOL    HW129354   6.225   1.755   1.324
 9485SOL    HW229355   6.112   1.716   1.212
 9486SOL     OW29356   5.220   6.176   1.233
 9486SOL    HW129357   5.291   6.229   1.187
 9486SOL    HW229358   5.221   6.197   1.331
 9487SOL     OW29359   3.334   3.773   4.574
 9487SOL    HW129360   3.375   3.853   4.618
 9487SOL    HW229361   3.280   3.723   4.642
 9488SOL     OW29362   2.125   0.177   1.167
 9488SOL    HW129363   2.035   0.207   1.133
 9488SOL    HW229364   2.117   0.152   1.264
 9489SOL     OW29365   5.139   4.422   1.150
 9489SOL    HW129366   5.235   4.404   1.171
 9489SOL    HW229367   5.113   4.374   1.066
 9490SOL     OW29368   6.820   6.276   3.412
 9490SOL    HW129369   6.812   6.268   3.313
 9490SOL    HW229370   6.907   6.237   3.441
 9491SOL     OW29371   5.906   5.592   4.351
 9491SOL    HW129372   5.895   5.511   4.409
 9491SOL    HW229373   5.852   5.667   4.389
 9492SOL     OW29374   4.431   3.460   5.973
 9492SOL    HW129375   4.476   3.480   6.060
 9492SOL    HW229376   4.473   3.516   5.901
 9493SOL     OW29377   3.388   5.452   3.918
 9493SOL    HW129378   3.292   5.438   3.896
 9493SOL    HW229379   3.443   5.382   3.873
 9494SOL     OW29380   5.710   3.018   2.341
 9494SOL    HW129381   5.756   3.106   2.352
 9494SOL    HW229382   5.775   2.944   2.359
 9495SOL     OW29383   6.732   1.254   2.389
 9495SOL    HW129384   6.638   1.286   2.393
 9495SOL    HW229385   6.759   1.218   2.478
 9496SOL     OW29386   4.755   2.190   2.127
 9496SOL    HW129387   4.804   2.259   2.073
 9496SOL    HW229388   4.815   2.111   2.141
 9497SOL     OW29389   5.383   6.379   5.376
 9497SOL    HW129390   5.368   6.280   5.381
 9497SOL    HW229391   5.310   6.421   5.321
 9498SOL     OW29392   6.864   4.447   5.198
 9498SOL    HW129393   6.873   4.379   5.125
 9498SOL    HW229394   6.775   4.436   5.243
 9499SOL     OW29395   0.166   6.161   5.262
 9499SOL    HW129396   0.238   6.110   5.215
 9499SOL    HW229397   0.082   6.159   5.208
 9500SOL     OW29398   3.815   6.434   0.902
 9500SOL    HW129399   3.737   6.375   0.885
 9500SOL    HW229400   3.840   6.482   0.818
 9501SOL     OW29401   1.591   1.398   4.446
 9501SOL    HW129402   1.577   1.308   4.404
 9501SOL    HW229403   1.541   1.467   4.393
 9502SOL     OW29404   5.998   3.842   4.387
 9502SOL    HW129405   6.052   3.920   4.420
 9502SOL    HW229406   6.025   3.760   4.437
 9503SOL     OW29407   0.206   2.214   0.712
 9503SOL    HW129408   0.187   2.307   0.745
 9503SOL    HW229409   0.288   2.179   0.758
 9504SOL     OW29410   6.599   4.011   1.853
 9504SOL    HW129411   6.681   3.997   1.909
 9504SOL    HW229412   6.623   4.063   1.771
 9505SOL     OW29413   5.273   4.461   5.678
 9505SOL    HW129414   5.350   4.486   5.737
 9505SOL    HW229415   5.301   4.468   5.582
 9506SOL     OW29416   2.281   2.637   0.446
 9506SOL    HW129417   2.239   2.553   0.410
 9506SOL    HW229418   2.371   2.650   0.404
 9507SOL     OW29419   6.703   0.761   1.139
 9507SOL    HW129420   6.680   0.736   1.045
 9507SOL    HW229421   6.692   0.682   1.199
 9508SOL     OW29422   5.759   2.199   2.791
 9508SOL    HW129423   5.738   2.252   2.708
 9508SOL    HW229424   5.850   2.224   2.824
 9509SOL     OW29425   6.758   0.177   3.556
 9509SOL    HW129426   6.759   0.266   3.600
 9509SOL    HW229427   6.691   0.118   3.601
 9510SOL     OW29428   1.176   3.654   2.703
 9510SOL    HW129429   1.266   3.686   2.732
 9510SOL    HW229430   1.111   3.730   2.705
 9511SOL     OW29431   1.322   0.914   1.532
 9511SOL    HW129432   1.287   0.820   1.536
 9511SOL    HW229433   1.380   0.931   1.611
 9512SOL     OW29434   6.468   2.186   1.645
 9512SOL    HW129435   6.386   2.172   1.700
 9512SOL    HW229436   6.517   2.099   1.636
 9513SOL     OW29437   2.960   4.866   5.925
 9513SOL    HW129438   2.862   4.877   5.911
 9513SOL    HW229439   2.988   4.917   6.006
 9514SOL     OW29440   3.238   4.196   7.012
 9514SOL    HW129441   3.201   4.280   6.973
 9514SOL    HW229442   3.163   4.139   0.022
 9515SOL     OW29443   2.281   5.686   2.898
 9515SOL    HW129444   2.370   5.721   2.870
 9515SOL    HW229445   2.238   5.638   2.821
 9516SOL     OW29446   5.635   4.380   0.435
 9516SOL    HW129447   5.611   4.321   0.358
 9516SOL    HW229448   5.634   4.327   0.520
 9517SOL     OW29449   1.242   3.877   1.015
 9517SOL    HW129450   1.259   3.810   0.943
 9517SOL    HW229451   1.301   3.956   1.001
 9518SOL     OW29452   2.422   1.596   0.750
 9518SOL    HW129453   2.454   1.678   0.798
 9518SOL    HW229454   2.499   1.532   0.738
 9519SOL     OW29455   2.509   2.818   5.608
 9519SOL    HW129456   2.520   2.721   5.630
 9519SOL    HW229457   2.494   2.829   5.510
 9520SOL     OW29458   3.005   0.588   2.832
 9520SOL    HW129459   3.016   0.494   2.802
 9520SOL    HW229460   3.052   0.649   2.768
 9521SOL     OW29461   5.730   5.179   3.174
 9521SOL    HW129462   5.672   5.131   3.108
 9521SOL    HW229463   5.704   5.276   3.176
 9522SOL     OW29464   3.369   5.546   1.039
 9522SOL    HW129465   3.369   5.639   1.075
 9522SOL    HW229466   3.461   5.523   1.006
 9523SOL     OW29467   3.417   5.052   4.277
 9523SOL    HW129468   3.485   4.996   4.229
 9523SOL    HW229469   3.367   5.107   4.210
 9524SOL     OW29470   4.209   2.699   1.579
 9524SOL    HW129471   4.127   2.656   1.615
 9524SOL    HW229472   4.290   2.653   1.616
 9525SOL     OW29473   2.349   2.371   6.247
 9525SOL    HW129474   2.354   2.332   6.339
 9525SOL    HW229475   2.351   2.297   6.179
 9526SOL     OW29476   5.831   5.334   2.651
 9526SOL    HW129477   5.766   5.326   2.726
 9526SOL    HW229478   5.915   5.376   2.684
 9527SOL     OW29479   1.049   0.692   1.700
 9527SOL    HW129480   1.079   0.768   1.758
 9527SOL    HW229481   1.115   0.678   1.626
 9528SOL     OW29482   7.019   0.604   0.080
 9528SOL    HW129483   6.973   0.533   0.134
 9528SOL    HW229484   6.953   0.647   0.019
 9529SOL     OW29485   0.280   3.388   5.608
 9529SOL    HW129486   0.265   3.459   5.540
 9529SOL    HW229487   0.348   3.418   5.674
 9530SOL     OW29488   1.843   3.065   3.178
 9530SOL    HW129489   1.936   3.102   3.184
 9530SOL    HW229490   1.791   3.092   3.259
 9531SOL     OW29491   4.132   6.015   3.021
 9531SOL    HW129492   4.217   6.061   3.048
 9531SOL    HW229493   4.086   5.980   3.103
 9532SOL     OW29494   1.315   5.469   1.767
 9532SOL    HW129495   1.322   5.370   1.755
 9532SOL    HW229496   1.359   5.515   1.690
 9533SOL     OW29497   0.265   1.036   5.485
 9533SOL    HW129498   0.188   1.099   5.480
 9533SOL    HW229499   0.317   1.040   5.400
 9534SOL     OW29500   5.570   3.201   5.634
 9534SOL    HW129501   5.632   3.144   5.580
 9534SOL    HW229502   5.621   3.276   5.675
 9535SOL     OW29503   2.419   1.097   6.226
 9535SOL    HW129504   2.331   1.144   6.217
 9535SOL    HW229505   2.419   1.015   6.170
 9536SOL     OW29506   2.127   5.806   5.027
 9536SOL    HW129507   2.223   5.803   4.999
 9536SOL    HW229508   2.071   5.755   4.962
 9537SOL     OW29509   3.279   0.890   2.500
 9537SOL    HW129510   3.328   0.955   2.441
 9537SOL    HW229511   3.308   0.903   2.595
 9538SOL     OW29512   6.731   1.234   4.411
 9538SOL    HW129513   6.642   1.276   4.390
 9538SOL    HW229514   6.803   1.282   4.360
 9539SOL     OW29515   2.069   4.708   6.530
 9539SOL    HW129516   2.148   4.755   6.569
 9539SOL    HW229517   2.074   4.610   6.554
 9540SOL     OW29518   4.585   4.423   5.242
 9540SOL    HW129519   4.652   4.427   5.316
 9540SOL    HW229520   4.534   4.337   5.247
 9541SOL     OW29521   1.827   1.968   5.399
 9541SOL    HW129522   1.909   1.992   5.451
 9541SOL    HW229523   1.800   1.874   5.421
 9542SOL     OW29524   4.891   3.570   5.357
 9542SOL    HW129525   4.829   3.595   5.282
 9542SOL    HW229526   4.924   3.476   5.343
 9543SOL     OW29527   4.618   0.321   4.970
 9543SOL    HW129528   4.617   0.284   4.877
 9543SOL    HW229529   4.536   0.376   4.985
 9544SOL     OW29530   5.650   0.532   1.871
 9544SOL    HW129531   5.591   0.452   1.871
 9544SOL    HW229532   5.727   0.517   1.809
 9545SOL     OW29533   6.516   6.126   2.893
 9545SOL    HW129534   6.505   6.215   2.937
 9545SOL    HW229535   6.613   6.102   2.889
 9546SOL     OW29536   2.905   4.263   6.748
 9546SOL    HW129537   2.938   4.169   6.743
 9546SOL    HW229538   2.902   4.293   6.844
 9547SOL     OW29539   2.324   6.187   3.909
 9547SOL    HW129540   2.326   6.286   3.926
 9547SOL    HW229541   2.242   6.148   3.952
 9548SOL     OW29542   6.364   5.493   4.926
 9548SOL    HW129543   6.400   5.470   4.835
 9548SOL    HW229544   6.423   5.562   4.968
 9549SOL     OW29545   3.184   5.187   0.967
 9549SOL    HW129546   3.121   5.218   1.038
 9549SOL    HW229547   3.239   5.264   0.936
 9550SOL     OW29548   0.138   1.325   6.877
 9550SOL    HW129549   0.041   1.304   6.882
 9550SOL    HW229550   0.155   1.417   6.913
 9551SOL     OW29551   0.040   7.012   4.446
 9551SOL    HW129552   0.108   6.995   4.517
 9551SOL    HW229553   0.049   6.943   4.374
 9552SOL     OW29554   1.912   6.524   2.899
 9552SOL    HW129555   1.886   6.437   2.941
 9552SOL    HW229556   1.916   6.512   2.799
 9553SOL     OW29557   6.045   5.069   6.500
 9553SOL    HW129558   5.996   5.085   6.585
 9553SOL    HW229559   6.042   4.972   6.477
 9554SOL     OW29560   3.177   0.989   1.550
 9554SOL    HW129561   3.221   1.071   1.512
 9554SOL    HW229562   3.228   0.908   1.522
 9555SOL     OW29563   6.329   2.484   1.744
 9555SOL    HW129564   6.264   2.431   1.689
 9555SOL    HW229565   6.410   2.504   1.690
 9556SOL     OW29566   2.787   1.521   1.604
 9556SOL    HW129567   2.811   1.597   1.665
 9556SOL    HW229568   2.771   1.439   1.659
 9557SOL     OW29569   6.045   0.120   2.741
 9557SOL    HW129570   6.041   0.107   2.642
 9557SOL    HW229571   6.064   0.033   2.786
 9558SOL     OW29572   0.004   5.274   2.888
 9558SOL    HW129573   6.960   5.209   2.924
 9558SOL    HW229574   0.094   5.230   2.886
 9559SOL     OW29575   0.279   4.091   2.166
 9559SOL    HW129576   0.369   4.132   2.179
 9559SOL    HW229577   0.279   3.999   2.206
 9560SOL     OW29578   2.476   1.224   2.339
 9560SOL    HW129579   2.547   1.217   2.269
 9560SOL    HW229580   2.512   1.191   2.426
 9561SOL     OW29581   2.642   6.292   0.689
 9561SOL    HW129582   2.641   6.314   0.787
 9561SOL    HW229583   2.691   6.364   0.639
 9562SOL     OW29584   3.609   5.336   4.185
 9562SOL    HW129585   3.518   5.306   4.212
 9562SOL    HW229586   3.677   5.298   4.249
 9563SOL     OW29587   6.247   6.449   0.127
 9563SOL    HW129588   6.325   6.451   0.064
 9563SOL    HW229589   6.275   6.409   0.214
 9564SOL     OW29590   2.733   6.947   6.737
 9564SOL    HW129591   2.712   7.002   6.656
 9564SOL    HW229592   2.793   6.871   6.711
 9565SOL     OW29593   4.102   5.860   4.655
 9565SOL    HW129594   4.077   5.763   4.666
 9565SOL    HW229595   4.090   5.886   4.560
 9566SOL     OW29596   3.961   4.464   6.707
 9566SOL    HW129597   3.938   4.487   6.612
 9566SOL    HW229598   3.884   4.416   6.749
 9567SOL     OW29599   6.349   5.764   6.493
 9567SOL    HW129600   6.272   5.763   6.557
 9567SOL    HW229601   6.434   5.768   6.545
 9568SOL     OW29602   4.975   3.921   6.164
 9568SOL    HW129603   5.074   3.905   6.167
 9568SOL    HW229604   4.938   3.884   6.078
 9569SOL     OW29605   6.718   1.221   0.180
 9569SOL    HW129606   6.663   1.230   0.097
 9569SOL    HW229607   6.700   1.299   0.241
 9570SOL     OW29608   0.592   1.501   0.953
 9570SOL    HW129609   0.494   1.483   0.955
 9570SOL    HW229610   0.630   1.492   1.045
 9571SOL     OW29611   3.075   3.980   0.123
 9571SOL    HW129612   2.977   3.998   0.126
 9571SOL    HW229613   3.119   4.021   0.203
 9572SOL     OW29614   1.151   4.259   1.314
 9572SOL    HW129615   1.165   4.161   1.299
 9572SOL    HW229616   1.054   4.281   1.304
 9573SOL     OW29617   0.851   0.870   6.743
 9573SOL    HW129618   0.764   0.918   6.730
 9573SOL    HW229619   0.842   0.804   6.817
 9574SOL     OW29620   3.278   3.901   6.059
 9574SOL    HW129621   3.364   3.866   6.096
 9574SOL    HW229622   3.243   3.974   6.117
 9575SOL     OW29623   6.282   0.870   1.480
 9575SOL    HW129624   6.225   0.871   1.398
 9575SOL    HW229625   6.336   0.786   1.482
 9576SOL     OW29626   3.864   1.455   4.048
 9576SOL    HW129627   3.957   1.426   4.072
 9576SOL    HW229628   3.861   1.555   4.041
 9577SOL     OW29629   0.709   0.295   2.495
 9577SOL    HW129630   0.754   0.377   2.460
 9577SOL    HW229631   0.610   0.304   2.486
 9578SOL     OW29632   6.320   2.859   2.278
 9578SOL    HW129633   6.310   2.958   2.267
 9578SOL    HW229634   6.379   2.824   2.205
 9579SOL     OW29635   1.174   6.983   1.975
 9579SOL    HW129636   1.253   6.975   2.035
 9579SOL    HW229637   1.156   0.056   1.957
 9580SOL     OW29638   5.020   3.468   7.010
 9580SOL    HW129639   5.055   3.381   6.975
 9580SOL    HW229640   5.095   3.521   0.025
 9581SOL     OW29641   1.566   5.534   5.918
 9581SOL    HW129642   1.603   5.444   5.894
 9581SOL    HW229643   1.598   5.560   6.009
 9582SOL     OW29644   4.529   4.467   4.183
 9582SOL    HW129645   4.443   4.519   4.186
 9582SOL    HW229646   4.590   4.500   4.254
 9583SOL     OW29647   2.016   3.598   1.867
 9583SOL    HW129648   2.075   3.540   1.923
 9583SOL    HW229649   2.063   3.683   1.846
 9584SOL     OW29650   6.628   5.021   6.829
 9584SOL    HW129651   6.611   5.028   6.927
 9584SOL    HW229652   6.625   4.925   6.800
 9585SOL     OW29653   5.544   6.746   2.934
 9585SOL    HW129654   5.527   6.836   2.895
 9585SOL    HW229655   5.481   6.731   3.010
 9586SOL     OW29656   5.408   3.474   3.800
 9586SOL    HW129657   5.472   3.405   3.766
 9586SOL    HW229658   5.332   3.428   3.847
 9587SOL     OW29659   5.814   0.497   1.427
 9587SOL    HW129660   5.719   0.523   1.412
 9587SOL    HW229661   5.874   0.551   1.368
 9588SOL     OW29662   0.234   0.425   1.304
 9588SOL    HW129663   0.320   0.465   1.336
 9588SOL    HW229664   0.248   0.384   1.214
 9589SOL     OW29665   2.081   6.795   5.813
 9589SOL    HW129666   2.098   6.812   5.716
 9589SOL    HW229667   2.166   6.811   5.865
 9590SOL     OW29668   0.687   3.779   2.841
 9590SOL    HW129669   0.783   3.764   2.862
 9590SOL    HW229670   0.635   3.790   2.926
 9591SOL     OW29671   2.396   6.502   0.959
 9591SOL    HW129672   2.310   6.451   0.959
 9591SOL    HW229673   2.410   6.545   1.048
 9592SOL     OW29674   4.276   5.517   2.868
 9592SOL    HW129675   4.261   5.575   2.948
 9592SOL    HW229676   4.325   5.434   2.896
 9593SOL     OW29677   5.896   2.349   4.715
 9593SOL    HW129678   5.861   2.336   4.622
 9593SOL    HW229679   5.829   2.400   4.769
 9594SOL     OW29680   6.379   6.235   2.608
 9594SOL    HW129681   6.330   6.275   2.685
 9594SOL    HW229682   6.470   6.205   2.637
 9595SOL     OW29683   1.460   5.805   4.320
 9595SOL    HW129684   1.454   5.721   4.373
 9595SOL    HW229685   1.530   5.864   4.358
 9596SOL     OW29686   6.759   6.098   5.341
 9596SOL    HW129687   6.838   6.048   5.377
 9596SOL    HW229688   6.676   6.069   5.390
 9597SOL     OW29689   0.398   4.110   1.676
 9597SOL    HW129690   0.412   4.034   1.740
 9597SOL    HW229691   0.361   4.074   1.590
 9598SOL     OW29692   0.320   4.410   5.936
 9598SOL    HW129693   0.414   4.375   5.932
 9598SOL    HW229694   0.321   4.509   5.921
 9599SOL     OW29695   3.379   0.349   5.732
 9599SOL    HW129696   3.324   0.273   5.766
 9599SOL    HW229697   3.475   0.323   5.729
 9600SOL     OW29698   1.381   0.715   5.823
 9600SOL    HW129699   1.330   0.643   5.776
 9600SOL    HW229700   1.470   0.727   5.779
 9601SOL     OW29701   0.516   4.718   6.453
 9601SOL    HW129702   0.462   4.652   6.402
 9601SOL    HW229703   0.587   4.756   6.394
 9602SOL     OW29704   0.181   4.920   6.220
 9602SOL    HW129705   0.100   4.900   6.165
 9602SOL    HW229706   0.263   4.894   6.170
 9603SOL     OW29707   2.451   6.166   4.261
 9603SOL    HW129708   2.386   6.239   4.279
 9603SOL    HW229709   2.524   6.168   4.329
 9604SOL     OW29710   4.968   1.008   6.864
 9604SOL    HW129711   4.944   0.923   6.911
 9604SOL    HW229712   4.959   1.085   6.927
 9605SOL     OW29713   2.069   5.644   5.322
 9605SOL    HW129714   2.033   5.735   5.300
 9605SOL    HW229715   2.139   5.619   5.255
 9606SOL     OW29716   0.550   6.187   3.286
 9606SOL    HW129717   0.520   6.151   3.374
 9606SOL    HW229718   0.650   6.195   3.285
 9607SOL     OW29719   0.873   0.948   1.998
 9607SOL    HW129720   0.910   0.927   1.907
 9607SOL    HW229721   0.888   1.044   2.019
 9608SOL     OW29722   6.685   0.242   2.352
 9608SOL    HW129723   6.672   0.150   2.315
 9608SOL    HW229724   6.695   0.237   2.451
 9609SOL     OW29725   2.103   4.443   4.790
 9609SOL    HW129726   2.158   4.455   4.707
 9609SOL    HW229727   2.162   4.410   4.864
 9610SOL     OW29728   1.762   2.008   5.691
 9610SOL    HW129729   1.838   1.945   5.706
 9610SOL    HW229730   1.786   2.074   5.620
 9611SOL     OW29731   6.884   0.385   1.112
 9611SOL    HW129732   6.843   0.435   1.188
 9611SOL    HW229733   6.897   0.447   1.035
 9612SOL     OW29734   5.841   3.179   0.479
 9612SOL    HW129735   5.765   3.186   0.414
 9612SOL    HW229736   5.807   3.201   0.571
 9613SOL     OW29737   5.953   6.670   4.917
 9613SOL    HW129738   5.972   6.603   4.988
 9613SOL    HW229739   6.039   6.708   4.883
 9614SOL     OW29740   3.602   4.038   2.289
 9614SOL    HW129741   3.623   4.076   2.199
 9614SOL    HW229742   3.503   4.023   2.296
 9615SOL     OW29743   1.688   5.669   2.812
 9615SOL    HW129744   1.726   5.692   2.901
 9615SOL    HW229745   1.722   5.734   2.743
 9616SOL     OW29746   3.571   2.352   1.009
 9616SOL    HW129747   3.517   2.309   0.936
 9616SOL    HW229748   3.519   2.351   1.094
 9617SOL     OW29749   1.131   2.761   3.431
 9617SOL    HW129750   1.075   2.798   3.357
 9617SOL    HW229751   1.165   2.836   3.488
 9618SOL     OW29752   3.665   6.541   6.455
 9618SOL    HW129753   3.578   6.589   6.442
 9618SOL    HW229754   3.698   6.557   6.548
 9619SOL     OW29755   1.822   6.174   0.446
 9619SOL    HW129756   1.827   6.218   0.536
 9619SOL    HW229757   1.801   6.242   0.376
 9620SOL     OW29758   3.206   0.572   6.839
 9620SOL    HW129759   3.235   0.479   6.815
 9620SOL    HW229760   3.156   0.612   6.762
 9621SOL     OW29761   0.204   0.864   2.449
 9621SOL    HW129762   0.294   0.841   2.412
 9621SOL    HW229763   0.136   0.798   2.415
 9622SOL     OW29764   6.176   0.842   0.004
 9622SOL    HW129765   6.264   0.820   0.047
 9622SOL    HW229766   6.147   0.765   6.971
 9623SOL     OW29767   4.918   5.464   6.864
 9623SOL    HW129768   4.940   5.422   6.952
 9623SOL    HW229769   4.823   5.496   6.864
 9624SOL     OW29770   5.154   5.252   5.238
 9624SOL    HW129771   5.195   5.205   5.160
 9624SOL    HW229772   5.060   5.277   5.216
 9625SOL     OW29773   5.390   5.060   6.709
 9625SOL    HW129774   5.442   5.053   6.794
 9625SOL    HW229775   5.384   4.970   6.666
 9626SOL     OW29776   1.900   4.767   5.533
 9626SOL    HW129777   1.833   4.693   5.541
 9626SOL    HW229778   1.969   4.758   5.606
 9627SOL     OW29779   1.946   4.749   5.977
 9627SOL    HW129780   2.011   4.801   6.032
 9627SOL    HW229781   1.959   4.652   5.993
 9628SOL     OW29782   5.921   4.072   6.631
 9628SOL    HW129783   5.910   4.161   6.676
 9628SOL    HW229784   5.986   4.016   6.683
 9629SOL     OW29785   6.613   5.855   2.570
 9629SOL    HW129786   6.658   5.944   2.582
 9629SOL    HW229787   6.612   5.831   2.473
 9630SOL     OW29788   6.204   6.549   5.636
 9630SOL    HW129789   6.125   6.556   5.575
 9630SOL    HW229790   6.262   6.630   5.623
 9631SOL     OW29791   4.567   1.174   1.093
 9631SOL    HW129792   4.500   1.103   1.116
 9631SOL    HW229793   4.521   1.262   1.083
 9632SOL     OW29794   2.120   5.467   1.751
 9632SOL    HW129795   2.204   5.429   1.712
 9632SOL    HW229796   2.093   5.413   1.831
 9633SOL     OW29797   3.850   3.099   2.203
 9633SOL    HW129798   3.826   3.173   2.140
 9633SOL    HW229799   3.948   3.102   2.223
 9634SOL     OW29800   5.203   4.656   2.523
 9634SOL    HW129801   5.175   4.577   2.578
 9634SOL    HW229802   5.129   4.682   2.461
 9635SOL     OW29803   0.957   3.752   4.074
 9635SOL    HW129804   1.040   3.808   4.065
 9635SOL    HW229805   0.978   3.657   4.047
 9636SOL     OW29806   4.324   1.723   5.703
 9636SOL    HW129807   4.278   1.653   5.758
 9636SOL    HW229808   4.408   1.686   5.665
 9637SOL     OW29809   2.319   3.237   1.404
 9637SOL    HW129810   2.393   3.221   1.339
 9637SOL    HW229811   2.355   3.283   1.485
 9638SOL     OW29812   0.302   4.192   6.250
 9638SOL    HW129813   0.402   4.197   6.243
 9638SOL    HW229814   0.271   4.248   6.327
 9639SOL     OW29815   4.563   2.305   1.697
 9639SOL    HW129816   4.552   2.303   1.796
 9639SOL    HW229817   4.631   2.236   1.669
 9640SOL     OW29818   4.033   1.392   2.884
 9640SOL    HW129819   4.114   1.355   2.838
 9640SOL    HW229820   3.963   1.413   2.816
 9641SOL     OW29821   5.631   4.835   2.514
 9641SOL    HW129822   5.596   4.888   2.591
 9641SOL    HW229823   5.716   4.876   2.481
 9642SOL     OW29824   1.433   0.024   3.830
 9642SOL    HW129825   1.347   6.997   3.827
 9642SOL    HW229826   1.476   0.021   3.740
 9643SOL     OW29827   4.851   3.861   4.063
 9643SOL    HW129828   4.897   3.929   4.006
 9643SOL    HW229829   4.860   3.770   4.022
 9644SOL     OW29830   2.382   6.575   5.001
 9644SOL    HW129831   2.326   6.647   4.959
 9644SOL    HW229832   2.475   6.610   5.015
 9645SOL     OW29833   1.245   5.151   5.550
 9645SOL    HW129834   1.199   5.224   5.600
 9645SOL    HW229835   1.267   5.182   5.458
 9646SOL     OW29836   2.967   6.871   4.426
 9646SOL    HW129837   2.994   6.966   4.416
 9646SOL    HW229838   2.980   6.842   4.521
 9647SOL     OW29839   6.274   6.067   3.191
 9647SOL    HW129840   6.250   6.009   3.113
 9647SOL    HW229841   6.210   6.051   3.266
 9648SOL     OW29842   5.506   2.596   1.571
 9648SOL    HW129843   5.580   2.544   1.529
 9648SOL    HW229844   5.422   2.584   1.518
 9649SOL     OW29845   2.391   3.441   6.732
 9649SOL    HW129846   2.347   3.484   6.811
 9649SOL    HW229847   2.429   3.512   6.672
 9650SOL     OW29848   6.192   4.615   3.920
 9650SOL    HW129849   6.236   4.600   4.008
 9650SOL    HW229850   6.244   4.682   3.868
 9651SOL     OW29851   2.514   1.516   0.211
 9651SOL    HW129852   2.491   1.596   0.155
 9651SOL    HW229853   2.446   1.445   0.195
 9652SOL     OW29854   0.296   4.130   1.081
 9652SOL    HW129855   0.363   4.203   1.072
 9652SOL    HW229856   0.212   4.155   1.032
 9653SOL     OW29857   4.539   4.308   5.673
 9653SOL    HW129858   4.442   4.304   5.649
 9653SOL    HW229859   4.549   4.321   5.772
 9654SOL     OW29860   3.980   3.108   3.382
 9654SOL    HW129861   3.933   3.143   3.462
 9654SOL    HW229862   3.914   3.070   3.317
 9655SOL     OW29863   6.596   0.977   1.466
 9655SOL    HW129864   6.684   0.962   1.422
 9655SOL    HW229865   6.522   0.961   1.401
 9656SOL     OW29866   4.894   3.482   0.491
 9656SOL    HW129867   4.888   3.494   0.392
 9656SOL    HW229868   4.981   3.519   0.524
 9657SOL     OW29869   5.214   3.725   3.962
 9657SOL    HW129870   5.256   3.719   3.871
 9657SOL    HW229871   5.196   3.821   3.984
 9658SOL     OW29872   4.797   1.905   2.929
 9658SOL    HW129873   4.709   1.869   2.895
 9658SOL    HW229874   4.866   1.834   2.923
 9659SOL     OW29875   3.194   1.944   0.525
 9659SOL    HW129876   3.238   1.863   0.564
 9659SOL    HW229877   3.172   2.008   0.597
 9660SOL     OW29878   0.395   6.190   0.708
 9660SOL    HW129879   0.361   6.110   0.758
 9660SOL    HW229880   0.403   6.267   0.770
 9661SOL     OW29881   4.496   5.516   1.247
 9661SOL    HW129882   4.538   5.580   1.312
 9661SOL    HW229883   4.483   5.561   1.159
 9662SOL     OW29884   5.796   4.901   6.888
 9662SOL    HW129885   5.765   4.807   6.873
 9662SOL    HW229886   5.887   4.901   6.929
 9663SOL     OW29887   0.896   4.684   3.096
 9663SOL    HW129888   0.878   4.769   3.144
 9663SOL    HW229889   0.811   4.647   3.060
 9664SOL     OW29890   5.391   3.780   3.419
 9664SOL    HW129891   5.427   3.868   3.388
 9664SOL    HW229892   5.301   3.764   3.377
 9665SOL     OW29893   6.580   6.609   5.962
 9665SOL    HW129894   6.481   6.611   5.954
 9665SOL    HW229895   6.608   6.645   6.051
 9666SOL     OW29896   6.325   4.662   1.527
 9666SOL    HW129897   6.361   4.625   1.612
 9666SOL    HW229898   6.347   4.759   1.520
 9667SOL     OW29899   4.258   4.727   0.966
 9667SOL    HW129900   4.351   4.723   1.003
 9667SOL    HW229901   4.232   4.637   0.933
 9668SOL     OW29902   1.379   0.319   5.725
 9668SOL    HW129903   1.438   0.368   5.790
 9668SOL    HW229904   1.303   0.377   5.699
 9669SOL     OW29905   2.500   6.963   0.789
 9669SOL    HW129906   2.513   6.879   0.736
 9669SOL    HW229907   2.587   6.991   0.829
 9670SOL     OW29908   0.568   6.903   5.566
 9670SOL    HW129909   0.523   6.953   5.492
 9670SOL    HW229910   0.514   6.822   5.589
 9671SOL     OW29911   0.827   4.616   0.388
 9671SOL    HW129912   0.778   4.662   0.315
 9671SOL    HW229913   0.859   4.527   0.357
 9672SOL     OW29914   1.105   4.547   2.937
 9672SOL    HW129915   1.098   4.589   2.846
 9672SOL    HW229916   1.049   4.598   3.002
 9673SOL     OW29917   3.266   4.311   1.745
 9673SOL    HW129918   3.280   4.242   1.816
 9673SOL    HW229919   3.170   4.314   1.720
 9674SOL     OW29920   3.915   6.794   2.606
 9674SOL    HW129921   4.013   6.780   2.616
 9674SOL    HW229922   3.874   6.809   2.697
 9675SOL     OW29923   4.880   4.175   0.455
 9675SOL    HW129924   4.809   4.212   0.396
 9675SOL    HW229925   4.909   4.086   0.420
 9676SOL     OW29926   1.604   2.927   6.663
 9676SOL    HW129927   1.537   2.912   6.591
 9676SOL    HW229928   1.576   2.878   6.746
 9677SOL     OW29929   6.283   4.949   6.832
 9677SOL    HW129930   6.235   4.997   6.906
 9677SOL    HW229931   6.301   5.013   6.758
 9678SOL     OW29932   2.942   3.786   5.055
 9678SOL    HW129933   3.022   3.733   5.027
 9678SOL    HW229934   2.863   3.758   4.999
 9679SOL     OW29935   2.784   1.942   4.802
 9679SOL    HW129936   2.838   2.011   4.755
 9679SOL    HW229937   2.704   1.984   4.843
 9680SOL     OW29938   4.801   6.297   4.807
 9680SOL    HW129939   4.707   6.292   4.842
 9680SOL    HW229940   4.860   6.238   4.863
 9681SOL     OW29941   3.069   1.195   1.237
 9681SOL    HW129942   3.068   1.104   1.196
 9681SOL    HW229943   3.058   1.264   1.165
 9682SOL     OW29944   5.526   4.977   3.963
 9682SOL    HW129945   5.448   5.028   3.926
 9682SOL    HW229946   5.611   5.023   3.936
 9683SOL     OW29947   2.015   6.542   0.670
 9683SOL    HW129948   2.103   6.588   0.675
 9683SOL    HW229949   1.942   6.606   0.692
 9684SOL     OW29950   1.008   3.319   5.319
 9684SOL    HW129951   1.030   3.410   5.283
 9684SOL    HW229952   1.058   3.249   5.267
 9685SOL     OW29953   4.665   3.783   0.437
 9685SOL    HW129954   4.606   3.708   0.407
 9685SOL    HW229955   4.729   3.750   0.506
 9686SOL     OW29956   0.312   1.958   6.478
 9686SOL    HW129957   0.380   1.978   6.549
 9686SOL    HW229958   0.309   2.033   6.413
 9687SOL     OW29959   6.470   6.881   1.824
 9687SOL    HW129960   6.457   6.783   1.808
 9687SOL    HW229961   6.567   6.903   1.826
 9688SOL     OW29962   1.142   4.129   0.896
 9688SOL    HW129963   1.219   4.084   0.852
 9688SOL    HW229964   1.132   4.096   0.990
 9689SOL     OW29965   1.025   5.222   6.323
 9689SOL    HW129966   0.976   5.153   6.269
 9689SOL    HW229967   1.109   5.249   6.275
 9690SOL     OW29968   4.900   5.297   5.083
 9690SOL    HW129969   4.834   5.265   5.151
 9690SOL    HW229970   4.931   5.389   5.107
 9691SOL     OW29971   3.285   4.121   2.915
 9691SOL    HW129972   3.242   4.188   2.975
 9691SOL    HW229973   3.274   4.029   2.954
 9692SOL     OW29974   5.098   5.295   0.479
 9692SOL    HW129975   5.010   5.312   0.434
 9692SOL    HW229976   5.147   5.223   0.430
 9693SOL     OW29977   5.812   4.074   4.369
 9693SOL    HW129978   5.882   4.003   4.361
 9693SOL    HW229979   5.819   4.118   4.458
 9694SOL     OW29980   3.217   0.373   1.555
 9694SOL    HW129981   3.245   0.306   1.624
 9694SOL    HW229982   3.123   0.355   1.526
 9695SOL     OW29983   0.273   3.900   2.714
 9695SOL    HW129984   0.174   3.908   2.708
 9695SOL    HW229985   0.315   3.951   2.638
 9696SOL     OW29986   5.896   1.846   2.703
 9696SOL    HW129987   5.912   1.872   2.798
 9696SOL    HW229988   5.899   1.746   2.695
 9697SOL     OW29989   6.526   6.402   0.169
 9697SOL    HW129990   6.538   6.303   0.180
 9697SOL    HW229991   6.562   6.430   0.080
 9698SOL     OW29992   5.891   3.235   6.197
 9698SOL    HW129993   5.868   3.278   6.110
 9698SOL    HW229994   5.808   3.217   6.249
 9699SOL     OW29995   0.810   6.001   6.993
 9699SOL    HW129996   0.802   5.902   6.985
 9699SOL    HW229997   0.745   6.035   0.038
 9700SOL     OW29998   6.888   6.414   3.813
 9700SOL    HW129999   6.937   6.328   3.803
 9700SOL    HW230000   6.812   6.417   3.747
 9701SOL     OW30001   4.904   3.421   6.628
 9701SOL    HW130002   5.002   3.401   6.629
 9701SOL    HW230003   4.880   3.469   6.713
 9702SOL     OW30004   3.841   2.957   0.430
 9702SOL    HW130005   3.911   2.965   0.359
 9702SOL    HW230006   3.842   3.039   0.487
 9703SOL     OW30007   5.970   3.788   3.904
 9703SOL    HW130008   6.070   3.799   3.901
 9703SOL    HW230009   5.930   3.867   3.951
 9704SOL     OW30010   3.058   4.939   2.946
 9704SOL    HW130011   3.153   4.961   2.967
 9704SOL    HW230012   3.024   4.870   3.010
 9705SOL     OW30013   6.278   4.137   5.745
 9705SOL    HW130014   6.217   4.175   5.814
 9705SOL    HW230015   6.225   4.078   5.683
 9706SOL     OW30016   2.076   1.411   1.191
 9706SOL    HW130017   1.980   1.382   1.199
 9706SOL    HW230018   2.126   1.347   1.133
 9707SOL     OW30019   5.532   4.996   1.806
 9707SOL    HW130020   5.446   4.943   1.803
 9707SOL    HW230021   5.571   4.991   1.897
 9708SOL     OW30022   1.298   1.424   2.073
 9708SOL    HW130023   1.269   1.457   2.163
 9708SOL    HW230024   1.384   1.469   2.048
 9709SOL     OW30025   5.364   4.132   1.677
 9709SOL    HW130026   5.348   4.090   1.766
 9709SOL    HW230027   5.320   4.222   1.674
 9710SOL     OW30028   6.128   0.387   6.880
 9710SOL    HW130029   6.145   0.381   6.782
 9710SOL    HW230030   6.163   0.304   6.924
 9711SOL     OW30031   3.945   6.110   5.749
 9711SOL    HW130032   4.037   6.079   5.772
 9711SOL    HW230033   3.909   6.056   5.673
 9712SOL     OW30034   6.115   3.320   0.390
 9712SOL    HW130035   6.023   3.282   0.402
 9712SOL    HW230036   6.177   3.249   0.358
 9713SOL     OW30037   2.484   6.654   2.977
 9713SOL    HW130038   2.438   6.567   2.998
 9713SOL    HW230039   2.433   6.703   2.907
 9714SOL     OW30040   3.995   5.843   5.159
 9714SOL    HW130041   4.093   5.860   5.156
 9714SOL    HW230042   3.964   5.844   5.254
 9715SOL     OW30043   6.439   4.797   0.146
 9715SOL    HW130044   6.422   4.749   0.060
 9715SOL    HW230045   6.433   4.733   0.222
 9716SOL     OW30046   4.253   3.807   6.659
 9716SOL    HW130047   4.243   3.770   6.567
 9716SOL    HW230048   4.198   3.890   6.668
 9717SOL     OW30049   4.766   6.053   6.791
 9717SOL    HW130050   4.699   6.127   6.798
 9717SOL    HW230051   4.812   6.057   6.703
 9718SOL     OW30052   4.702   2.289   0.293
 9718SOL    HW130053   4.704   2.233   0.376
 9718SOL    HW230054   4.607   2.308   0.268
 9719SOL     OW30055   5.238   6.908   5.716
 9719SOL    HW130056   5.182   6.905   5.633
 9719SOL    HW230057   5.274   7.000   5.729
 9720SOL     OW30058   1.638   3.452   2.683
 9720SOL    HW130059   1.655   3.367   2.632
 9720SOL    HW230060   1.705   3.521   2.656
 9721SOL     OW30061   0.500   1.777   0.339
 9721SOL    HW130062   0.582   1.723   0.318
 9721SOL    HW230063   0.479   1.835   0.260
 9722SOL     OW30064   3.560   2.113   5.007
 9722SOL    HW130065   3.462   2.105   5.028
 9722SOL    HW230066   3.608   2.152   5.085
 9723SOL     OW30067   6.293   4.789   4.781
 9723SOL    HW130068   6.320   4.702   4.741
 9723SOL    HW230069   6.370   4.852   4.780
 9724SOL     OW30070   2.192   5.247   6.569
 9724SOL    HW130071   2.238   5.175   6.619
 9724SOL    HW230072   2.123   5.207   6.508
 9725SOL     OW30073   3.981   5.848   5.444
 9725SOL    HW130074   4.068   5.887   5.476
 9725SOL    HW230075   3.980   5.750   5.461
 9726SOL     OW30076   5.379   0.921   4.247
 9726SOL    HW130077   5.438   0.971   4.310
 9726SOL    HW230078   5.307   0.981   4.213
 9727SOL     OW30079   0.598   2.558   0.185
 9727SOL    HW130080   0.541   2.493   0.235
 9727SOL    HW230081   0.671   2.509   0.138
 9728SOL     OW30082   6.560   1.665   6.145
 9728SOL    HW130083   6.561   1.725   6.065
 9728SOL    HW230084   6.565   1.721   6.228
 9729SOL     OW30085   1.475   3.399   4.122
 9729SOL    HW130086   1.544   3.441   4.063
 9729SOL    HW230087   1.519   3.365   4.205
 9730SOL     OW30088   0.792   4.524   3.564
 9730SOL    HW130089   0.764   4.529   3.660
 9730SOL    HW230090   0.729   4.465   3.514
 9731SOL     OW30091   4.941   5.177   2.042
 9731SOL    HW130092   4.956   5.079   2.032
 9731SOL    HW230093   4.990   5.210   2.123
 9732SOL     OW30094   0.163   3.041   2.128
 9732SOL    HW130095   0.114   2.993   2.201
 9732SOL    HW230096   0.140   3.138   2.132
 9733SOL     OW30097   5.934   5.368   1.470
 9733SOL    HW130098   5.987   5.453   1.463
 9733SOL    HW230099   5.996   5.291   1.485
 9734SOL     OW30100   6.466   6.585   0.536
 9734SOL    HW130101   6.395   6.639   0.491
 9734SOL    HW230102   6.544   6.575   0.475
 9735SOL     OW30103   1.576   2.507   3.249
 9735SOL    HW130104   1.609   2.575   3.184
 9735SOL    HW230105   1.493   2.540   3.294
 9736SOL     OW30106   4.769   2.237   5.882
 9736SOL    HW130107   4.747   2.163   5.819
 9736SOL    HW230108   4.866   2.259   5.875
 9737SOL     OW30109   5.624   2.046   3.200
 9737SOL    HW130110   5.618   2.036   3.101
 9737SOL    HW230111   5.659   1.962   3.241
 9738SOL     OW30112   2.025   6.556   0.404
 9738SOL    HW130113   2.014   6.560   0.503
 9738SOL    HW230114   2.095   6.489   0.381
 9739SOL     OW30115   4.886   5.914   6.990
 9739SOL    HW130116   4.965   5.888   6.934
 9739SOL    HW230117   4.824   5.971   6.936
 9740SOL     OW30118   5.490   0.582   2.890
 9740SOL    HW130119   5.445   0.610   2.974
 9740SOL    HW230120   5.490   0.482   2.884
 9741SOL     OW30121   2.346   1.187   3.682
 9741SOL    HW130122   2.281   1.262   3.673
 9741SOL    HW230123   2.353   1.160   3.778
 9742SOL     OW30124   4.713   1.143   0.050
 9742SOL    HW130125   4.707   1.111   0.144
 9742SOL    HW230126   4.797   1.195   0.037
 9743SOL     OW30127   0.395   3.624   3.231
 9743SOL    HW130128   0.396   3.554   3.160
 9743SOL    HW230129   0.429   3.586   3.317
 9744SOL     OW30130   2.213   6.895   3.136
 9744SOL    HW130131   2.134   6.895   3.198
 9744SOL    HW230132   2.280   6.828   3.169
 9745SOL     OW30133   5.132   2.617   6.275
 9745SOL    HW130134   5.103   2.711   6.292
 9745SOL    HW230135   5.232   2.610   6.286
 9746SOL     OW30136   5.053   6.230   6.730
 9746SOL    HW130137   5.118   6.159   6.701
 9746SOL    HW230138   5.076   6.316   6.686
 9747SOL     OW30139   2.659   2.180   1.648
 9747SOL    HW130140   2.613   2.259   1.608
 9747SOL    HW230141   2.605   2.097   1.631
 9748SOL     OW30142   0.059   6.797   2.871
 9748SOL    HW130143   0.086   6.716   2.818
 9748SOL    HW230144   0.021   6.768   2.959
 9749SOL     OW30145   0.669   1.338   2.461
 9749SOL    HW130146   0.719   1.260   2.499
 9749SOL    HW230147   0.571   1.320   2.465
 9750SOL     OW30148   6.422   4.950   4.175
 9750SOL    HW130149   6.385   4.857   4.175
 9750SOL    HW230150   6.475   4.965   4.092
 9751SOL     OW30151   2.141   0.196   0.466
 9751SOL    HW130152   2.139   0.277   0.407
 9751SOL    HW230153   2.209   0.209   0.538
 9752SOL     OW30154   3.892   2.542   6.179
 9752SOL    HW130155   3.913   2.459   6.128
 9752SOL    HW230156   3.796   2.540   6.209
 9753SOL     OW30157   1.146   5.989   6.070
 9753SOL    HW130158   1.085   5.931   6.124
 9753SOL    HW230159   1.218   5.933   6.029
 9754SOL     OW30160   4.261   0.034   0.432
 9754SOL    HW130161   4.202   7.001   0.489
 9754SOL    HW230162   4.244   0.130   0.452
 9755SOL     OW30163   3.228   3.920   5.435
 9755SOL    HW130164   3.218   3.828   5.399
 9755SOL    HW230165   3.138   3.956   5.460
 9756SOL     OW30166   6.040   1.663   6.235
 9756SOL    HW130167   6.118   1.709   6.193
 9756SOL    HW230168   6.006   1.592   6.173
 9757SOL     OW30169   5.418   4.367   4.881
 9757SOL    HW130170   5.488   4.402   4.942
 9757SOL    HW230171   5.451   4.283   4.837
 9758SOL     OW30172   1.213   1.227   6.759
 9758SOL    HW130173   1.236   1.181   6.845
 9758SOL    HW230174   1.135   1.287   6.773
 9759SOL     OW30175   1.011   1.921   0.106
 9759SOL    HW130176   0.959   1.955   0.184
 9759SOL    HW230177   1.090   1.868   0.140
 9760SOL     OW30178   5.159   3.032   6.840
 9760SOL    HW130179   5.106   2.986   6.769
 9760SOL    HW230180   5.256   3.012   6.828
 9761SOL     OW30181   1.314   1.958   2.446
 9761SOL    HW130182   1.292   1.995   2.536
 9761SOL    HW230183   1.229   1.941   2.395
 9762SOL     OW30184   3.356   1.527   4.870
 9762SOL    HW130185   3.328   1.566   4.958
 9762SOL    HW230186   3.287   1.547   4.801
 9763SOL     OW30187   5.949   1.291   2.983
 9763SOL    HW130188   6.048   1.296   2.999
 9763SOL    HW230189   5.932   1.248   2.894
 9764SOL     OW30190   6.416   1.642   3.075
 9764SOL    HW130191   6.486   1.703   3.113
 9764SOL    HW230192   6.368   1.596   3.149
 9765SOL     OW30193   6.530   0.857   3.230
 9765SOL    HW130194   6.596   0.893   3.164
 9765SOL    HW230195   6.448   0.826   3.181
 9766SOL     OW30196   2.459   0.510   2.388
 9766SOL    HW130197   2.464   0.437   2.321
 9766SOL    HW230198   2.410   0.588   2.349
 9767SOL     OW30199   2.131   2.685   4.919
 9767SOL    HW130200   2.144   2.595   4.878
 9767SOL    HW230201   2.208   2.744   4.894
 9768SOL     OW30202   4.937   1.963   1.118
 9768SOL    HW130203   4.987   1.902   1.055
 9768SOL    HW230204   4.994   2.041   1.141
 9769SOL     OW30205   3.712   0.978   5.444
 9769SOL    HW130206   3.642   0.964   5.374
 9769SOL    HW230207   3.795   1.015   5.401
 9770SOL     OW30208   4.059   1.814   5.350
 9770SOL    HW130209   4.073   1.825   5.449
 9770SOL    HW230210   4.145   1.786   5.308
 9771SOL     OW30211   2.672   6.411   1.468
 9771SOL    HW130212   2.652   6.504   1.501
 9771SOL    HW230213   2.722   6.417   1.381
 9772SOL     OW30214   2.019   6.343   1.516
 9772SOL    HW130215   1.969   6.415   1.468
 9772SOL    HW230216   2.111   6.375   1.538
 9773SOL     OW30217   5.685   4.992   3.669
 9773SOL    HW130218   5.754   5.046   3.717
 9773SOL    HW230219   5.700   5.000   3.570
 9774SOL     OW30220   0.581   4.340   3.462
 9774SOL    HW130221   0.510   4.397   3.420
 9774SOL    HW230222   0.564   4.244   3.439
 9775SOL     OW30223   2.759   0.324   3.339
 9775SOL    HW130224   2.755   0.301   3.436
 9775SOL    HW230225   2.666   0.329   3.302
 9776SOL     OW30226   1.318   4.755   6.165
 9776SOL    HW130227   1.377   4.799   6.234
 9776SOL    HW230228   1.336   4.657   6.163
 9777SOL     OW30229   5.345   6.232   0.333
 9777SOL    HW130230   5.275   6.167   0.363
 9777SOL    HW230231   5.421   6.230   0.398
 9778SOL     OW30232   0.223   2.123   4.591
 9778SOL    HW130233   0.172   2.064   4.653
 9778SOL    HW230234   0.180   2.214   4.587
 9779SOL     OW30235   0.301   2.366   3.680
 9779SOL    HW130236   0.330   2.283   3.633
 9779SOL    HW230237   0.213   2.351   3.724
 9780SOL     OW30238   2.149   1.371   0.803
 9780SOL    HW130239   2.162   1.303   0.875
 9780SOL    HW230240   2.235   1.419   0.787
 9781SOL     OW30241   2.234   3.135   4.548
 9781SOL    HW130242   2.260   3.176   4.635
 9781SOL    HW230243   2.205   3.208   4.485
 9782SOL     OW30244   0.869   2.122   0.727
 9782SOL    HW130245   0.801   2.079   0.668
 9782SOL    HW230246   0.955   2.070   0.721
 9783SOL     OW30247   4.280   1.975   3.752
 9783SOL    HW130248   4.337   1.933   3.823
 9783SOL    HW230249   4.248   1.905   3.688
 9784SOL     OW30250   3.911   0.972   5.674
 9784SOL    HW130251   3.973   1.012   5.606
 9784SOL    HW230252   3.830   1.031   5.684
 9785SOL     OW30253   5.778   2.654   5.546
 9785SOL    HW130254   5.783   2.615   5.637
 9785SOL    HW230255   5.707   2.724   5.542
 9786SOL     OW30256   2.492   3.986   0.219
 9786SOL    HW130257   2.496   4.069   0.275
 9786SOL    HW230258   2.412   3.932   0.245
 9787SOL     OW30259   3.370   2.925   3.839
 9787SOL    HW130260   3.401   2.882   3.755
 9787SOL    HW230261   3.353   3.023   3.822
 9788SOL     OW30262   0.713   6.604   1.909
 9788SOL    HW130263   0.675   6.694   1.932
 9788SOL    HW230264   0.812   6.612   1.897
 9789SOL     OW30265   2.499   6.845   6.636
 9789SOL    HW130266   2.554   6.779   6.585
 9789SOL    HW230267   2.553   6.883   6.711
 9790SOL     OW30268   6.062   4.784   5.982
 9790SOL    HW130269   6.089   4.774   5.886
 9790SOL    HW230270   6.055   4.693   6.023
 9791SOL     OW30271   0.847   0.573   0.112
 9791SOL    HW130272   0.905   0.618   0.043
 9791SOL    HW230273   0.789   0.642   0.156
 9792SOL     OW30274   3.431   4.853   0.906
 9792SOL    HW130275   3.513   4.837   0.851
 9792SOL    HW230276   3.366   4.908   0.853
 9793SOL     OW30277   4.118   0.091   2.473
 9793SOL    HW130278   4.086   0.003   2.436
 9793SOL    HW230279   4.133   0.082   2.571
 9794SOL     OW30280   5.602   4.452   5.079
 9794SOL    HW130281   5.569   4.412   5.165
 9794SOL    HW230282   5.693   4.417   5.060
 9795SOL     OW30283   0.952   2.935   4.592
 9795SOL    HW130284   0.899   2.978   4.666
 9795SOL    HW230285   1.048   2.930   4.618
 9796SOL     OW30286   3.471   3.880   3.462
 9796SOL    HW130287   3.387   3.928   3.436
 9796SOL    HW230288   3.450   3.786   3.486
 9797SOL     OW30289   2.061   5.976   0.130
 9797SOL    HW130290   2.093   5.901   0.072
 9797SOL    HW230291   2.088   6.064   0.091
 9798SOL     OW30292   2.209   1.235   1.029
 9798SOL    HW130293   2.306   1.216   1.019
 9798SOL    HW230294   2.161   1.152   1.060
 9799SOL     OW30295   3.520   4.023   6.602
 9799SOL    HW130296   3.533   3.980   6.513
 9799SOL    HW230297   3.434   3.993   6.641
 9800SOL     OW30298   5.683   4.208   4.179
 9800SOL    HW130299   5.755   4.176   4.242
 9800SOL    HW230300   5.599   4.156   4.196
 9801SOL     OW30301   5.243   5.122   0.302
 9801SOL    HW130302   5.241   5.119   0.202
 9801SOL    HW230303   5.288   5.040   0.337
 9802SOL     OW30304   4.848   4.961   0.607
 9802SOL    HW130305   4.878   4.866   0.615
 9802SOL    HW230306   4.748   4.965   0.612
 9803SOL     OW30307   2.185   3.614   6.084
 9803SOL    HW130308   2.258   3.596   6.019
 9803SOL    HW230309   2.154   3.527   6.124
 9804SOL     OW30310   0.109   5.735   2.961
 9804SOL    HW130311   0.087   5.649   2.914
 9804SOL    HW230312   0.110   5.719   3.060
 9805SOL     OW30313   0.385   6.276   3.091
 9805SOL    HW130314   0.452   6.248   3.160
 9805SOL    HW230315   0.365   6.200   3.030
 9806SOL     OW30316   1.846   1.707   6.925
 9806SOL    HW130317   1.875   1.740   6.835
 9806SOL    HW230318   1.918   1.727   6.992
 9807SOL     OW30319   3.322   3.095   2.386
 9807SOL    HW130320   3.237   3.046   2.406
 9807SOL    HW230321   3.312   3.191   2.414
 9808SOL     OW30322   3.414   5.593   4.168
 9808SOL    HW130323   3.400   5.531   4.092
 9808SOL    HW230324   3.498   5.646   4.153
 9809SOL     OW30325   0.822   3.337   0.560
 9809SOL    HW130326   0.799   3.288   0.476
 9809SOL    HW230327   0.738   3.369   0.604
 9810SOL     OW30328   2.978   2.205   4.931
 9810SOL    HW130329   2.916   2.136   4.968
 9810SOL    HW230330   3.032   2.244   5.006
 9811SOL     OW30331   6.074   4.153   3.460
 9811SOL    HW130332   6.160   4.197   3.485
 9811SOL    HW230333   5.999   4.192   3.514
 9812SOL     OW30334   2.630   1.149   4.456
 9812SOL    HW130335   2.569   1.070   4.464
 9812SOL    HW230336   2.725   1.119   4.462
 9813SOL     OW30337   5.317   2.013   1.187
 9813SOL    HW130338   5.267   1.989   1.270
 9813SOL    HW230339   5.359   2.104   1.198
 9814SOL     OW30340   5.691   1.464   6.955
 9814SOL    HW130341   5.635   1.542   6.986
 9814SOL    HW230342   5.631   1.394   6.916
 9815SOL     OW30343   4.643   2.681   4.384
 9815SOL    HW130344   4.684   2.762   4.344
 9815SOL    HW230345   4.701   2.601   4.366
 9816SOL     OW30346   0.852   0.899   6.001
 9816SOL    HW130347   0.942   0.913   5.959
 9816SOL    HW230348   0.812   0.814   5.968
 9817SOL     OW30349   1.005   0.289   3.249
 9817SOL    HW130350   0.924   0.266   3.194
 9817SOL    HW230351   1.082   0.307   3.188
 9818SOL     OW30352   6.406   2.380   4.787
 9818SOL    HW130353   6.373   2.398   4.694
 9818SOL    HW230354   6.360   2.441   4.851
 9819SOL     OW30355   4.741   2.958   3.468
 9819SOL    HW130356   4.801   3.018   3.522
 9819SOL    HW230357   4.650   2.956   3.510
 9820SOL     OW30358   3.634   3.187   6.329
 9820SOL    HW130359   3.631   3.087   6.330
 9820SOL    HW230360   3.542   3.224   6.337
 9821SOL     OW30361   5.744   0.745   6.602
 9821SOL    HW130362   5.716   0.812   6.533
 9821SOL    HW230363   5.669   0.729   6.665
 9822SOL     OW30364   1.269   6.922   3.270
 9822SOL    HW130365   1.249   6.892   3.363
 9822SOL    HW230366   1.189   6.906   3.211
 9823SOL     OW30367   3.861   0.060   1.315
 9823SOL    HW130368   3.889   0.033   1.223
 9823SOL    HW230369   3.860   7.003   1.375
 9824SOL     OW30370   1.762   4.319   5.660
 9824SOL    HW130371   1.762   4.332   5.759
 9824SOL    HW230372   1.782   4.407   5.615
 9825SOL     OW30373   3.085   4.952   5.338
 9825SOL    HW130374   3.146   4.882   5.301
 9825SOL    HW230375   3.051   5.008   5.263
 9826SOL     OW30376   5.328   5.244   6.097
 9826SOL    HW130377   5.253   5.288   6.047
 9826SOL    HW230378   5.301   5.150   6.121
 9827SOL     OW30379   2.120   3.469   4.209
 9827SOL    HW130380   2.118   3.422   4.121
 9827SOL    HW230381   2.123   3.568   4.194
 9828SOL     OW30382   2.666   3.079   6.288
 9828SOL    HW130383   2.636   3.018   6.215
 9828SOL    HW230384   2.634   3.045   6.376
 9829SOL     OW30385   3.147   6.417   0.682
 9829SOL    HW130386   3.156   6.366   0.597
 9829SOL    HW230387   3.146   6.354   0.760
 9830SOL     OW30388   5.229   2.605   1.420
 9830SOL    HW130389   5.139   2.581   1.456
 9830SOL    HW230390   5.258   2.536   1.354
 9831SOL     OW30391   1.597   6.401   1.108
 9831SOL    HW130392   1.514   6.360   1.145
 9831SOL    HW230393   1.677   6.357   1.148
 9832SOL     OW30394   4.958   4.966   2.603
 9832SOL    HW130395   4.927   4.872   2.587
 9832SOL    HW230396   4.994   5.004   2.518
 9833SOL     OW30397   3.448   2.930   4.750
 9833SOL    HW130398   3.514   2.899   4.818
 9833SOL    HW230399   3.367   2.967   4.795
 9834SOL     OW30400   3.381   4.379   5.502
 9834SOL    HW130401   3.336   4.450   5.446
 9834SOL    HW230402   3.314   4.310   5.528
 9835SOL     OW30403   3.225   2.726   5.916
 9835SOL    HW130404   3.270   2.746   6.002
 9835SOL    HW230405   3.272   2.651   5.869
 9836SOL     OW30406   6.190   4.572   3.592
 9836SOL    HW130407   6.197   4.579   3.492
 9836SOL    HW230408   6.099   4.601   3.620
 9837SOL     OW30409   3.291   0.469   2.549
 9837SOL    HW130410   3.236   0.388   2.525
 9837SOL    HW230411   3.385   0.455   2.519
 9838SOL     OW30412   0.649   6.942   5.892
 9838SOL    HW130413   0.686   6.925   5.801
 9838SOL    HW230414   0.628   0.015   5.902
 9839SOL     OW30415   5.333   1.278   3.258
 9839SOL    HW130416   5.395   1.243   3.188
 9839SOL    HW230417   5.273   1.347   3.218
 9840SOL     OW30418   0.752   0.935   1.290
 9840SOL    HW130419   0.826   0.987   1.248
 9840SOL    HW230420   0.778   0.911   1.384
 9841SOL     OW30421   1.263   3.839   4.678
 9841SOL    HW130422   1.221   3.873   4.594
 9841SOL    HW230423   1.288   3.743   4.666
 9842SOL     OW30424   3.988   3.897   2.965
 9842SOL    HW130425   4.000   3.934   2.872
 9842SOL    HW230426   3.967   3.972   3.028
 9843SOL     OW30427   5.770   1.915   1.598
 9843SOL    HW130428   5.774   1.838   1.661
 9843SOL    HW230429   5.744   1.998   1.649
 9844SOL     OW30430   5.801   0.584   2.562
 9844SOL    HW130431   5.783   0.506   2.621
 9844SOL    HW230432   5.724   0.598   2.500
 9845SOL     OW30433   2.769   1.406   3.715
 9845SOL    HW130434   2.710   1.485   3.729
 9845SOL    HW230435   2.762   1.374   3.621
 9846SOL     OW30436   4.093   3.817   2.096
 9846SOL    HW130437   4.059   3.724   2.081
 9846SOL    HW230438   4.123   3.856   2.009
 9847SOL     OW30439   3.368   2.875   5.159
 9847SOL    HW130440   3.443   2.815   5.184
 9847SOL    HW230441   3.286   2.852   5.212
 9848SOL     OW30442   3.791   2.977   6.074
 9848SOL    HW130443   3.879   2.949   6.036
 9848SOL    HW230444   3.722   2.980   6.001
 9849SOL     OW30445   6.397   0.428   0.453
 9849SOL    HW130446   6.392   0.514   0.402
 9849SOL    HW230447   6.413   0.448   0.550
 9850SOL     OW30448   5.848   6.124   2.792
 9850SOL    HW130449   5.864   6.215   2.830
 9850SOL    HW230450   5.753   6.116   2.762
 9851SOL     OW30451   4.488   2.342   5.859
 9851SOL    HW130452   4.471   2.368   5.764
 9851SOL    HW230453   4.570   2.284   5.864
 9852SOL     OW30454   4.269   2.048   2.783
 9852SOL    HW130455   4.302   2.140   2.763
 9852SOL    HW230456   4.209   2.016   2.710
 9853SOL     OW30457   5.064   4.033   3.629
 9853SOL    HW130458   5.161   4.047   3.648
 9853SOL    HW230459   5.047   4.049   3.532
 9854SOL     OW30460   6.792   5.013   4.557
 9854SOL    HW130461   6.692   5.008   4.557
 9854SOL    HW230462   6.829   4.943   4.618
 9855SOL     OW30463   2.493   4.050   1.544
 9855SOL    HW130464   2.477   4.069   1.447
 9855SOL    HW230465   2.535   3.960   1.554
 9856SOL     OW30466   4.983   3.721   6.740
 9856SOL    HW130467   5.070   3.713   6.692
 9856SOL    HW230468   4.982   3.660   6.819
 9857SOL     OW30469   4.020   1.795   4.658
 9857SOL    HW130470   3.934   1.745   4.649
 9857SOL    HW230471   4.002   1.889   4.687
 9858SOL     OW30472   0.494   0.541   1.336
 9858SOL    HW130473   0.515   0.460   1.392
 9858SOL    HW230474   0.579   0.577   1.298
 9859SOL     OW30475   6.205   6.979   2.004
 9859SOL    HW130476   6.227   6.898   1.950
 9859SOL    HW230477   6.213   0.036   1.946
 9860SOL     OW30478   6.949   1.322   3.049
 9860SOL    HW130479   6.916   1.411   3.078
 9860SOL    HW230480   6.975   1.325   2.953
 9861SOL     OW30481   3.800   6.868   2.826
 9861SOL    HW130482   3.794   6.911   2.916
 9861SOL    HW230483   3.707   6.852   2.790
 9862SOL     OW30484   2.624   5.154   0.499
 9862SOL    HW130485   2.720   5.148   0.473
 9862SOL    HW230486   2.607   5.243   0.542
 9863SOL     OW30487   3.343   0.267   3.539
 9863SOL    HW130488   3.280   0.343   3.555
 9863SOL    HW230489   3.295   0.195   3.488
 9864SOL     OW30490   3.617   5.964   4.069
 9864SOL    HW130491   3.544   5.977   4.002
 9864SOL    HW230492   3.686   6.036   4.058
 9865SOL     OW30493   1.816   0.889   3.968
 9865SOL    HW130494   1.888   0.929   3.910
 9865SOL    HW230495   1.734   0.946   3.961
 9866SOL     OW30496   5.673   4.749   5.239
 9866SOL    HW130497   5.704   4.663   5.280
 9866SOL    HW230498   5.589   4.733   5.189
 9867SOL     OW30499   6.165   0.535   0.697
 9867SOL    HW130500   6.150   0.448   0.651
 9867SOL    HW230501   6.259   0.539   0.730
 9868SOL     OW30502   0.925   3.796   5.652
 9868SOL    HW130503   0.972   3.826   5.735
 9868SOL    HW230504   0.954   3.703   5.629
 9869SOL     OW30505   1.523   3.236   2.319
 9869SOL    HW130506   1.530   3.246   2.220
 9869SOL    HW230507   1.453   3.169   2.341
 9870SOL     OW30508   4.597   5.649   2.928
 9870SOL    HW130509   4.526   5.621   2.993
 9870SOL    HW230510   4.569   5.622   2.836
 9871SOL     OW30511   0.899   6.738   6.248
 9871SOL    HW130512   0.857   6.707   6.333
 9871SOL    HW230513   0.827   6.763   6.183
 9872SOL     OW30514   2.602   4.649   4.261
 9872SOL    HW130515   2.540   4.598   4.201
 9872SOL    HW230516   2.615   4.598   4.346
 9873SOL     OW30517   2.930   2.306   1.049
 9873SOL    HW130518   2.948   2.389   1.103
 9873SOL    HW230519   2.882   2.239   1.106
 9874SOL     OW30520   0.972   3.488   3.993
 9874SOL    HW130521   1.058   3.442   4.016
 9874SOL    HW230522   0.899   3.419   3.985
 9875SOL     OW30523   6.885   6.706   2.191
 9875SOL    HW130524   6.943   6.677   2.114
 9875SOL    HW230525   6.868   6.804   2.184
 9876SOL     OW30526   6.135   0.601   2.704
 9876SOL    HW130527   6.073   0.564   2.634
 9876SOL    HW230528   6.133   0.701   2.701
 9877SOL     OW30529   0.383   6.291   3.625
 9877SOL    HW130530   0.338   6.349   3.557
 9877SOL    HW230531   0.418   6.209   3.581
 9878SOL     OW30532   2.842   4.992   5.113
 9878SOL    HW130533   2.915   4.966   5.051
 9878SOL    HW230534   2.807   4.910   5.159
 9879SOL     OW30535   5.569   5.273   4.117
 9879SOL    HW130536   5.544   5.182   4.149
 9879SOL    HW230537   5.659   5.271   4.075
 9880SOL     OW30538   3.238   1.363   5.689
 9880SOL    HW130539   3.203   1.363   5.783
 9880SOL    HW230540   3.337   1.373   5.691
 9881SOL     OW30541   1.589   1.526   5.133
 9881SOL    HW130542   1.514   1.560   5.077
 9881SOL    HW230543   1.574   1.552   5.229
 9882SOL     OW30544   0.787   2.550   3.555
 9882SOL    HW130545   0.877   2.543   3.512
 9882SOL    HW230546   0.727   2.478   3.520
 9883SOL     OW30547   1.251   5.478   0.118
 9883SOL    HW130548   1.210   5.567   0.135
 9883SOL    HW230549   1.331   5.489   0.059
 9884SOL     OW30550   4.426   1.955   2.984
 9884SOL    HW130551   4.445   2.025   3.053
 9884SOL    HW230552   4.374   1.996   2.909
 9885SOL     OW30553   6.779   2.674   5.363
 9885SOL    HW130554   6.819   2.590   5.325
 9885SOL    HW230555   6.724   2.652   5.443
 9886SOL     OW30556   1.049   3.845   1.973
 9886SOL    HW130557   0.969   3.822   1.918
 9886SOL    HW230558   1.127   3.790   1.943
 9887SOL     OW30559   3.991   0.592   6.124
 9887SOL    HW130560   3.959   0.683   6.150
 9887SOL    HW230561   4.087   0.582   6.149
 9888SOL     OW30562   5.500   4.282   2.172
 9888SOL    HW130563   5.586   4.240   2.145
 9888SOL    HW230564   5.517   4.375   2.204
 9889SOL     OW30565   0.196   5.550   1.569
 9889SOL    HW130566   0.144   5.495   1.635
 9889SOL    HW230567   0.271   5.496   1.532
 9890SOL     OW30568   1.630   1.973   0.536
 9890SOL    HW130569   1.716   1.979   0.486
 9890SOL    HW230570   1.648   1.944   0.630
 9891SOL     OW30571   5.665   3.227   1.974
 9891SOL    HW130572   5.620   3.315   1.990
 9891SOL    HW230573   5.624   3.157   2.033
 9892SOL     OW30574   6.859   4.858   0.908
 9892SOL    HW130575   6.947   4.811   0.897
 9892SOL    HW230576   6.796   4.827   0.836
 9893SOL     OW30577   1.043   7.011   1.426
 9893SOL    HW130578   1.079   0.049   1.495
 9893SOL    HW230579   1.103   6.932   1.417
 9894SOL     OW30580   2.643   2.545   1.853
 9894SOL    HW130581   2.730   2.519   1.895
 9894SOL    HW230582   2.645   2.523   1.756
 9895SOL     OW30583   6.539   4.385   5.031
 9895SOL    HW130584   6.612   4.412   4.968
 9895SOL    HW230585   6.575   4.387   5.125
 9896SOL     OW30586   6.475   0.824   6.782
 9896SOL    HW130587   6.386   0.846   6.741
 9896SOL    HW230588   6.516   0.749   6.731
 9897SOL     OW30589   5.995   5.745   2.829
 9897SOL    HW130590   6.080   5.710   2.868
 9897SOL    HW230591   6.016   5.804   2.751
 9898SOL     OW30592   1.106   6.142   4.115
 9898SOL    HW130593   1.135   6.087   4.194
 9898SOL    HW230594   1.186   6.185   4.073
 9899SOL     OW30595   0.732   6.210   0.548
 9899SOL    HW130596   0.782   6.202   0.462
 9899SOL    HW230597   0.648   6.262   0.533
 9900SOL     OW30598   2.141   3.446   3.146
 9900SOL    HW130599   2.042   3.440   3.142
 9900SOL    HW230600   2.173   3.524   3.091
 9901SOL     OW30601   2.780   0.519   6.853
 9901SOL    HW130602   2.765   0.577   6.933
 9901SOL    HW230603   2.812   0.575   6.777
 9902SOL     OW30604   3.287   4.986   0.730
 9902SOL    HW130605   3.327   4.996   0.639
 9902SOL    HW230606   3.188   4.998   0.725
 9903SOL     OW30607   4.775   2.041   2.521
 9903SOL    HW130608   4.789   2.069   2.616
 9903SOL    HW230609   4.720   2.110   2.474
 9904SOL     OW30610   1.216   3.903   0.146
 9904SOL    HW130611   1.181   3.995   0.133
 9904SOL    HW230612   1.263   3.873   0.063
 9905SOL     OW30613   2.037   6.995   6.050
 9905SOL    HW130614   1.984   6.935   6.110
 9905SOL    HW230615   2.090   6.940   5.986
 9906SOL     OW30616   2.334   3.715   1.713
 9906SOL    HW130617   2.356   3.631   1.763
 9906SOL    HW230618   2.279   3.775   1.771
 9907SOL     OW30619   6.768   0.550   1.323
 9907SOL    HW130620   6.721   0.485   1.382
 9907SOL    HW230621   6.839   0.598   1.376
 9908SOL     OW30622   5.905   1.539   4.878
 9908SOL    HW130623   5.950   1.617   4.923
 9908SOL    HW230624   5.945   1.524   4.788
 9909SOL     OW30625   4.821   0.483   3.498
 9909SOL    HW130626   4.742   0.429   3.527
 9909SOL    HW230627   4.891   0.482   3.569
 9910SOL     OW30628   1.358   4.511   2.419
 9910SOL    HW130629   1.305   4.596   2.419
 9910SOL    HW230630   1.295   4.434   2.428
 9911SOL     OW30631   2.572   5.613   2.119
 9911SOL    HW130632   2.616   5.527   2.091
 9911SOL    HW230633   2.608   5.688   2.064
 9912SOL     OW30634   3.511   0.149   1.590
 9912SOL    HW130635   3.602   0.164   1.629
 9912SOL    HW230636   3.443   0.197   1.645
 9913SOL     OW30637   5.828   3.660   0.944
 9913SOL    HW130638   5.902   3.643   0.879
 9913SOL    HW230639   5.847   3.612   1.030
 9914SOL     OW30640   5.809   1.101   4.820
 9914SOL    HW130641   5.808   1.016   4.767
 9914SOL    HW230642   5.901   1.117   4.855
 9915SOL     OW30643   5.194   0.275   3.403
 9915SOL    HW130644   5.139   0.336   3.459
 9915SOL    HW230645   5.140   0.245   3.324
 9916SOL     OW30646   2.000   2.242   2.915
 9916SOL    HW130647   1.946   2.223   2.833
 9916SOL    HW230648   2.065   2.167   2.930
 9917SOL     OW30649   5.435   4.348   6.518
 9917SOL    HW130650   5.494   4.267   6.509
 9917SOL    HW230651   5.392   4.368   6.430
 9918SOL     OW30652   3.308   1.264   2.933
 9918SOL    HW130653   3.297   1.171   2.967
 9918SOL    HW230654   3.402   1.277   2.900
 9919SOL     OW30655   0.455   5.081   1.280
 9919SOL    HW130656   0.442   5.129   1.194
 9919SOL    HW230657   0.368   5.073   1.328
 9920SOL     OW30658   4.791   1.504   2.370
 9920SOL    HW130659   4.791   1.593   2.416
 9920SOL    HW230660   4.817   1.516   2.274
 9921SOL     OW30661   3.466   0.171   5.234
 9921SOL    HW130662   3.528   0.126   5.299
 9921SOL    HW230663   3.460   0.268   5.256
 9922SOL     OW30664   2.488   4.067   0.739
 9922SOL    HW130665   2.586   4.058   0.753
 9922SOL    HW230666   2.455   4.151   0.783
 9923SOL     OW30667   4.972   5.081   6.628
 9923SOL    HW130668   4.895   5.142   6.646
 9923SOL    HW230669   5.054   5.118   6.672
 9924SOL     OW30670   6.515   1.765   4.432
 9924SOL    HW130671   6.416   1.755   4.441
 9924SOL    HW230672   6.535   1.819   4.350
 9925SOL     OW30673   0.687   3.762   4.082
 9925SOL    HW130674   0.785   3.755   4.062
 9925SOL    HW230675   0.649   3.843   4.039
 9926SOL     OW30676   3.998   2.883   1.154
 9926SOL    HW130677   4.042   2.825   1.223
 9926SOL    HW230678   4.001   2.837   1.066
 9927SOL     OW30679   6.790   6.878   0.635
 9927SOL    HW130680   6.695   6.889   0.603
 9927SOL    HW230681   6.850   6.936   0.581
 9928SOL     OW30682   4.834   3.867   2.411
 9928SOL    HW130683   4.815   3.808   2.332
 9928SOL    HW230684   4.887   3.816   2.479
 9929SOL     OW30685   3.564   4.205   5.609
 9929SOL    HW130686   3.504   4.279   5.577
 9929SOL    HW230687   3.641   4.245   5.659
 9930SOL     OW30688   6.454   6.350   4.803
 9930SOL    HW130689   6.457   6.399   4.716
 9930SOL    HW230690   6.375   6.288   4.805
 9931SOL     OW30691   0.924   5.596   4.518
 9931SOL    HW130692   1.017   5.622   4.493
 9931SOL    HW230693   0.862   5.671   4.497
 9932SOL     OW30694   3.839   3.405   6.848
 9932SOL    HW130695   3.808   3.319   6.889
 9932SOL    HW230696   3.898   3.385   6.770
 9933SOL     OW30697   0.117   5.717   3.237
 9933SOL    HW130698   0.061   5.644   3.276
 9933SOL    HW230699   0.096   5.804   3.282
 9934SOL     OW30700   6.276   2.392   5.685
 9934SOL    HW130701   6.371   2.418   5.700
 9934SOL    HW230702   6.216   2.457   5.733
 9935SOL     OW30703   2.840   6.341   6.873
 9935SOL    HW130704   2.782   6.413   6.911
 9935SOL    HW230705   2.918   6.326   6.933
 9936SOL     OW30706   6.913   5.429   6.925
 9936SOL    HW130707   6.987   5.496   6.923
 9936SOL    HW230708   6.837   5.464   6.979
 9937SOL     OW30709   6.327   1.801   0.920
 9937SOL    HW130710   6.249   1.784   0.980
 9937SOL    HW230711   6.387   1.869   0.962
 9938SOL     OW30712   6.575   4.993   3.143
 9938SOL    HW130713   6.538   4.901   3.134
 9938SOL    HW230714   6.671   4.988   3.170
 9939SOL     OW30715   4.449   2.268   1.056
 9939SOL    HW130716   4.460   2.293   1.152
 9939SOL    HW230717   4.438   2.169   1.048
 9940SOL     OW30718   1.106   0.093   1.149
 9940SOL    HW130719   1.033   0.102   1.082
 9940SOL    HW230720   1.071   0.046   1.230
 9941SOL     OW30721   3.710   3.395   5.622
 9941SOL    HW130722   3.685   3.347   5.538
 9941SOL    HW230723   3.713   3.494   5.605
 9942SOL     OW30724   2.226   5.285   2.844
 9942SOL    HW130725   2.199   5.370   2.799
 9942SOL    HW230726   2.186   5.282   2.935
 9943SOL     OW30727   0.303   4.637   5.780
 9943SOL    HW130728   0.355   4.584   5.714
 9943SOL    HW230729   0.229   4.686   5.733
 9944SOL     OW30730   0.966   4.474   6.364
 9944SOL    HW130731   1.040   4.408   6.355
 9944SOL    HW230732   0.975   4.545   6.294
 9945SOL     OW30733   5.171   5.201   6.783
 9945SOL    HW130734   5.189   5.291   6.742
 9945SOL    HW230735   5.245   5.139   6.761
 9946SOL     OW30736   5.739   0.648   3.889
 9946SOL    HW130737   5.679   0.640   3.809
 9946SOL    HW230738   5.686   0.683   3.967
 9947SOL     OW30739   2.265   2.094   4.756
 9947SOL    HW130740   2.223   2.008   4.726
 9947SOL    HW230741   2.241   2.111   4.852
 9948SOL     OW30742   5.751   4.102   4.913
 9948SOL    HW130743   5.829   4.145   4.959
 9948SOL    HW230744   5.737   4.145   4.825
 9949SOL     OW30745   6.529   4.889   4.674
 9949SOL    HW130746   6.548   4.805   4.623
 9949SOL    HW230747   6.480   4.953   4.616
 9950SOL     OW30748   5.552   5.982   5.223
 9950SOL    HW130749   5.528   6.024   5.310
 9950SOL    HW230750   5.646   6.008   5.199
 9951SOL     OW30751   6.857   1.033   4.112
 9951SOL    HW130752   6.931   0.974   4.144
 9951SOL    HW230753   6.894   1.098   4.045
 9952SOL     OW30754   1.256   3.875   0.734
 9952SOL    HW130755   1.251   3.834   0.643
 9952SOL    HW230756   1.303   3.963   0.728
 9953SOL     OW30757   5.420   2.423   4.714
 9953SOL    HW130758   5.361   2.447   4.791
 9953SOL    HW230759   5.416   2.495   4.645
 9954SOL     OW30760   6.779   0.730   6.126
 9954SOL    HW130761   6.755   0.734   6.222
 9954SOL    HW230762   6.851   0.662   6.112
 9955SOL     OW30763   6.280   3.786   5.368
 9955SOL    HW130764   6.238   3.704   5.330
 9955SOL    HW230765   6.260   3.864   5.309
 9956SOL     OW30766   1.423   0.045   2.114
 9956SOL    HW130767   1.436   0.108   2.038
 9956SOL    HW230768   1.464   6.980   2.091
 9957SOL     OW30769   4.845   5.884   2.728
 9957SOL    HW130770   4.825   5.976   2.696
 9957SOL    HW230771   4.937   5.882   2.768
 9958SOL     OW30772   3.104   5.399   0.233
 9958SOL    HW130773   3.162   5.457   0.176
 9958SOL    HW230774   3.119   5.421   0.329
 9959SOL     OW30775   4.171   3.553   5.042
 9959SOL    HW130776   4.262   3.544   5.002
 9959SOL    HW230777   4.171   3.626   5.110
 9960SOL     OW30778   0.059   0.563   1.747
 9960SOL    HW130779   0.145   0.544   1.793
 9960SOL    HW230780   7.008   0.557   1.813
 9961SOL     OW30781   1.453   4.811   4.579
 9961SOL    HW130782   1.425   4.848   4.667
 9961SOL    HW230783   1.525   4.743   4.592
 9962SOL     OW30784   6.315   5.647   1.890
 9962SOL    HW130785   6.228   5.695   1.897
 9962SOL    HW230786   6.337   5.606   1.978
 9963SOL     OW30787   3.147   3.298   6.694
 9963SOL    HW130788   3.235   3.342   6.676
 9963SOL    HW230789   3.132   3.223   6.630
 9964SOL     OW30790   5.692   4.503   5.427
 9964SOL    HW130791   5.785   4.487   5.459
 9964SOL    HW230792   5.652   4.580   5.477
 9965SOL     OW30793   3.491   6.484   6.060
 9965SOL    HW130794   3.433   6.404   6.073
 9965SOL    HW230795   3.435   6.567   6.061
 9966SOL     OW30796   1.753   5.897   2.214
 9966SOL    HW130797   1.754   5.946   2.127
 9966SOL    HW230798   1.658   5.879   2.240
 9967SOL     OW30799   7.020   0.137   2.163
 9967SOL    HW130800   7.012   0.236   2.175
 9967SOL    HW230801   0.017   0.095   2.252
 9968SOL     OW30802   3.591   3.862   0.495
 9968SOL    HW130803   3.534   3.830   0.571
 9968SOL    HW230804   3.624   3.783   0.444
 9969SOL     OW30805   1.874   2.868   2.970
 9969SOL    HW130806   1.890   2.927   3.049
 9969SOL    HW230807   1.784   2.826   2.978
 9970SOL     OW30808   5.386   3.665   2.606
 9970SOL    HW130809   5.342   3.678   2.518
 9970SOL    HW230810   5.461   3.731   2.617
 9971SOL     OW30811   2.083   5.661   1.001
 9971SOL    HW130812   2.030   5.745   1.012
 9971SOL    HW230813   2.145   5.672   0.923
 9972SOL     OW30814   4.192   4.877   1.434
 9972SOL    HW130815   4.264   4.836   1.378
 9972SOL    HW230816   4.205   4.976   1.439
 9973SOL     OW30817   4.481   1.890   4.142
 9973SOL    HW130818   4.483   1.853   4.050
 9973SOL    HW230819   4.539   1.834   4.202
 9974SOL     OW30820   0.218   2.887   3.101
 9974SOL    HW130821   0.165   2.854   3.023
 9974SOL    HW230822   0.166   2.873   3.185
 9975SOL     OW30823   6.188   4.266   0.042
 9975SOL    HW130824   6.282   4.299   0.032
 9975SOL    HW230825   6.189   4.168   0.062
 9976SOL     OW30826   7.017   6.391   5.369
 9976SOL    HW130827   0.041   6.374   5.456
 9976SOL    HW230828   6.923   6.418   5.388
 9977SOL     OW30829   6.881   5.633   5.392
 9977SOL    HW130830   6.787   5.606   5.407
 9977SOL    HW230831   6.917   5.589   5.310
 9978SOL     OW30832   6.775   2.584   3.712
 9978SOL    HW130833   6.843   2.542   3.653
 9978SOL    HW230834   6.819   2.650   3.773
 9979SOL     OW30835   6.207   5.572   5.170
 9979SOL    HW130836   6.119   5.563   5.123
 9979SOL    HW230837   6.277   5.521   5.120
 9980SOL     OW30838   1.680   1.251   5.418
 9980SOL    HW130839   1.648   1.249   5.513
 9980SOL    HW230840   1.723   1.163   5.396
 9981SOL     OW30841   2.159   1.897   1.862
 9981SOL    HW130842   2.122   1.869   1.773
 9981SOL    HW230843   2.142   1.825   1.929
 9982SOL     OW30844   6.818   0.103   3.964
 9982SOL    HW130845   6.871   0.080   4.046
 9982SOL    HW230846   6.879   0.106   3.884
 9983SOL     OW30847   0.018   2.403   2.925
 9983SOL    HW130848   0.060   2.403   3.016
 9983SOL    HW230849   6.946   2.429   2.932
 9984SOL     OW30850   1.815   0.683   0.072
 9984SOL    HW130851   1.895   0.710   0.019
 9984SOL    HW230852   1.809   0.740   0.154
 9985SOL     OW30853   1.595   1.245   0.906
 9985SOL    HW130854   1.691   1.232   0.934
 9985SOL    HW230855   1.540   1.265   0.987
 9986SOL     OW30856   5.877   4.467   5.665
 9986SOL    HW130857   5.821   4.456   5.747
 9986SOL    HW230858   5.954   4.404   5.668
 9987SOL     OW30859   0.010   3.067   3.864
 9987SOL    HW130860   6.947   3.074   3.815
 9987SOL    HW230861   7.016   3.050   3.961
 9988SOL     OW30862   6.785   5.665   4.558
 9988SOL    HW130863   6.881   5.662   4.527
 9988SOL    HW230864   6.753   5.759   4.557
 9989SOL     OW30865   6.272   3.716   3.506
 9989SOL    HW130866   6.220   3.796   3.537
 9989SOL    HW230867   6.343   3.745   3.442
 9990SOL     OW30868   2.514   5.529   1.775
 9990SOL    HW130869   2.467   5.474   1.707
 9990SOL    HW230870   2.452   5.598   1.813
 9991SOL     OW30871   2.291   2.905   3.588
 9991SOL    HW130872   2.263   2.993   3.627
 9991SOL    HW230873   2.212   2.846   3.577
 9992SOL     OW30874   5.704   4.886   0.165
 9992SOL    HW130875   5.712   4.826   0.085
 9992SOL    HW230876   5.786   4.877   0.221
 9993SOL     OW30877   3.175   0.182   0.461
 9993SOL    HW130878   3.200   0.207   0.554
 9993SOL    HW230879   3.123   0.096   0.462
 9994SOL     OW30880   6.897   4.534   3.508
 9994SOL    HW130881   6.931   4.456   3.456
 9994SOL    HW230882   6.961   4.610   3.499
 9995SOL     OW30883   4.493   1.114   3.122
 9995SOL    HW130884   4.459   1.060   3.198
 9995SOL    HW230885   4.444   1.088   3.038
 9996SOL     OW30886   2.849   3.167   1.456
 9996SOL    HW130887   2.810   3.255   1.485
 9996SOL    HW230888   2.777   3.099   1.450
 9997SOL     OW30889   3.523   1.520   0.672
 9997SOL    HW130890   3.575   1.501   0.589
 9997SOL    HW230891   3.480   1.610   0.663
 9998SOL     OW30892   5.277   4.554   6.293
 9998SOL    HW130893   5.213   4.485   6.326
 9998SOL    HW230894   5.230   4.641   6.281
 9999SOL     OW30895   6.636   3.285   5.245
 9999SOL    HW130896   6.543   3.263   5.218
 9999SOL    HW230897   6.697   3.277   5.166
10000SOL     OW30898   0.261   4.449   6.756
10000SOL    HW130899   0.351   4.489   6.738
10000SOL    HW230900   0.230   4.476   6.847
10001SOL     OW30901   4.795   6.963   1.968
10001SOL    HW130902   4.799   6.863   1.972
10001SOL    HW230903   4.839   7.001   2.050
10002SOL     OW30904   2.141   0.238   2.700
10002SOL    HW130905   2.240   0.236   2.712
10002SOL    HW230906   2.104   0.147   2.722
10003SOL     OW30907   3.598   1.279   3.309
10003SOL    HW130908   3.561   1.215   3.377
10003SOL    HW230909   3.574   1.249   3.217
10004SOL     OW30910   6.335   2.677   4.829
10004SOL    HW130911   6.288   2.697   4.743
10004SOL    HW230912   6.432   2.659   4.811
10005SOL     OW30913   4.663   0.207   4.729
10005SOL    HW130914   4.613   0.121   4.714
10005SOL    HW230915   4.703   0.237   4.643
10006SOL     OW30916   5.454   6.187   3.869
10006SOL    HW130917   5.492   6.100   3.901
10006SOL    HW230918   5.392   6.169   3.792
10007SOL     OW30919   6.793   5.161   5.807
10007SOL    HW130920   6.892   5.162   5.799
10007SOL    HW230921   6.764   5.071   5.840
10008SOL     OW30922   4.219   1.311   4.647
10008SOL    HW130923   4.163   1.363   4.711
10008SOL    HW230924   4.267   1.373   4.586
10009SOL     OW30925   1.881   3.961   1.739
10009SOL    HW130926   1.965   3.928   1.697
10009SOL    HW230927   1.823   3.883   1.763
10010SOL     OW30928   2.667   0.767   5.889
10010SOL    HW130929   2.647   0.791   5.794
10010SOL    HW230930   2.606   0.693   5.917
10011SOL     OW30931   5.414   0.954   5.785
10011SOL    HW130932   5.501   0.992   5.816
10011SOL    HW230933   5.340   1.017   5.807
10012SOL     OW30934   5.911   1.680   3.483
10012SOL    HW130935   5.906   1.622   3.565
10012SOL    HW230936   5.961   1.631   3.411
10013SOL     OW30937   0.288   1.070   3.148
10013SOL    HW130938   0.256   1.164   3.160
10013SOL    HW230939   0.246   1.011   3.217
10014SOL     OW30940   6.836   4.023   0.728
10014SOL    HW130941   6.908   3.955   0.716
10014SOL    HW230942   6.869   4.113   0.698
10015SOL     OW30943   1.795   4.820   0.514
10015SOL    HW130944   1.873   4.880   0.498
10015SOL    HW230945   1.826   4.724   0.511
10016SOL     OW30946   1.186   0.768   6.476
10016SOL    HW130947   1.151   0.675   6.470
10016SOL    HW230948   1.182   0.800   6.571
10017SOL     OW30949   2.739   1.690   2.843
10017SOL    HW130950   2.699   1.770   2.798
10017SOL    HW230951   2.730   1.610   2.783
10018SOL     OW30952   4.615   0.213   6.250
10018SOL    HW130953   4.537   0.228   6.311
10018SOL    HW230954   4.606   0.273   6.170
10019SOL     OW30955   0.548   1.108   3.083
10019SOL    HW130956   0.593   1.158   3.158
10019SOL    HW230957   0.452   1.094   3.106
10020SOL     OW30958   1.712   2.521   0.996
10020SOL    HW130959   1.657   2.581   1.054
10020SOL    HW230960   1.738   2.440   1.047
10021SOL     OW30961   0.199   2.282   1.418
10021SOL    HW130962   0.275   2.265   1.356
10021SOL    HW230963   0.218   2.240   1.507
10022SOL     OW30964   2.666   1.176   6.120
10022SOL    HW130965   2.575   1.150   6.153
10022SOL    HW230966   2.670   1.275   6.107
10023SOL     OW30967   0.778   4.971   1.095
10023SOL    HW130968   0.783   4.893   1.157
10023SOL    HW230969   0.868   5.014   1.088
10024SOL     OW30970   2.309   5.829   2.190
10024SOL    HW130971   2.405   5.853   2.177
10024SOL    HW230972   2.259   5.910   2.222
10025SOL     OW30973   1.389   1.540   0.415
10025SOL    HW130974   1.405   1.638   0.424
10025SOL    HW230975   1.474   1.491   0.436
10026SOL     OW30976   5.237   6.453   3.513
10026SOL    HW130977   5.309   6.522   3.505
10026SOL    HW230978   5.242   6.409   3.603
10027SOL     OW30979   6.749   3.897   4.554
10027SOL    HW130980   6.741   3.860   4.462
10027SOL    HW230981   6.790   3.988   4.551
10028SOL     OW30982   1.130   0.762   2.467
10028SOL    HW130983   1.113   0.805   2.378
10028SOL    HW230984   1.197   0.817   2.518
10029SOL     OW30985   4.872   1.505   4.526
10029SOL    HW130986   4.932   1.574   4.486
10029SOL    HW230987   4.800   1.550   4.579
10030SOL     OW30988   1.831   0.597   3.468
10030SOL    HW130989   1.809   0.642   3.555
10030SOL    HW230990   1.910   0.537   3.481
10031SOL     OW30991   5.508   4.685   4.858
10031SOL    HW130992   5.539   4.591   4.871
10031SOL    HW230993   5.560   4.727   4.784
10032SOL     OW30994   2.976   0.997   5.080
10032SOL    HW130995   2.971   1.069   5.148
10032SOL    HW230996   2.900   1.005   5.016
10033SOL     OW30997   6.622   3.157   4.550
10033SOL    HW130998   6.562   3.221   4.598
10033SOL    HW230999   6.637   3.190   4.456
10034SOL     OW31000   3.418   0.363   4.467
10034SOL    HW131001   3.497   0.341   4.524
10034SOL    HW231002   3.448   0.399   4.379
10035SOL     OW31003   6.848   5.194   1.751
10035SOL    HW131004   6.774   5.175   1.815
10035SOL    HW231005   6.884   5.107   1.716
10036SOL     OW31006   6.405   2.213   0.734
10036SOL    HW131007   6.461   2.244   0.656
10036SOL    HW231008   6.392   2.114   0.728
10037SOL     OW31009   0.325   1.588   0.461
10037SOL    HW131010   0.390   1.651   0.418
10037SOL    HW231011   0.233   1.609   0.429
10038SOL     OW31012   6.065   0.352   0.130
10038SOL    HW131013   5.966   0.340   0.131
10038SOL    HW231014   6.093   0.390   0.041
10039SOL     OW31015   3.575   0.481   4.239
10039SOL    HW131016   3.671   0.464   4.259
10039SOL    HW231017   3.567   0.537   4.157
10040SOL     OW31018   5.766   5.401   6.459
10040SOL    HW131019   5.847   5.379   6.404
10040SOL    HW231020   5.735   5.319   6.507
10041SOL     OW31021   3.652   6.127   6.808
10041SOL    HW131022   3.722   6.065   6.772
10041SOL    HW231023   3.691   6.181   6.883
10042SOL     OW31024   0.818   1.537   3.598
10042SOL    HW131025   0.857   1.588   3.674
10042SOL    HW231026   0.842   1.440   3.607
10043SOL     OW31027   5.998   1.708   5.172
10043SOL    HW131028   6.053   1.652   5.233
10043SOL    HW231029   5.903   1.705   5.200
10044SOL     OW31030   2.565   2.596   5.262
10044SOL    HW131031   2.523   2.553   5.342
10044SOL    HW231032   2.578   2.693   5.279
10045SOL     OW31033   4.132   0.646   1.661
10045SOL    HW131034   4.147   0.732   1.709
10045SOL    HW231035   4.053   0.654   1.600
10046SOL     OW31036   1.902   3.345   1.300
10046SOL    HW131037   1.858   3.348   1.210
10046SOL    HW231038   1.855   3.278   1.358
10047SOL     OW31039   0.446   3.105   5.782
10047SOL    HW131040   0.507   3.073   5.710
10047SOL    HW231041   0.468   3.058   5.868
10048SOL     OW31042   6.736   6.449   2.821
10048SOL    HW131043   6.688   6.493   2.897
10048SOL    HW231044   6.833   6.474   2.824
10049SOL     OW31045   1.466   1.642   5.854
10049SOL    HW131046   1.422   1.616   5.768
10049SOL    HW231047   1.410   1.612   5.931
10050SOL     OW31048   5.655   3.125   4.668
10050SOL    HW131049   5.557   3.114   4.678
10050SOL    HW231050   5.675   3.218   4.635
10051SOL     OW31051   1.164   4.270   5.130
10051SOL    HW131052   1.075   4.226   5.115
10051SOL    HW231053   1.189   4.322   5.048
10052SOL     OW31054   1.848   1.137   3.408
10052SOL    HW131055   1.785   1.071   3.365
10052SOL    HW231056   1.915   1.168   3.340
10053SOL     OW31057   4.630   5.736   4.244
10053SOL    HW131058   4.616   5.767   4.150
10053SOL    HW231059   4.709   5.675   4.247
10054SOL     OW31060   5.548   4.058   5.080
10054SOL    HW131061   5.612   4.083   5.008
10054SOL    HW231062   5.563   4.116   5.160
10055SOL     OW31063   6.690   2.832   6.404
10055SOL    HW131064   6.636   2.863   6.326
10055SOL    HW231065   6.784   2.814   6.375
10056SOL     OW31066   5.380   4.111   2.910
10056SOL    HW131067   5.348   4.023   2.946
10056SOL    HW231068   5.377   4.109   2.810
10057SOL     OW31069   5.783   3.996   5.635
10057SOL    HW131070   5.878   3.972   5.618
10057SOL    HW231071   5.734   4.006   5.549
10058SOL     OW31072   6.740   3.438   4.169
10058SOL    HW131073   6.722   3.341   4.187
10058SOL    HW231074   6.691   3.466   4.086
10059SOL     OW31075   6.328   1.886   0.673
10059SOL    HW131076   6.414   1.841   0.651
10059SOL    HW231077   6.291   1.848   0.758
10060SOL     OW31078   2.547   1.733   2.359
10060SOL    HW131079   2.538   1.705   2.263
10060SOL    HW231080   2.641   1.760   2.378
10061SOL     OW31081   4.328   1.343   3.513
10061SOL    HW131082   4.318   1.259   3.566
10061SOL    HW231083   4.342   1.320   3.417
10062SOL     OW31084   6.821   6.498   4.225
10062SOL    HW131085   6.873   6.420   4.259
10062SOL    HW231086   6.881   6.577   4.214
10063SOL     OW31087   2.152   2.030   4.469
10063SOL    HW131088   2.221   1.986   4.528
10063SOL    HW231089   2.188   2.116   4.434
10064SOL     OW31090   4.058   5.968   6.545
10064SOL    HW131091   3.993   5.948   6.619
10064SOL    HW231092   4.056   5.895   6.478
10065SOL     OW31093   1.441   1.049   1.732
10065SOL    HW131094   1.473   1.116   1.799
10065SOL    HW231095   1.520   1.013   1.682
10066SOL     OW31096   0.451   3.654   5.082
10066SOL    HW131097   0.520   3.673   5.012
10066SOL    HW231098   0.409   3.566   5.063
10067SOL     OW31099   0.895   3.194   6.556
10067SOL    HW131100   0.949   3.132   6.613
10067SOL    HW231101   0.850   3.143   6.483
10068SOL     OW31102   1.762   3.586   2.952
10068SOL    HW131103   1.811   3.538   3.025
10068SOL    HW231104   1.788   3.549   2.863
10069SOL     OW31105   3.643   5.121   1.874
10069SOL    HW131106   3.685   5.138   1.963
10069SOL    HW231107   3.545   5.140   1.879
10070SOL     OW31108   2.143   5.916   4.380
10070SOL    HW131109   2.081   5.922   4.302
10070SOL    HW231110   2.118   5.984   4.448
10071SOL     OW31111   0.596   6.919   4.153
10071SOL    HW131112   0.583   6.959   4.062
10071SOL    HW231113   0.691   6.933   4.183
10072SOL     OW31114   0.126   1.567   2.432
10072SOL    HW131115   0.044   1.622   2.445
10072SOL    HW231116   0.111   1.474   2.466
10073SOL     OW31117   6.280   2.695   3.860
10073SOL    HW131118   6.327   2.700   3.948
10073SOL    HW231119   6.211   2.767   3.855
10074SOL     OW31120   1.275   5.254   0.458
10074SOL    HW131121   1.234   5.345   0.447
10074SOL    HW231122   1.247   5.195   0.382
10075SOL     OW31123   2.613   0.782   2.188
10075SOL    HW131124   2.648   0.725   2.262
10075SOL    HW231125   2.521   0.751   2.163
10076SOL     OW31126   5.020   5.404   3.348
10076SOL    HW131127   5.001   5.418   3.250
10076SOL    HW231128   4.996   5.487   3.398
10077SOL     OW31129   5.812   3.377   0.037
10077SOL    HW131130   5.871   3.455   0.056
10077SOL    HW231131   5.840   3.299   0.094
10078SOL     OW31132   6.732   6.310   4.745
10078SOL    HW131133   6.787   6.305   4.828
10078SOL    HW231134   6.639   6.341   4.767
10079SOL     OW31135   5.952   2.521   4.002
10079SOL    HW131136   5.863   2.477   4.013
10079SOL    HW231137   5.942   2.619   4.016
10080SOL     OW31138   5.641   1.011   5.929
10080SOL    HW131139   5.718   0.952   5.908
10080SOL    HW231140   5.661   1.065   6.011
10081SOL     OW31141   1.219   1.725   6.355
10081SOL    HW131142   1.276   1.690   6.429
10081SOL    HW231143   1.123   1.724   6.383
10082SOL     OW31144   1.206   5.405   2.988
10082SOL    HW131145   1.179   5.328   2.930
10082SOL    HW231146   1.153   5.486   2.962
10083SOL     OW31147   3.826   5.611   3.553
10083SOL    HW131148   3.867   5.577   3.468
10083SOL    HW231149   3.782   5.535   3.601
10084SOL     OW31150   0.613   0.186   5.471
10084SOL    HW131151   0.566   0.128   5.405
10084SOL    HW231152   0.544   0.236   5.524
10085SOL     OW31153   3.899   6.465   0.169
10085SOL    HW131154   3.823   6.518   0.206
10085SOL    HW231155   3.955   6.430   0.243
10086SOL     OW31156   5.981   6.260   2.118
10086SOL    HW131157   6.065   6.314   2.112
10086SOL    HW231158   5.992   6.176   2.065
10087SOL     OW31159   0.198   6.359   4.523
10087SOL    HW131160   0.208   6.431   4.455
10087SOL    HW231161   0.258   6.377   4.601
10088SOL     OW31162   6.913   2.370   0.188
10088SOL    HW131163   6.909   2.466   0.161
10088SOL    HW231164   7.008   2.339   0.186
10089SOL     OW31165   4.089   1.622   2.627
10089SOL    HW131166   4.149   1.700   2.641
10089SOL    HW231167   4.008   1.631   2.684
10090SOL     OW31168   1.106   5.279   1.608
10090SOL    HW131169   1.100   5.224   1.525
10090SOL    HW231170   1.191   5.257   1.657
10091SOL     OW31171   6.639   5.566   6.281
10091SOL    HW131172   6.626   5.508   6.361
10091SOL    HW231173   6.565   5.551   6.216
10092SOL     OW31174   0.842   3.206   5.556
10092SOL    HW131175   0.818   3.252   5.471
10092SOL    HW231176   0.942   3.202   5.565
10093SOL     OW31177   5.317   3.724   5.869
10093SOL    HW131178   5.277   3.668   5.796
10093SOL    HW231179   5.370   3.798   5.829
10094SOL     OW31180   3.255   6.727   0.917
10094SOL    HW131181   3.186   6.657   0.896
10094SOL    HW231182   3.212   6.817   0.918
10095SOL     OW31183   5.072   2.442   5.018
10095SOL    HW131184   5.164   2.466   4.986
10095SOL    HW231185   5.079   2.370   5.087
10096SOL     OW31186   4.776   0.755   2.577
10096SOL    HW131187   4.766   0.805   2.663
10096SOL    HW231188   4.854   0.692   2.584
10097SOL     OW31189   2.146   2.044   5.984
10097SOL    HW131190   2.172   2.047   6.080
10097SOL    HW231191   2.046   2.033   5.977
10098SOL     OW31192   3.171   5.369   4.365
10098SOL    HW131193   3.149   5.451   4.312
10098SOL    HW231194   3.110   5.364   4.445
10099SOL     OW31195   6.319   4.078   1.795
10099SOL    HW131196   6.270   3.992   1.784
10099SOL    HW231197   6.416   4.060   1.809
10100SOL     OW31198   5.158   5.649   5.326
10100SOL    HW131199   5.130   5.743   5.348
10100SOL    HW231200   5.247   5.650   5.280
10101SOL     OW31201   6.467   2.744   2.068
10101SOL    HW131202   6.437   2.778   1.979
10101SOL    HW231203   6.426   2.654   2.085
10102SOL     OW31204   5.993   0.031   0.681
10102SOL    HW131205   5.898   0.028   0.650
10102SOL    HW231206   6.026   0.125   0.676
10103SOL     OW31207   0.682   0.186   5.926
10103SOL    HW131208   0.715   0.249   5.855
10103SOL    HW231209   0.712   0.218   6.016
10104SOL     OW31210   2.087   0.471   6.056
10104SOL    HW131211   2.002   0.424   6.031
10104SOL    HW231212   2.069   0.533   6.132
10105SOL     OW31213   3.044   1.495   6.085
10105SOL    HW131214   3.015   1.564   6.020
10105SOL    HW231215   3.016   1.404   6.052
10106SOL     OW31216   5.196   6.460   1.675
10106SOL    HW131217   5.221   6.422   1.586
10106SOL    HW231218   5.098   6.446   1.692
10107SOL     OW31219   5.099   4.854   6.526
10107SOL    HW131220   5.193   4.849   6.560
10107SOL    HW231221   5.044   4.909   6.590
10108SOL     OW31222   1.682   3.225   0.525
10108SOL    HW131223   1.586   3.203   0.545
10108SOL    HW231224   1.732   3.238   0.610
10109SOL     OW31225   0.202   1.172   0.049
10109SOL    HW131226   0.129   1.104   0.048
10109SOL    HW231227   0.177   1.249   7.015
10110SOL     OW31228   4.687   4.938   2.845
10110SOL    HW131229   4.627   4.978   2.777
10110SOL    HW231230   4.782   4.960   2.823
10111SOL     OW31231   0.977   2.236   1.818
10111SOL    HW131232   0.983   2.239   1.918
10111SOL    HW231233   0.898   2.182   1.791
10112SOL     OW31234   6.392   3.132   3.708
10112SOL    HW131235   6.454   3.211   3.703
10112SOL    HW231236   6.401   3.077   3.625
10113SOL     OW31237   5.168   1.378   6.806
10113SOL    HW131238   5.159   1.331   6.718
10113SOL    HW231239   5.103   1.454   6.809
10114SOL     OW31240   4.100   2.116   3.371
10114SOL    HW131241   4.025   2.124   3.305
10114SOL    HW231242   4.161   2.042   3.344
10115SOL     OW31243   3.181   1.050   4.677
10115SOL    HW131244   3.149   1.108   4.602
10115SOL    HW231245   3.103   1.007   4.722
10116SOL     OW31246   6.208   0.552   5.534
10116SOL    HW131247   6.250   0.518   5.450
10116SOL    HW231248   6.220   0.651   5.540
10117SOL     OW31249   6.559   5.405   5.170
10117SOL    HW131250   6.632   5.358   5.120
10117SOL    HW231251   6.498   5.338   5.211
10118SOL     OW31252   2.949   5.193   4.849
10118SOL    HW131253   2.873   5.131   4.826
10118SOL    HW231254   2.918   5.288   4.841
10119SOL     OW31255   0.550   5.228   4.239
10119SOL    HW131256   0.496   5.293   4.184
10119SOL    HW231257   0.583   5.154   4.180
10120SOL     OW31258   1.329   2.895   2.634
10120SOL    HW131259   1.411   2.953   2.637
10120SOL    HW231260   1.307   2.864   2.726
10121SOL     OW31261   6.375   4.294   0.731
10121SOL    HW131262   6.353   4.197   0.740
10121SOL    HW231263   6.399   4.331   0.821
10122SOL     OW31264   0.316   1.613   3.778
10122SOL    HW131265   0.240   1.664   3.737
10122SOL    HW231266   0.356   1.666   3.853
10123SOL     OW31267   6.022   6.401   1.251
10123SOL    HW131268   5.983   6.393   1.343
10123SOL    HW231269   6.117   6.370   1.252
10124SOL     OW31270   1.215   4.848   2.657
10124SOL    HW131271   1.202   4.750   2.642
10124SOL    HW231272   1.130   4.888   2.691
10125SOL     OW31273   1.674   1.666   0.284
10125SOL    HW131274   1.748   1.731   0.302
10125SOL    HW231275   1.640   1.629   0.371
10126SOL     OW31276   6.033   0.779   6.635
10126SOL    HW131277   5.933   0.785   6.637
10126SOL    HW231278   6.072   0.871   6.641
10127SOL     OW31279   1.736   4.946   5.962
10127SOL    HW131280   1.812   4.881   5.966
10127SOL    HW231281   1.703   4.953   5.867
10128SOL     OW31282   3.343   0.782   0.488
10128SOL    HW131283   3.347   0.693   0.441
10128SOL    HW231284   3.421   0.790   0.550
10129SOL     OW31285   6.078   1.902   3.463
10129SOL    HW131286   6.014   1.831   3.490
10129SOL    HW231287   6.125   1.938   3.544
10130SOL     OW31288   1.438   2.111   2.278
10130SOL    HW131289   1.525   2.085   2.236
10130SOL    HW231290   1.414   2.044   2.348
10131SOL     OW31291   1.937   0.717   4.609
10131SOL    HW131292   1.941   0.792   4.543
10131SOL    HW231293   1.890   0.639   4.569
10132SOL     OW31294   6.513   0.405   2.175
10132SOL    HW131295   6.574   0.365   2.243
10132SOL    HW231296   6.438   0.451   2.221
10133SOL     OW31297   4.818   5.867   0.991
10133SOL    HW131298   4.829   5.852   0.893
10133SOL    HW231299   4.878   5.942   1.020
10134SOL     OW31300   5.584   0.660   2.120
10134SOL    HW131301   5.623   0.611   2.042
10134SOL    HW231302   5.617   0.754   2.120
10135SOL     OW31303   5.711   0.111   3.844
10135SOL    HW131304   5.784   0.120   3.912
10135SOL    HW231305   5.746   0.065   3.763
10136SOL     OW31306   4.874   2.161   2.747
10136SOL    HW131307   4.829   2.145   2.835
10136SOL    HW231308   4.859   2.256   2.719
10137SOL     OW31309   0.143   5.770   5.846
10137SOL    HW131310   0.113   5.865   5.854
10137SOL    HW231311   0.069   5.715   5.809
10138SOL     OW31312   5.540   1.254   6.779
10138SOL    HW131313   5.451   1.211   6.766
10138SOL    HW231314   5.611   1.184   6.777
10139SOL     OW31315   3.441   3.758   5.862
10139SOL    HW131316   3.427   3.682   5.926
10139SOL    HW231317   3.459   3.841   5.914
10140SOL     OW31318   6.813   5.744   6.155
10140SOL    HW131319   6.897   5.767   6.203
10140SOL    HW231320   6.754   5.689   6.215
10141SOL     OW31321   2.942   1.557   3.921
10141SOL    HW131322   2.942   1.545   4.021
10141SOL    HW231323   2.891   1.483   3.878
10142SOL     OW31324   5.975   6.407   4.445
10142SOL    HW131325   6.023   6.379   4.528
10142SOL    HW231326   6.011   6.354   4.367
10143SOL     OW31327   5.671   3.447   0.645
10143SOL    HW131328   5.690   3.538   0.609
10143SOL    HW231329   5.755   3.393   0.647
10144SOL     OW31330   3.584   6.130   5.256
10144SOL    HW131331   3.678   6.144   5.285
10144SOL    HW231332   3.521   6.163   5.327
10145SOL     OW31333   5.467   6.281   1.173
10145SOL    HW131334   5.530   6.317   1.241
10145SOL    HW231335   5.448   6.351   1.104
10146SOL     OW31336   0.612   3.551   4.257
10146SOL    HW131337   0.625   3.629   4.197
10146SOL    HW231338   0.538   3.493   4.222
10147SOL     OW31339   4.562   5.610   6.412
10147SOL    HW131340   4.507   5.675   6.358
10147SOL    HW231341   4.627   5.661   6.468
10148SOL     OW31342   1.017   4.860   6.855
10148SOL    HW131343   1.028   4.830   6.950
10148SOL    HW231344   1.070   4.944   6.841
10149SOL     OW31345   4.698   4.491   1.223
10149SOL    HW131346   4.642   4.419   1.181
10149SOL    HW231347   4.719   4.561   1.155
10150SOL     OW31348   4.534   4.151   0.411
10150SOL    HW131349   4.607   4.126   0.475
10150SOL    HW231350   4.547   4.101   0.325
10151SOL     OW31351   6.600   0.424   5.577
10151SOL    HW131352   6.688   0.377   5.571
10151SOL    HW231353   6.551   0.392   5.658
10152SOL     OW31354   5.489   6.014   2.594
10152SOL    HW131355   5.551   6.074   2.646
10152SOL    HW231356   5.512   6.018   2.497
10153SOL     OW31357   5.209   4.828   4.019
10153SOL    HW131358   5.228   4.926   4.026
10153SOL    HW231359   5.295   4.777   4.023
10154SOL     OW31360   3.866   5.201   5.433
10154SOL    HW131361   3.835   5.231   5.343
10154SOL    HW231362   3.806   5.239   5.503
10155SOL     OW31363   4.444   1.982   5.451
10155SOL    HW131364   4.519   2.047   5.436
10155SOL    HW231365   4.395   2.006   5.534
10156SOL     OW31366   4.939   0.427   0.960
10156SOL    HW131367   4.904   0.454   1.050
10156SOL    HW231368   4.889   0.476   0.889
10157SOL     OW31369   0.137   2.664   1.599
10157SOL    HW131370   0.136   2.640   1.502
10157SOL    HW231371   0.185   2.751   1.612
10158SOL     OW31372   5.574   6.408   1.985
10158SOL    HW131373   5.599   6.483   1.923
10158SOL    HW231374   5.575   6.441   2.079
10159SOL     OW31375   3.758   3.562   3.328
10159SOL    HW131376   3.838   3.507   3.351
10159SOL    HW231377   3.679   3.532   3.382
10160SOL     OW31378   1.805   4.091   2.963
10160SOL    HW131379   1.778   4.050   2.876
10160SOL    HW231380   1.903   4.111   2.962
10161SOL     OW31381   3.668   4.843   6.415
10161SOL    HW131382   3.744   4.843   6.350
10161SOL    HW231383   3.627   4.934   6.419
10162SOL     OW31384   1.948   4.388   2.224
10162SOL    HW131385   1.902   4.434   2.148
10162SOL    HW231386   1.955   4.291   2.205
10163SOL     OW31387   1.046   6.670   4.965
10163SOL    HW131388   1.137   6.711   4.953
10163SOL    HW231389   0.982   6.710   4.899
10164SOL     OW31390   6.674   2.989   3.345
10164SOL    HW131391   6.736   2.940   3.284
10164SOL    HW231392   6.693   2.965   3.440
10165SOL     OW31393   6.400   3.019   4.227
10165SOL    HW131394   6.343   2.997   4.307
10165SOL    HW231395   6.354   3.089   4.172
10166SOL     OW31396   0.889   2.607   1.005
10166SOL    HW131397   0.875   2.645   0.913
10166SOL    HW231398   0.845   2.666   1.073
10167SOL     OW31399   0.437   6.269   6.126
10167SOL    HW131400   0.362   6.209   6.153
10167SOL    HW231401   0.467   6.246   6.033
10168SOL     OW31402   6.087   1.431   6.943
10168SOL    HW131403   6.041   1.489   6.876
10168SOL    HW231404   6.138   1.360   6.896
10169SOL     OW31405   6.760   3.568   3.317
10169SOL    HW131406   6.840   3.604   3.268
10169SOL    HW231407   6.730   3.483   3.275
10170SOL     OW31408   6.365   5.563   0.230
10170SOL    HW131409   6.333   5.493   0.167
10170SOL    HW231410   6.286   5.606   0.275
10171SOL     OW31411   1.928   2.952   5.203
10171SOL    HW131412   1.990   3.002   5.144
10171SOL    HW231413   1.967   2.944   5.295
10172SOL     OW31414   6.618   0.441   3.396
10172SOL    HW131415   6.660   0.479   3.478
10172SOL    HW231416   6.519   0.455   3.400
10173SOL     OW31417   3.434   5.159   0.176
10173SOL    HW131418   3.509   5.098   0.150
10173SOL    HW231419   3.350   5.105   0.185
10174SOL     OW31420   4.686   6.610   2.606
10174SOL    HW131421   4.635   6.598   2.521
10174SOL    HW231422   4.767   6.666   2.589
10175SOL     OW31423   0.062   2.325   3.771
10175SOL    HW131424   0.026   2.293   3.684
10175SOL    HW231425   7.018   2.312   3.843
10176SOL     OW31426   6.193   2.962   5.674
10176SOL    HW131427   6.135   2.929   5.749
10176SOL    HW231428   6.248   3.039   5.706
10177SOL     OW31429   2.258   0.287   1.575
10177SOL    HW131430   2.305   0.305   1.489
10177SOL    HW231431   2.266   0.366   1.636
10178SOL     OW31432   1.625   1.565   0.029
10178SOL    HW131433   1.698   1.612   7.003
10178SOL    HW231434   1.636   1.582   0.127
10179SOL     OW31435   6.761   4.338   0.777
10179SOL    HW131436   6.705   4.255   0.775
10179SOL    HW231437   6.822   4.339   0.697
10180SOL     OW31438   4.294   6.816   6.059
10180SOL    HW131439   4.349   6.814   6.143
10180SOL    HW231440   4.305   6.729   6.010
10181SOL     OW31441   6.608   3.971   1.274
10181SOL    HW131442   6.691   3.992   1.326
10181SOL    HW231443   6.616   4.008   1.181
10182SOL     OW31444   5.328   1.335   0.017
10182SOL    HW131445   5.272   1.330   6.957
10182SOL    HW231446   5.356   1.243   0.043
10183SOL     OW31447   6.629   2.062   6.150
10183SOL    HW131448   6.672   2.152   6.143
10183SOL    HW231449   6.603   2.045   6.245
10184SOL     OW31450   6.071   3.737   5.871
10184SOL    HW131451   6.159   3.769   5.906
10184SOL    HW231452   6.003   3.743   5.943
10185SOL     OW31453   4.063   5.862   2.458
10185SOL    HW131454   4.146   5.812   2.432
10185SOL    HW231455   4.088   5.956   2.482
10186SOL     OW31456   5.216   4.079   5.381
10186SOL    HW131457   5.272   4.130   5.447
10186SOL    HW231458   5.168   4.005   5.429
10187SOL     OW31459   2.557   4.422   6.178
10187SOL    HW131460   2.487   4.429   6.248
10187SOL    HW231461   2.520   4.371   6.099
10188SOL     OW31462   2.819   6.929   0.221
10188SOL    HW131463   2.820   6.954   0.125
10188SOL    HW231464   2.864   7.000   0.275
10189SOL     OW31465   1.279   1.579   6.061
10189SOL    HW131466   1.247   1.489   6.090
10189SOL    HW231467   1.273   1.643   6.137
10190SOL     OW31468   3.139   4.532   1.224
10190SOL    HW131469   3.208   4.561   1.290
10190SOL    HW231470   3.052   4.518   1.272
10191SOL     OW31471   5.953   5.621   0.043
10191SOL    HW131472   5.942   5.531   0.000
10191SOL    HW231473   6.032   5.668   0.003
10192SOL     OW31474   2.249   1.934   5.136
10192SOL    HW131475   2.191   1.871   5.189
10192SOL    HW231476   2.327   1.962   5.192
10193SOL     OW31477   4.018   3.629   2.755
10193SOL    HW131478   4.027   3.655   2.851
10193SOL    HW231479   3.997   3.711   2.701
10194SOL     OW31480   3.428   0.060   4.384
10194SOL    HW131481   3.454   0.147   4.341
10194SOL    HW231482   3.483   0.045   4.466
10195SOL     OW31483   5.581   6.928   2.122
10195SOL    HW131484   5.655   6.862   2.118
10195SOL    HW231485   5.618   7.019   2.139
10196SOL     OW31486   5.637   1.727   2.951
10196SOL    HW131487   5.573   1.803   2.938
10196SOL    HW231488   5.729   1.763   2.966
10197SOL     OW31489   6.044   0.166   3.108
10197SOL    HW131490   6.115   0.096   3.105
10197SOL    HW231491   6.059   0.232   3.034
10198SOL     OW31492   3.216   6.338   1.781
10198SOL    HW131493   3.310   6.361   1.753
10198SOL    HW231494   3.188   6.254   1.736
10199SOL     OW31495   1.193   2.012   6.935
10199SOL    HW131496   1.215   1.923   6.894
10199SOL    HW231497   1.126   1.999   7.008
10200SOL     OW31498   5.416   4.235   5.571
10200SOL    HW131499   5.440   4.317   5.519
10200SOL    HW231500   5.384   4.263   5.662
10201SOL     OW31501   0.730   5.177   2.172
10201SOL    HW131502   0.742   5.258   2.115
10201SOL    HW231503   0.780   5.100   2.132
10202SOL     OW31504   0.352   3.765   1.566
10202SOL    HW131505   0.259   3.777   1.600
10202SOL    HW231506   0.417   3.796   1.636
10203SOL     OW31507   2.192   2.990   2.253
10203SOL    HW131508   2.180   3.042   2.337
10203SOL    HW231509   2.253   2.912   2.270
10204SOL     OW31510   2.752   4.731   5.561
10204SOL    HW131511   2.825   4.708   5.497
10204SOL    HW231512   2.764   4.825   5.593
10205SOL     OW31513   5.625   1.541   3.988
10205SOL    HW131514   5.561   1.464   3.996
10205SOL    HW231515   5.608   1.590   3.903
10206SOL     OW31516   5.719   6.696   5.980
10206SOL    HW131517   5.782   6.633   6.025
10206SOL    HW231518   5.691   6.767   6.045
10207SOL     OW31519   2.533   0.756   2.574
10207SOL    HW131520   2.626   0.785   2.592
10207SOL    HW231521   2.530   0.656   2.565
10208SOL     OW31522   5.656   5.389   5.079
10208SOL    HW131523   5.693   5.297   5.065
10208SOL    HW231524   5.570   5.384   5.130
10209SOL     OW31525   6.942   1.209   5.950
10209SOL    HW131526   6.917   1.222   5.854
10209SOL    HW231527   6.904   1.122   5.983
10210SOL     OW31528   5.873   6.886   2.119
10210SOL    HW131529   5.853   6.973   2.075
10210SOL    HW231530   5.958   6.893   2.170
10211SOL     OW31531   3.932   6.724   5.612
10211SOL    HW131532   3.939   6.729   5.712
10211SOL    HW231533   3.936   6.816   5.574
10212SOL     OW31534   0.676   1.175   4.047
10212SOL    HW131535   0.764   1.204   4.084
10212SOL    HW231536   0.606   1.183   4.119
10213SOL     OW31537   5.899   1.803   2.977
10213SOL    HW131538   5.930   1.853   3.058
10213SOL    HW231539   5.928   1.707   2.984
10214SOL     OW31540   6.254   0.614   2.398
10214SOL    HW131541   6.341   0.576   2.429
10214SOL    HW231542   6.238   0.702   2.444
10215SOL     OW31543   3.636   3.337   6.071
10215SOL    HW131544   3.642   3.285   6.156
10215SOL    HW231545   3.542   3.370   6.059
10216SOL     OW31546   6.489   0.094   1.178
10216SOL    HW131547   6.474   0.116   1.082
10216SOL    HW231548   6.587   0.091   1.197
10217SOL     OW31549   2.578   1.946   4.240
10217SOL    HW131550   2.546   1.993   4.159
10217SOL    HW231551   2.530   1.859   4.250
10218SOL     OW31552   1.475   1.253   1.155
10218SOL    HW131553   1.495   1.220   1.247
10218SOL    HW231554   1.379   1.236   1.133
10219SOL     OW31555   0.710   1.894   2.045
10219SOL    HW131556   0.628   1.849   2.078
10219SOL    HW231557   0.791   1.851   2.086
10220SOL     OW31558   4.431   1.878   1.460
10220SOL    HW131559   4.338   1.849   1.436
10220SOL    HW231560   4.426   1.962   1.514
10221SOL     OW31561   2.743   0.706   4.962
10221SOL    HW131562   2.800   0.625   4.949
10221SOL    HW231563   2.794   0.787   4.930
10222SOL     OW31564   0.925   3.965   5.433
10222SOL    HW131565   0.939   3.913   5.518
10222SOL    HW231566   1.007   4.019   5.413
10223SOL     OW31567   1.354   4.863   7.023
10223SOL    HW131568   1.319   4.949   6.985
10223SOL    HW231569   1.278   4.800   0.013
10224SOL     OW31570   1.295   0.781   4.406
10224SOL    HW131571   1.386   0.789   4.444
10224SOL    HW231572   1.229   0.760   4.478
10225SOL     OW31573   0.736   5.947   4.507
10225SOL    HW131574   0.702   5.853   4.504
10225SOL    HW231575   0.779   5.970   4.420
10226SOL     OW31576   3.101   1.065   6.778
10226SOL    HW131577   3.124   1.005   6.854
10226SOL    HW231578   3.165   1.142   6.776
10227SOL     OW31579   4.619   4.787   0.345
10227SOL    HW131580   4.638   4.881   0.315
10227SOL    HW231581   4.694   4.728   0.315
10228SOL     OW31582   0.398   5.501   2.516
10228SOL    HW131583   0.390   5.564   2.592
10228SOL    HW231584   0.340   5.421   2.532
10229SOL     OW31585   0.423   0.612   3.303
10229SOL    HW131586   0.348   0.587   3.241
10229SOL    HW231587   0.501   0.643   3.249
10230SOL     OW31588   6.603   0.074   3.779
10230SOL    HW131589   6.671   0.066   3.852
10230SOL    HW231590   6.537   0.145   3.802
10231SOL     OW31591   6.444   6.958   4.833
10231SOL    HW131592   6.437   6.999   4.742
10231SOL    HW231593   6.530   6.906   4.838
10232SOL     OW31594   3.563   0.923   4.084
10232SOL    HW131595   3.465   0.921   4.063
10232SOL    HW231596   3.577   0.957   4.176
10233SOL     OW31597   4.079   2.963   6.029
10233SOL    HW131598   4.178   2.945   6.033
10233SOL    HW231599   4.052   3.019   6.107
10234SOL     OW31600   4.824   0.530   0.709
10234SOL    HW131601   4.802   0.433   0.694
10234SOL    HW231602   4.740   0.583   0.711
10235SOL     OW31603   4.444   1.205   0.139
10235SOL    HW131604   4.526   1.207   0.081
10235SOL    HW231605   4.466   1.163   0.226
10236SOL     OW31606   2.334   6.142   1.674
10236SOL    HW131607   2.338   6.099   1.764
10236SOL    HW231608   2.384   6.229   1.676
10237SOL     OW31609   6.594   4.394   1.856
10237SOL    HW131610   6.598   4.330   1.779
10237SOL    HW231611   6.628   4.349   1.939
10238SOL     OW31612   3.661   4.443   5.426
10238SOL    HW131613   3.567   4.411   5.413
10238SOL    HW231614   3.677   4.523   5.369
10239SOL     OW31615   0.764   4.204   5.314
10239SOL    HW131616   0.838   4.150   5.352
10239SOL    HW231617   0.792   4.300   5.309
10240SOL     OW31618   1.042   4.241   2.726
10240SOL    HW131619   0.979   4.313   2.754
10240SOL    HW231620   1.133   4.279   2.713
10241SOL     OW31621   0.207   1.398   1.870
10241SOL    HW131622   0.207   1.487   1.825
10241SOL    HW231623   0.290   1.348   1.847
10242SOL     OW31624   0.433   1.465   5.749
10242SOL    HW131625   0.481   1.467   5.662
10242SOL    HW231626   0.453   1.380   5.797
10243SOL     OW31627   0.124   5.492   1.195
10243SOL    HW131628   0.176   5.460   1.274
10243SOL    HW231629   0.171   5.464   1.111
10244SOL     OW31630   2.321   5.332   6.954
10244SOL    HW131631   2.411   5.312   6.991
10244SOL    HW231632   2.280   5.408   7.006
10245SOL     OW31633   2.104   3.249   0.033
10245SOL    HW131634   2.133   3.166   7.009
10245SOL    HW231635   2.009   3.270   0.010
10246SOL     OW31636   3.128   3.959   4.639
10246SOL    HW131637   3.166   3.994   4.725
10246SOL    HW231638   3.145   4.025   4.566
10247SOL     OW31639   0.400   5.268   5.358
10247SOL    HW131640   0.321   5.328   5.355
10247SOL    HW231641   0.452   5.278   5.273
10248SOL     OW31642   3.377   0.613   2.223
10248SOL    HW131643   3.401   0.673   2.147
10248SOL    HW231644   3.332   0.531   2.188
10249SOL     OW31645   3.878   0.639   5.465
10249SOL    HW131646   3.851   0.680   5.552
10249SOL    HW231647   3.968   0.673   5.439
10250SOL     OW31648   6.625   1.237   1.392
10250SOL    HW131649   6.589   1.150   1.427
10250SOL    HW231650   6.583   1.257   1.304
10251SOL     OW31651   2.608   2.731   5.917
10251SOL    HW131652   2.617   2.690   5.826
10251SOL    HW231653   2.695   2.720   5.967
10252SOL     OW31654   6.208   6.824   0.987
10252SOL    HW131655   6.224   6.727   1.008
10252SOL    HW231656   6.147   6.863   1.056
10253SOL     OW31657   4.816   5.390   0.448
10253SOL    HW131658   4.745   5.360   0.383
10253SOL    HW231659   4.825   5.321   0.520
10254SOL     OW31660   3.117   1.863   4.731
10254SOL    HW131661   3.061   1.877   4.650
10254SOL    HW231662   3.131   1.765   4.745
10255SOL     OW31663   2.064   6.370   2.173
10255SOL    HW131664   2.121   6.341   2.250
10255SOL    HW231665   2.075   6.305   2.098
10256SOL     OW31666   4.884   0.175   0.884
10256SOL    HW131667   4.840   0.199   0.798
10256SOL    HW231668   4.930   0.255   0.922
10257SOL     OW31669   1.242   4.760   5.422
10257SOL    HW131670   1.230   4.790   5.516
10257SOL    HW231671   1.292   4.673   5.421
10258SOL     OW31672   5.019   6.152   3.475
10258SOL    HW131673   4.937   6.206   3.491
10258SOL    HW231674   5.056   6.173   3.384
10259SOL     OW31675   0.378   5.076   3.705
10259SOL    HW131676   0.321   5.100   3.783
10259SOL    HW231677   0.403   5.159   3.655
10260SOL     OW31678   0.117   6.219   3.194
10260SOL    HW131679   0.201   6.266   3.167
10260SOL    HW231680   0.102   6.140   3.135
10261SOL     OW31681   6.840   6.137   2.296
10261SOL    HW131682   6.801   6.225   2.321
10261SOL    HW231683   6.784   6.095   2.224
10262SOL     OW31684   3.471   4.960   4.523
10262SOL    HW131685   3.464   5.016   4.441
10262SOL    HW231686   3.560   4.915   4.525
10263SOL     OW31687   5.000   2.023   6.656
10263SOL    HW131688   5.073   2.077   6.614
10263SOL    HW231689   5.036   1.975   6.736
10264SOL     OW31690   6.169   1.642   6.525
10264SOL    HW131691   6.202   1.736   6.527
10264SOL    HW231692   6.075   1.640   6.491
10265SOL     OW31693   3.107   1.666   3.139
10265SOL    HW131694   3.116   1.651   3.237
10265SOL    HW231695   3.131   1.760   3.117
10266SOL     OW31696   3.804   4.157   6.036
10266SOL    HW131697   3.890   4.166   5.985
10266SOL    HW231698   3.816   4.194   6.128
10267SOL     OW31699   6.560   2.233   0.137
10267SOL    HW131700   6.591   2.141   0.114
10267SOL    HW231701   6.486   2.260   0.076
10268SOL     OW31702   5.860   6.398   1.483
10268SOL    HW131703   5.904   6.369   1.568
10268SOL    HW231704   5.853   6.498   1.482
10269SOL     OW31705   2.322   1.852   5.471
10269SOL    HW131706   2.255   1.859   5.545
10269SOL    HW231707   2.310   1.765   5.424
10270SOL     OW31708   1.984   5.918   1.055
10270SOL    HW131709   2.066   5.927   1.112
10270SOL    HW231710   1.997   5.969   0.970
10271SOL     OW31711   3.151   3.692   0.459
10271SOL    HW131712   3.110   3.667   0.371
10271SOL    HW231713   3.173   3.789   0.460
10272SOL     OW31714   1.250   0.907   4.168
10272SOL    HW131715   1.266   0.877   4.262
10272SOL    HW231716   1.271   1.005   4.161
10273SOL     OW31717   3.833   5.563   4.022
10273SOL    HW131718   3.778   5.500   3.967
10273SOL    HW231719   3.930   5.547   4.003
10274SOL     OW31720   1.183   4.888   5.673
10274SOL    HW131721   1.178   4.977   5.628
10274SOL    HW231722   1.235   4.896   5.758
10275SOL     OW31723   0.722   6.969   3.047
10275SOL    HW131724   0.813   6.962   3.006
10275SOL    HW231725   0.655   6.996   2.978
10276SOL     OW31726   6.812   5.605   5.877
10276SOL    HW131727   6.838   5.539   5.947
10276SOL    HW231728   6.763   5.682   5.919
10277SOL     OW31729   2.781   6.315   3.961
10277SOL    HW131730   2.706   6.315   3.895
10277SOL    HW231731   2.866   6.339   3.915
10278SOL     OW31732   6.823   1.356   6.132
10278SOL    HW131733   6.750   1.409   6.088
10278SOL    HW231734   6.873   1.305   6.063
10279SOL     OW31735   3.069   0.274   4.283
10279SOL    HW131736   3.120   0.227   4.355
10279SOL    HW231737   3.122   0.351   4.249
10280SOL     OW31738   2.349   4.928   1.157
10280SOL    HW131739   2.313   5.005   1.209
10280SOL    HW231740   2.279   4.855   1.153
10281SOL     OW31741   4.937   1.655   2.968
10281SOL    HW131742   4.883   1.572   2.951
10281SOL    HW231743   5.034   1.634   2.958
10282SOL     OW31744   0.091   2.944   3.339
10282SOL    HW131745   0.087   2.914   3.435
10282SOL    HW231746   0.019   3.012   3.323
10283SOL     OW31747   0.932   3.357   0.935
10283SOL    HW131748   0.971   3.330   0.846
10283SOL    HW231749   0.995   3.419   0.981
10284SOL     OW31750   5.384   4.010   4.798
10284SOL    HW131751   5.419   3.991   4.890
10284SOL    HW231752   5.448   4.069   4.749
10285SOL     OW31753   4.760   0.245   1.317
10285SOL    HW131754   4.810   0.164   1.289
10285SOL    HW231755   4.689   0.265   1.250
10286SOL     OW31756   3.831   1.579   2.721
10286SOL    HW131757   3.744   1.573   2.769
10286SOL    HW231758   3.814   1.601   2.624
10287SOL     OW31759   1.831   6.436   2.014
10287SOL    HW131760   1.811   6.358   1.954
10287SOL    HW231761   1.870   6.403   2.100
10288SOL     OW31762   5.309   5.911   3.044
10288SOL    HW131763   5.324   5.825   3.092
10288SOL    HW231764   5.240   5.899   2.973
10289SOL     OW31765   3.421   1.251   1.256
10289SOL    HW131766   3.323   1.247   1.273
10289SOL    HW231767   3.442   1.210   1.167
10290SOL     OW31768   3.909   3.890   2.663
10290SOL    HW131769   3.967   3.884   2.582
10290SOL    HW231770   3.835   3.956   2.647
10291SOL     OW31771   4.294   0.802   3.690
10291SOL    HW131772   4.233   0.789   3.613
10291SOL    HW231773   4.247   0.852   3.762
10292SOL     OW31774   0.499   2.286   4.836
10292SOL    HW131775   0.501   2.193   4.871
10292SOL    HW231776   0.555   2.293   4.754
10293SOL     OW31777   1.621   6.142   2.915
10293SOL    HW131778   1.597   6.139   3.012
10293SOL    HW231779   1.563   6.077   2.864
10294SOL     OW31780   4.736   2.809   2.846
10294SOL    HW131781   4.721   2.763   2.933
10294SOL    HW231782   4.788   2.893   2.862
10295SOL     OW31783   6.177   4.388   5.359
10295SOL    HW131784   6.086   4.350   5.377
10295SOL    HW231785   6.236   4.372   5.437
10296SOL     OW31786   5.769   4.208   6.042
10296SOL    HW131787   5.772   4.112   6.016
10296SOL    HW231788   5.730   4.216   6.134
10297SOL     OW31789   2.781   6.952   4.227
10297SOL    HW131790   2.833   6.881   4.275
10297SOL    HW231791   2.807   0.018   4.263
10298SOL     OW31792   4.847   4.285   3.344
10298SOL    HW131793   4.849   4.371   3.292
10298SOL    HW231794   4.820   4.304   3.438
10299SOL     OW31795   4.494   4.472   3.425
10299SOL    HW131796   4.462   4.456   3.519
10299SOL    HW231797   4.478   4.389   3.370
10300SOL     OW31798   1.603   3.502   1.837
10300SOL    HW131799   1.552   3.426   1.796
10300SOL    HW231800   1.572   3.515   1.931
10301SOL     OW31801   5.903   1.587   3.754
10301SOL    HW131802   5.815   1.632   3.740
10301SOL    HW231803   5.967   1.653   3.794
10302SOL     OW31804   0.914   6.375   2.567
10302SOL    HW131805   0.892   6.465   2.606
10302SOL    HW231806   0.911   6.306   2.639
10303SOL     OW31807   3.762   3.367   1.731
10303SOL    HW131808   3.751   3.466   1.722
10303SOL    HW231809   3.681   3.321   1.696
10304SOL     OW31810   6.052   6.765   4.049
10304SOL    HW131811   6.106   6.763   3.965
10304SOL    HW231812   6.065   6.852   4.096
10305SOL     OW31813   1.491   5.818   0.232
10305SOL    HW131814   1.571   5.858   0.277
10305SOL    HW231815   1.504   5.719   0.223
10306SOL     OW31816   4.122   5.651   6.683
10306SOL    HW131817   4.073   5.679   6.600
10306SOL    HW231818   4.174   5.728   6.718
10307SOL     OW31819   1.706   0.971   5.412
10307SOL    HW131820   1.654   0.894   5.374
10307SOL    HW231821   1.687   0.979   5.509
10308SOL     OW31822   3.324   5.102   3.601
10308SOL    HW131823   3.355   5.046   3.524
10308SOL    HW231824   3.225   5.097   3.609
10309SOL     OW31825   5.873   6.294   3.389
10309SOL    HW131826   5.969   6.285   3.364
10309SOL    HW231827   5.822   6.216   3.351
10310SOL     OW31828   2.968   3.705   2.305
10310SOL    HW131829   2.927   3.618   2.280
10310SOL    HW231830   3.045   3.690   2.367
10311SOL     OW31831   0.262   5.955   0.835
10311SOL    HW131832   0.280   5.952   0.934
10311SOL    HW231833   0.163   5.950   0.819
10312SOL     OW31834   3.437   4.732   0.539
10312SOL    HW131835   3.442   4.828   0.511
10312SOL    HW231836   3.527   4.702   0.569
10313SOL     OW31837   4.355   6.990   2.281
10313SOL    HW131838   4.304   6.939   2.350
10313SOL    HW231839   4.354   6.939   2.195
10314SOL     OW31840   6.569   6.978   0.458
10314SOL    HW131841   6.581   0.049   0.426
10314SOL    HW231842   6.473   6.953   0.452
10315SOL     OW31843   5.981   6.025   5.547
10315SOL    HW131844   5.891   6.049   5.509
10315SOL    HW231845   6.011   5.938   5.509
10316SOL     OW31846   0.448   3.727   4.754
10316SOL    HW131847   0.428   3.814   4.799
10316SOL    HW231848   0.452   3.741   4.655
10317SOL     OW31849   3.777   5.389   6.591
10317SOL    HW131850   3.870   5.360   6.617
10317SOL    HW231851   3.768   5.383   6.491
10318SOL     OW31852   6.464   4.950   1.257
10318SOL    HW131853   6.409   5.025   1.221
10318SOL    HW231854   6.537   4.928   1.191
10319SOL     OW31855   0.322   4.561   3.852
10319SOL    HW131856   0.262   4.639   3.867
10319SOL    HW231857   0.313   4.530   3.758
10320SOL     OW31858   0.888   0.091   1.006
10320SOL    HW131859   0.950   0.125   0.935
10320SOL    HW231860   0.794   0.095   0.973
10321SOL     OW31861   4.048   6.275   4.580
10321SOL    HW131862   4.007   6.302   4.493
10321SOL    HW231863   4.129   6.219   4.563
10322SOL     OW31864   6.258   5.516   0.560
10322SOL    HW131865   6.349   5.480   0.539
10322SOL    HW231866   6.241   5.510   0.658
10323SOL     OW31867   6.388   3.089   6.337
10323SOL    HW131868   6.454   3.016   6.320
10323SOL    HW231869   6.411   3.135   6.423
10324SOL     OW31870   3.416   2.964   3.566
10324SOL    HW131871   3.331   3.010   3.587
10324SOL    HW231872   3.403   2.903   3.488
10325SOL     OW31873   6.412   3.642   3.728
10325SOL    HW131874   6.379   3.669   3.637
10325SOL    HW231875   6.509   3.663   3.736
10326SOL     OW31876   5.076   2.881   0.209
10326SOL    HW131877   5.066   2.842   0.118
10326SOL    HW231878   5.030   2.970   0.213
10327SOL     OW31879   1.705   0.930   3.304
10327SOL    HW131880   1.781   0.898   3.248
10327SOL    HW231881   1.621   0.926   3.250
10328SOL     OW31882   6.040   3.833   2.315
10328SOL    HW131883   6.041   3.742   2.355
10328SOL    HW231884   6.105   3.892   2.363
10329SOL     OW31885   3.387   0.343   2.809
10329SOL    HW131886   3.344   0.430   2.831
10329SOL    HW231887   3.335   0.268   2.851
10330SOL     OW31888   3.469   5.243   2.753
10330SOL    HW131889   3.512   5.222   2.840
10330SOL    HW231890   3.539   5.246   2.681
10331SOL     OW31891   5.344   0.901   3.648
10331SOL    HW131892   5.352   0.849   3.733
10331SOL    HW231893   5.338   0.838   3.571
10332SOL     OW31894   6.921   1.972   1.040
10332SOL    HW131895   6.907   1.892   0.982
10332SOL    HW231896   6.891   1.953   1.133
10333SOL     OW31897   5.968   5.158   4.150
10333SOL    HW131898   5.963   5.258   4.151
10333SOL    HW231899   6.055   5.129   4.190
10334SOL     OW31900   2.310   5.095   4.433
10334SOL    HW131901   2.360   5.014   4.464
10334SOL    HW231902   2.212   5.080   4.446
10335SOL     OW31903   2.084   5.650   6.706
10335SOL    HW131904   2.078   5.555   6.675
10335SOL    HW231905   2.019   5.666   6.780
10336SOL     OW31906   4.290   7.020   1.849
10336SOL    HW131907   4.309   6.963   1.929
10336SOL    HW231908   4.280   6.962   1.768
10337SOL     OW31909   0.372   5.403   4.855
10337SOL    HW131910   0.381   5.326   4.792
10337SOL    HW231911   0.299   5.464   4.822
10338SOL     OW31912   3.272   6.880   1.774
10338SOL    HW131913   3.257   6.940   1.852
10338SOL    HW231914   3.240   6.924   1.691
10339SOL     OW31915   3.409   5.926   0.953
10339SOL    HW131916   3.408   6.012   1.003
10339SOL    HW231917   3.478   5.929   0.882
10340SOL     OW31918   2.569   5.958   6.807
10340SOL    HW131919   2.502   5.896   6.849
10340SOL    HW231920   2.647   5.904   6.774
10341SOL     OW31921   2.208   2.190   2.521
10341SOL    HW131922   2.212   2.282   2.560
10341SOL    HW231923   2.300   2.159   2.498
10342SOL     OW31924   2.519   7.013   5.613
10342SOL    HW131925   2.493   0.069   5.559
10342SOL    HW231926   2.612   6.985   5.589
10343SOL     OW31927   2.597   3.866   6.073
10343SOL    HW131928   2.678   3.889   6.020
10343SOL    HW231929   2.526   3.935   6.057
10344SOL     OW31930   4.085   3.553   4.791
10344SOL    HW131931   4.087   3.467   4.841
10344SOL    HW231932   4.126   3.625   4.846
10345SOL     OW31933   2.693   1.112   0.086
10345SOL    HW131934   2.735   1.056   0.015
10345SOL    HW231935   2.604   1.145   0.054
10346SOL     OW31936   5.084   6.848   6.930
10346SOL    HW131937   4.999   6.807   6.962
10346SOL    HW231938   5.160   6.812   6.984
10347SOL     OW31939   5.549   1.858   1.337
10347SOL    HW131940   5.469   1.884   1.283
10347SOL    HW231941   5.590   1.775   1.298
10348SOL     OW31942   6.277   1.236   6.210
10348SOL    HW131943   6.278   1.325   6.256
10348SOL    HW231944   6.305   1.165   6.274
10349SOL     OW31945   6.371   1.154   1.116
10349SOL    HW131946   6.308   1.177   1.190
10349SOL    HW231947   6.419   1.069   1.139
10350SOL     OW31948   3.407   5.969   4.260
10350SOL    HW131949   3.476   5.975   4.188
10350SOL    HW231950   3.445   5.922   4.339
10351SOL     OW31951   5.998   5.585   4.933
10351SOL    HW131952   6.048   5.671   4.925
10351SOL    HW231953   5.940   5.573   4.853
10352SOL     OW31954   5.408   1.483   6.749
10352SOL    HW131955   5.323   1.445   6.787
10352SOL    HW231956   5.471   1.408   6.729
10353SOL     OW31957   0.395   3.081   3.509
10353SOL    HW131958   0.366   2.987   3.489
10353SOL    HW231959   0.326   3.124   3.568
10354SOL     OW31960   0.281   3.845   0.381
10354SOL    HW131961   0.303   3.894   0.297
10354SOL    HW231962   0.184   3.857   0.403
10355SOL     OW31963   1.075   1.333   0.624
10355SOL    HW131964   0.989   1.302   0.664
10355SOL    HW231965   1.080   1.432   0.627
10356SOL     OW31966   7.000   3.219   6.666
10356SOL    HW131967   0.012   3.217   6.573
10356SOL    HW231968   0.045   3.180   6.728
10357SOL     OW31969   1.417   2.240   6.552
10357SOL    HW131970   1.348   2.309   6.571
10357SOL    HW231971   1.484   2.276   6.487
10358SOL     OW31972   1.507   2.671   2.595
10358SOL    HW131973   1.469   2.643   2.507
10358SOL    HW231974   1.471   2.612   2.667
10359SOL     OW31975   5.423   2.373   3.113
10359SOL    HW131976   5.394   2.357   3.207
10359SOL    HW231977   5.519   2.347   3.102
10360SOL     OW31978   5.194   4.995   3.138
10360SOL    HW131979   5.200   5.072   3.076
10360SOL    HW231980   5.222   5.023   3.230
10361SOL     OW31981   1.817   1.310   1.215
10361SOL    HW131982   1.828   1.259   1.130
10361SOL    HW231983   1.746   1.267   1.270
10362SOL     OW31984   0.566   5.202   1.910
10362SOL    HW131985   0.629   5.208   1.832
10362SOL    HW231986   0.521   5.290   1.923
10363SOL     OW31987   4.395   3.534   0.605
10363SOL    HW131988   4.412   3.527   0.507
10363SOL    HW231989   4.473   3.495   0.655
10364SOL     OW31990   4.845   5.190   1.347
10364SOL    HW131991   4.880   5.096   1.349
10364SOL    HW231992   4.921   5.254   1.360
10365SOL     OW31993   5.925   4.840   0.298
10365SOL    HW131994   5.993   4.866   0.366
10365SOL    HW231995   5.879   4.756   0.326
10366SOL     OW31996   4.175   6.762   2.641
10366SOL    HW131997   4.220   6.849   2.621
10366SOL    HW231998   4.240   6.700   2.684
10367SOL     OW31999   6.545   1.640   1.725
10367SOL    HW132000   6.581   1.563   1.672
10367SOL    HW232001   6.588   1.725   1.695
10368SOL     OW32002   2.520   0.159   2.232
10368SOL    HW132003   2.426   0.147   2.200
10368SOL    HW232004   2.530   0.118   2.323
10369SOL     OW32005   3.194   6.275   5.018
10369SOL    HW132006   3.167   6.188   5.061
10369SOL    HW232007   3.113   6.332   5.006
10370SOL     OW32008   6.709   1.782   4.704
10370SOL    HW132009   6.755   1.694   4.716
10370SOL    HW232010   6.635   1.772   4.638
10371SOL     OW32011   3.873   6.711   3.484
10371SOL    HW132012   3.957   6.746   3.527
10371SOL    HW232013   3.894   6.672   3.395
10372SOL     OW32014   3.144   0.630   1.630
10372SOL    HW132015   3.218   0.680   1.676
10372SOL    HW232016   3.177   0.538   1.606
10373SOL     OW32017   0.039   0.704   5.366
10373SOL    HW132018   0.019   0.650   5.285
10373SOL    HW232019   6.989   0.771   5.381
10374SOL     OW32020   3.407   6.834   4.261
10374SOL    HW132021   3.377   6.861   4.170
10374SOL    HW232022   3.404   6.913   4.322
10375SOL     OW32023   3.397   2.764   6.539
10375SOL    HW132024   3.494   2.741   6.542
10375SOL    HW232025   3.376   2.810   6.453
10376SOL     OW32026   1.281   6.247   3.720
10376SOL    HW132027   1.314   6.340   3.731
10376SOL    HW232028   1.196   6.247   3.667
10377SOL     OW32029   0.489   1.526   1.554
10377SOL    HW132030   0.447   1.453   1.607
10377SOL    HW232031   0.589   1.522   1.565
10378SOL     OW32032   0.256   5.698   5.055
10378SOL    HW132033   0.270   5.736   5.147
10378SOL    HW232034   0.329   5.730   4.995
10379SOL     OW32035   2.642   6.700   3.916
10379SOL    HW132036   2.644   6.779   3.855
10379SOL    HW232037   2.633   6.616   3.863
10380SOL     OW32038   1.397   2.402   4.317
10380SOL    HW132039   1.471   2.444   4.265
10380SOL    HW232040   1.435   2.334   4.380
10381SOL     OW32041   3.789   4.384   1.668
10381SOL    HW132042   3.880   4.426   1.674
10381SOL    HW232043   3.723   4.452   1.637
10382SOL     OW32044   2.575   5.240   2.361
10382SOL    HW132045   2.487   5.199   2.341
10382SOL    HW232046   2.629   5.247   2.277
10383SOL     OW32047   1.712   4.737   0.234
10383SOL    HW132048   1.745   4.771   0.322
10383SOL    HW232049   1.687   4.815   0.176
10384SOL     OW32050   6.391   6.159   1.258
10384SOL    HW132051   6.463   6.143   1.325
10384SOL    HW232052   6.355   6.252   1.270
10385SOL     OW32053   3.392   5.276   6.305
10385SOL    HW132054   3.311   5.292   6.362
10385SOL    HW232055   3.375   5.198   6.244
10386SOL     OW32056   0.004   1.347   6.326
10386SOL    HW132057   0.001   1.255   6.366
10386SOL    HW232058   6.941   1.367   6.281
10387SOL     OW32059   5.513   2.570   3.483
10387SOL    HW132060   5.580   2.608   3.419
10387SOL    HW232061   5.450   2.510   3.433
10388SOL     OW32062   2.837   0.307   6.409
10388SOL    HW132063   2.771   0.354   6.350
10388SOL    HW232064   2.915   0.276   6.354
10389SOL     OW32065   6.478   4.168   6.970
10389SOL    HW132066   6.453   4.243   6.909
10389SOL    HW232067   6.577   4.169   6.985
10390SOL     OW32068   1.911   2.287   0.582
10390SOL    HW132069   1.895   2.351   0.506
10390SOL    HW232070   1.927   2.339   0.666
10391SOL     OW32071   1.205   6.133   3.378
10391SOL    HW132072   1.165   6.121   3.286
10391SOL    HW232073   1.222   6.044   3.419
10392SOL     OW32074   6.395   5.184   5.209
10392SOL    HW132075   6.345   5.207   5.126
10392SOL    HW232076   6.333   5.183   5.287
10393SOL     OW32077   2.102   3.345   3.937
10393SOL    HW132078   2.010   3.309   3.925
10393SOL    HW232079   2.134   3.384   3.850
10394SOL     OW32080   2.695   5.794   3.874
10394SOL    HW132081   2.619   5.734   3.900
10394SOL    HW232082   2.671   5.889   3.895
10395SOL     OW32083   0.448   6.414   1.255
10395SOL    HW132084   0.441   6.485   1.185
10395SOL    HW232085   0.540   6.413   1.293
10396SOL     OW32086   4.043   1.759   4.264
10396SOL    HW132087   3.958   1.714   4.237
10396SOL    HW232088   4.083   1.806   4.184
10397SOL     OW32089   3.546   1.846   2.714
10397SOL    HW132090   3.546   1.860   2.813
10397SOL    HW232091   3.514   1.753   2.694
10398SOL     OW32092   6.027   2.771   1.228
10398SOL    HW132093   5.928   2.756   1.229
10398SOL    HW232094   6.047   2.862   1.264
10399SOL     OW32095   5.256   2.164   3.329
10399SOL    HW132096   5.254   2.112   3.243
10399SOL    HW232097   5.176   2.140   3.384
10400SOL     OW32098   4.504   6.757   0.389
10400SOL    HW132099   4.442   6.733   0.463
10400SOL    HW232100   4.504   6.856   0.376
10401SOL     OW32101   6.543   0.828   3.783
10401SOL    HW132102   6.538   0.801   3.687
10401SOL    HW232103   6.582   0.753   3.837
10402SOL     OW32104   6.629   3.503   5.409
10402SOL    HW132105   6.622   3.427   5.345
10402SOL    HW232106   6.591   3.586   5.366
10403SOL     OW32107   4.410   1.078   3.610
10403SOL    HW132108   4.480   1.033   3.666
10403SOL    HW232109   4.370   1.013   3.546
10404SOL     OW32110   6.330   6.637   5.098
10404SOL    HW132111   6.414   6.585   5.080
10404SOL    HW232112   6.353   6.732   5.119
10405SOL     OW32113   0.113   1.750   5.437
10405SOL    HW132114   0.099   1.727   5.340
10405SOL    HW232115   0.112   1.849   5.448
10406SOL     OW32116   2.814   5.015   3.107
10406SOL    HW132117   2.814   4.934   3.048
10406SOL    HW232118   2.733   5.014   3.166
10407SOL     OW32119   3.226   6.651   6.346
10407SOL    HW132120   3.307   6.710   6.349
10407SOL    HW232121   3.214   6.607   6.436
10408SOL     OW32122   4.720   6.897   1.303
10408SOL    HW132123   4.686   6.924   1.393
10408SOL    HW232124   4.784   6.966   1.270
10409SOL     OW32125   0.077   4.717   0.782
10409SOL    HW132126   0.065   4.685   0.688
10409SOL    HW232127   0.149   4.664   0.827
10410SOL     OW32128   5.406   1.903   0.421
10410SOL    HW132129   5.406   1.925   0.519
10410SOL    HW232130   5.371   1.981   0.370
10411SOL     OW32131   4.000   6.448   3.360
10411SOL    HW132132   4.079   6.493   3.317
10411SOL    HW232133   3.964   6.379   3.299
10412SOL     OW32134   0.056   0.936   0.158
10412SOL    HW132135   0.119   0.860   0.175
10412SOL    HW232136   0.032   0.980   0.245
10413SOL     OW32137   6.439   3.003   0.466
10413SOL    HW132138   6.470   2.984   0.559
10413SOL    HW232139   6.513   2.988   0.402
10414SOL     OW32140   3.921   4.302   5.479
10414SOL    HW132141   3.835   4.347   5.454
10414SOL    HW232142   3.997   4.362   5.454
10415SOL     OW32143   1.131   3.916   4.403
10415SOL    HW132144   1.135   3.931   4.304
10415SOL    HW232145   1.066   3.843   4.424
10416SOL     OW32146   6.046   0.305   4.764
10416SOL    HW132147   5.995   0.380   4.805
10416SOL    HW232148   5.991   0.221   4.766
10417SOL     OW32149   3.363   5.298   4.560
10417SOL    HW132150   3.315   5.306   4.473
10417SOL    HW232151   3.317   5.230   4.617
10418SOL     OW32152   0.116   4.793   6.701
10418SOL    HW132153   0.176   4.815   6.624
10418SOL    HW232154   0.024   4.828   6.683
10419SOL     OW32155   1.694   0.160   6.418
10419SOL    HW132156   1.651   0.141   6.506
10419SOL    HW232157   1.745   0.246   6.424
10420SOL     OW32158   0.010   3.913   2.711
10420SOL    HW132159   6.963   3.897   2.780
10420SOL    HW232160   6.994   3.901   2.620
10421SOL     OW32161   0.370   1.366   3.462
10421SOL    HW132162   0.433   1.437   3.493
10421SOL    HW232163   0.416   1.278   3.462
10422SOL     OW32164   6.211   3.343   5.504
10422SOL    HW132165   6.202   3.383   5.413
10422SOL    HW232166   6.202   3.415   5.573
10423SOL     OW32167   5.816   5.239   4.707
10423SOL    HW132168   5.795   5.186   4.790
10423SOL    HW232169   5.800   5.336   4.725
10424SOL     OW32170   5.796   2.617   0.494
10424SOL    HW132171   5.768   2.711   0.473
10424SOL    HW232172   5.811   2.609   0.592
10425SOL     OW32173   1.000   6.660   1.890
10425SOL    HW132174   1.070   6.680   1.821
10425SOL    HW232175   0.996   6.735   1.955
10426SOL     OW32176   0.084   5.059   0.374
10426SOL    HW132177   0.159   5.096   0.429
10426SOL    HW232178   0.019   5.011   0.432
10427SOL     OW32179   3.681   0.799   6.950
10427SOL    HW132180   3.660   0.897   6.952
10427SOL    HW232181   3.778   0.786   6.926
10428SOL     OW32182   3.023   1.224   4.198
10428SOL    HW132183   2.931   1.239   4.235
10428SOL    HW232184   3.064   1.311   4.174
10429SOL     OW32185   6.953   5.125   0.900
10429SOL    HW132186   6.957   5.025   0.911
10429SOL    HW232187   6.880   5.162   0.957
10430SOL     OW32188   4.758   6.216   3.614
10430SOL    HW132189   4.751   6.117   3.608
10430SOL    HW232190   4.813   6.241   3.694
10431SOL     OW32191   3.371   6.020   3.943
10431SOL    HW132192   3.316   6.095   3.981
10431SOL    HW232193   3.315   5.937   3.940
10432SOL     OW32194   6.033   6.644   4.334
10432SOL    HW132195   6.027   6.574   4.405
10432SOL    HW232196   6.129   6.659   4.310
10433SOL     OW32197   1.500   6.827   1.375
10433SOL    HW132198   1.503   6.728   1.388
10433SOL    HW232199   1.592   6.861   1.357
10434SOL     OW32200   4.195   0.042   3.469
10434SOL    HW132201   4.150   0.024   3.382
10434SOL    HW232202   4.172   0.134   3.500
10435SOL     OW32203   0.153   0.405   4.868
10435SOL    HW132204   0.114   0.456   4.791
10435SOL    HW232205   0.170   0.468   4.944
10436SOL     OW32206   0.936   5.487   6.212
10436SOL    HW132207   0.972   5.505   6.120
10436SOL    HW232208   0.953   5.391   6.236
10437SOL     OW32209   6.435   4.801   6.162
10437SOL    HW132210   6.506   4.804   6.232
10437SOL    HW232211   6.354   4.850   6.193
10438SOL     OW32212   5.882   6.431   0.621
10438SOL    HW132213   5.857   6.342   0.657
10438SOL    HW232214   5.967   6.462   0.663
10439SOL     OW32215   3.992   1.319   6.255
10439SOL    HW132216   3.995   1.236   6.311
10439SOL    HW232217   3.899   1.356   6.253
10440SOL     OW32218   1.338   6.384   0.412
10440SOL    HW132219   1.329   6.465   0.354
10440SOL    HW232220   1.334   6.302   0.354
10441SOL     OW32221   4.054   1.045   0.336
10441SOL    HW132222   4.106   0.980   0.280
10441SOL    HW232223   3.957   1.039   0.312
10442SOL     OW32224   3.840   6.359   5.726
10442SOL    HW132225   3.901   6.282   5.707
10442SOL    HW232226   3.864   6.436   5.666
10443SOL     OW32227   5.077   3.964   4.945
10443SOL    HW132228   5.018   3.935   4.869
10443SOL    HW232229   5.099   4.061   4.935
10444SOL     OW32230   3.734   6.705   4.390
10444SOL    HW132231   3.709   6.630   4.451
10444SOL    HW232232   3.722   6.793   4.437
10445SOL     OW32233   1.197   6.024   4.358
10445SOL    HW132234   1.148   6.062   4.437
10445SOL    HW232235   1.279   5.977   4.390
10446SOL     OW32236   0.705   2.866   5.899
10446SOL    HW132237   0.716   2.767   5.902
10446SOL    HW232238   0.628   2.894   5.956
10447SOL     OW32239   0.388   1.110   2.255
10447SOL    HW132240   0.373   1.039   2.186
10447SOL    HW232241   0.429   1.068   2.337
10448SOL     OW32242   3.900   2.155   1.579
10448SOL    HW132243   3.931   2.250   1.590
10448SOL    HW232244   3.873   2.119   1.668
10449SOL     OW32245   2.700   5.504   4.507
10449SOL    HW132246   2.636   5.510   4.431
10449SOL    HW232247   2.650   5.476   4.590
10450SOL     OW32248   0.838   2.653   0.519
10450SOL    HW132249   0.752   2.656   0.570
10450SOL    HW232250   0.915   2.654   0.583
10451SOL     OW32251   2.097   5.320   3.362
10451SOL    HW132252   2.040   5.291   3.439
10451SOL    HW232253   2.153   5.398   3.389
10452SOL     OW32254   5.851   3.395   3.489
10452SOL    HW132255   5.763   3.400   3.440
10452SOL    HW232256   5.901   3.480   3.475
10453SOL     OW32257   5.216   6.064   1.603
10453SOL    HW132258   5.307   6.054   1.643
10453SOL    HW232259   5.148   6.065   1.676
10454SOL     OW32260   4.161   3.092   1.096
10454SOL    HW132261   4.233   3.047   1.042
10454SOL    HW232262   4.073   3.048   1.075
10455SOL     OW32263   6.812   5.621   2.257
10455SOL    HW132264   6.826   5.609   2.158
10455SOL    HW232265   6.860   5.703   2.288
10456SOL     OW32266   3.158   6.088   1.665
10456SOL    HW132267   3.148   5.992   1.694
10456SOL    HW232268   3.167   6.092   1.566
10457SOL     OW32269   3.639   2.844   3.087
10457SOL    HW132270   3.723   2.789   3.083
10457SOL    HW232271   3.634   2.902   3.006
10458SOL     OW32272   0.161   0.709   6.607
10458SOL    HW132273   0.173   0.745   6.514
10458SOL    HW232274   0.133   0.784   6.667
10459SOL     OW32275   5.461   5.188   2.610
10459SOL    HW132276   5.379   5.152   2.654
10459SOL    HW232277   5.511   5.245   2.674
10460SOL     OW32278   1.782   5.819   1.187
10460SOL    HW132279   1.736   5.742   1.142
10460SOL    HW232280   1.861   5.846   1.133
10461SOL     OW32281   1.446   6.157   5.133
10461SOL    HW132282   1.504   6.130   5.210
10461SOL    HW232283   1.453   6.256   5.118
10462SOL     OW32284   5.482   2.231   2.529
10462SOL    HW132285   5.527   2.307   2.576
10462SOL    HW232286   5.518   2.144   2.564
10463SOL     OW32287   3.754   2.834   5.646
10463SOL    HW132288   3.844   2.792   5.641
10463SOL    HW232289   3.718   2.824   5.739
10464SOL     OW32290   5.254   0.158   0.755
10464SOL    HW132291   5.231   0.244   0.800
10464SOL    HW232292   5.267   0.087   0.824
10465SOL     OW32293   6.413   6.903   1.333
10465SOL    HW132294   6.446   6.990   1.297
10465SOL    HW232295   6.319   6.889   1.305
10466SOL     OW32296   4.322   5.248   4.834
10466SOL    HW132297   4.344   5.155   4.864
10466SOL    HW232298   4.335   5.256   4.736
10467SOL     OW32299   1.031   1.955   5.209
10467SOL    HW132300   0.958   1.887   5.207
10467SOL    HW232301   1.117   1.911   5.234
10468SOL     OW32302   3.278   5.317   2.997
10468SOL    HW132303   3.305   5.292   2.904
10468SOL    HW232304   3.346   5.282   3.062
10469SOL     OW32305   3.325   2.969   0.006
10469SOL    HW132306   3.399   3.026   0.041
10469SOL    HW232307   3.251   2.965   0.074
10470SOL     OW32308   2.197   1.728   2.992
10470SOL    HW132309   2.126   1.662   3.016
10470SOL    HW232310   2.203   1.736   2.893
10471SOL     OW32311   2.318   3.663   1.438
10471SOL    HW132312   2.254   3.588   1.418
10471SOL    HW232313   2.320   3.679   1.537
10472SOL     OW32314   3.371   6.443   1.139
10472SOL    HW132315   3.412   6.522   1.094
10472SOL    HW232316   3.384   6.451   1.238
10473SOL     OW32317   5.540   0.068   0.889
10473SOL    HW132318   5.552   0.131   0.811
10473SOL    HW232319   5.623   0.014   0.901
10474SOL     OW32320   4.719   0.511   5.143
10474SOL    HW132321   4.816   0.522   5.165
10474SOL    HW232322   4.709   0.447   5.067
10475SOL     OW32323   4.700   6.286   1.764
10475SOL    HW132324   4.658   6.228   1.833
10475SOL    HW232325   4.646   6.282   1.679
10476SOL     OW32326   0.627   5.484   6.379
10476SOL    HW132327   0.542   5.506   6.426
10476SOL    HW232328   0.609   5.420   6.304
10477SOL     OW32329   5.833   2.725   5.112
10477SOL    HW132330   5.912   2.759   5.061
10477SOL    HW232331   5.827   2.772   5.200
10478SOL     OW32332   0.562   0.497   0.119
10478SOL    HW132333   0.649   0.457   0.147
10478SOL    HW232334   0.577   0.561   0.043
10479SOL     OW32335   0.637   2.933   1.403
10479SOL    HW132336   0.551   2.967   1.365
10479SOL    HW232337   0.619   2.861   1.469
10480SOL     OW32338   5.666   0.692   1.135
10480SOL    HW132339   5.677   0.625   1.062
10480SOL    HW232340   5.572   0.688   1.171
10481SOL     OW32341   2.769   1.259   5.198
10481SOL    HW132342   2.716   1.290   5.277
10481SOL    HW232343   2.859   1.229   5.229
10482SOL     OW32344   0.599   6.058   4.923
10482SOL    HW132345   0.655   5.985   4.963
10482SOL    HW232346   0.538   6.018   4.854
10483SOL     OW32347   6.913   5.279   0.279
10483SOL    HW132348   6.823   5.263   0.238
10483SOL    HW232349   6.981   5.289   0.206
10484SOL     OW32350   6.743   0.294   0.564
10484SOL    HW132351   6.753   0.332   0.655
10484SOL    HW232352   6.788   0.353   0.497
10485SOL     OW32353   3.832   3.507   3.060
10485SOL    HW132354   3.921   3.548   3.041
10485SOL    HW232355   3.805   3.528   3.155
10486SOL     OW32356   6.369   0.778   5.837
10486SOL    HW132357   6.449   0.718   5.836
10486SOL    HW232358   6.396   0.869   5.869
10487SOL     OW32359   4.651   2.001   1.331
10487SOL    HW132360   4.739   1.955   1.324
10487SOL    HW232361   4.585   1.941   1.376
10488SOL     OW32362   1.583   2.460   5.644
10488SOL    HW132363   1.514   2.447   5.714
10488SOL    HW232364   1.544   2.441   5.554
10489SOL     OW32365   5.665   5.595   3.947
10489SOL    HW132366   5.726   5.516   3.946
10489SOL    HW232367   5.717   5.678   3.964
10490SOL     OW32368   5.633   0.505   0.309
10490SOL    HW132369   5.655   0.590   0.358
10490SOL    HW232370   5.644   0.520   0.211
10491SOL     OW32371   2.241   3.058   6.193
10491SOL    HW132372   2.288   2.991   6.136
10491SOL    HW232373   2.267   3.044   6.289
10492SOL     OW32374   3.822   6.042   0.730
10492SOL    HW132375   3.850   6.056   0.635
10492SOL    HW232376   3.899   6.061   0.790
10493SOL     OW32377   2.871   5.464   1.504
10493SOL    HW132378   2.895   5.548   1.554
10493SOL    HW232379   2.884   5.479   1.406
10494SOL     OW32380   0.512   4.618   6.002
10494SOL    HW132381   0.507   4.577   5.911
10494SOL    HW232382   0.607   4.619   6.033
10495SOL     OW32383   6.462   5.890   0.175
10495SOL    HW132384   6.482   5.865   0.080
10495SOL    HW232385   6.365   5.913   0.184
10496SOL     OW32386   6.638   4.419   5.303
10496SOL    HW132387   6.623   4.406   5.401
10496SOL    HW232388   6.574   4.486   5.267
10497SOL     OW32389   1.062   0.035   1.735
10497SOL    HW132390   0.963   0.041   1.724
10497SOL    HW232391   1.084   7.003   1.815
10498SOL     OW32392   5.292   5.807   1.510
10498SOL    HW132393   5.255   5.897   1.529
10498SOL    HW232394   5.348   5.810   1.427
10499SOL     OW32395   5.558   6.013   1.112
10499SOL    HW132396   5.657   6.007   1.129
10499SOL    HW232397   5.524   6.101   1.146
10500SOL     OW32398   5.120   3.118   5.131
10500SOL    HW132399   5.085   3.030   5.164
10500SOL    HW232400   5.178   3.103   5.051
10501SOL     OW32401   2.368   5.603   2.601
10501SOL    HW132402   2.412   5.626   2.514
10501SOL    HW232403   2.434   5.614   2.675
10502SOL     OW32404   3.085   3.350   1.306
10502SOL    HW132405   3.157   3.288   1.337
10502SOL    HW232406   2.996   3.306   1.317
10503SOL     OW32407   6.534   4.140   6.510
10503SOL    HW132408   6.453   4.081   6.507
10503SOL    HW232409   6.595   4.117   6.434
10504SOL     OW32410   0.730   2.636   6.069
10504SOL    HW132411   0.665   2.586   6.012
10504SOL    HW232412   0.729   2.599   6.162
10505SOL     OW32413   5.891   5.572   1.764
10505SOL    HW132414   5.872   5.668   1.784
10505SOL    HW232415   5.806   5.524   1.742
10506SOL     OW32416   0.627   3.367   0.044
10506SOL    HW132417   0.588   3.277   0.026
10506SOL    HW232418   0.710   3.357   0.099
10507SOL     OW32419   2.051   5.221   6.931
10507SOL    HW132420   2.081   5.148   6.993
10507SOL    HW232421   2.130   5.258   6.883
10508SOL     OW32422   1.304   5.612   3.632
10508SOL    HW132423   1.209   5.643   3.634
10508SOL    HW232424   1.312   5.529   3.687
10509SOL     OW32425   5.415   3.742   4.396
10509SOL    HW132426   5.505   3.777   4.371
10509SOL    HW232427   5.415   3.713   4.491
10510SOL     OW32428   4.412   6.510   6.432
10510SOL    HW132429   4.326   6.526   6.479
10510SOL    HW232430   4.455   6.428   6.468
10511SOL     OW32431   2.875   1.332   2.228
10511SOL    HW132432   2.938   1.367   2.159
10511SOL    HW232433   2.902   1.239   2.254
10512SOL     OW32434   4.193   0.020   5.611
10512SOL    HW132435   4.200   0.104   5.557
10512SOL    HW232436   4.263   0.020   5.682
10513SOL     OW32437   6.483   2.621   2.762
10513SOL    HW132438   6.477   2.639   2.664
10513SOL    HW232439   6.444   2.531   2.782
10514SOL     OW32440   1.712   1.768   1.104
10514SOL    HW132441   1.790   1.804   1.154
10514SOL    HW232442   1.689   1.677   1.139
10515SOL     OW32443   2.219   2.125   3.651
10515SOL    HW132444   2.135   2.094   3.606
10515SOL    HW232445   2.224   2.084   3.742
10516SOL     OW32446   2.835   1.981   0.217
10516SOL    HW132447   2.793   1.935   0.296
10516SOL    HW232448   2.934   1.967   0.219
10517SOL     OW32449   1.807   4.486   2.009
10517SOL    HW132450   1.873   4.451   1.943
10517SOL    HW232451   1.726   4.427   2.009
10518SOL     OW32452   0.011   5.053   2.065
10518SOL    HW132453   0.083   5.065   2.134
10518SOL    HW232454   0.049   5.012   1.983
10519SOL     OW32455   2.981   5.079   1.200
10519SOL    HW132456   3.002   4.987   1.169
10519SOL    HW232457   2.927   5.075   1.284
10520SOL     OW32458   6.721   1.698   6.416
10520SOL    HW132459   6.782   1.703   6.337
10520SOL    HW232460   6.711   1.789   6.456
10521SOL     OW32461   6.344   4.490   1.780
10521SOL    HW132462   6.442   4.495   1.799
10521SOL    HW232463   6.306   4.408   1.822
10522SOL     OW32464   0.441   2.546   3.022
10522SOL    HW132465   0.380   2.600   2.964
10522SOL    HW232466   0.430   2.575   3.117
10523SOL     OW32467   0.411   4.122   3.369
10523SOL    HW132468   0.377   4.042   3.417
10523SOL    HW232469   0.350   4.144   3.293
10524SOL     OW32470   0.113   5.724   3.624
10524SOL    HW132471   0.027   5.756   3.583
10524SOL    HW232472   0.100   5.713   3.722
10525SOL     OW32473   3.866   0.226   4.825
10525SOL    HW132474   3.922   0.305   4.849
10525SOL    HW232475   3.784   0.257   4.778
10526SOL     OW32476   0.360   6.340   0.946
10526SOL    HW132477   0.407   6.336   1.034
10526SOL    HW232478   0.362   6.434   0.911
10527SOL     OW32479   0.343   0.209   5.946
10527SOL    HW132480   0.388   0.193   5.858
10527SOL    HW232481   0.257   0.258   5.930
10528SOL     OW32482   0.580   3.989   6.758
10528SOL    HW132483   0.645   3.983   6.834
10528SOL    HW232484   0.567   3.897   6.719
10529SOL     OW32485   1.644   6.125   4.917
10529SOL    HW132486   1.605   6.072   4.842
10529SOL    HW232487   1.580   6.128   4.994
10530SOL     OW32488   1.388   6.366   6.029
10530SOL    HW132489   1.473   6.321   6.055
10530SOL    HW232490   1.352   6.324   5.946
10531SOL     OW32491   2.604   2.520   4.467
10531SOL    HW132492   2.644   2.493   4.379
10531SOL    HW232493   2.622   2.449   4.535
10532SOL     OW32494   5.786   6.794   6.804
10532SOL    HW132495   5.699   6.748   6.785
10532SOL    HW232496   5.840   6.738   6.866
10533SOL     OW32497   3.136   5.626   4.228
10533SOL    HW132498   3.100   5.681   4.153
10533SOL    HW232499   3.232   5.652   4.245
10534SOL     OW32500   0.177   5.899   2.197
10534SOL    HW132501   0.079   5.888   2.182
10534SOL    HW232502   0.198   5.887   2.295
10535SOL     OW32503   2.336   1.322   1.526
10535SOL    HW132504   2.309   1.418   1.534
10535SOL    HW232505   2.314   1.274   1.611
10536SOL     OW32506   4.357   6.849   3.895
10536SOL    HW132507   4.452   6.849   3.926
10536SOL    HW232508   4.352   6.813   3.802
10537SOL     OW32509   4.963   6.656   3.558
10537SOL    HW132510   5.016   6.573   3.542
10537SOL    HW232511   5.007   6.734   3.512
10538SOL     OW32512   5.828   3.923   2.516
10538SOL    HW132513   5.892   3.965   2.580
10538SOL    HW232514   5.868   3.924   2.424
10539SOL     OW32515   6.313   5.447   1.721
10539SOL    HW132516   6.312   5.521   1.788
10539SOL    HW232517   6.380   5.378   1.749
10540SOL     OW32518   2.352   4.060   6.107
10540SOL    HW132519   2.261   4.087   6.076
10540SOL    HW232520   2.344   4.012   6.195
10541SOL     OW32521   3.608   2.876   4.038
10541SOL    HW132522   3.688   2.885   3.979
10541SOL    HW232523   3.525   2.897   3.986
10542SOL     OW32524   6.726   0.233   4.270
10542SOL    HW132525   6.820   0.211   4.246
10542SOL    HW232526   6.702   0.186   4.355
10543SOL     OW32527   0.139   2.596   5.399
10543SOL    HW132528   0.132   2.695   5.401
10543SOL    HW232529   0.079   2.557   5.469
10544SOL     OW32530   1.829   0.041   3.619
10544SOL    HW132531   1.874   0.115   3.569
10544SOL    HW232532   1.851   0.049   3.716
10545SOL     OW32533   1.087   2.786   2.275
10545SOL    HW132534   1.070   2.881   2.246
10545SOL    HW232535   1.118   2.786   2.370
10546SOL     OW32536   3.457   6.265   1.459
10546SOL    HW132537   3.401   6.340   1.492
10546SOL    HW232538   3.548   6.298   1.435
10547SOL     OW32539   4.900   0.667   4.529
10547SOL    HW132540   4.980   0.719   4.499
10547SOL    HW232541   4.828   0.673   4.459
10548SOL     OW32542   0.665   4.676   4.675
10548SOL    HW132543   0.696   4.589   4.637
10548SOL    HW232544   0.590   4.712   4.619
10549SOL     OW32545   0.171   1.526   0.703
10549SOL    HW132546   0.229   1.550   0.626
10549SOL    HW232547   0.076   1.521   0.673
10550SOL     OW32548   3.877   6.672   3.012
10550SOL    HW132549   3.803   6.628   3.064
10550SOL    HW232550   3.838   6.716   2.931
10551SOL     OW32551   2.664   1.728   6.368
10551SOL    HW132552   2.571   1.705   6.342
10551SOL    HW232553   2.711   1.772   6.291
10552SOL     OW32554   2.319   0.681   5.008
10552SOL    HW132555   2.314   0.717   4.915
10552SOL    HW232556   2.227   0.664   5.042
10553SOL     OW32557   6.831   4.482   1.010
10553SOL    HW132558   6.814   4.394   0.965
10553SOL    HW232559   6.929   4.493   1.026
10554SOL     OW32560   5.685   4.898   2.206
10554SOL    HW132561   5.646   4.810   2.233
10554SOL    HW232562   5.617   4.952   2.157
10555SOL     OW32563   3.065   2.439   0.586
10555SOL    HW132564   3.006   2.515   0.614
10555SOL    HW232565   3.128   2.471   0.515
10556SOL     OW32566   2.394   1.504   3.316
10556SOL    HW132567   2.406   1.502   3.415
10556SOL    HW232568   2.437   1.424   3.274
10557SOL     OW32569   1.730   3.175   4.711
10557SOL    HW132570   1.815   3.124   4.700
10557SOL    HW232571   1.720   3.204   4.806
10558SOL     OW32572   2.932   4.643   5.765
10558SOL    HW132573   2.948   4.723   5.822
10558SOL    HW232574   2.863   4.665   5.696
10559SOL     OW32575   3.380   1.092   0.664
10559SOL    HW132576   3.396   0.994   0.670
10559SOL    HW232577   3.439   1.140   0.729
10560SOL     OW32578   4.296   6.174   2.049
10560SOL    HW132579   4.247   6.134   2.126
10560SOL    HW232580   4.330   6.264   2.074
10561SOL     OW32581   4.057   4.949   1.748
10561SOL    HW132582   3.958   4.938   1.756
10561SOL    HW232583   4.080   4.971   1.653
10562SOL     OW32584   3.433   6.190   1.069
10562SOL    HW132585   3.388   6.275   1.097
10562SOL    HW232586   3.462   6.140   1.151
10563SOL     OW32587   0.924   0.552   1.212
10563SOL    HW132588   0.971   0.640   1.209
10563SOL    HW232589   0.976   0.487   1.267
10564SOL     OW32590   6.403   5.450   3.653
10564SOL    HW132591   6.401   5.540   3.607
10564SOL    HW232592   6.332   5.392   3.614
10565SOL     OW32593   6.600   6.833   5.743
10565SOL    HW132594   6.568   6.797   5.830
10565SOL    HW232595   6.693   6.801   5.725
10566SOL     OW32596   3.119   2.798   0.535
10566SOL    HW132597   3.095   2.752   0.449
10566SOL    HW232598   3.050   2.777   0.604
10567SOL     OW32599   1.843   2.554   5.509
10567SOL    HW132600   1.815   2.598   5.424
10567SOL    HW232601   1.763   2.519   5.557
10568SOL     OW32602   6.230   2.743   6.480
10568SOL    HW132603   6.184   2.658   6.504
10568SOL    HW232604   6.179   2.820   6.518
10569SOL     OW32605   5.263   1.118   1.916
10569SOL    HW132606   5.223   1.188   1.975
10569SOL    HW232607   5.222   1.029   1.938
10570SOL     OW32608   1.598   4.736   4.154
10570SOL    HW132609   1.665   4.665   4.173
10570SOL    HW232610   1.615   4.815   4.214
10571SOL     OW32611   0.555   4.278   6.243
10571SOL    HW132612   0.578   4.320   6.155
10571SOL    HW232613   0.599   4.329   6.317
10572SOL     OW32614   6.950   4.654   1.686
10572SOL    HW132615   0.022   4.631   1.705
10572SOL    HW232616   6.896   4.642   1.769
10573SOL     OW32617   4.969   0.472   5.107
10573SOL    HW132618   4.957   0.373   5.118
10573SOL    HW232619   4.959   0.496   5.011
10574SOL     OW32620   6.802   0.740   4.222
10574SOL    HW132621   6.757   0.811   4.276
10574SOL    HW232622   6.897   0.766   4.206
10575SOL     OW32623   5.573   0.571   3.699
10575SOL    HW132624   5.485   0.564   3.654
10575SOL    HW232625   5.584   0.496   3.765
10576SOL     OW32626   1.203   5.204   2.787
10576SOL    HW132627   1.269   5.263   2.741
10576SOL    HW232628   1.251   5.139   2.846
10577SOL     OW32629   2.681   5.768   0.295
10577SOL    HW132630   2.646   5.860   0.312
10577SOL    HW232631   2.649   5.736   0.205
10578SOL     OW32632   5.610   1.440   3.549
10578SOL    HW132633   5.666   1.371   3.501
10578SOL    HW232634   5.543   1.478   3.486
10579SOL     OW32635   2.877   3.785   1.315
10579SOL    HW132636   2.891   3.766   1.412
10579SOL    HW232637   2.856   3.882   1.302
10580SOL     OW32638   6.423   6.624   6.238
10580SOL    HW132639   6.500   6.676   6.275
10580SOL    HW232640   6.453   6.530   6.218
10581SOL     OW32641   4.933   6.696   2.527
10581SOL    HW132642   4.947   6.782   2.479
10581SOL    HW232643   5.012   6.676   2.584
10582SOL     OW32644   5.544   5.039   6.962
10582SOL    HW132645   5.555   5.125   7.012
10582SOL    HW232646   5.634   5.008   6.929
10583SOL     OW32647   3.618   0.178   3.985
10583SOL    HW132648   3.658   0.109   4.045
10583SOL    HW232649   3.632   0.269   4.025
10584SOL     OW32650   6.447   0.332   6.640
10584SOL    HW132651   6.535   0.302   6.602
10584SOL    HW232652   6.373   0.285   6.591
10585SOL     OW32653   1.604   1.751   6.061
10585SOL    HW132654   1.540   1.762   5.985
10585SOL    HW232655   1.639   1.657   6.062
10586SOL     OW32656   4.765   4.945   5.497
10586SOL    HW132657   4.701   5.022   5.497
10586SOL    HW232658   4.719   4.863   5.532
10587SOL     OW32659   0.495   5.848   6.138
10587SOL    HW132660   0.440   5.852   6.221
10587SOL    HW232661   0.592   5.857   6.161
10588SOL     OW32662   2.121   2.183   4.990
10588SOL    HW132663   2.142   2.090   5.022
10588SOL    HW232664   2.029   2.207   5.019
10589SOL     OW32665   5.264   6.121   4.072
10589SOL    HW132666   5.324   6.199   4.051
10589SOL    HW232667   5.171   6.153   4.089
10590SOL     OW32668   0.290   5.711   1.776
10590SOL    HW132669   0.256   5.648   1.706
10590SOL    HW232670   0.335   5.789   1.731
10591SOL     OW32671   2.104   1.487   1.446
10591SOL    HW132672   2.012   1.515   1.471
10591SOL    HW232673   2.102   1.443   1.356
10592SOL     OW32674   5.683   2.512   4.343
10592SOL    HW132675   5.733   2.434   4.382
10592SOL    HW232676   5.717   2.596   4.384
10593SOL     OW32677   1.384   6.339   0.853
10593SOL    HW132678   1.312   6.273   0.828
10593SOL    HW232679   1.425   6.375   0.769
10594SOL     OW32680   3.852   1.301   3.396
10594SOL    HW132681   3.763   1.318   3.353
10594SOL    HW232682   3.840   1.288   3.494
10595SOL     OW32683   6.049   0.808   0.305
10595SOL    HW132684   6.137   0.818   0.259
10595SOL    HW232685   6.000   0.730   0.265
10596SOL     OW32686   4.960   1.263   7.014
10596SOL    HW132687   5.018   1.262   0.072
10596SOL    HW232688   4.911   1.350   7.009
10597SOL     OW32689   2.769   0.941   6.080
10597SOL    HW132690   2.723   1.029   6.071
10597SOL    HW232691   2.745   0.882   6.003
10598SOL     OW32692   2.686   2.130   6.786
10598SOL    HW132693   2.700   2.204   6.720
10598SOL    HW232694   2.593   2.135   6.823
10599SOL     OW32695   6.628   4.332   6.158
10599SOL    HW132696   6.558   4.401   6.141
10599SOL    HW232697   6.666   4.345   6.250
10600SOL     OW32698   3.746   0.920   1.240
10600SOL    HW132699   3.841   0.892   1.226
10600SOL    HW232700   3.710   0.958   1.154
10601SOL     OW32701   0.343   5.897   5.245
10601SOL    HW132702   0.264   5.852   5.288
10601SOL    HW232703   0.426   5.875   5.298
10602SOL     OW32704   0.881   0.942   0.705
10602SOL    HW132705   0.918   1.022   0.658
10602SOL    HW232706   0.861   0.871   0.638
10603SOL     OW32707   4.510   6.728   2.305
10603SOL    HW132708   4.606   6.703   2.294
10603SOL    HW232709   4.495   6.821   2.271
10604SOL     OW32710   0.295   6.392   4.989
10604SOL    HW132711   0.274   6.295   4.974
10604SOL    HW232712   0.216   6.436   5.032
10605SOL     OW32713   1.398   0.172   7.020
10605SOL    HW132714   1.490   0.189   6.983
10605SOL    HW232715   1.399   0.187   0.095
10606SOL     OW32716   6.967   0.629   1.505
10606SOL    HW132717   7.012   0.618   1.593
10606SOL    HW232718   6.984   0.720   1.469
10607SOL     OW32719   4.302   4.290   0.414
10607SOL    HW132720   4.398   4.264   0.426
10607SOL    HW232721   4.248   4.256   0.491
10608SOL     OW32722   6.297   3.344   3.416
10608SOL    HW132723   6.209   3.391   3.422
10608SOL    HW232724   6.290   3.253   3.459
10609SOL     OW32725   2.774   6.440   0.472
10609SOL    HW132726   2.826   6.502   0.413
10609SOL    HW232727   2.782   6.347   0.438
10610SOL     OW32728   6.823   2.661   4.601
10610SOL    HW132729   6.826   2.658   4.501
10610SOL    HW232730   6.894   2.724   4.634
10611SOL     OW32731   2.954   5.422   5.613
10611SOL    HW132732   2.926   5.486   5.685
10611SOL    HW232733   3.029   5.461   5.561
10612SOL     OW32734   5.197   1.143   4.180
10612SOL    HW132735   5.293   1.169   4.168
10612SOL    HW232736   5.140   1.225   4.183
10613SOL     OW32737   5.599   6.047   4.330
10613SOL    HW132738   5.544   6.115   4.281
10613SOL    HW232739   5.551   6.020   4.414
10614SOL     OW32740   5.375   1.038   4.893
10614SOL    HW132741   5.410   1.097   4.820
10614SOL    HW232742   5.347   1.095   4.970
10615SOL     OW32743   3.991   1.423   5.655
10615SOL    HW132744   3.970   1.395   5.561
10615SOL    HW232745   3.977   1.345   5.717
10616SOL     OW32746   2.652   6.187   6.345
10616SOL    HW132747   2.702   6.221   6.425
10616SOL    HW232748   2.563   6.232   6.341
10617SOL     OW32749   2.062   4.535   1.746
10617SOL    HW132750   2.114   4.520   1.662
10617SOL    HW232751   2.026   4.629   1.747
10618SOL     OW32752   0.786   5.462   5.228
10618SOL    HW132753   0.723   5.443   5.303
10618SOL    HW232754   0.845   5.383   5.213
10619SOL     OW32755   0.670   2.383   3.100
10619SOL    HW132756   0.583   2.409   3.057
10619SOL    HW232757   0.716   2.464   3.134
10620SOL     OW32758   1.488   0.167   5.493
10620SOL    HW132759   1.402   0.154   5.444
10620SOL    HW232760   1.469   0.206   5.583
10621SOL     OW32761   0.911   4.358   2.195
10621SOL    HW132762   0.994   4.414   2.204
10621SOL    HW232763   0.936   4.262   2.192
10622SOL     OW32764   4.394   2.382   1.322
10622SOL    HW132765   4.455   2.414   1.394
10622SOL    HW232766   4.325   2.452   1.304
10623SOL     OW32767   5.977   6.047   5.083
10623SOL    HW132768   6.049   5.998   5.132
10623SOL    HW232769   5.977   6.143   5.110
10624SOL     OW32770   0.462   3.109   4.664
10624SOL    HW132771   0.498   3.065   4.747
10624SOL    HW232772   0.370   3.075   4.645
10625SOL     OW32773   0.287   3.756   1.294
10625SOL    HW132774   0.326   3.772   1.385
10625SOL    HW232775   0.335   3.682   1.249
10626SOL     OW32776   3.288   3.019   1.618
10626SOL    HW132777   3.266   2.932   1.575
10626SOL    HW232778   3.346   3.003   1.698
10627SOL     OW32779   6.197   0.995   6.524
10627SOL    HW132780   6.290   0.989   6.488
10627SOL    HW232781   6.138   1.041   6.457
10628SOL     OW32782   4.510   0.188   0.694
10628SOL    HW132783   4.519   0.112   0.631
10628SOL    HW232784   4.474   0.155   0.782
10629SOL     OW32785   3.306   4.929   4.964
10629SOL    HW132786   3.391   4.979   4.946
10629SOL    HW232787   3.270   4.893   4.877
10630SOL     OW32788   5.464   0.927   2.465
10630SOL    HW132789   5.429   0.881   2.546
10630SOL    HW232790   5.419   0.890   2.384
10631SOL     OW32791   4.243   4.476   5.834
10631SOL    HW132792   4.318   4.542   5.841
10631SOL    HW232793   4.259   4.416   5.755
10632SOL     OW32794   5.294   5.616   3.169
10632SOL    HW132795   5.207   5.567   3.167
10632SOL    HW232796   5.356   5.572   3.233
10633SOL     OW32797   2.595   2.305   2.005
10633SOL    HW132798   2.693   2.291   2.023
10633SOL    HW232799   2.585   2.373   1.933
10634SOL     OW32800   1.430   5.586   0.706
10634SOL    HW132801   1.456   5.575   0.610
10634SOL    HW232802   1.491   5.531   0.764
10635SOL     OW32803   2.181   3.198   0.331
10635SOL    HW132804   2.119   3.258   0.281
10635SOL    HW232805   2.137   3.109   0.346
10636SOL     OW32806   6.747   1.819   1.227
10636SOL    HW132807   6.704   1.729   1.234
10636SOL    HW232808   6.678   1.890   1.236
10637SOL     OW32809   1.683   5.651   6.158
10637SOL    HW132810   1.634   5.612   6.236
10637SOL    HW232811   1.774   5.680   6.186
10638SOL     OW32812   5.776   6.255   2.310
10638SOL    HW132813   5.827   6.267   2.225
10638SOL    HW232814   5.714   6.177   2.302
10639SOL     OW32815   1.928   3.327   2.008
10639SOL    HW132816   1.884   3.416   1.991
10639SOL    HW232817   2.024   3.342   2.030
10640SOL     OW32818   4.886   0.488   3.230
10640SOL    HW132819   4.847   0.486   3.322
10640SOL    HW232820   4.975   0.532   3.233
10641SOL     OW32821   2.050   1.296   3.933
10641SOL    HW132822   2.045   1.290   4.033
10641SOL    HW232823   2.130   1.349   3.906
10642SOL     OW32824   6.013   2.092   0.351
10642SOL    HW132825   5.942   2.066   0.286
10642SOL    HW232826   6.056   2.010   0.389
10643SOL     OW32827   2.107   6.399   4.485
10643SOL    HW132828   2.194   6.402   4.435
10643SOL    HW232829   2.056   6.483   4.467
10644SOL     OW32830   5.659   3.351   0.952
10644SOL    HW132831   5.702   3.351   1.043
10644SOL    HW232832   5.664   3.442   0.913
10645SOL     OW32833   2.397   2.606   3.631
10645SOL    HW132834   2.374   2.694   3.673
10645SOL    HW232835   2.343   2.534   3.673
10646SOL     OW32836   5.957   0.729   5.836
10646SOL    HW132837   5.890   0.678   5.784
10646SOL    HW232838   5.950   0.826   5.814
10647SOL     OW32839   3.102   5.418   5.191
10647SOL    HW132840   3.103   5.490   5.122
10647SOL    HW232841   3.147   5.337   5.155
10648SOL     OW32842   5.880   5.557   6.648
10648SOL    HW132843   5.824   5.635   6.677
10648SOL    HW232844   5.829   5.504   6.581
10649SOL     OW32845   1.083   3.438   3.454
10649SOL    HW132846   1.175   3.463   3.483
10649SOL    HW232847   1.078   3.437   3.355
10650SOL     OW32848   0.555   0.325   4.316
10650SOL    HW132849   0.611   0.256   4.270
10650SOL    HW232850   0.513   0.285   4.397
10651SOL     OW32851   6.025   6.090   6.466
10651SOL    HW132852   6.007   5.995   6.440
10651SOL    HW232853   5.952   6.122   6.526
10652SOL     OW32854   2.036   6.825   5.523
10652SOL    HW132855   2.064   6.747   5.467
10652SOL    HW232856   1.960   6.797   5.582
10653SOL     OW32857   3.853   6.025   5.003
10653SOL    HW132858   3.760   5.997   5.026
10653SOL    HW232859   3.918   5.977   5.061
10654SOL     OW32860   5.079   0.935   5.615
10654SOL    HW132861   5.111   0.998   5.544
10654SOL    HW232862   5.003   0.881   5.580
10655SOL     OW32863   1.473   4.407   0.584
10655SOL    HW132864   1.504   4.396   0.490
10655SOL    HW232865   1.541   4.462   0.635
10656SOL     OW32866   6.468   1.325   2.482
10656SOL    HW132867   6.423   1.237   2.498
10656SOL    HW232868   6.402   1.399   2.497
10657SOL     OW32869   6.288   0.626   4.731
10657SOL    HW132870   6.198   0.668   4.727
10657SOL    HW232871   6.349   0.673   4.667
10658SOL     OW32872   6.394   4.146   4.901
10658SOL    HW132873   6.442   4.215   4.955
10658SOL    HW232874   6.459   4.075   4.872
10659SOL     OW32875   0.925   4.564   0.656
10659SOL    HW132876   0.895   4.612   0.573
10659SOL    HW232877   0.918   4.465   0.642
10660SOL     OW32878   5.931   4.257   5.378
10660SOL    HW132879   5.935   4.181   5.443
10660SOL    HW232880   5.864   4.237   5.307
10661SOL     OW32881   1.565   5.843   0.666
10661SOL    HW132882   1.562   5.846   0.766
10661SOL    HW232883   1.595   5.753   0.636
10662SOL     OW32884   4.330   0.823   2.397
10662SOL    HW132885   4.402   0.765   2.435
10662SOL    HW232886   4.335   0.914   2.438
10663SOL     OW32887   0.711   1.205   2.842
10663SOL    HW132888   0.637   1.207   2.909
10663SOL    HW232889   0.779   1.275   2.866
10664SOL     OW32890   6.792   4.711   5.329
10664SOL    HW132891   6.829   4.675   5.244
10664SOL    HW232892   6.702   4.751   5.313
10665SOL     OW32893   2.135   2.171   6.948
10665SOL    HW132894   2.184   2.256   6.966
10665SOL    HW232895   2.041   2.191   6.921
10666SOL     OW32896   3.304   4.113   2.595
10666SOL    HW132897   3.241   4.190   2.604
10666SOL    HW232898   3.374   4.119   2.665
10667SOL     OW32899   4.870   1.569   4.188
10667SOL    HW132900   4.861   1.653   4.240
10667SOL    HW232901   4.779   1.536   4.161
10668SOL     OW32902   3.180   1.274   4.887
10668SOL    HW132903   3.191   1.186   4.841
10668SOL    HW232904   3.102   1.270   4.949
10669SOL     OW32905   6.354   0.717   0.969
10669SOL    HW132906   6.374   0.655   1.044
10669SOL    HW232907   6.257   0.742   0.971
10670SOL     OW32908   5.908   4.890   4.924
10670SOL    HW132909   5.912   4.912   5.021
10670SOL    HW232910   5.939   4.797   4.909
10671SOL     OW32911   1.645   1.788   4.289
10671SOL    HW132912   1.590   1.738   4.222
10671SOL    HW232913   1.589   1.809   4.370
10672SOL     OW32914   6.696   4.249   2.117
10672SOL    HW132915   6.741   4.331   2.153
10672SOL    HW232916   6.603   4.243   2.154
10673SOL     OW32917   0.934   0.129   0.407
10673SOL    HW132918   1.003   0.198   0.425
10673SOL    HW232919   0.942   0.054   0.473
10674SOL     OW32920   4.049   3.724   4.315
10674SOL    HW132921   4.067   3.660   4.390
10674SOL    HW232922   4.131   3.733   4.259
10675SOL     OW32923   2.446   0.523   6.552
10675SOL    HW132924   2.517   0.560   6.492
10675SOL    HW232925   2.359   0.568   6.533
10676SOL     OW32926   0.315   6.484   4.739
10676SOL    HW132927   0.232   6.538   4.731
10676SOL    HW232928   0.324   6.449   4.833
10677SOL     OW32929   1.844   0.754   1.519
10677SOL    HW132930   1.931   0.801   1.506
10677SOL    HW232931   1.786   0.769   1.438
10678SOL     OW32932   4.254   4.941   3.951
10678SOL    HW132933   4.349   4.910   3.954
10678SOL    HW232934   4.253   5.038   3.927
10679SOL     OW32935   3.462   5.444   6.506
10679SOL    HW132936   3.505   5.394   6.431
10679SOL    HW232937   3.515   5.431   6.590
10680SOL     OW32938   3.631   2.124   3.385
10680SOL    HW132939   3.579   2.040   3.369
10680SOL    HW232940   3.609   2.159   3.476
10681SOL     OW32941   6.580   3.883   0.314
10681SOL    HW132942   6.490   3.846   0.290
10681SOL    HW232943   6.641   3.876   0.234
10682SOL     OW32944   7.005   2.701   5.159
10682SOL    HW132945   0.062   2.755   5.180
10682SOL    HW232946   6.932   2.722   5.224
10683SOL     OW32947   4.667   0.804   3.841
10683SOL    HW132948   4.692   0.876   3.906
10683SOL    HW232949   4.614   0.733   3.888
10684SOL     OW32950   4.248   4.994   2.491
10684SOL    HW132951   4.221   4.899   2.473
10684SOL    HW232952   4.252   5.010   2.590
10685SOL     OW32953   0.126   5.760   1.073
10685SOL    HW132954   0.185   5.837   1.098
10685SOL    HW232955   0.110   5.703   1.154
10686SOL     OW32956   1.544   3.936   6.028
10686SOL    HW132957   1.543   4.000   5.951
10686SOL    HW232958   1.502   3.849   6.000
10687SOL     OW32959   6.226   5.106   4.291
10687SOL    HW132960   6.181   5.035   4.346
10687SOL    HW232961   6.292   5.063   4.229
10688SOL     OW32962   5.962   3.250   2.872
10688SOL    HW132963   6.004   3.267   2.783
10688SOL    HW232964   6.028   3.272   2.944
10689SOL     OW32965   6.187   0.260   2.400
10689SOL    HW132966   6.146   0.349   2.420
10689SOL    HW232967   6.267   0.247   2.459
10690SOL     OW32968   0.398   5.333   3.586
10690SOL    HW132969   0.400   5.277   3.503
10690SOL    HW232970   0.401   5.430   3.560
10691SOL     OW32971   1.817   1.897   1.988
10691SOL    HW132972   1.913   1.922   1.989
10691SOL    HW232973   1.784   1.895   1.894
10692SOL     OW32974   2.385   0.548   3.553
10692SOL    HW132975   2.476   0.507   3.561
10692SOL    HW232976   2.356   0.583   3.641
10693SOL     OW32977   1.651   5.938   1.397
10693SOL    HW132978   1.699   6.012   1.444
10693SOL    HW232979   1.708   5.902   1.324
10694SOL     OW32980   5.370   5.966   6.868
10694SOL    HW132981   5.384   6.026   6.947
10694SOL    HW232982   5.425   5.884   6.879
10695SOL     OW32983   1.465   2.285   2.698
10695SOL    HW132984   1.532   2.293   2.625
10695SOL    HW232985   1.433   2.376   2.725
10696SOL     OW32986   6.272   4.194   3.870
10696SOL    HW132987   6.234   4.149   3.950
10696SOL    HW232988   6.199   4.237   3.818
10697SOL     OW32989   0.341   0.271   5.611
10697SOL    HW132990   0.343   0.174   5.634
10697SOL    HW232991   0.261   0.313   5.654
10698SOL     OW32992   4.941   4.909   6.995
10698SOL    HW132993   5.017   4.969   7.020
10698SOL    HW232994   4.970   4.813   7.005
10699SOL     OW32995   3.791   4.878   1.685
10699SOL    HW132996   3.809   4.781   1.695
10699SOL    HW232997   3.827   4.911   1.597
10700SOL     OW32998   5.561   6.234   0.524
10700SOL    HW132999   5.638   6.171   0.513
10700SOL    HW233000   5.519   6.220   0.613
10701SOL     OW33001   2.071   6.405   5.570
10701SOL    HW133002   2.009   6.448   5.637
10701SOL    HW233003   2.145   6.358   5.618
10702SOL     OW33004   5.872   3.244   2.315
10702SOL    HW133005   5.806   3.270   2.385
10702SOL    HW233006   5.946   3.192   2.357
10703SOL     OW33007   2.621   2.847   5.360
10703SOL    HW133008   2.592   2.920   5.297
10703SOL    HW233009   2.705   2.874   5.406
10704SOL     OW33010   6.272   4.859   1.886
10704SOL    HW133011   6.365   4.837   1.857
10704SOL    HW233012   6.216   4.776   1.883
10705SOL     OW33013   6.634   4.989   1.523
10705SOL    HW133014   6.579   5.072   1.530
10705SOL    HW233015   6.638   4.959   1.428
10706SOL     OW33016   4.726   0.330   3.101
10706SOL    HW133017   4.674   0.289   3.176
10706SOL    HW233018   4.805   0.379   3.138
10707SOL     OW33019   0.298   6.483   4.290
10707SOL    HW133020   0.365   6.557   4.295
10707SOL    HW233021   0.333   6.409   4.232
10708SOL     OW33022   3.872   1.410   1.109
10708SOL    HW133023   3.835   1.498   1.140
10708SOL    HW233024   3.930   1.426   1.029
10709SOL     OW33025   5.560   5.984   5.697
10709SOL    HW133026   5.589   6.079   5.702
10709SOL    HW233027   5.602   5.932   5.771
10710SOL     OW33028   6.398   0.968   4.331
10710SOL    HW133029   6.375   1.065   4.324
10710SOL    HW233030   6.422   0.932   4.241
10711SOL     OW33031   2.011   6.448   4.034
10711SOL    HW133032   1.993   6.368   4.091
10711SOL    HW233033   2.109   6.456   4.017
10712SOL     OW33034   2.915   0.946   1.871
10712SOL    HW133035   2.926   0.964   1.773
10712SOL    HW233036   2.833   0.993   1.904
10713SOL     OW33037   0.680   3.691   0.930
10713SOL    HW133038   0.683   3.598   0.967
10713SOL    HW233039   0.768   3.736   0.946
10714SOL     OW33040   5.471   3.786   5.304
10714SOL    HW133041   5.395   3.836   5.263
10714SOL    HW233042   5.439   3.735   5.384
10715SOL     OW33043   4.545   0.462   2.265
10715SOL    HW133044   4.611   0.429   2.332
10715SOL    HW233045   4.471   0.396   2.255
10716SOL     OW33046   5.803   1.919   3.904
10716SOL    HW133047   5.730   1.855   3.929
10716SOL    HW233048   5.777   1.968   3.821
10717SOL     OW33049   1.116   2.365   1.416
10717SOL    HW133050   1.062   2.445   1.390
10717SOL    HW233051   1.156   2.324   1.335
10718SOL     OW33052   0.839   3.796   6.897
10718SOL    HW133053   0.780   3.756   6.826
10718SOL    HW233054   0.857   3.727   6.967
10719SOL     OW33055   0.061   5.816   2.694
10719SOL    HW133056   0.120   5.792   2.771
10719SOL    HW233057   6.996   5.771   2.704
10720SOL     OW33058   0.433   4.494   5.543
10720SOL    HW133059   0.457   4.409   5.497
10720SOL    HW233060   0.339   4.520   5.520
10721SOL     OW33061   5.230   3.697   4.897
10721SOL    HW133062   5.156   3.737   4.843
10721SOL    HW233063   5.214   3.599   4.907
10722SOL     OW33064   1.313   5.215   6.608
10722SOL    HW133065   1.411   5.226   6.623
10722SOL    HW233066   1.271   5.305   6.594
10723SOL     OW33067   0.698   3.083   6.397
10723SOL    HW133068   0.705   3.122   6.306
10723SOL    HW233069   0.774   3.020   6.413
10724SOL     OW33070   6.603   1.646   0.126
10724SOL    HW133071   6.699   1.618   0.115
10724SOL    HW233072   6.544   1.584   0.074
10725SOL     OW33073   1.492   5.553   4.448
10725SOL    HW133074   1.417   5.553   4.514
10725SOL    HW233075   1.495   5.466   4.400
10726SOL     OW33076   5.419   0.196   4.750
10726SOL    HW133077   5.471   0.180   4.834
10726SOL    HW233078   5.480   0.234   4.680
10727SOL     OW33079   0.358   4.912   5.394
10727SOL    HW133080   0.421   4.835   5.405
10727SOL    HW233081   0.318   4.935   5.483
10728SOL     OW33082   0.341   6.152   6.536
10728SOL    HW133083   0.409   6.106   6.594
10728SOL    HW233084   0.367   6.248   6.524
10729SOL     OW33085   5.068   1.679   2.296
10729SOL    HW133086   5.014   1.621   2.235
10729SOL    HW233087   5.008   1.731   2.355
10730SOL     OW33088   1.903   0.950   1.036
10730SOL    HW133089   1.831   0.926   1.101
10730SOL    HW233090   1.986   0.973   1.086
10731SOL     OW33091   3.074   6.979   0.883
10731SOL    HW133092   3.036   0.042   0.849
10731SOL    HW233093   3.040   6.904   0.828
10732SOL     OW33094   6.452   4.585   4.640
10732SOL    HW133095   6.512   4.589   4.561
10732SOL    HW233096   6.413   4.494   4.648
10733SOL     OW33097   6.226   2.178   0.957
10733SOL    HW133098   6.137   2.219   0.937
10733SOL    HW233099   6.287   2.192   0.879
10734SOL     OW33100   0.562   0.625   6.889
10734SOL    HW133101   0.601   0.539   6.857
10734SOL    HW233102   0.464   0.626   6.872
10735SOL     OW33103   0.717   2.739   3.153
10735SOL    HW133104   0.730   2.735   3.252
10735SOL    HW233105   0.631   2.786   3.133
10736SOL     OW33106   0.815   0.532   3.217
10736SOL    HW133107   0.876   0.462   3.255
10736SOL    HW233108   0.744   0.553   3.284
10737SOL     OW33109   1.692   1.801   0.825
10737SOL    HW133110   1.791   1.814   0.818
10737SOL    HW233111   1.667   1.776   0.919
10738SOL     OW33112   2.607   0.523   3.144
10738SOL    HW133113   2.640   0.563   3.059
10738SOL    HW233114   2.650   0.568   3.221
10739SOL     OW33115   1.401   1.853   0.778
10739SOL    HW133116   1.356   1.773   0.740
10739SOL    HW233117   1.499   1.847   0.760
10740SOL     OW33118   0.101   4.652   4.861
10740SOL    HW133119   0.034   4.683   4.928
10740SOL    HW233120   0.073   4.680   4.769
10741SOL     OW33121   5.573   0.611   1.395
10741SOL    HW133122   5.607   0.692   1.443
10741SOL    HW233123   5.483   0.630   1.356
10742SOL     OW33124   5.691   0.484   0.747
10742SOL    HW133125   5.634   0.557   0.784
10742SOL    HW233126   5.636   0.403   0.731
10743SOL     OW33127   2.659   1.463   5.970
10743SOL    HW133128   2.613   1.385   5.928
10743SOL    HW233129   2.757   1.458   5.952
10744SOL     OW33130   3.727   1.674   1.182
10744SOL    HW133131   3.810   1.667   1.237
10744SOL    HW233132   3.676   1.755   1.210
10745SOL     OW33133   0.105   6.157   6.644
10745SOL    HW133134   0.040   6.117   6.579
10745SOL    HW233135   0.196   6.161   6.603
10746SOL     OW33136   2.431   5.040   0.926
10746SOL    HW133137   2.381   4.975   0.983
10746SOL    HW233138   2.510   4.994   0.885
10747SOL     OW33139   3.758   1.211   4.366
10747SOL    HW133140   3.755   1.230   4.268
10747SOL    HW233141   3.848   1.237   4.401
10748SOL     OW33142   5.331   0.890   1.050
10748SOL    HW133143   5.289   0.844   1.128
10748SOL    HW233144   5.280   0.867   0.967
10749SOL     OW33145   0.876   5.137   3.005
10749SOL    HW133146   0.812   5.061   2.996
10749SOL    HW233147   0.872   5.194   2.923
10750SOL     OW33148   4.244   6.130   4.443
10750SOL    HW133149   4.328   6.175   4.412
10750SOL    HW233150   4.252   6.031   4.428
10751SOL     OW33151   1.547   4.227   4.796
10751SOL    HW133152   1.624   4.288   4.776
10751SOL    HW233153   1.517   4.242   4.890
10752SOL     OW33154   6.438   3.934   6.217
10752SOL    HW133155   6.509   3.864   6.227
10752SOL    HW233156   6.388   3.944   6.304
10753SOL     OW33157   4.886   5.609   4.251
10753SOL    HW133158   4.956   5.674   4.222
10753SOL    HW233159   4.930   5.528   4.289
10754SOL     OW33160   0.858   0.843   2.933
10754SOL    HW133161   0.920   0.902   2.880
10754SOL    HW233162   0.891   0.749   2.928
10755SOL     OW33163   6.581   0.907   0.005
10755SOL    HW133164   6.581   0.872   6.935
10755SOL    HW233165   6.506   0.864   0.055
10756SOL     OW33166   6.856   5.131   7.011
10756SOL    HW133167   6.838   5.064   6.939
10756SOL    HW233168   6.778   5.193   7.019
10757SOL     OW33169   2.523   2.819   0.453
10757SOL    HW133170   2.424   2.825   0.469
10757SOL    HW233171   2.572   2.843   0.538
10758SOL     OW33172   0.487   6.690   4.267
10758SOL    HW133173   0.564   6.634   4.297
10758SOL    HW233174   0.520   6.777   4.232
10759SOL     OW33175   1.955   2.932   1.268
10759SOL    HW133176   1.980   2.966   1.359
10759SOL    HW233177   1.897   2.851   1.278
10760SOL     OW33178   5.397   1.547   2.680
10760SOL    HW133179   5.434   1.639   2.671
10760SOL    HW233180   5.343   1.524   2.599
10761SOL     OW33181   1.113   6.844   6.088
10761SOL    HW133182   1.067   6.798   6.164
10761SOL    HW233183   1.046   6.897   6.035
10762SOL     OW33184   3.630   2.093   4.483
10762SOL    HW133185   3.721   2.105   4.522
10762SOL    HW233186   3.561   2.107   4.553
10763SOL     OW33187   5.396   6.663   2.451
10763SOL    HW133188   5.354   6.751   2.470
10763SOL    HW233189   5.359   6.625   2.366
10764SOL     OW33190   5.052   2.344   5.906
10764SOL    HW133191   5.057   2.388   5.996
10764SOL    HW233192   5.104   2.259   5.908
10765SOL     OW33193   5.117   2.457   0.136
10765SOL    HW133194   5.197   2.399   0.150
10765SOL    HW233195   5.092   2.499   0.223
10766SOL     OW33196   5.141   4.129   0.246
10766SOL    HW133197   5.177   4.066   0.314
10766SOL    HW233198   5.216   4.164   0.189
10767SOL     OW33199   1.168   0.927   0.154
10767SOL    HW133200   1.190   0.832   0.178
10767SOL    HW233201   1.070   0.935   0.135
10768SOL     OW33202   4.635   4.760   1.889
10768SOL    HW133203   4.634   4.660   1.888
10768SOL    HW233204   4.675   4.794   1.804
10769SOL     OW33205   2.398   4.297   5.271
10769SOL    HW133206   2.409   4.209   5.224
10769SOL    HW233207   2.454   4.366   5.226
10770SOL     OW33208   5.643   0.147   4.577
10770SOL    HW133209   5.709   0.176   4.508
10770SOL    HW233210   5.593   0.067   4.544
10771SOL     OW33211   6.106   0.062   3.817
10771SOL    HW133212   6.134   7.012   3.878
10771SOL    HW233213   6.045   0.125   3.865
10772SOL     OW33214   5.787   6.769   4.440
10772SOL    HW133215   5.882   6.754   4.411
10772SOL    HW233216   5.771   6.720   4.526
10773SOL     OW33217   6.307   6.050   6.877
10773SOL    HW133218   6.389   6.076   6.928
10773SOL    HW233219   6.329   6.038   6.781
10774SOL     OW33220   3.010   1.524   6.920
10774SOL    HW133221   2.994   1.611   6.966
10774SOL    HW233222   2.922   1.477   6.906
10775SOL     OW33223   0.473   4.603   1.629
10775SOL    HW133224   0.490   4.683   1.687
10775SOL    HW233225   0.542   4.533   1.648
10776SOL     OW33226   0.047   0.923   6.742
10776SOL    HW133227   0.019   0.932   6.838
10776SOL    HW233228   0.129   0.979   6.726
10777SOL     OW33229   3.827   5.678   3.184
10777SOL    HW133230   3.842   5.681   3.085
10777SOL    HW233231   3.899   5.624   3.227
10778SOL     OW33232   5.549   7.014   4.201
10778SOL    HW133233   5.569   0.088   4.204
10778SOL    HW233234   5.558   6.974   4.292
10779SOL     OW33235   6.155   3.534   3.801
10779SOL    HW133236   6.099   3.617   3.808
10779SOL    HW233237   6.236   3.554   3.745
10780SOL     OW33238   2.176   1.015   3.507
10780SOL    HW133239   2.131   1.079   3.444
10780SOL    HW233240   2.232   1.065   3.572
10781SOL     OW33241   4.621   1.136   4.494
10781SOL    HW133242   4.682   1.057   4.502
10781SOL    HW233243   4.562   1.140   4.575
10782SOL     OW33244   6.255   2.039   1.754
10782SOL    HW133245   6.311   2.017   1.835
10782SOL    HW233246   6.160   2.049   1.781
10783SOL     OW33247   0.317   2.709   2.866
10783SOL    HW133248   0.398   2.747   2.911
10783SOL    HW233249   0.285   2.772   2.794
10784SOL     OW33250   3.739   6.831   3.953
10784SOL    HW133251   3.652   6.853   3.909
10784SOL    HW233252   3.740   6.868   4.046
10785SOL     OW33253   0.082   4.660   0.511
10785SOL    HW133254   0.169   4.699   0.543
10785SOL    HW233255   0.026   4.733   0.472
10786SOL     OW33256   5.702   4.684   3.549
10786SOL    HW133257   5.633   4.713   3.615
10786SOL    HW233258   5.678   4.718   3.458
10787SOL     OW33259   2.512   1.651   5.660
10787SOL    HW133260   2.427   1.599   5.653
10787SOL    HW233261   2.536   1.662   5.757
10788SOL     OW33262   1.680   4.649   6.241
10788SOL    HW133263   1.638   4.573   6.289
10788SOL    HW233264   1.779   4.635   6.234
10789SOL     OW33265   6.756   2.568   6.577
10789SOL    HW133266   6.723   2.482   6.539
10789SOL    HW233267   6.699   2.643   6.542
10790SOL     OW33268   1.174   0.251   1.591
10790SOL    HW133269   1.178   0.336   1.644
10790SOL    HW233270   1.130   0.180   1.645
10791SOL     OW33271   6.733   6.652   1.747
10791SOL    HW133272   6.686   6.609   1.824
10791SOL    HW233273   6.754   6.747   1.769
10792SOL     OW33274   3.144   3.677   4.762
10792SOL    HW133275   3.047   3.697   4.756
10792SOL    HW233276   3.192   3.753   4.806
10793SOL     OW33277   5.806   3.047   4.879
10793SOL    HW133278   5.751   3.075   4.957
10793SOL    HW233279   5.747   3.034   4.799
10794SOL     OW33280   3.577   3.237   4.184
10794SOL    HW133281   3.631   3.156   4.207
10794SOL    HW233282   3.536   3.275   4.267
10795SOL     OW33283   6.844   4.933   2.289
10795SOL    HW133284   6.924   4.939   2.230
10795SOL    HW233285   6.872   4.903   2.380
10796SOL     OW33286   5.899   0.403   6.101
10796SOL    HW133287   5.975   0.434   6.158
10796SOL    HW233288   5.844   0.482   6.073
10797SOL     OW33289   2.958   2.283   1.425
10797SOL    HW133290   3.048   2.244   1.446
10797SOL    HW233291   2.923   2.331   1.505
10798SOL     OW33292   2.621   0.160   0.193
10798SOL    HW133293   2.712   0.158   0.234
10798SOL    HW233294   2.562   0.220   0.247
10799SOL     OW33295   4.125   1.087   1.886
10799SOL    HW133296   4.042   1.117   1.932
10799SOL    HW233297   4.204   1.106   1.943
10800SOL     OW33298   6.795   6.488   6.344
10800SOL    HW133299   6.730   6.477   6.269
10800SOL    HW233300   6.816   6.398   6.384
10801SOL     OW33301   1.276   6.317   6.317
10801SOL    HW133302   1.279   6.326   6.218
10801SOL    HW233303   1.275   6.408   6.359
10802SOL     OW33304   1.037   0.266   2.911
10802SOL    HW133305   1.004   0.173   2.930
10802SOL    HW233306   0.992   0.301   2.829
10803SOL     OW33307   2.401   5.219   6.375
10803SOL    HW133308   2.318   5.263   6.407
10803SOL    HW233309   2.469   5.219   6.448
10804SOL     OW33310   5.687   3.291   2.526
10804SOL    HW133311   5.671   3.284   2.625
10804SOL    HW233312   5.605   3.326   2.481
10805SOL     OW33313   4.542   6.726   6.233
10805SOL    HW133314   4.640   6.707   6.232
10805SOL    HW233315   4.502   6.690   6.318
10806SOL     OW33316   4.233   4.262   6.134
10806SOL    HW133317   4.332   4.243   6.139
10806SOL    HW233318   4.187   4.215   6.209
10807SOL     OW33319   1.682   6.772   2.480
10807SOL    HW133320   1.681   6.872   2.476
10807SOL    HW233321   1.717   6.735   2.394
10808SOL     OW33322   6.839   2.595   6.028
10808SOL    HW133323   6.771   2.664   6.003
10808SOL    HW233324   6.924   2.612   5.977
10809SOL     OW33325   2.728   4.728   3.571
10809SOL    HW133326   2.679   4.815   3.560
10809SOL    HW233327   2.764   4.722   3.664
10810SOL     OW33328   1.329   0.312   3.691
10810SOL    HW133329   1.293   0.284   3.780
10810SOL    HW233330   1.299   0.248   3.621
10811SOL     OW33331   4.098   4.746   6.003
10811SOL    HW133332   4.134   4.818   6.062
10811SOL    HW233333   4.154   4.663   6.014
10812SOL     OW33334   0.555   3.886   0.570
10812SOL    HW133335   0.485   3.895   0.499
10812SOL    HW233336   0.525   3.818   0.637
10813SOL     OW33337   1.544   4.058   6.465
10813SOL    HW133338   1.618   4.119   6.437
10813SOL    HW233339   1.582   3.972   6.500
10814SOL     OW33340   1.588   6.939   6.323
10814SOL    HW133341   1.572   6.948   6.225
10814SOL    HW233342   1.634   7.020   6.357
10815SOL     OW33343   5.160   3.806   3.278
10815SOL    HW133344   5.106   3.889   3.283
10815SOL    HW233345   5.102   3.727   3.296
10816SOL     OW33346   3.294   3.701   2.785
10816SOL    HW133347   3.301   3.761   2.705
10816SOL    HW233348   3.295   3.757   2.868
10817SOL     OW33349   4.373   0.354   3.418
10817SOL    HW133350   4.314   0.403   3.482
10817SOL    HW233351   4.335   0.360   3.325
10818SOL     OW33352   4.767   4.394   5.448
10818SOL    HW133353   4.742   4.327   5.518
10818SOL    HW233354   4.862   4.381   5.421
10819SOL     OW33355   6.219   5.214   6.125
10819SOL    HW133356   6.316   5.206   6.148
10819SOL    HW233357   6.209   5.221   6.025
10820SOL     OW33358   0.164   4.815   4.181
10820SOL    HW133359   0.236   4.880   4.158
10820SOL    HW233360   0.133   4.831   4.275
10821SOL     OW33361   4.645   6.764   3.948
10821SOL    HW133362   4.717   6.832   3.936
10821SOL    HW233363   4.681   6.685   3.998
10822SOL     OW33364   6.055   2.208   2.856
10822SOL    HW133365   6.054   2.296   2.904
10822SOL    HW233366   6.112   2.143   2.905
10823SOL     OW33367   1.119   0.892   1.876
10823SOL    HW133368   1.197   0.954   1.867
10823SOL    HW233369   1.131   0.836   1.958
10824SOL     OW33370   6.975   1.474   2.754
10824SOL    HW133371   6.954   1.565   2.791
10824SOL    HW233372   6.910   1.452   2.681
10825SOL     OW33373   2.126   1.787   6.288
10825SOL    HW133374   2.041   1.839   6.278
10825SOL    HW233375   2.187   1.808   6.212
10826SOL     OW33376   0.640   2.029   3.482
10826SOL    HW133377   0.605   1.942   3.519
10826SOL    HW233378   0.693   2.076   3.552
10827SOL     OW33379   0.199   3.454   4.619
10827SOL    HW133380   0.167   3.459   4.524
10827SOL    HW233381   0.174   3.365   4.658
10828SOL     OW33382   1.413   4.158   0.727
10828SOL    HW133383   1.393   4.222   0.653
10828SOL    HW233384   1.509   4.130   0.722
10829SOL     OW33385   4.832   2.741   0.644
10829SOL    HW133386   4.798   2.656   0.683
10829SOL    HW233387   4.917   2.767   0.691
10830SOL     OW33388   4.196   1.906   3.208
10830SOL    HW133389   4.177   1.810   3.188
10830SOL    HW233390   4.293   1.925   3.193
10831SOL     OW33391   3.266   6.309   3.023
10831SOL    HW133392   3.295   6.395   2.982
10831SOL    HW233393   3.183   6.277   2.976
10832SOL     OW33394   0.172   3.600   6.255
10832SOL    HW133395   0.189   3.694   6.226
10832SOL    HW233396   0.219   3.537   6.194
10833SOL     OW33397   0.609   1.025   1.838
10833SOL    HW133398   0.588   0.954   1.771
10833SOL    HW233399   0.706   1.051   1.830
10834SOL     OW33400   6.440   1.580   0.589
10834SOL    HW133401   6.354   1.530   0.603
10834SOL    HW233402   6.500   1.565   0.667
10835SOL     OW33403   5.987   2.581   0.232
10835SOL    HW133404   5.907   2.608   0.286
10835SOL    HW233405   6.037   2.509   0.279
10836SOL     OW33406   6.500   2.057   4.592
10836SOL    HW133407   6.514   1.961   4.619
10836SOL    HW233408   6.511   2.115   4.673
10837SOL     OW33409   6.646   4.930   1.050
10837SOL    HW133410   6.597   4.971   0.973
10837SOL    HW233411   6.738   4.904   1.021
10838SOL     OW33412   6.908   6.060   3.660
10838SOL    HW133413   6.985   6.122   3.646
10838SOL    HW233414   6.827   6.096   3.613
10839SOL     OW33415   4.529   3.291   1.379
10839SOL    HW133416   4.438   3.261   1.349
10839SOL    HW233417   4.552   3.247   1.466
10840SOL     OW33418   3.125   6.190   2.364
10840SOL    HW133419   3.185   6.184   2.284
10840SOL    HW233420   3.062   6.113   2.364
10841SOL     OW33421   6.521   4.677   5.679
10841SOL    HW133422   6.463   4.596   5.669
10841SOL    HW233423   6.498   4.743   5.607
10842SOL     OW33424   4.724   2.110   0.946
10842SOL    HW133425   4.771   2.047   1.007
10842SOL    HW233426   4.755   2.203   0.964
10843SOL     OW33427   1.322   1.458   0.920
10843SOL    HW133428   1.290   1.552   0.909
10843SOL    HW233429   1.420   1.458   0.942
10844SOL     OW33430   0.933   5.906   3.377
10844SOL    HW133431   0.893   5.961   3.450
10844SOL    HW233432   1.032   5.917   3.377
10845SOL     OW33433   3.571   6.541   5.460
10845SOL    HW133434   3.600   6.576   5.549
10845SOL    HW233435   3.531   6.450   5.472
10846SOL     OW33436   5.558   0.777   6.838
10846SOL    HW133437   5.493   0.788   6.913
10846SOL    HW233438   5.639   0.833   6.855
10847SOL     OW33439   3.623   2.897   0.270
10847SOL    HW133440   3.710   2.919   0.314
10847SOL    HW233441   3.565   2.847   0.334
10848SOL     OW33442   2.280   3.901   0.731
10848SOL    HW133443   2.295   3.803   0.746
10848SOL    HW233444   2.368   3.947   0.722
10849SOL     OW33445   2.409   4.551   4.080
10849SOL    HW133446   2.365   4.462   4.067
10849SOL    HW233447   2.471   4.569   4.004
10850SOL     OW33448   2.720   6.125   6.107
10850SOL    HW133449   2.680   6.171   6.186
10850SOL    HW233450   2.797   6.068   6.136
10851SOL     OW33451   2.466   3.511   0.562
10851SOL    HW133452   2.480   3.559   0.475
10851SOL    HW233453   2.415   3.570   0.624
10852SOL     OW33454   1.266   0.497   0.091
10852SOL    HW133455   1.281   0.420   0.153
10852SOL    HW233456   1.325   0.486   0.011
10853SOL     OW33457   1.709   3.116   5.165
10853SOL    HW133458   1.748   3.207   5.165
10853SOL    HW233459   1.777   3.050   5.197
10854SOL     OW33460   4.513   5.143   5.557
10854SOL    HW133461   4.455   5.119   5.479
10854SOL    HW233462   4.465   5.123   5.642
10855SOL     OW33463   4.246   1.359   0.911
10855SOL    HW133464   4.184   1.413   0.968
10855SOL    HW233465   4.335   1.353   0.956
10856SOL     OW33466   5.173   0.867   0.788
10856SOL    HW133467   5.093   0.927   0.797
10856SOL    HW233468   5.149   0.787   0.733
10857SOL     OW33469   0.603   2.195   2.624
10857SOL    HW133470   0.633   2.282   2.664
10857SOL    HW233471   0.676   2.156   2.568
10858SOL     OW33472   0.928   1.442   0.220
10858SOL    HW133473   0.976   1.374   0.276
10858SOL    HW233474   0.976   1.453   0.133
10859SOL     OW33475   1.157   4.523   4.598
10859SOL    HW133476   1.252   4.551   4.611
10859SOL    HW233477   1.105   4.542   4.681
10860SOL     OW33478   0.307   3.422   5.086
10860SOL    HW133479   0.353   3.366   5.155
10860SOL    HW233480   0.286   3.366   5.006
10861SOL     OW33481   3.177   4.047   3.627
10861SOL    HW133482   3.263   4.054   3.678
10861SOL    HW233483   3.103   4.087   3.680
10862SOL     OW33484   2.160   1.222   6.317
10862SOL    HW133485   2.114   1.304   6.350
10862SOL    HW233486   2.205   1.176   6.394
10863SOL     OW33487   2.602   0.778   3.779
10863SOL    HW133488   2.517   0.785   3.830
10863SOL    HW233489   2.590   0.815   3.687
10864SOL     OW33490   2.290   6.439   0.335
10864SOL    HW133491   2.317   6.388   0.253
10864SOL    HW233492   2.332   6.395   0.415
10865SOL     OW33493   0.034   1.542   1.277
10865SOL    HW133494   0.113   1.510   1.329
10865SOL    HW233495   6.975   1.497   1.310
10866SOL     OW33496   5.531   4.035   0.124
10866SOL    HW133497   5.505   3.939   0.132
10866SOL    HW233498   5.583   4.048   0.039
10867SOL     OW33499   3.726   4.042   0.216
10867SOL    HW133500   3.776   4.085   0.291
10867SOL    HW233501   3.745   3.943   0.216
10868SOL     OW33502   5.083   0.951   4.051
10868SOL    HW133503   5.124   1.024   4.105
10868SOL    HW233504   5.090   0.973   3.954
10869NA      NA33505   6.408   2.919   5.401
10870NA      NA33506   4.423   4.614   5.190
10871NA      NA33507   1.704   2.840   2.134
10872NA      NA33508   5.123   3.790   5.100
10873NA      NA33509   4.195   2.299   5.229
10874NA      NA33510   3.565   4.891   1.799
10875NA      NA33511   0.076   5.023   0.144
10876NA      NA33512   3.619   3.505   4.410
10877NA      NA33513   4.949   6.107   0.090
10878NA      NA33514   3.526   6.613   5.234
10879NA      NA33515   5.969   5.130   1.946
10880NA      NA33516   2.113   0.127   3.938
10881NA      NA33517   3.859   5.447   2.688
10882NA      NA33518   3.706   3.813   2.305
   7.02377   7.02377   7.02377
