Generated by trjconv : CNT in water t= 393.00000
33518
    1C        C    1   2.851   2.773   4.745
    1C        C    2   2.903   2.721   4.865
    1C        C    3   2.844   2.774   4.981
    1C        C    4   2.853   2.778   4.261
    1C        C    5   2.907   2.729   4.381
    1C        C    6   2.851   2.774   4.503
    1C        C    7   3.020   2.642   4.627
    1C        C    8   2.906   2.726   4.623
    1C        C    9   3.083   2.606   4.748
    1C        C   10   3.013   2.633   4.868
    1C        C   11   3.186   2.492   4.976
    1C        C   12   3.065   2.563   4.977
    1C        C   13   2.854   2.773   3.772
    1C        C   14   2.901   2.724   3.896
    1C        C   15   2.850   2.774   4.017
    1C        C   16   3.019   2.645   4.139
    1C        C   17   2.905   2.729   4.139
    1C        C   18   3.086   2.617   4.260
    1C        C   19   3.024   2.648   4.382
    1C        C   20   3.210   2.551   4.505
    1C        C   21   3.080   2.606   4.505
    1C        C   22   3.280   2.530   4.626
    1C        C   23   3.212   2.546   4.749
    1C        C   24   3.420   2.484   4.865
    1C        C   25   3.278   2.502   4.867
    1C        C   26   3.494   2.483   4.984
    1C        C   27   2.851   2.769   3.281
    1C        C   28   2.903   2.724   3.405
    1C        C   29   2.856   2.777   3.527
    1C        C   30   3.021   2.643   3.650
    1C        C   31   2.908   2.728   3.649
    1C        C   32   3.079   2.609   3.774
    1C        C   33   3.015   2.640   3.896
    1C        C   34   3.205   2.545   4.015
    1C        C   35   3.075   2.600   4.017
    1C        C   36   3.276   2.527   4.136
    1C        C   37   3.213   2.554   4.260
    1C        C   38   3.416   2.501   4.382
    1C        C   39   3.278   2.529   4.383
    1C        C   40   3.491   2.496   4.501
    1C        C   41   3.418   2.500   4.622
    1C        C   42   3.633   2.486   4.743
    1C        C   43   3.491   2.486   4.742
    1C        C   44   3.708   2.491   4.862
    1C        C   45   3.633   2.484   4.981
    1C        C   46   2.845   2.762   2.792
    1C        C   47   2.899   2.715   2.913
    1C        C   48   2.855   2.772   3.035
    1C        C   49   3.020   2.644   3.161
    1C        C   50   2.905   2.726   3.158
    1C        C   51   3.080   2.609   3.284
    1C        C   52   3.020   2.645   3.407
    1C        C   53   3.213   2.551   3.527
    1C        C   54   3.085   2.610   3.528
    1C        C   55   3.277   2.527   3.651
    1C        C   56   3.209   2.553   3.772
    1C        C   57   3.413   2.496   3.896
    1C        C   58   3.274   2.524   3.894
    1C        C   59   3.486   2.498   4.017
    1C        C   60   3.415   2.501   4.139
    1C        C   61   3.629   2.498   4.257
    1C        C   62   3.488   2.494   4.260
    1C        C   63   3.702   2.508   4.378
    1C        C   64   3.633   2.503   4.501
    1C        C   65   3.838   2.549   4.621
    1C        C   66   3.704   2.506   4.622
    1C        C   67   3.906   2.574   4.743
    1C        C   68   3.843   2.532   4.862
    1C        C   69   4.054   2.590   4.979
    1C        C   70   3.927   2.532   4.975
    1C        C   71   2.826   2.738   2.310
    1C        C   72   2.888   2.696   2.430
    1C        C   73   2.833   2.747   2.550
    1C        C   74   3.009   2.625   2.672
    1C        C   75   2.894   2.708   2.671
    1C        C   76   3.074   2.596   2.794
    1C        C   77   3.014   2.633   2.916
    1C        C   78   3.208   2.548   3.039
    1C        C   79   3.080   2.607   3.039
    1C        C   80   3.276   2.522   3.161
    1C        C   81   3.208   2.548   3.282
    1C        C   82   3.416   2.498   3.404
    1C        C   83   3.277   2.525   3.403
    1C        C   84   3.484   2.491   3.527
    1C        C   85   3.415   2.500   3.650
    1C        C   86   3.623   2.500   3.770
    1C        C   87   3.482   2.488   3.774
    1C        C   88   3.693   2.513   3.892
    1C        C   89   3.627   2.501   4.016
    1C        C   90   3.837   2.548   4.136
    1C        C   91   3.701   2.512   4.136
    1C        C   92   3.907   2.571   4.257
    1C        C   93   3.839   2.544   4.378
    1C        C   94   4.029   2.640   4.497
    1C        C   95   3.906   2.571   4.500
    1C        C   96   4.093   2.675   4.618
    1C        C   97   4.035   2.634   4.740
    1C        C   98   4.199   2.764   4.862
    1C        C   99   4.101   2.660   4.863
    1C        C  100   4.223   2.842   4.976
    1C        C  101   2.821   2.731   2.069
    1C        C  102   2.986   2.592   2.190
    1C        C  103   2.877   2.684   2.189
    1C        C  104   3.062   2.574   2.309
    1C        C  105   3.004   2.617   2.431
    1C        C  106   3.204   2.540   2.549
    1C        C  107   3.070   2.584   2.551
    1C        C  108   3.272   2.522   2.672
    1C        C  109   3.204   2.541   2.794
    1C        C  110   3.411   2.494   2.912
    1C        C  111   3.272   2.521   2.916
    1C        C  112   3.482   2.488   3.033
    1C        C  113   3.415   2.496   3.157
    1C        C  114   3.625   2.491   3.282
    1C        C  115   3.484   2.492   3.280
    1C        C  116   3.695   2.502   3.405
    1C        C  117   3.626   2.495   3.527
    1C        C  118   3.834   2.535   3.647
    1C        C  119   3.696   2.504   3.650
    1C        C  120   3.897   2.568   3.769
    1C        C  121   3.830   2.548   3.892
    1C        C  122   4.024   2.639   4.010
    1C        C  123   3.899   2.574   4.012
    1C        C  124   4.086   2.676   4.132
    1C        C  125   4.030   2.640   4.256
    1C        C  126   4.201   2.770   4.376
    1C        C  127   4.091   2.680   4.377
    1C        C  128   4.251   2.819   4.499
    1C        C  129   4.200   2.767   4.620
    1C        C  130   4.334   2.934   4.740
    1C        C  131   4.249   2.820   4.742
    1C        C  132   4.361   3.004   4.860
    1C        C  133   4.300   2.957   4.978
    1C        C  134   3.176   2.475   2.079
    1C        C  135   3.041   2.513   2.084
    1C        C  136   3.262   2.479   2.190
    1C        C  137   3.195   2.524   2.306
    1C        C  138   3.405   2.475   2.427
    1C        C  139   3.267   2.508   2.426
    1C        C  140   3.478   2.476   2.547
    1C        C  141   3.409   2.489   2.670
    1C        C  142   3.623   2.489   2.789
    1C        C  143   3.482   2.483   2.790
    1C        C  144   3.692   2.498   2.912
    1C        C  145   3.624   2.490   3.036
    1C        C  146   3.828   2.541   3.156
    1C        C  147   3.693   2.500   3.159
    1C        C  148   3.894   2.566   3.279
    1C        C  149   3.832   2.537   3.402
    1C        C  150   4.023   2.628   3.524
    1C        C  151   3.899   2.559   3.524
    1C        C  152   4.082   2.672   3.645
    1C        C  153   4.019   2.640   3.767
    1C        C  154   4.189   2.771   3.886
    1C        C  155   4.081   2.680   3.887
    1C        C  156   4.242   2.818   4.008
    1C        C  157   4.196   2.766   4.131
    1C        C  158   4.337   2.927   4.250
    1C        C  159   4.246   2.819   4.252
    1C        C  160   4.380   2.983   4.372
    1C        C  161   4.341   2.927   4.496
    1C        C  162   4.441   3.115   4.613
    1C        C  163   4.378   2.989   4.618
    1C        C  164   4.470   3.183   4.733
    1C        C  165   4.441   3.120   4.857
    1C        C  166   4.521   3.317   4.968
    1C        C  167   4.483   3.183   4.974
    1C        C  168   3.476   2.436   2.075
    1C        C  169   3.400   2.452   2.191
    1C        C  170   3.621   2.468   2.307
    1C        C  171   3.479   2.457   2.308
    1C        C  172   3.693   2.492   2.426
    1C        C  173   3.619   2.485   2.546
    1C        C  174   3.827   2.539   2.667
    1C        C  175   3.693   2.492   2.666
    1C        C  176   3.894   2.561   2.790
    1C        C  177   3.828   2.535   2.912
    1C        C  178   4.021   2.626   3.034
    1C        C  179   3.895   2.563   3.034
    1C        C  180   4.082   2.665   3.155
    1C        C  181   4.020   2.631   3.277
    1C        C  182   4.187   2.757   3.398
    1C        C  183   4.078   2.668   3.401
    1C        C  184   4.240   2.810   3.518
    1C        C  185   4.194   2.759   3.641
    1C        C  186   4.338   2.917   3.762
    1C        C  187   4.245   2.811   3.762
    1C        C  188   4.381   2.976   3.884
    1C        C  189   4.338   2.922   4.007
    1C        C  190   4.450   3.106   4.127
    1C        C  191   4.379   2.984   4.127
    1C        C  192   4.475   3.173   4.249
    1C        C  193   4.440   3.111   4.371
    1C        C  194   4.511   3.315   4.492
    1C        C  195   4.470   3.180   4.491
    1C        C  196   4.527   3.389   4.611
    1C        C  197   4.512   3.319   4.733
    1C        C  198   4.560   3.535   4.849
    1C        C  199   4.536   3.394   4.852
    1C        C  200   4.582   3.620   4.962
    1C        C  201   3.615   2.418   2.074
    1C        C  202   3.827   2.517   2.184
    1C        C  203   3.693   2.466   2.184
    1C        C  204   3.899   2.547   2.303
    1C        C  205   3.831   2.522   2.424
    1C        C  206   4.019   2.625   2.545
    1C        C  207   3.894   2.560   2.545
    1C        C  208   4.077   2.666   2.667
    1C        C  209   4.019   2.626   2.790
    1C        C  210   4.194   2.747   2.910
    1C        C  211   4.082   2.661   2.911
    1C        C  212   4.246   2.797   3.031
    1C        C  213   4.194   2.751   3.154
    1C        C  214   4.327   2.915   3.272
    1C        C  215   4.244   2.800   3.277
    1C        C  216   4.366   2.976   3.393
    1C        C  217   4.331   2.919   3.517
    1C        C  218   4.437   3.102   3.636
    1C        C  219   4.375   2.975   3.639
    1C        C  220   4.470   3.167   3.757
    1C        C  221   4.445   3.101   3.880
    1C        C  222   4.515   3.302   4.002
    1C        C  223   4.479   3.165   4.002
    1C        C  224   4.523   3.374   4.123
    1C        C  225   4.513   3.309   4.248
    1C        C  226   4.524   3.524   4.365
    1C        C  227   4.517   3.383   4.368
    1C        C  228   4.519   3.599   4.484
    1C        C  229   4.530   3.530   4.607
    1C        C  230   4.509   3.743   4.727
    1C        C  231   4.544   3.605   4.726
    1C        C  232   4.496   3.818   4.846
    1C        C  233   4.542   3.755   4.962
    1C        C  234   4.018   2.612   2.062
    1C        C  235   3.895   2.546   2.065
    1C        C  236   4.083   2.651   2.180
    1C        C  237   4.027   2.610   2.302
    1C        C  238   4.196   2.742   2.423
    1C        C  239   4.084   2.655   2.423
    1C        C  240   4.252   2.787   2.544
    1C        C  241   4.194   2.745   2.666
    1C        C  242   4.335   2.905   2.786
    1C        C  243   4.245   2.796   2.787
    1C        C  244   4.379   2.960   2.908
    1C        C  245   4.340   2.903   3.032
    1C        C  246   4.441   3.095   3.148
    1C        C  247   4.374   2.970   3.151
    1C        C  248   4.461   3.164   3.270
    1C        C  249   4.432   3.101   3.393
    1C        C  250   4.505   3.303   3.511
    1C        C  251   4.463   3.168   3.514
    1C        C  252   4.518   3.371   3.635
    1C        C  253   4.511   3.302   3.758
    1C        C  254   4.525   3.514   3.878
    1C        C  255   4.526   3.372   3.880
    1C        C  256   4.525   3.587   3.999
    1C        C  257   4.524   3.515   4.120
    1C        C  258   4.494   3.729   4.241
    1C        C  259   4.517   3.590   4.240
    1C        C  260   4.479   3.804   4.360
    1C        C  261   4.496   3.738   4.484
    1C        C  262   4.430   3.941   4.604
    1C        C  263   4.479   3.808   4.606
    1C        C  264   4.401   4.007   4.725
    1C        C  265   4.435   3.945   4.847
    1C        C  266   4.326   4.135   4.958
    1C        C  267   4.397   4.015   4.963
    1C        C  268   4.265   2.775   2.063
    1C        C  269   4.199   2.731   2.179
    1C        C  270   4.343   2.892   2.300
    1C        C  271   4.250   2.784   2.299
    1C        C  272   4.385   2.953   2.420
    1C        C  273   4.340   2.898   2.542
    1C        C  274   4.444   3.085   2.662
    1C        C  275   4.378   2.960   2.663
    1C        C  276   4.469   3.152   2.783
    1C        C  277   4.444   3.085   2.905
    1C        C  278   4.509   3.293   3.023
    1C        C  279   4.469   3.157   3.024
    1C        C  280   4.517   3.365   3.144
    1C        C  281   4.502   3.299   3.268
    1C        C  282   4.517   3.513   3.389
    1C        C  283   4.515   3.372   3.389
    1C        C  284   4.516   3.582   3.512
    1C        C  285   4.525   3.512   3.634
    1C        C  286   4.490   3.722   3.751
    1C        C  287   4.517   3.584   3.756
    1C        C  288   4.470   3.789   3.874
    1C        C  289   4.489   3.724   3.998
    1C        C  290   4.424   3.929   4.117
    1C        C  291   4.474   3.797   4.118
    1C        C  292   4.398   3.996   4.238
    1C        C  293   4.427   3.935   4.362
    1C        C  294   4.322   4.123   4.480
    1C        C  295   4.396   4.003   4.482
    1C        C  296   4.278   4.183   4.600
    1C        C  297   4.327   4.129   4.721
    1C        C  298   4.198   4.310   4.843
    1C        C  299   4.283   4.195   4.839
    1C        C  300   4.165   4.397   4.952
    1C        C  301   4.358   2.879   2.064
    1C        C  302   4.469   3.070   2.177
    1C        C  303   4.396   2.947   2.181
    1C        C  304   4.484   3.142   2.299
    1C        C  305   4.455   3.076   2.420
    1C        C  306   4.516   3.284   2.537
    1C        C  307   4.477   3.148   2.540
    1C        C  308   4.523   3.356   2.658
    1C        C  309   4.501   3.290   2.781
    1C        C  310   4.527   3.503   2.900
    1C        C  311   4.522   3.362   2.901
    1C        C  312   4.520   3.574   3.021
    1C        C  313   4.520   3.506   3.145
    1C        C  314   4.491   3.720   3.263
    1C        C  315   4.515   3.581   3.265
    1C        C  316   4.474   3.789   3.385
    1C        C  317   4.493   3.722   3.508
    1C        C  318   4.430   3.926   3.629
    1C        C  319   4.477   3.793   3.629
    1C        C  320   4.394   3.987   3.751
    1C        C  321   4.425   3.923   3.873
    1C        C  322   4.318   4.110   3.993
    1C        C  323   4.391   3.989   3.993
    1C        C  324   4.281   4.172   4.114
    1C        C  325   4.324   4.117   4.237
    1C        C  326   4.182   4.278   4.358
    1C        C  327   4.282   4.179   4.356
    1C        C  328   4.132   4.335   4.477
    1C        C  329   4.185   4.289   4.600
    1C        C  330   4.022   4.429   4.714
    1C        C  331   4.137   4.346   4.720
    1C        C  332   3.969   4.490   4.830
    1C        C  333   4.047   4.472   4.945
    1C        C  334   4.549   3.268   2.063
    1C        C  335   4.531   3.129   2.062
    1C        C  336   4.538   3.352   2.175
    1C        C  337   4.519   3.280   2.295
    1C        C  338   4.520   3.495   2.410
    1C        C  339   4.525   3.354   2.415
    1C        C  340   4.524   3.567   2.531
    1C        C  341   4.527   3.497   2.655
    1C        C  342   4.490   3.708   2.771
    1C        C  343   4.523   3.570   2.776
    1C        C  344   4.475   3.778   2.893
    1C        C  345   4.496   3.713   3.016
    1C        C  346   4.420   3.913   3.139
    1C        C  347   4.474   3.782   3.138
    1C        C  348   4.395   3.982   3.260
    1C        C  349   4.429   3.923   3.384
    1C        C  350   4.312   4.100   3.503
    1C        C  351   4.397   3.986   3.506
    1C        C  352   4.275   4.162   3.625
    1C        C  353   4.318   4.106   3.747
    1C        C  354   4.176   4.264   3.866
    1C        C  355   4.275   4.163   3.869
    1C        C  356   4.122   4.312   3.987
    1C        C  357   4.176   4.267   4.110
    1C        C  358   4.012   4.398   4.230
    1C        C  359   4.125   4.314   4.233
    1C        C  360   3.952   4.442   4.350
    1C        C  361   4.017   4.417   4.473
    1C        C  362   3.827   4.517   4.592
    1C        C  363   3.956   4.459   4.593
    1C        C  364   3.762   4.548   4.714
    1C        C  365   3.837   4.540   4.833
    1C        C  366   3.629   4.592   4.947
    1C        C  367   3.767   4.574   4.949
    1C        C  368   4.515   3.563   2.050
    1C        C  369   4.524   3.492   2.171
    1C        C  370   4.502   3.709   2.285
    1C        C  371   4.520   3.569   2.289
    1C        C  372   4.483   3.776   2.408
    1C        C  373   4.501   3.706   2.529
    1C        C  374   4.418   3.906   2.648
    1C        C  375   4.474   3.776   2.649
    1C        C  376   4.391   3.970   2.771
    1C        C  377   4.430   3.912   2.893
    1C        C  378   4.319   4.094   3.011
    1C        C  379   4.396   3.975   3.015
    1C        C  380   4.271   4.148   3.133
    1C        C  381   4.313   4.097   3.258
    1C        C  382   4.170   4.255   3.379
    1C        C  383   4.267   4.152   3.380
    1C        C  384   4.119   4.309   3.499
    1C        C  385   4.175   4.262   3.620
    1C        C  386   4.010   4.394   3.744
    1C        C  387   4.123   4.309   3.743
    1C        C  388   3.944   4.427   3.864
    1C        C  389   4.006   4.392   3.986
    1C        C  390   3.820   4.490   4.105
    1C        C  391   3.948   4.432   4.109
    1C        C  392   3.754   4.515   4.227
    1C        C  393   3.823   4.500   4.350
    1C        C  394   3.615   4.545   4.475
    1C        C  395   3.755   4.527   4.471
    1C        C  396   3.544   4.560   4.596
    1C        C  397   3.622   4.565   4.713
    1C        C  398   3.409   4.551   4.839
    1C        C  399   3.549   4.573   4.834
    1C        C  400   3.342   4.513   4.956
    1C        C  401   4.508   3.702   2.048
    1C        C  402   4.459   3.917   2.166
    1C        C  403   4.491   3.780   2.163
    1C        C  404   4.421   3.981   2.286
    1C        C  405   4.435   3.908   2.407
    1C        C  406   4.326   4.096   2.525
    1C        C  407   4.398   3.974   2.526
    1C        C  408   4.281   4.151   2.647
    1C        C  409   4.312   4.088   2.769
    1C        C  410   4.172   4.248   2.888
    1C        C  411   4.273   4.149   2.890
    1C        C  412   4.120   4.294   3.011
    1C        C  413   4.173   4.250   3.135
    1C        C  414   4.002   4.378   3.251
    1C        C  415   4.120   4.300   3.255
    1C        C  416   3.943   4.416   3.374
    1C        C  417   4.002   4.388   3.500
    1C        C  418   3.816   4.482   3.617
    1C        C  419   3.946   4.427   3.623
    1C        C  420   3.749   4.506   3.739
    1C        C  421   3.813   4.481   3.862
    1C        C  422   3.610   4.535   3.988
    1C        C  423   3.748   4.508   3.984
    1C        C  424   3.541   4.539   4.111
    1C        C  425   3.614   4.535   4.232
    1C        C  426   3.402   4.549   4.356
    1C        C  427   3.543   4.550   4.354
    1C        C  428   3.331   4.544   4.478
    1C        C  429   3.403   4.553   4.600
    1C        C  430   3.192   4.515   4.725
    1C        C  431   3.331   4.541   4.721
    1C        C  432   3.122   4.493   4.848
    1C        C  433   3.204   4.498   4.961
    1C        C  434   4.377   4.116   2.044
    1C        C  435   4.452   3.998   2.051
    1C        C  436   4.303   4.158   2.159
    1C        C  437   4.338   4.096   2.282
    1C        C  438   4.183   4.248   2.401
    1C        C  439   4.282   4.147   2.401
    1C        C  440   4.129   4.298   2.522
    1C        C  441   4.182   4.252   2.644
    1C        C  442   4.004   4.372   2.767
    1C        C  443   4.122   4.295   2.765
    1C        C  444   3.944   4.415   2.888
    1C        C  445   4.005   4.376   3.009
    1C        C  446   3.815   4.477   3.131
    1C        C  447   3.943   4.417   3.129
    1C        C  448   3.747   4.501   3.253
    1C        C  449   3.814   4.474   3.374
    1C        C  450   3.610   4.534   3.497
    1C        C  451   3.748   4.504   3.495
    1C        C  452   3.542   4.543   3.621
    1C        C  453   3.611   4.537   3.744
    1C        C  454   3.399   4.544   3.865
    1C        C  455   3.541   4.551   3.866
    1C        C  456   3.331   4.529   3.988
    1C        C  457   3.400   4.535   4.112
    1C        C  458   3.195   4.496   4.238
    1C        C  459   3.331   4.532   4.235
    1C        C  460   3.125   4.483   4.360
    1C        C  461   3.193   4.515   4.479
    1C        C  462   3.000   4.430   4.603
    1C        C  463   3.127   4.492   4.602
    1C        C  464   2.931   4.399   4.723
    1C        C  465   2.990   4.438   4.846
    1C        C  466   2.798   4.335   4.961
    1C        C  467   2.907   4.423   4.962
    1C        C  468   4.119   4.281   2.043
    1C        C  469   4.192   4.248   2.159
    1C        C  470   4.011   4.369   2.280
    1C        C  471   4.135   4.298   2.279
    1C        C  472   3.946   4.402   2.400
    1C        C  473   4.012   4.378   2.523
    1C        C  474   3.814   4.461   2.644
    1C        C  475   3.946   4.411   2.643
    1C        C  476   3.747   4.491   2.765
    1C        C  477   3.816   4.474   2.887
    1C        C  478   3.608   4.519   3.011
    1C        C  479   3.748   4.498   3.009
    1C        C  480   3.534   4.529   3.131
    1C        C  481   3.608   4.527   3.252
    1C        C  482   3.399   4.533   3.378
    1C        C  483   3.540   4.538   3.375
    1C        C  484   3.328   4.532   3.501
    1C        C  485   3.401   4.544   3.621
    1C        C  486   3.192   4.499   3.744
    1C        C  487   3.330   4.532   3.743
    1C        C  488   3.130   4.471   3.868
    1C        C  489   3.196   4.491   3.992
    1C        C  490   3.001   4.413   4.115
    1C        C  491   3.128   4.475   4.115
    1C        C  492   2.940   4.383   4.239
    1C        C  493   2.997   4.423   4.362
    1C        C  494   2.828   4.298   4.487
    1C        C  495   2.937   4.388   4.484
    1C        C  496   2.772   4.252   4.609
    1C        C  497   2.817   4.315   4.727
    1C        C  498   2.665   4.161   4.845
    1C        C  499   2.749   4.274   4.845
    1C        C  500   2.593   4.116   4.956
    1C        C  501   4.001   4.355   2.041
    1C        C  502   3.816   4.461   2.158
    1C        C  503   3.946   4.406   2.160
    1C        C  504   3.747   4.478   2.279
    1C        C  505   3.814   4.453   2.401
    1C        C  506   3.610   4.516   2.520
    1C        C  507   3.746   4.479   2.522
    1C        C  508   3.539   4.521   2.642
    1C        C  509   3.608   4.518   2.765
    1C        C  510   3.398   4.528   2.889
    1C        C  511   3.540   4.528   2.888
    1C        C  512   3.324   4.525   3.009
    1C        C  513   3.393   4.533   3.132
    1C        C  514   3.190   4.491   3.257
    1C        C  515   3.327   4.523   3.257
    1C        C  516   3.123   4.470   3.380
    1C        C  517   3.191   4.497   3.500
    1C        C  518   3.003   4.401   3.626
    1C        C  519   3.125   4.472   3.623
    1C        C  520   2.941   4.369   3.749
    1C        C  521   3.005   4.406   3.869
    1C        C  522   2.834   4.284   3.998
    1C        C  523   2.947   4.368   3.992
    1C        C  524   2.783   4.238   4.121
    1C        C  525   2.831   4.293   4.242
    1C        C  526   2.693   4.134   4.364
    1C        C  527   2.781   4.245   4.365
    1C        C  528   2.653   4.073   4.484
    1C        C  529   2.687   4.140   4.604
    1C        C  530   2.584   3.957   4.732
    1C        C  531   2.639   4.088   4.727
    1C        C  532   2.537   3.899   4.854
    1C        C  533   2.521   3.996   4.958
    1C        C  534   3.621   4.558   2.045
    1C        C  535   3.753   4.511   2.043
    1C        C  536   3.538   4.533   2.159
    1C        C  537   3.608   4.508   2.280
    1C        C  538   3.394   4.514   2.402
    1C        C  539   3.535   4.517   2.400
    1C        C  540   3.324   4.514   2.525
    1C        C  541   3.398   4.518   2.645
    1C        C  542   3.190   4.482   2.766
    1C        C  543   3.327   4.516   2.768
    1C        C  544   3.126   4.457   2.889
    1C        C  545   3.190   4.480   3.013
    1C        C  546   2.997   4.397   3.134
    1C        C  547   3.123   4.461   3.136
    1C        C  548   2.940   4.364   3.259
    1C        C  549   2.998   4.404   3.381
    1C        C  550   2.828   4.279   3.506
    1C        C  551   2.941   4.364   3.504
    1C        C  552   2.781   4.228   3.629
    1C        C  553   2.832   4.279   3.751
    1C        C  554   2.700   4.119   3.875
    1C        C  555   2.787   4.230   3.876
    1C        C  556   2.657   4.065   3.998
    1C        C  557   2.695   4.128   4.119
    1C        C  558   2.592   3.945   4.245
    1C        C  559   2.656   4.071   4.243
    1C        C  560   2.564   3.879   4.367
    1C        C  561   2.588   3.948   4.489
    1C        C  562   2.526   3.749   4.617
    1C        C  563   2.562   3.886   4.613
    1C        C  564   2.515   3.677   4.738
    1C        C  565   2.516   3.758   4.855
    1C        C  566   2.523   3.544   4.979
    1C        C  567   2.528   3.682   4.973
    1C        C  568   3.327   4.481   2.042
    1C        C  569   3.397   4.514   2.158
    1C        C  570   3.184   4.480   2.280
    1C        C  571   3.324   4.508   2.280
    1C        C  572   3.120   4.452   2.403
    1C        C  573   3.188   4.477   2.524
    1C        C  574   2.991   4.398   2.648
    1C        C  575   3.119   4.457   2.646
    1C        C  576   2.935   4.358   2.771
    1C        C  577   2.998   4.396   2.891
    1C        C  578   2.827   4.270   3.017
    1C        C  579   2.938   4.356   3.012
    1C        C  580   2.779   4.220   3.141
    1C        C  581   2.831   4.274   3.261
    1C        C  582   2.695   4.114   3.386
    1C        C  583   2.781   4.226   3.384
    1C        C  584   2.657   4.056   3.509
    1C        C  585   2.696   4.116   3.631
    1C        C  586   2.592   3.934   3.755
    1C        C  587   2.656   4.060   3.754
    1C        C  588   2.567   3.873   3.879
    1C        C  589   2.590   3.941   4.001
    1C        C  590   2.534   3.740   4.128
    1C        C  591   2.563   3.878   4.125
    1C        C  592   2.528   3.669   4.251
    1C        C  593   2.533   3.742   4.372
    1C        C  594   2.511   3.535   4.500
    1C        C  595   2.517   3.676   4.496
    1C        C  596   2.515   3.463   4.621
    1C        C  597   2.506   3.535   4.742
    1C        C  598   2.527   3.324   4.863
    1C        C  599   2.515   3.464   4.863
    1C        C  600   2.524   3.244   4.979
    1C        C  601   3.193   4.445   2.045
    1C        C  602   2.983   4.392   2.159
    1C        C  603   3.115   4.447   2.160
    1C        C  604   2.928   4.353   2.284
    1C        C  605   2.991   4.394   2.404
    1C        C  606   2.820   4.272   2.529
    1C        C  607   2.929   4.362   2.526
    1C        C  608   2.768   4.222   2.650
    1C        C  609   2.824   4.269   2.771
    1C        C  610   2.691   4.107   2.895
    1C        C  611   2.777   4.219   2.895
    1C        C  612   2.651   4.051   3.018
    1C        C  613   2.690   4.111   3.140
    1C        C  614   2.590   3.928   3.266
    1C        C  615   2.651   4.056   3.264
    1C        C  616   2.570   3.863   3.390
    1C        C  617   2.596   3.928   3.513
    1C        C  618   2.527   3.728   3.637
    1C        C  619   2.564   3.865   3.635
    1C        C  620   2.512   3.664   3.762
    1C        C  621   2.523   3.738   3.882
    1C        C  622   2.502   3.530   4.009
    1C        C  623   2.516   3.671   4.006
    1C        C  624   2.509   3.460   4.131
    1C        C  625   2.515   3.529   4.254
    1C        C  626   2.531   3.322   4.381
    1C        C  627   2.514   3.462   4.379
    1C        C  628   2.555   3.253   4.502
    1C        C  629   2.535   3.323   4.623
    1C        C  630   2.590   3.116   4.744
    1C        C  631   2.547   3.251   4.744
    1C        C  632   2.616   3.047   4.867
    1C        C  633   2.562   3.110   4.984
    1C        C  634   2.780   4.302   2.055
    1C        C  635   2.889   4.391   2.051
    1C        C  636   2.747   4.228   2.169
    1C        C  637   2.811   4.272   2.286
    1C        C  638   2.681   4.106   2.409
    1C        C  639   2.766   4.219   2.409
    1C        C  640   2.646   4.045   2.532
    1C        C  641   2.684   4.109   2.652
    1C        C  642   2.583   3.922   2.777
    1C        C  643   2.648   4.048   2.774
    1C        C  644   2.558   3.860   2.901
    1C        C  645   2.588   3.924   3.023
    1C        C  646   2.518   3.726   3.148
    1C        C  647   2.558   3.861   3.146
    1C        C  648   2.508   3.656   3.270
    1C        C  649   2.532   3.728   3.390
    1C        C  650   2.505   3.521   3.519
    1C        C  651   2.515   3.662   3.514
    1C        C  652   2.506   3.453   3.643
    1C        C  653   2.505   3.523   3.766
    1C        C  654   2.530   3.316   3.890
    1C        C  655   2.506   3.455   3.890
    1C        C  656   2.553   3.252   4.014
    1C        C  657   2.538   3.322   4.137
    1C        C  658   2.608   3.123   4.261
    1C        C  659   2.553   3.253   4.259
    1C        C  660   2.639   3.058   4.383
    1C        C  661   2.609   3.122   4.505
    1C        C  662   2.709   2.933   4.624
    1C        C  663   2.632   3.052   4.626
    1C        C  664   2.757   2.879   4.745
    1C        C  665   2.702   2.933   4.865
    1C        C  666   2.742   2.869   4.983
    1C        C  667   2.686   4.020   2.052
    1C        C  668   2.689   4.099   2.168
    1C        C  669   2.593   3.909   2.292
    1C        C  670   2.648   4.040   2.289
    1C        C  671   2.556   3.848   2.414
    1C        C  672   2.579   3.920   2.533
    1C        C  673   2.517   3.719   2.659
    1C        C  674   2.556   3.855   2.656
    1C        C  675   2.505   3.650   2.782
    1C        C  676   2.524   3.723   2.902
    1C        C  677   2.500   3.516   3.029
    1C        C  678   2.507   3.657   3.025
    1C        C  679   2.504   3.445   3.151
    1C        C  680   2.501   3.514   3.274
    1C        C  681   2.532   3.308   3.401
    1C        C  682   2.511   3.448   3.398
    1C        C  683   2.547   3.241   3.525
    1C        C  684   2.533   3.314   3.645
    1C        C  685   2.608   3.118   3.772
    1C        C  686   2.551   3.247   3.768
    1C        C  687   2.642   3.055   3.894
    1C        C  688   2.608   3.122   4.014
    1C        C  689   2.715   2.943   4.138
    1C        C  690   2.645   3.065   4.138
    1C        C  691   2.757   2.882   4.259
    1C        C  692   2.716   2.940   4.381
    1C        C  693   2.758   2.880   4.503
    1C        C  694   2.622   3.896   2.056
    1C        C  695   2.528   3.702   2.177
    1C        C  696   2.573   3.835   2.173
    1C        C  697   2.502   3.637   2.299
    1C        C  698   2.519   3.712   2.417
    1C        C  699   2.492   3.503   2.544
    1C        C  700   2.507   3.643   2.540
    1C        C  701   2.494   3.434   2.668
    1C        C  702   2.493   3.509   2.787
    1C        C  703   2.521   3.301   2.912
    1C        C  704   2.494   3.439   2.910
    1C        C  705   2.544   3.234   3.035
    1C        C  706   2.532   3.306   3.156
    1C        C  707   2.602   3.109   3.278
    1C        C  708   2.548   3.239   3.279
    1C        C  709   2.637   3.051   3.402
    1C        C  710   2.606   3.113   3.525
    1C        C  711   2.716   2.936   3.651
    1C        C  712   2.640   3.055   3.650
    1C        C  713   2.759   2.877   3.772
    1C        C  714   2.717   2.936   3.894
    1C        C  715   2.761   2.884   4.018
    1C        C  716   2.448   3.499   2.064
    1C        C  717   2.481   3.636   2.062
    1C        C  718   2.464   3.421   2.183
    1C        C  719   2.481   3.496   2.303
    1C        C  720   2.509   3.287   2.424
    1C        C  721   2.486   3.427   2.426
    1C        C  722   2.533   3.222   2.547
    1C        C  723   2.517   3.295   2.668
    1C        C  724   2.587   3.097   2.793
    1C        C  725   2.537   3.229   2.791
    1C        C  726   2.623   3.036   2.915
    1C        C  727   2.592   3.101   3.037
    1C        C  728   2.711   2.924   3.161
    1C        C  729   2.629   3.039   3.158
    1C        C  730   2.756   2.874   3.285
    1C        C  731   2.716   2.934   3.406
    1C        C  732   2.760   2.880   3.529
    1C        C  733   2.491   3.197   2.072
    1C        C  734   2.483   3.279   2.186
    1C        C  735   2.580   3.084   2.308
    1C        C  736   2.515   3.211   2.306
    1C        C  737   2.616   3.021   2.429
    1C        C  738   2.585   3.091   2.547
    1C        C  739   2.698   2.915   2.671
    1C        C  740   2.621   3.034   2.671
    1C        C  741   2.743   2.860   2.794
    1C        C  742   2.702   2.919   2.915
    1C        C  743   2.752   2.870   3.037
    1C        C  744   2.544   3.069   2.071
    1C        C  745   2.689   2.904   2.183
    1C        C  746   2.604   3.016   2.186
    1C        C  747   2.735   2.847   2.304
    1C        C  748   2.694   2.903   2.428
    1C        C  749   2.740   2.853   2.552
    1C        C  750   2.736   2.841   2.067
    1C        C  751   3.663   2.324   1.969
    1C        O  752   3.671   2.203   2.001
    1C        O  753   3.610   2.339   1.841
    1C        C  754   4.631   3.055   1.982
    1C        O  755   4.597   3.017   1.867
    1C        O  756   4.767   3.089   1.983
    1C        C  757   4.416   4.207   1.933
    1C        O  758   4.516   4.283   1.950
    1C        O  759   4.375   4.203   1.800
    1C        C  760   3.585   4.675   1.962
    1C        O  761   3.589   4.791   2.010
    1C        O  762   3.520   4.667   1.838
    1C        C  763   2.885   4.505   1.956
    1C        O  764   2.886   4.483   1.832
    1C        O  765   2.786   4.602   1.975
    1C        C  766   2.342   3.472   1.964
    1C        O  767   2.366   3.420   1.852
    1C        O  768   2.209   3.504   1.991
    1C        C  769   4.679   3.576   5.064
    1C        O  770   4.635   3.569   5.182
    1C        O  771   4.815   3.605   5.047
    1C        C  772   4.263   4.460   5.043
    1C        O  773   4.257   4.461   5.168
    1C        O  774   4.388   4.499   4.992
    1C        C  775   4.148   2.515   5.067
    1C        O  776   4.235   2.440   5.015
    1C        O  777   4.111   2.473   5.195
    1C        C  778   2.895   4.545   5.045
    1C        O  779   2.810   4.633   5.015
    1C        O  780   2.929   4.565   5.180
    1C        C  781   2.474   3.036   5.076
    1C        O  782   2.402   2.943   5.031
    1C        O  783   2.521   3.017   5.206
    1C        C  784   2.387   4.015   5.018
    1C        O  785   2.296   4.067   4.948
    1C        O  786   2.380   4.028   5.157
    1C        C  787   2.958   2.423   2.000
    1C        O  788   2.920   2.455   1.884
    1C        O  789   2.939   2.288   2.027
    1C        C  790   3.177   2.367   5.055
    1C        O  791   3.176   2.252   5.003
    1C        O  792   3.173   2.374   5.195
    1C        H  793   4.271   3.034   5.046
    1C        H  794   4.209   2.796   5.071
    1C        H  795   4.501   3.131   5.066
    1C        H  796   4.581   3.346   5.051
    1C        H  797   4.490   3.776   5.053
    1C        H  798   4.439   3.983   5.056
    1C        H  799   4.318   4.197   5.045
    1C        H  800   4.033   4.544   5.023
    1C        H  801   3.818   4.632   5.024
    1C        H  802   3.579   4.639   5.029
    1C        H  803   3.396   4.480   5.042
    1C        H  804   3.163   4.500   5.060
    1C        H  805   3.899   2.473   5.060
    1C        H  806   3.681   2.511   5.072
    1C        H  807   2.997   2.537   5.055
    1C        H  808   3.445   2.477   5.079
    1C        H  809   2.894   2.764   5.074
    1C        H  810   2.694   2.886   5.077
    1C        H  811   2.512   3.295   5.072
    1C        H  812   2.477   3.504   5.067
    1C        H  813   2.552   3.734   5.064
    1C        H  814   2.560   4.194   5.021
    1C        H  815   2.746   4.323   5.054
    1C        H  816   2.692   2.867   1.973
    1C        H  817   2.829   2.669   1.982
    1C        H  818   3.216   2.448   1.984
    1C        H  819   3.428   2.419   1.981
    1C        H  820   3.853   2.516   1.972
    1C        H  821   4.028   2.673   1.975
    1C        H  822   4.255   2.725   1.970
    1C        H  823   4.379   2.924   1.969
    1C        H  824   4.596   3.312   1.977
    1C        H  825   4.547   3.511   1.962
    1C        H  826   4.520   3.754   1.955
    1C        H  827   3.807   4.528   1.953
    1C        H  828   3.967   4.385   1.945
    1C        H  829   4.149   4.242   1.948
    1C        H  830   4.529   3.979   1.979
    1C        H  831   2.647   3.829   1.977
    1C        H  832   2.774   4.022   1.990
    1C        H  833   2.710   4.303   1.974
    1C        H  834   3.361   4.527   1.952
    1C        H  835   3.148   4.424   1.950
    1C        H  836   2.519   3.001   1.992
    1C        H  837   2.468   3.237   1.975
    1C        H  838   2.499   3.673   1.964
    2V3OU   H29  839   2.817   3.548   4.701
    2V3OU   C27  840   2.798   3.503   4.802
    2V3OU   H27  841   2.734   3.574   4.861
    2V3OU   H28  842   2.741   3.408   4.786
    2V3OU   O11  843   2.915   3.472   4.878
    2V3OU   C15  844   2.923   3.398   4.994
    2V3OU   C13  845   3.053   3.376   5.044
    2V3OU   C14  846   3.074   3.265   5.127
    2V3OU   C16  847   2.971   3.185   5.175
    2V3OU    H6  848   2.992   3.108   5.251
    2V3OU   C12  849   3.215   3.224   5.146
    2V3OU    O2  850   3.247   3.118   5.204
    2V3OU   C10  851   3.325   3.308   5.096
    2V3OU    C8  852   3.458   3.269   5.109
    2V3OU   O10  853   3.486   3.153   5.175
    2V3OU   H26  854   3.399   3.118   5.201
    2V3OU    C6  855   3.565   3.347   5.054
    2V3OU    C5  856   3.537   3.461   4.980
    2V3OU    C4  857   3.704   3.293   5.055
    2V3OU    H4  858   3.724   3.231   5.148
    2V3OU    H5  859   3.704   3.226   4.965
    2V3OU    C2  860   3.815   3.397   5.040
    2V3OU    O6  861   3.817   3.469   5.163
    2V3OU   H21  862   3.771   3.552   5.140
    2V3OU    C3  863   3.782   3.495   4.928
    2V3OU    H2  864   3.860   3.576   4.924
    2V3OU    H3  865   3.779   3.438   4.831
    2V3OU   C25  866   3.951   3.329   5.019
    2V3OU    O7  867   4.003   3.296   4.912
    2V3OU   C26  868   4.029   3.292   5.144
    2V3OU   H22  869   4.074   3.383   5.190
    2V3OU   H23  870   4.116   3.227   5.116
    2V3OU    O8  871   3.961   3.212   5.238
    2V3OU   H24  872   3.918   3.257   5.312
    2V3OU    C1  873   3.646   3.559   4.948
    2V3OU    H1  874   3.625   3.615   4.852
    2V3OU    O3  875   3.666   3.654   5.053
    2V3OU   C19  876   3.624   3.790   5.049
    2V3OU    H9  877   3.524   3.802   4.996
    2V3OU    O4  878   3.716   3.853   4.962
    2V3OU   C20  879   3.848   3.877   5.010
    2V3OU   H10  880   3.900   3.778   5.024
    2V3OU   C24  881   3.611   3.858   5.185
    2V3OU   H16  882   3.540   3.800   5.249
    2V3OU   H17  883   3.563   3.956   5.160
    2V3OU   C23  884   3.752   3.873   5.242
    2V3OU   H15  885   3.794   3.770   5.267
    2V3OU    N1  886   3.736   3.954   5.362
    2V3OU   H19  887   3.793   3.921   5.437
    2V3OU   H20  888   3.645   3.931   5.396
    2V3OU   C21  889   3.852   3.946   5.147
    2V3OU   H11  890   3.954   3.928   5.192
    2V3OU    O5  891   3.837   4.087   5.150
    2V3OU   H18  892   3.786   4.100   5.232
    2V3OU   C22  893   3.913   3.953   4.895
    2V3OU   H12  894   3.861   4.051   4.879
    2V3OU   H13  895   3.904   3.892   4.802
    2V3OU   H14  896   4.020   3.971   4.921
    2V3OU   C11  897   3.157   3.478   5.030
    2V3OU    O1  898   3.136   3.596   4.994
    2V3OU    C9  899   3.297   3.430   5.029
    2V3OU    C7  900   3.400   3.500   4.967
    2V3OU    O9  901   3.385   3.614   4.892
    2V3OU   H25  902   3.290   3.625   4.878
    2V3OU   C17  903   2.823   3.313   5.047
    2V3OU    H7  904   2.723   3.351   5.029
    2V3OU   C18  905   2.840   3.207   5.135
    2V3OU    H8  906   2.752   3.152   5.172
    3SOL     OW  907   3.210   4.201   5.170
    3SOL    HW1  908   3.192   4.291   5.209
    3SOL    HW2  909   3.289   4.160   5.216
    4SOL     OW  910   6.974   0.273   0.133
    4SOL    HW1  911   7.022   0.273   0.045
    4SOL    HW2  912   6.960   0.179   0.163
    5SOL     OW  913   4.220   0.967   1.468
    5SOL    HW1  914   4.301   1.019   1.441
    5SOL    HW2  915   4.246   0.873   1.492
    6SOL     OW  916   5.624   1.190   3.266
    6SOL    HW1  917   5.541   1.140   3.291
    6SOL    HW2  918   5.614   1.225   3.173
    7SOL     OW  919   0.881   4.513   5.412
    7SOL    HW1  920   0.800   4.528   5.355
    7SOL    HW2  921   0.932   4.434   5.377
    8SOL     OW  922   2.284   2.473   5.554
    8SOL    HW1  923   2.274   2.469   5.653
    8SOL    HW2  924   2.297   2.381   5.518
    9SOL     OW  925   6.465   1.511   6.544
    9SOL    HW1  926   6.527   1.585   6.568
    9SOL    HW2  927   6.370   1.539   6.561
   10SOL     OW  928   4.803   4.683   2.550
   10SOL    HW1  929   4.714   4.648   2.580
   10SOL    HW2  930   4.854   4.611   2.504
   11SOL     OW  931   2.163   1.100   0.057
   11SOL    HW1  932   2.190   1.189   0.094
   11SOL    HW2  933   2.220   1.078   7.002
   12SOL     OW  934   2.530   4.844   3.329
   12SOL    HW1  935   2.588   4.923   3.351
   12SOL    HW2  936   2.434   4.868   3.344
   13SOL     OW  937   4.531   6.197   2.485
   13SOL    HW1  938   4.434   6.220   2.471
   13SOL    HW2  939   4.573   6.176   2.397
   14SOL     OW  940   4.964   4.630   5.273
   14SOL    HW1  941   4.977   4.672   5.362
   14SOL    HW2  942   4.953   4.532   5.283
   15SOL     OW  943   0.611   5.914   5.691
   15SOL    HW1  944   0.675   5.991   5.694
   15SOL    HW2  945   0.537   5.929   5.756
   16SOL     OW  946   6.139   2.543   5.883
   16SOL    HW1  947   6.153   2.576   5.976
   16SOL    HW2  948   6.204   2.470   5.863
   17SOL     OW  949   6.179   0.513   6.113
   17SOL    HW1  950   6.192   0.612   6.115
   17SOL    HW2  951   6.161   0.483   6.019
   18SOL     OW  952   3.136   0.648   4.843
   18SOL    HW1  953   3.141   0.553   4.875
   18SOL    HW2  954   3.100   0.706   4.916
   19SOL     OW  955   0.817   1.595   3.055
   19SOL    HW1  956   0.811   1.670   3.121
   19SOL    HW2  957   0.873   1.624   2.977
   20SOL     OW  958   5.577   2.588   5.553
   20SOL    HW1  959   5.485   2.627   5.560
   20SOL    HW2  960   5.571   2.495   5.519
   21SOL     OW  961   3.844   6.166   2.937
   21SOL    HW1  962   3.802   6.210   3.017
   21SOL    HW2  963   3.782   6.097   2.901
   22SOL     OW  964   1.961   6.785   5.078
   22SOL    HW1  965   1.969   6.737   5.166
   22SOL    HW2  966   2.035   6.852   5.071
   23SOL     OW  967   5.319   4.461   1.893
   23SOL    HW1  968   5.418   4.468   1.908
   23SOL    HW2  969   5.297   4.370   1.858
   24SOL     OW  970   3.972   0.271   1.593
   24SOL    HW1  971   4.071   0.275   1.601
   24SOL    HW2  972   3.947   0.214   1.515
   25SOL     OW  973   2.641   6.818   3.283
   25SOL    HW1  974   2.692   6.742   3.243
   25SOL    HW2  975   2.560   6.837   3.227
   26SOL     OW  976   1.539   1.985   6.616
   26SOL    HW1  977   1.523   1.945   6.525
   26SOL    HW2  978   1.531   1.914   6.685
   27SOL     OW  979   6.203   1.165   2.289
   27SOL    HW1  980   6.159   1.255   2.294
   27SOL    HW2  981   6.258   1.150   2.371
   28SOL     OW  982   1.984   0.957   4.827
   28SOL    HW1  983   2.047   1.002   4.891
   28SOL    HW2  984   1.892   0.957   4.866
   29SOL     OW  985   6.978   0.909   0.210
   29SOL    HW1  986   6.906   0.849   0.175
   29SOL    HW2  987   6.966   1.001   0.174
   30SOL     OW  988   4.015   0.486   4.955
   30SOL    HW1  989   3.999   0.523   4.863
   30SOL    HW2  990   4.079   0.545   5.004
   31SOL     OW  991   0.104   2.914   4.857
   31SOL    HW1  992   0.166   2.974   4.907
   31SOL    HW2  993   0.149   2.826   4.840
   32SOL     OW  994   1.600   1.050   0.848
   32SOL    HW1  995   1.692   1.088   0.839
   32SOL    HW2  996   1.556   1.089   0.929
   33SOL     OW  997   0.572   3.780   6.545
   33SOL    HW1  998   0.499   3.744   6.604
   33SOL    HW2  999   0.567   3.880   6.543
   34SOL     OW 1000   2.044   5.703   5.424
   34SOL    HW1 1001   2.116   5.735   5.362
   34SOL    HW2 1002   2.056   5.605   5.441
   35SOL     OW 1003   3.652   3.184   6.937
   35SOL    HW1 1004   3.673   3.093   6.902
   35SOL    HW2 1005   3.559   3.210   6.909
   36SOL     OW 1006   4.969   0.734   4.012
   36SOL    HW1 1007   5.021   0.812   4.047
   36SOL    HW2 1008   5.014   0.696   3.931
   37SOL     OW 1009   1.894   1.650   3.700
   37SOL    HW1 1010   1.824   1.707   3.742
   37SOL    HW2 1011   1.984   1.693   3.712
   38SOL     OW 1012   1.713   5.647   2.172
   38SOL    HW1 1013   1.647   5.674   2.102
   38SOL    HW2 1014   1.727   5.548   2.167
   39SOL     OW 1015   5.796   4.967   6.517
   39SOL    HW1 1016   5.814   4.880   6.564
   39SOL    HW2 1017   5.804   5.042   6.581
   40SOL     OW 1018   3.292   0.300   6.498
   40SOL    HW1 1019   3.293   0.205   6.529
   40SOL    HW2 1020   3.202   0.320   6.458
   41SOL     OW 1021   5.659   4.213   2.104
   41SOL    HW1 1022   5.571   4.169   2.123
   41SOL    HW2 1023   5.703   4.239   2.190
   42SOL     OW 1024   3.052   5.621   5.112
   42SOL    HW1 1025   2.987   5.546   5.123
   42SOL    HW2 1026   3.003   5.707   5.101
   43SOL     OW 1027   4.549   0.068   5.210
   43SOL    HW1 1028   4.602   0.014   5.145
   43SOL    HW2 1029   4.456   0.031   5.217
   44SOL     OW 1030   5.973   3.415   4.993
   44SOL    HW1 1031   6.005   3.462   5.076
   44SOL    HW2 1032   5.982   3.477   4.915
   45SOL     OW 1033   3.901   5.940   0.531
   45SOL    HW1 1034   3.856   5.967   0.446
   45SOL    HW2 1035   3.840   5.880   0.583
   46SOL     OW 1036   0.528   3.164   4.344
   46SOL    HW1 1037   0.478   3.203   4.266
   46SOL    HW2 1038   0.561   3.072   4.320
   47SOL     OW 1039   5.246   3.448   2.071
   47SOL    HW1 1040   5.204   3.411   1.988
   47SOL    HW2 1041   5.345   3.454   2.059
   48SOL     OW 1042   7.020   3.588   6.987
   48SOL    HW1 1043   7.018   3.576   6.887
   48SOL    HW2 1044   6.927   3.606   7.020
   49SOL     OW 1045   4.882   3.298   0.322
   49SOL    HW1 1046   4.899   3.394   0.343
   49SOL    HW2 1047   4.784   3.280   0.323
   50SOL     OW 1048   6.214   1.989   6.094
   50SOL    HW1 1049   6.205   1.890   6.083
   50SOL    HW2 1050   6.123   2.030   6.101
   51SOL     OW 1051   1.872   4.657   3.260
   51SOL    HW1 1052   1.775   4.679   3.272
   51SOL    HW2 1053   1.918   4.733   3.214
   52SOL     OW 1054   5.473   3.005   1.622
   52SOL    HW1 1055   5.408   2.945   1.575
   52SOL    HW2 1056   5.510   2.959   1.702
   53SOL     OW 1057   4.686   0.239   3.202
   53SOL    HW1 1058   4.653   0.331   3.183
   53SOL    HW2 1059   4.619   0.172   3.171
   54SOL     OW 1060   5.710   6.096   0.214
   54SOL    HW1 1061   5.695   5.997   0.208
   54SOL    HW2 1062   5.763   6.117   0.297
   55SOL     OW 1063   2.431   2.401   6.498
   55SOL    HW1 1064   2.346   2.386   6.448
   55SOL    HW2 1065   2.411   2.412   6.596
   56SOL     OW 1066   1.490   1.778   6.799
   56SOL    HW1 1067   1.579   1.788   6.844
   56SOL    HW2 1068   1.421   1.750   6.865
   57SOL     OW 1069   4.064   0.919   0.099
   57SOL    HW1 1070   4.161   0.899   0.110
   57SOL    HW2 1071   4.010   0.837   0.117
   58SOL     OW 1072   0.699   0.438   6.237
   58SOL    HW1 1073   0.744   0.514   6.284
   58SOL    HW2 1074   0.732   0.351   6.275
   59SOL     OW 1075   6.389   3.600   6.416
   59SOL    HW1 1076   6.466   3.628   6.358
   59SOL    HW2 1077   6.310   3.657   6.396
   60SOL     OW 1078   5.556   0.555   3.226
   60SOL    HW1 1079   5.644   0.591   3.194
   60SOL    HW2 1080   5.529   0.603   3.309
   61SOL     OW 1081   0.538   1.393   4.468
   61SOL    HW1 1082   0.495   1.305   4.489
   61SOL    HW2 1083   0.499   1.464   4.526
   62SOL     OW 1084   0.373   1.365   2.444
   62SOL    HW1 1085   0.318   1.436   2.488
   62SOL    HW2 1086   0.327   1.334   2.361
   63SOL     OW 1087   3.735   6.154   4.230
   63SOL    HW1 1088   3.800   6.198   4.293
   63SOL    HW2 1089   3.744   6.055   4.236
   64SOL     OW 1090   1.481   3.992   6.585
   64SOL    HW1 1091   1.467   3.895   6.564
   64SOL    HW2 1092   1.524   4.001   6.675
   65SOL     OW 1093   0.687   0.459   5.310
   65SOL    HW1 1094   0.629   0.414   5.378
   65SOL    HW2 1095   0.726   0.391   5.248
   66SOL     OW 1096   3.522   6.798   1.979
   66SOL    HW1 1097   3.490   6.706   1.953
   66SOL    HW2 1098   3.622   6.798   1.982
   67SOL     OW 1099   0.463   2.099   0.784
   67SOL    HW1 1100   0.458   2.056   0.694
   67SOL    HW2 1101   0.398   2.175   0.788
   68SOL     OW 1102   0.020   2.577   5.640
   68SOL    HW1 1103   6.990   2.630   5.704
   68SOL    HW2 1104   0.084   2.637   5.592
   69SOL     OW 1105   1.322   5.467   5.740
   69SOL    HW1 1106   1.269   5.508   5.814
   69SOL    HW2 1107   1.267   5.467   5.656
   70SOL     OW 1108   5.464   3.384   4.689
   70SOL    HW1 1109   5.469   3.340   4.779
   70SOL    HW2 1110   5.556   3.392   4.651
   71SOL     OW 1111   4.446   1.956   4.532
   71SOL    HW1 1112   4.378   1.968   4.604
   71SOL    HW2 1113   4.431   2.024   4.460
   72SOL     OW 1114   6.980   0.501   3.903
   72SOL    HW1 1115   0.033   0.496   3.840
   72SOL    HW2 1116   7.007   0.465   3.992
   73SOL     OW 1117   2.646   0.482   0.704
   73SOL    HW1 1118   2.740   0.467   0.672
   73SOL    HW2 1119   2.599   0.394   0.711
   74SOL     OW 1120   2.369   1.378   6.170
   74SOL    HW1 1121   2.317   1.324   6.237
   74SOL    HW2 1122   2.449   1.327   6.141
   75SOL     OW 1123   4.419   1.441   1.106
   75SOL    HW1 1124   4.376   1.399   1.026
   75SOL    HW2 1125   4.467   1.524   1.078
   76SOL     OW 1126   3.124   4.460   5.339
   76SOL    HW1 1127   3.079   4.488   5.424
   76SOL    HW2 1128   3.063   4.476   5.262
   77SOL     OW 1129   2.185   5.287   4.605
   77SOL    HW1 1130   2.225   5.197   4.586
   77SOL    HW2 1131   2.148   5.325   4.520
   78SOL     OW 1132   4.409   1.693   1.260
   78SOL    HW1 1133   4.347   1.770   1.252
   78SOL    HW2 1134   4.357   1.611   1.286
   79SOL     OW 1135   2.038   4.811   1.698
   79SOL    HW1 1136   2.038   4.722   1.743
   79SOL    HW2 1137   2.093   4.875   1.752
   80SOL     OW 1138   4.832   2.236   4.867
   80SOL    HW1 1139   4.819   2.303   4.793
   80SOL    HW2 1140   4.919   2.188   4.853
   81SOL     OW 1141   2.100   6.488   0.965
   81SOL    HW1 1142   2.143   6.412   0.916
   81SOL    HW2 1143   2.109   6.473   1.064
   82SOL     OW 1144   1.001   5.850   1.673
   82SOL    HW1 1145   1.057   5.783   1.723
   82SOL    HW2 1146   0.904   5.831   1.688
   83SOL     OW 1147   5.941   1.809   5.794
   83SOL    HW1 1148   5.925   1.748   5.716
   83SOL    HW2 1149   6.021   1.777   5.845
   84SOL     OW 1150   6.541   3.308   3.764
   84SOL    HW1 1151   6.526   3.365   3.683
   84SOL    HW2 1152   6.585   3.222   3.737
   85SOL     OW 1153   1.651   7.000   4.022
   85SOL    HW1 1154   1.621   6.953   4.104
   85SOL    HW2 1155   1.572   0.001   3.966
   86SOL     OW 1156   5.519   1.492   6.256
   86SOL    HW1 1157   5.509   1.396   6.229
   86SOL    HW2 1158   5.577   1.498   6.336
   87SOL     OW 1159   4.268   4.593   6.567
   87SOL    HW1 1160   4.215   4.674   6.542
   87SOL    HW2 1161   4.325   4.612   6.646
   88SOL     OW 1162   2.914   2.956   6.046
   88SOL    HW1 1163   3.007   2.930   6.019
   88SOL    HW2 1164   2.849   2.887   6.012
   89SOL     OW 1165   3.371   3.011   2.710
   89SOL    HW1 1166   3.440   2.959   2.659
   89SOL    HW2 1167   3.280   2.987   2.676
   90SOL     OW 1168   4.895   3.462   2.839
   90SOL    HW1 1169   4.898   3.549   2.888
   90SOL    HW2 1170   4.902   3.480   2.740
   91SOL     OW 1171   5.793   5.473   5.900
   91SOL    HW1 1172   5.737   5.393   5.919
   91SOL    HW2 1173   5.886   5.444   5.879
   92SOL     OW 1174   5.219   4.594   0.135
   92SOL    HW1 1175   5.223   4.648   0.219
   92SOL    HW2 1176   5.140   4.532   0.138
   93SOL     OW 1177   2.830   2.736   1.175
   93SOL    HW1 1178   2.845   2.791   1.257
   93SOL    HW2 1179   2.894   2.765   1.104
   94SOL     OW 1180   3.075   0.138   5.931
   94SOL    HW1 1181   3.108   0.184   5.848
   94SOL    HW2 1182   3.061   0.205   6.003
   95SOL     OW 1183   0.014   0.789   4.285
   95SOL    HW1 1184   6.982   0.753   4.360
   95SOL    HW2 1185   0.110   0.772   4.304
   96SOL     OW 1186   4.995   4.812   6.575
   96SOL    HW1 1187   5.063   4.858   6.633
   96SOL    HW2 1188   4.936   4.755   6.632
   97SOL     OW 1189   1.925   5.126   5.451
   97SOL    HW1 1190   1.884   5.062   5.386
   97SOL    HW2 1191   1.993   5.078   5.507
   98SOL     OW 1192   1.083   2.527   2.254
   98SOL    HW1 1193   1.092   2.626   2.266
   98SOL    HW2 1194   1.083   2.483   2.344
   99SOL     OW 1195   3.628   3.093   3.497
   99SOL    HW1 1196   3.710   3.151   3.497
   99SOL    HW2 1197   3.547   3.150   3.486
  100SOL     OW 1198   6.959   6.889   4.161
  100SOL    HW1 1199   0.012   6.829   4.183
  100SOL    HW2 1200   6.896   6.842   4.100
  101SOL     OW 1201   0.869   4.300   2.710
  101SOL    HW1 1202   0.957   4.280   2.667
  101SOL    HW2 1203   0.795   4.266   2.652
  102SOL     OW 1204   2.790   6.350   1.656
  102SOL    HW1 1205   2.877   6.360   1.608
  102SOL    HW2 1206   2.732   6.285   1.607
  103SOL     OW 1207   2.060   1.379   2.226
  103SOL    HW1 1208   2.050   1.470   2.266
  103SOL    HW2 1209   2.118   1.323   2.284
  104SOL     OW 1210   1.340   4.201   1.783
  104SOL    HW1 1211   1.352   4.106   1.755
  104SOL    HW2 1212   1.328   4.259   1.703
  105SOL     OW 1213   5.510   1.883   6.699
  105SOL    HW1 1214   5.518   1.944   6.620
  105SOL    HW2 1215   5.413   1.869   6.720
  106SOL     OW 1216   5.258   5.136   1.788
  106SOL    HW1 1217   5.230   5.042   1.807
  106SOL    HW2 1218   5.310   5.139   1.702
  107SOL     OW 1219   6.579   1.453   0.343
  107SOL    HW1 1220   6.566   1.392   0.264
  107SOL    HW2 1221   6.492   1.496   0.367
  108SOL     OW 1222   1.690   0.695   4.856
  108SOL    HW1 1223   1.765   0.640   4.893
  108SOL    HW2 1224   1.701   0.704   4.757
  109SOL     OW 1225   3.491   1.048   3.371
  109SOL    HW1 1226   3.554   1.077   3.442
  109SOL    HW2 1227   3.490   1.116   3.297
  110SOL     OW 1228   2.779   4.374   5.804
  110SOL    HW1 1229   2.751   4.321   5.883
  110SOL    HW2 1230   2.715   4.358   5.729
  111SOL     OW 1231   5.717   1.619   2.473
  111SOL    HW1 1232   5.645   1.688   2.473
  111SOL    HW2 1233   5.688   1.540   2.419
  112SOL     OW 1234   4.299   0.054   6.891
  112SOL    HW1 1235   4.302   0.099   6.802
  112SOL    HW2 1236   4.205   0.026   6.911
  113SOL     OW 1237   6.246   5.947   2.691
  113SOL    HW1 1238   6.284   5.895   2.768
  113SOL    HW2 1239   6.305   6.027   2.674
  114SOL     OW 1240   1.402   4.051   4.052
  114SOL    HW1 1241   1.403   4.123   3.983
  114SOL    HW2 1242   1.412   4.092   4.143
  115SOL     OW 1243   5.767   0.948   3.240
  115SOL    HW1 1244   5.708   1.014   3.287
  115SOL    HW2 1245   5.802   0.988   3.155
  116SOL     OW 1246   0.867   5.767   0.863
  116SOL    HW1 1247   0.927   5.834   0.819
  116SOL    HW2 1248   0.836   5.701   0.795
  117SOL     OW 1249   2.769   1.754   7.019
  117SOL    HW1 1250   2.719   1.667   7.012
  117SOL    HW2 1251   2.843   1.755   6.952
  118SOL     OW 1252   0.947   1.479   3.359
  118SOL    HW1 1253   0.942   1.534   3.275
  118SOL    HW2 1254   1.024   1.509   3.414
  119SOL     OW 1255   6.948   7.000   6.404
  119SOL    HW1 1256   6.957   0.073   6.428
  119SOL    HW2 1257   6.866   6.987   6.348
  120SOL     OW 1258   4.747   0.933   5.175
  120SOL    HW1 1259   4.736   0.852   5.234
  120SOL    HW2 1260   4.775   0.904   5.084
  121SOL     OW 1261   1.203   3.344   6.536
  121SOL    HW1 1262   1.209   3.253   6.576
  121SOL    HW2 1263   1.113   3.383   6.554
  122SOL     OW 1264   1.289   4.263   6.773
  122SOL    HW1 1265   1.286   4.164   6.759
  122SOL    HW2 1266   1.356   4.303   6.710
  123SOL     OW 1267   1.175   1.037   1.352
  123SOL    HW1 1268   1.206   1.064   1.261
  123SOL    HW2 1269   1.133   0.946   1.348
  124SOL     OW 1270   3.052   2.025   0.953
  124SOL    HW1 1271   3.024   2.058   1.043
  124SOL    HW2 1272   2.979   1.971   0.912
  125SOL     OW 1273   3.258   2.650   6.743
  125SOL    HW1 1274   3.181   2.656   6.679
  125SOL    HW2 1275   3.301   2.740   6.751
  126SOL     OW 1276   3.852   3.023   3.705
  126SOL    HW1 1277   3.875   3.057   3.614
  126SOL    HW2 1278   3.755   3.039   3.724
  127SOL     OW 1279   0.267   6.205   6.080
  127SOL    HW1 1280   0.298   6.199   5.985
  127SOL    HW2 1281   0.276   6.115   6.123
  128SOL     OW 1282   4.567   3.812   1.500
  128SOL    HW1 1283   4.504   3.857   1.437
  128SOL    HW2 1284   4.515   3.777   1.579
  129SOL     OW 1285   2.068   6.082   0.994
  129SOL    HW1 1286   2.099   6.040   0.908
  129SOL    HW2 1287   1.969   6.097   0.990
  130SOL     OW 1288   5.425   2.030   4.536
  130SOL    HW1 1289   5.367   1.950   4.521
  130SOL    HW2 1290   5.421   2.090   4.455
  131SOL     OW 1291   0.479   2.341   3.741
  131SOL    HW1 1292   0.400   2.280   3.729
  131SOL    HW2 1293   0.512   2.334   3.835
  132SOL     OW 1294   3.548   4.063   2.111
  132SOL    HW1 1295   3.559   4.161   2.128
  132SOL    HW2 1296   3.537   4.046   2.013
  133SOL     OW 1297   5.347   6.540   4.808
  133SOL    HW1 1298   5.381   6.471   4.745
  133SOL    HW2 1299   5.289   6.497   4.877
  134SOL     OW 1300   5.984   1.051   2.040
  134SOL    HW1 1301   6.025   1.139   2.065
  134SOL    HW2 1302   5.910   1.066   1.974
  135SOL     OW 1303   4.967   3.530   4.340
  135SOL    HW1 1304   4.951   3.568   4.432
  135SOL    HW2 1305   5.022   3.594   4.287
  136SOL     OW 1306   2.449   6.835   4.470
  136SOL    HW1 1307   2.439   6.885   4.556
  136SOL    HW2 1308   2.544   6.803   4.461
  137SOL     OW 1309   3.213   2.033   4.862
  137SOL    HW1 1310   3.195   2.125   4.895
  137SOL    HW2 1311   3.131   1.977   4.875
  138SOL     OW 1312   0.855   5.507   4.967
  138SOL    HW1 1313   0.856   5.413   4.931
  138SOL    HW2 1314   0.925   5.516   5.037
  139SOL     OW 1315   2.069   5.945   6.380
  139SOL    HW1 1316   1.994   6.011   6.379
  139SOL    HW2 1317   2.113   5.946   6.470
  140SOL     OW 1318   2.408   1.087   3.061
  140SOL    HW1 1319   2.485   1.098   3.124
  140SOL    HW2 1320   2.424   1.142   2.979
  141SOL     OW 1321   6.638   4.256   0.546
  141SOL    HW1 1322   6.542   4.243   0.567
  141SOL    HW2 1323   6.668   4.186   0.481
  142SOL     OW 1324   0.986   4.193   1.698
  142SOL    HW1 1325   1.005   4.125   1.627
  142SOL    HW2 1326   1.023   4.282   1.669
  143SOL     OW 1327   5.482   7.001   1.759
  143SOL    HW1 1328   5.565   0.032   1.750
  143SOL    HW2 1329   5.507   6.907   1.778
  144SOL     OW 1330   2.772   4.732   3.496
  144SOL    HW1 1331   2.693   4.675   3.518
  144SOL    HW2 1332   2.832   4.738   3.576
  145SOL     OW 1333   6.778   4.745   2.448
  145SOL    HW1 1334   6.788   4.792   2.361
  145SOL    HW2 1335   6.684   4.713   2.459
  146SOL     OW 1336   6.323   1.814   5.786
  146SOL    HW1 1337   6.405   1.758   5.789
  146SOL    HW2 1338   6.293   1.834   5.880
  147SOL     OW 1339   4.837   1.472   5.350
  147SOL    HW1 1340   4.773   1.419   5.295
  147SOL    HW2 1341   4.902   1.519   5.291
  148SOL     OW 1342   1.773   4.574   1.187
  148SOL    HW1 1343   1.717   4.515   1.129
  148SOL    HW2 1344   1.779   4.534   1.279
  149SOL     OW 1345   2.482   2.419   5.309
  149SOL    HW1 1346   2.403   2.423   5.370
  149SOL    HW2 1347   2.550   2.487   5.339
  150SOL     OW 1348   4.501   1.179   5.577
  150SOL    HW1 1349   4.404   1.189   5.554
  150SOL    HW2 1350   4.550   1.144   5.497
  151SOL     OW 1351   4.368   2.055   1.140
  151SOL    HW1 1352   4.348   1.961   1.110
  151SOL    HW2 1353   4.467   2.069   1.139
  152SOL     OW 1354   0.943   1.167   0.027
  152SOL    HW1 1355   0.980   1.164   6.958
  152SOL    HW2 1356   1.014   1.198   0.090
  153SOL     OW 1357   2.601   1.256   3.884
  153SOL    HW1 1358   2.565   1.268   3.976
  153SOL    HW2 1359   2.555   1.320   3.822
  154SOL     OW 1360   6.252   2.117   1.288
  154SOL    HW1 1361   6.276   2.155   1.377
  154SOL    HW2 1362   6.246   2.191   1.221
  155SOL     OW 1363   0.397   0.067   2.168
  155SOL    HW1 1364   0.435   0.101   2.254
  155SOL    HW2 1365   0.382   0.144   2.106
  156SOL     OW 1366   4.507   1.000   0.270
  156SOL    HW1 1367   4.514   1.092   0.309
  156SOL    HW2 1368   4.585   0.982   0.211
  157SOL     OW 1369   5.117   4.031   0.597
  157SOL    HW1 1370   5.196   3.988   0.553
  157SOL    HW2 1371   5.137   4.045   0.694
  158SOL     OW 1372   1.171   2.940   2.573
  158SOL    HW1 1373   1.130   2.859   2.615
  158SOL    HW2 1374   1.142   3.021   2.624
  159SOL     OW 1375   5.083   5.627   0.388
  159SOL    HW1 1376   5.000   5.583   0.353
  159SOL    HW2 1377   5.120   5.572   0.463
  160SOL     OW 1378   5.947   0.371   0.741
  160SOL    HW1 1379   5.864   0.352   0.793
  160SOL    HW2 1380   5.930   0.444   0.675
  161SOL     OW 1381   0.860   7.000   0.340
  161SOL    HW1 1382   0.908   6.926   0.388
  161SOL    HW2 1383   0.926   0.033   0.291
  162SOL     OW 1384   2.539   6.500   6.972
  162SOL    HW1 1385   2.593   6.433   7.023
  162SOL    HW2 1386   2.601   6.561   6.922
  163SOL     OW 1387   6.371   4.066   3.612
  163SOL    HW1 1388   6.413   4.004   3.546
  163SOL    HW2 1389   6.366   4.158   3.572
  164SOL     OW 1390   1.618   1.722   2.671
  164SOL    HW1 1391   1.555   1.780   2.723
  164SOL    HW2 1392   1.609   1.627   2.702
  165SOL     OW 1393   0.889   5.602   2.429
  165SOL    HW1 1394   0.968   5.582   2.487
  165SOL    HW2 1395   0.901   5.558   2.340
  166SOL     OW 1396   6.240   3.986   2.216
  166SOL    HW1 1397   6.302   4.061   2.240
  166SOL    HW2 1398   6.205   4.000   2.124
  167SOL     OW 1399   5.232   1.652   0.420
  167SOL    HW1 1400   5.298   1.579   0.402
  167SOL    HW2 1401   5.152   1.641   0.361
  168SOL     OW 1402   4.921   3.799   2.240
  168SOL    HW1 1403   4.890   3.707   2.268
  168SOL    HW2 1404   4.988   3.790   2.166
  169SOL     OW 1405   6.077   2.862   1.225
  169SOL    HW1 1406   6.037   2.933   1.283
  169SOL    HW2 1407   6.170   2.841   1.257
  170SOL     OW 1408   1.328   5.188   2.791
  170SOL    HW1 1409   1.373   5.222   2.874
  170SOL    HW2 1410   1.239   5.231   2.782
  171SOL     OW 1411   2.489   3.415   0.932
  171SOL    HW1 1412   2.436   3.474   0.871
  171SOL    HW2 1413   2.480   3.319   0.902
  172SOL     OW 1414   5.820   2.091   1.881
  172SOL    HW1 1415   5.841   2.056   1.790
  172SOL    HW2 1416   5.905   2.121   1.925
  173SOL     OW 1417   6.564   1.641   5.161
  173SOL    HW1 1418   6.594   1.734   5.140
  173SOL    HW2 1419   6.642   1.578   5.157
  174SOL     OW 1420   5.665   5.740   5.151
  174SOL    HW1 1421   5.689   5.701   5.062
  174SOL    HW2 1422   5.735   5.805   5.179
  175SOL     OW 1423   1.569   0.678   0.561
  175SOL    HW1 1424   1.642   0.685   0.492
  175SOL    HW2 1425   1.544   0.770   0.591
  176SOL     OW 1426   5.180   4.696   2.450
  176SOL    HW1 1427   5.129   4.623   2.404
  176SOL    HW2 1428   5.138   4.784   2.430
  177SOL     OW 1429   5.837   1.905   4.342
  177SOL    HW1 1430   5.786   1.990   4.357
  177SOL    HW2 1431   5.782   1.828   4.374
  178SOL     OW 1432   2.289   6.457   4.840
  178SOL    HW1 1433   2.372   6.422   4.795
  178SOL    HW2 1434   2.303   6.553   4.865
  179SOL     OW 1435   4.402   5.147   0.548
  179SOL    HW1 1436   4.438   5.121   0.458
  179SOL    HW2 1437   4.440   5.236   0.574
  180SOL     OW 1438   3.851   0.312   1.127
  180SOL    HW1 1439   3.841   0.406   1.093
  180SOL    HW2 1440   3.937   0.274   1.092
  181SOL     OW 1441   3.325   2.280   5.381
  181SOL    HW1 1442   3.382   2.354   5.417
  181SOL    HW2 1443   3.261   2.318   5.314
  182SOL     OW 1444   5.502   2.490   0.262
  182SOL    HW1 1445   5.571   2.534   0.204
  182SOL    HW2 1446   5.470   2.556   0.330
  183SOL     OW 1447   3.652   1.482   4.496
  183SOL    HW1 1448   3.687   1.439   4.412
  183SOL    HW2 1449   3.629   1.578   4.476
  184SOL     OW 1450   0.261   6.491   3.288
  184SOL    HW1 1451   0.228   6.515   3.379
  184SOL    HW2 1452   0.229   6.399   3.264
  185SOL     OW 1453   0.636   1.995   3.944
  185SOL    HW1 1454   0.665   1.947   4.027
  185SOL    HW2 1455   0.553   1.951   3.908
  186SOL     OW 1456   5.341   5.181   4.355
  186SOL    HW1 1457   5.332   5.223   4.265
  186SOL    HW2 1458   5.353   5.253   4.424
  187SOL     OW 1459   4.035   5.638   2.675
  187SOL    HW1 1460   3.973   5.717   2.678
  187SOL    HW2 1461   4.125   5.666   2.708
  188SOL     OW 1462   2.328   2.259   2.582
  188SOL    HW1 1463   2.334   2.341   2.524
  188SOL    HW2 1464   2.395   2.266   2.656
  189SOL     OW 1465   6.445   5.441   6.655
  189SOL    HW1 1466   6.525   5.405   6.703
  189SOL    HW2 1467   6.380   5.477   6.722
  190SOL     OW 1468   6.173   5.914   0.555
  190SOL    HW1 1469   6.263   5.886   0.520
  190SOL    HW2 1470   6.107   5.841   0.540
  191SOL     OW 1471   6.465   0.697   6.152
  191SOL    HW1 1472   6.464   0.694   6.252
  191SOL    HW2 1473   6.378   0.733   6.120
  192SOL     OW 1474   0.162   5.106   1.176
  192SOL    HW1 1475   0.170   5.187   1.235
  192SOL    HW2 1476   0.117   5.032   1.226
  193SOL     OW 1477   3.372   4.977   6.680
  193SOL    HW1 1478   3.413   4.889   6.655
  193SOL    HW2 1479   3.377   4.989   6.779
  194SOL     OW 1480   4.023   6.429   1.903
  194SOL    HW1 1481   3.954   6.499   1.923
  194SOL    HW2 1482   4.001   6.384   1.817
  195SOL     OW 1483   3.359   0.865   1.699
  195SOL    HW1 1484   3.351   0.878   1.600
  195SOL    HW2 1485   3.424   0.930   1.737
  196SOL     OW 1486   2.305   0.970   6.227
  196SOL    HW1 1487   2.255   1.017   6.300
  196SOL    HW2 1488   2.242   0.952   6.151
  197SOL     OW 1489   2.202   5.824   7.000
  197SOL    HW1 1490   2.295   5.806   6.968
  197SOL    HW2 1491   2.138   5.819   6.923
  198SOL     OW 1492   4.166   5.847   0.577
  198SOL    HW1 1493   4.229   5.772   0.560
  198SOL    HW2 1494   4.079   5.829   0.532
  199SOL     OW 1495   5.389   0.203   2.447
  199SOL    HW1 1496   5.329   0.251   2.383
  199SOL    HW2 1497   5.349   0.204   2.539
  200SOL     OW 1498   1.050   3.975   2.387
  200SOL    HW1 1499   0.972   3.927   2.347
  200SOL    HW2 1500   1.131   3.916   2.381
  201SOL     OW 1501   2.721   0.845   6.850
  201SOL    HW1 1502   2.717   0.925   6.789
  201SOL    HW2 1503   2.816   0.823   6.869
  202SOL     OW 1504   4.718   6.944   3.967
  202SOL    HW1 1505   4.622   6.967   3.951
  202SOL    HW2 1506   4.739   6.955   4.065
  203SOL     OW 1507   5.076   3.458   5.999
  203SOL    HW1 1508   4.977   3.451   5.987
  203SOL    HW2 1509   5.100   3.554   6.017
  204SOL     OW 1510   1.850   0.141   0.401
  204SOL    HW1 1511   1.771   0.098   0.358
  204SOL    HW2 1512   1.862   0.105   0.493
  205SOL     OW 1513   6.366   1.543   0.987
  205SOL    HW1 1514   6.451   1.593   0.975
  205SOL    HW2 1515   6.335   1.552   1.082
  206SOL     OW 1516   0.675   4.597   1.138
  206SOL    HW1 1517   0.706   4.671   1.199
  206SOL    HW2 1518   0.746   4.578   1.070
  207SOL     OW 1519   4.395   0.572   5.925
  207SOL    HW1 1520   4.307   0.563   5.879
  207SOL    HW2 1521   4.455   0.632   5.872
  208SOL     OW 1522   5.083   4.887   5.583
  208SOL    HW1 1523   5.171   4.904   5.539
  208SOL    HW2 1524   5.076   4.791   5.609
  209SOL     OW 1525   0.360   6.411   5.716
  209SOL    HW1 1526   0.272   6.414   5.667
  209SOL    HW2 1527   0.373   6.321   5.755
  210SOL     OW 1528   3.976   2.158   2.161
  210SOL    HW1 1529   3.891   2.205   2.137
  210SOL    HW2 1530   4.053   2.202   2.114
  211SOL     OW 1531   0.701   1.165   1.463
  211SOL    HW1 1532   0.776   1.183   1.527
  211SOL    HW2 1533   0.647   1.088   1.497
  212SOL     OW 1534   0.760   4.658   3.417
  212SOL    HW1 1535   0.778   4.704   3.505
  212SOL    HW2 1536   0.774   4.723   3.343
  213SOL     OW 1537   4.970   1.113   0.356
  213SOL    HW1 1538   4.946   1.177   0.429
  213SOL    HW2 1539   5.020   1.036   0.395
  214SOL     OW 1540   0.803   6.387   3.368
  214SOL    HW1 1541   0.717   6.405   3.415
  214SOL    HW2 1542   0.799   6.422   3.274
  215SOL     OW 1543   3.847   3.401   1.662
  215SOL    HW1 1544   3.762   3.407   1.609
  215SOL    HW2 1545   3.893   3.314   1.641
  216SOL     OW 1546   1.231   0.142   4.848
  216SOL    HW1 1547   1.298   0.140   4.922
  216SOL    HW2 1548   1.226   0.052   4.805
  217SOL     OW 1549   1.975   2.767   4.192
  217SOL    HW1 1550   2.038   2.812   4.254
  217SOL    HW2 1551   1.958   2.826   4.113
  218SOL     OW 1552   1.264   2.530   4.277
  218SOL    HW1 1553   1.335   2.537   4.347
  218SOL    HW2 1554   1.299   2.479   4.199
  219SOL     OW 1555   3.698   4.253   0.609
  219SOL    HW1 1556   3.762   4.288   0.542
  219SOL    HW2 1557   3.708   4.154   0.617
  220SOL     OW 1558   2.799   5.508   6.596
  220SOL    HW1 1559   2.738   5.569   6.646
  220SOL    HW2 1560   2.797   5.417   6.637
  221SOL     OW 1561   5.177   3.123   3.877
  221SOL    HW1 1562   5.080   3.119   3.853
  221SOL    HW2 1563   5.226   3.176   3.808
  222SOL     OW 1564   1.557   5.502   5.069
  222SOL    HW1 1565   1.549   5.441   5.148
  222SOL    HW2 1566   1.641   5.479   5.019
  223SOL     OW 1567   6.866   3.581   2.071
  223SOL    HW1 1568   6.779   3.594   2.118
  223SOL    HW2 1569   6.909   3.670   2.056
  224SOL     OW 1570   2.693   2.295   2.192
  224SOL    HW1 1571   2.781   2.304   2.147
  224SOL    HW2 1572   2.644   2.216   2.153
  225SOL     OW 1573   5.555   0.779   0.134
  225SOL    HW1 1574   5.599   0.853   0.083
  225SOL    HW2 1575   5.622   0.733   0.191
  226SOL     OW 1576   1.236   6.661   0.802
  226SOL    HW1 1577   1.262   6.571   0.765
  226SOL    HW2 1578   1.147   6.654   0.847
  227SOL     OW 1579   1.807   3.753   3.275
  227SOL    HW1 1580   1.877   3.690   3.310
  227SOL    HW2 1581   1.726   3.747   3.334
  228SOL     OW 1582   3.834   6.871   4.161
  228SOL    HW1 1583   3.880   6.959   4.177
  228SOL    HW2 1584   3.769   6.853   4.235
  229SOL     OW 1585   6.380   5.589   1.395
  229SOL    HW1 1586   6.472   5.614   1.426
  229SOL    HW2 1587   6.327   5.672   1.379
  230SOL     OW 1588   2.273   4.085   4.690
  230SOL    HW1 1589   2.195   4.033   4.656
  230SOL    HW2 1590   2.292   4.058   4.784
  231SOL     OW 1591   6.924   2.803   6.164
  231SOL    HW1 1592   6.849   2.851   6.118
  231SOL    HW2 1593   6.940   2.843   6.254
  232SOL     OW 1594   1.751   3.574   6.240
  232SOL    HW1 1595   1.715   3.480   6.243
  232SOL    HW2 1596   1.685   3.633   6.193
  233SOL     OW 1597   2.542   1.059   5.768
  233SOL    HW1 1598   2.458   1.006   5.779
  233SOL    HW2 1599   2.524   1.155   5.789
  234SOL     OW 1600   2.811   5.208   6.991
  234SOL    HW1 1601   2.879   5.140   7.019
  234SOL    HW2 1602   2.835   5.297   0.004
  235SOL     OW 1603   3.302   3.003   4.119
  235SOL    HW1 1604   3.246   3.002   4.202
  235SOL    HW2 1605   3.270   2.930   4.057
  236SOL     OW 1606   6.494   2.748   5.902
  236SOL    HW1 1607   6.552   2.729   5.823
  236SOL    HW2 1608   6.401   2.767   5.873
  237SOL     OW 1609   6.699   6.699   1.545
  237SOL    HW1 1610   6.661   6.645   1.469
  237SOL    HW2 1611   6.793   6.670   1.563
  238SOL     OW 1612   5.632   3.356   1.873
  238SOL    HW1 1613   5.607   3.423   1.942
  238SOL    HW2 1614   5.550   3.320   1.829
  239SOL     OW 1615   6.974   6.018   6.900
  239SOL    HW1 1616   6.912   5.985   6.828
  239SOL    HW2 1617   6.955   5.968   6.985
  240SOL     OW 1618   0.816   3.842   6.318
  240SOL    HW1 1619   0.792   3.803   6.407
  240SOL    HW2 1620   0.826   3.768   6.251
  241SOL     OW 1621   0.210   1.119   3.680
  241SOL    HW1 1622   0.296   1.170   3.669
  241SOL    HW2 1623   0.157   1.125   3.595
  242SOL     OW 1624   1.442   3.663   4.791
  242SOL    HW1 1625   1.438   3.574   4.835
  242SOL    HW2 1626   1.513   3.663   4.721
  243SOL     OW 1627   5.290   0.329   6.176
  243SOL    HW1 1628   5.257   0.297   6.088
  243SOL    HW2 1629   5.304   0.252   6.238
  244SOL     OW 1630   5.014   1.652   5.222
  244SOL    HW1 1631   5.111   1.675   5.218
  244SOL    HW2 1632   4.965   1.704   5.152
  245SOL     OW 1633   6.241   2.569   4.946
  245SOL    HW1 1634   6.285   2.576   5.035
  245SOL    HW2 1635   6.186   2.485   4.941
  246SOL     OW 1636   4.866   3.749   3.454
  246SOL    HW1 1637   4.782   3.802   3.437
  246SOL    HW2 1638   4.899   3.768   3.546
  247SOL     OW 1639   2.347   1.251   3.648
  247SOL    HW1 1640   2.368   1.161   3.609
  247SOL    HW2 1641   2.255   1.278   3.623
  248SOL     OW 1642   4.565   1.742   4.352
  248SOL    HW1 1643   4.637   1.802   4.317
  248SOL    HW2 1644   4.527   1.780   4.437
  249SOL     OW 1645   3.338   6.508   4.547
  249SOL    HW1 1646   3.382   6.419   4.544
  249SOL    HW2 1647   3.253   6.505   4.494
  250SOL     OW 1648   5.223   2.848   5.193
  250SOL    HW1 1649   5.235   2.750   5.179
  250SOL    HW2 1650   5.135   2.865   5.237
  251SOL     OW 1651   4.763   2.959   6.585
  251SOL    HW1 1652   4.750   2.868   6.543
  251SOL    HW2 1653   4.858   2.967   6.616
  252SOL     OW 1654   6.320   1.120   6.044
  252SOL    HW1 1655   6.319   1.219   6.030
  252SOL    HW2 1656   6.239   1.080   6.001
  253SOL     OW 1657   2.349   2.963   0.714
  253SOL    HW1 1658   2.252   2.984   0.721
  253SOL    HW2 1659   2.402   3.037   0.756
  254SOL     OW 1660   6.631   3.705   4.494
  254SOL    HW1 1661   6.670   3.711   4.586
  254SOL    HW2 1662   6.540   3.662   4.499
  255SOL     OW 1663   2.965   2.200   3.494
  255SOL    HW1 1664   3.041   2.141   3.468
  255SOL    HW2 1665   2.949   2.267   3.421
  256SOL     OW 1666   6.143   5.221   6.764
  256SOL    HW1 1667   6.088   5.250   6.686
  256SOL    HW2 1668   6.186   5.301   6.807
  257SOL     OW 1669   2.948   5.416   5.781
  257SOL    HW1 1670   3.019   5.482   5.807
  257SOL    HW2 1671   2.906   5.444   5.695
  258SOL     OW 1672   4.954   4.363   4.193
  258SOL    HW1 1673   4.871   4.407   4.227
  258SOL    HW2 1674   4.939   4.332   4.099
  259SOL     OW 1675   1.376   3.264   2.661
  259SOL    HW1 1676   1.350   3.316   2.743
  259SOL    HW2 1677   1.471   3.234   2.669
  260SOL     OW 1678   5.367   0.100   6.664
  260SOL    HW1 1679   5.403   0.031   6.601
  260SOL    HW2 1680   5.317   0.170   6.612
  261SOL     OW 1681   0.389   4.282   1.964
  261SOL    HW1 1682   0.483   4.279   1.929
  261SOL    HW2 1683   0.389   4.322   2.056
  262SOL     OW 1684   1.105   2.799   2.309
  262SOL    HW1 1685   1.191   2.791   2.259
  262SOL    HW2 1686   1.107   2.879   2.368
  263SOL     OW 1687   0.826   2.641   4.687
  263SOL    HW1 1688   0.827   2.543   4.666
  263SOL    HW2 1689   0.827   2.693   4.601
  264SOL     OW 1690   1.030   3.912   6.008
  264SOL    HW1 1691   1.021   3.991   6.070
  264SOL    HW2 1692   1.109   3.926   5.949
  265SOL     OW 1693   5.069   4.828   4.056
  265SOL    HW1 1694   5.112   4.747   4.018
  265SOL    HW2 1695   5.126   4.908   4.038
  266SOL     OW 1696   4.138   1.677   0.813
  266SOL    HW1 1697   4.141   1.606   0.882
  266SOL    HW2 1698   4.133   1.636   0.722
  267SOL     OW 1699   2.101   2.153   5.856
  267SOL    HW1 1700   2.045   2.230   5.823
  267SOL    HW2 1701   2.106   2.083   5.784
  268SOL     OW 1702   4.503   4.500   4.468
  268SOL    HW1 1703   4.427   4.496   4.403
  268SOL    HW2 1704   4.468   4.529   4.557
  269SOL     OW 1705   1.575   1.859   6.394
  269SOL    HW1 1706   1.618   1.920   6.328
  269SOL    HW2 1707   1.478   1.848   6.371
  270SOL     OW 1708   5.305   0.909   2.836
  270SOL    HW1 1709   5.331   0.951   2.749
  270SOL    HW2 1710   5.387   0.895   2.892
  271SOL     OW 1711   1.732   0.445   0.690
  271SOL    HW1 1712   1.673   0.509   0.642
  271SOL    HW2 1713   1.744   0.475   0.785
  272SOL     OW 1714   3.831   5.457   3.520
  272SOL    HW1 1715   3.787   5.368   3.508
  272SOL    HW2 1716   3.798   5.520   3.449
  273SOL     OW 1717   1.865   6.041   4.753
  273SOL    HW1 1718   1.874   6.092   4.839
  273SOL    HW2 1719   1.784   5.982   4.758
  274SOL     OW 1720   6.207   2.528   2.841
  274SOL    HW1 1721   6.262   2.523   2.758
  274SOL    HW2 1722   6.118   2.486   2.825
  275SOL     OW 1723   6.938   6.604   5.746
  275SOL    HW1 1724   7.005   6.635   5.814
  275SOL    HW2 1725   6.849   6.594   5.789
  276SOL     OW 1726   6.471   6.152   3.793
  276SOL    HW1 1727   6.539   6.182   3.726
  276SOL    HW2 1728   6.494   6.059   3.824
  277SOL     OW 1729   3.444   1.897   5.376
  277SOL    HW1 1730   3.422   1.951   5.458
  277SOL    HW2 1731   3.361   1.884   5.322
  278SOL     OW 1732   5.321   3.900   2.538
  278SOL    HW1 1733   5.308   3.996   2.515
  278SOL    HW2 1734   5.411   3.870   2.506
  279SOL     OW 1735   0.228   2.939   2.896
  279SOL    HW1 1736   0.148   2.961   2.840
  279SOL    HW2 1737   0.198   2.910   2.987
  280SOL     OW 1738   5.294   0.079   3.758
  280SOL    HW1 1739   5.376   0.023   3.771
  280SOL    HW2 1740   5.215   0.020   3.743
  281SOL     OW 1741   4.567   5.917   3.980
  281SOL    HW1 1742   4.567   5.821   3.952
  281SOL    HW2 1743   4.653   5.959   3.951
  282SOL     OW 1744   4.370   2.232   6.438
  282SOL    HW1 1745   4.371   2.134   6.457
  282SOL    HW2 1746   4.440   2.254   6.371
  283SOL     OW 1747   6.218   1.016   4.873
  283SOL    HW1 1748   6.202   0.967   4.958
  283SOL    HW2 1749   6.216   0.952   4.796
  284SOL     OW 1750   6.822   5.217   5.365
  284SOL    HW1 1751   6.733   5.187   5.398
  284SOL    HW2 1752   6.840   5.310   5.395
  285SOL     OW 1753   4.693   0.473   6.846
  285SOL    HW1 1754   4.749   0.402   6.804
  285SOL    HW2 1755   4.626   0.431   6.907
  286SOL     OW 1756   3.540   5.070   4.659
  286SOL    HW1 1757   3.602   5.005   4.615
  286SOL    HW2 1758   3.473   5.102   4.593
  287SOL     OW 1759   2.710   6.337   5.799
  287SOL    HW1 1760   2.770   6.417   5.799
  287SOL    HW2 1761   2.667   6.327   5.889
  288SOL     OW 1762   3.796   0.842   0.691
  288SOL    HW1 1763   3.719   0.848   0.754
  288SOL    HW2 1764   3.796   0.922   0.631
  289SOL     OW 1765   0.474   6.469   4.577
  289SOL    HW1 1766   0.465   6.550   4.519
  289SOL    HW2 1767   0.443   6.491   4.670
  290SOL     OW 1768   4.290   0.871   3.742
  290SOL    HW1 1769   4.275   0.925   3.659
  290SOL    HW2 1770   4.277   0.929   3.822
  291SOL     OW 1771   5.080   0.464   4.181
  291SOL    HW1 1772   5.018   0.533   4.143
  291SOL    HW2 1773   5.085   0.386   4.118
  292SOL     OW 1774   3.693   0.139   3.802
  292SOL    HW1 1775   3.760   0.082   3.849
  292SOL    HW2 1776   3.732   0.172   3.715
  293SOL     OW 1777   5.704   6.319   2.577
  293SOL    HW1 1778   5.708   6.412   2.613
  293SOL    HW2 1779   5.776   6.306   2.509
  294SOL     OW 1780   5.939   0.772   5.241
  294SOL    HW1 1781   5.967   0.833   5.315
  294SOL    HW2 1782   6.020   0.729   5.201
  295SOL     OW 1783   1.652   2.123   5.101
  295SOL    HW1 1784   1.722   2.181   5.142
  295SOL    HW2 1785   1.575   2.113   5.164
  296SOL     OW 1786   6.790   0.810   1.743
  296SOL    HW1 1787   6.757   0.768   1.659
  296SOL    HW2 1788   6.714   0.823   1.806
  297SOL     OW 1789   5.312   4.065   3.241
  297SOL    HW1 1790   5.356   4.113   3.317
  297SOL    HW2 1791   5.219   4.039   3.267
  298SOL     OW 1792   4.194   0.716   0.392
  298SOL    HW1 1793   4.242   0.734   0.307
  298SOL    HW2 1794   4.189   0.617   0.407
  299SOL     OW 1795   3.267   1.620   0.086
  299SOL    HW1 1796   3.308   1.660   0.168
  299SOL    HW2 1797   3.337   1.608   0.016
  300SOL     OW 1798   3.633   1.045   2.608
  300SOL    HW1 1799   3.565   1.095   2.662
  300SOL    HW2 1800   3.656   1.098   2.527
  301SOL     OW 1801   5.520   5.623   2.008
  301SOL    HW1 1802   5.481   5.555   2.071
  301SOL    HW2 1803   5.467   5.624   1.924
  302SOL     OW 1804   6.836   6.041   1.585
  302SOL    HW1 1805   6.768   5.986   1.537
  302SOL    HW2 1806   6.822   6.138   1.564
  303SOL     OW 1807   6.383   5.622   2.530
  303SOL    HW1 1808   6.298   5.614   2.477
  303SOL    HW2 1809   6.458   5.578   2.480
  304SOL     OW 1810   1.337   0.103   5.118
  304SOL    HW1 1811   1.412   0.055   5.071
  304SOL    HW2 1812   1.319   0.059   5.206
  305SOL     OW 1813   1.373   3.048   1.590
  305SOL    HW1 1814   1.461   3.041   1.544
  305SOL    HW2 1815   1.321   2.964   1.575
  306SOL     OW 1816   6.911   0.640   3.131
  306SOL    HW1 1817   6.927   0.705   3.206
  306SOL    HW2 1818   6.818   0.603   3.139
  307SOL     OW 1819   3.199   3.419   1.505
  307SOL    HW1 1820   3.217   3.436   1.602
  307SOL    HW2 1821   3.251   3.339   1.475
  308SOL     OW 1822   5.553   0.705   4.061
  308SOL    HW1 1823   5.607   0.621   4.072
  308SOL    HW2 1824   5.501   0.722   4.145
  309SOL     OW 1825   0.716   7.001   6.924
  309SOL    HW1 1826   0.692   0.021   6.837
  309SOL    HW2 1827   0.808   6.962   6.917
  310SOL     OW 1828   5.138   6.046   4.979
  310SOL    HW1 1829   5.209   6.073   5.044
  310SOL    HW2 1830   5.174   5.979   4.915
  311SOL     OW 1831   2.264   5.242   3.339
  311SOL    HW1 1832   2.289   5.244   3.242
  311SOL    HW2 1833   2.184   5.184   3.352
  312SOL     OW 1834   4.668   2.312   3.676
  312SOL    HW1 1835   4.729   2.380   3.715
  312SOL    HW2 1836   4.714   2.223   3.675
  313SOL     OW 1837   3.709   3.823   2.925
  313SOL    HW1 1838   3.736   3.770   3.005
  313SOL    HW2 1839   3.739   3.776   2.842
  314SOL     OW 1840   1.946   6.675   5.371
  314SOL    HW1 1841   1.994   6.590   5.391
  314SOL    HW2 1842   2.012   6.750   5.361
  315SOL     OW 1843   6.244   1.199   3.241
  315SOL    HW1 1844   6.281   1.234   3.327
  315SOL    HW2 1845   6.145   1.210   3.241
  316SOL     OW 1846   4.292   1.538   5.677
  316SOL    HW1 1847   4.267   1.565   5.771
  316SOL    HW2 1848   4.385   1.502   5.677
  317SOL     OW 1849   1.348   1.894   1.380
  317SOL    HW1 1850   1.337   1.815   1.321
  317SOL    HW2 1851   1.440   1.931   1.370
  318SOL     OW 1852   6.966   0.921   5.720
  318SOL    HW1 1853   6.991   0.825   5.721
  318SOL    HW2 1854   6.949   0.951   5.626
  319SOL     OW 1855   0.823   1.967   2.902
  319SOL    HW1 1856   0.818   1.882   2.849
  319SOL    HW2 1857   0.800   2.044   2.843
  320SOL     OW 1858   5.766   1.863   6.790
  320SOL    HW1 1859   5.667   1.877   6.789
  320SOL    HW2 1860   5.812   1.951   6.773
  321SOL     OW 1861   3.908   3.013   0.606
  321SOL    HW1 1862   3.951   3.101   0.585
  321SOL    HW2 1863   3.864   3.018   0.696
  322SOL     OW 1864   4.464   3.734   6.412
  322SOL    HW1 1865   4.403   3.796   6.461
  322SOL    HW2 1866   4.497   3.663   6.473
  323SOL     OW 1867   0.717   2.384   2.935
  323SOL    HW1 1868   0.697   2.381   3.033
  323SOL    HW2 1869   0.640   2.424   2.885
  324SOL     OW 1870   1.892   7.016   3.260
  324SOL    HW1 1871   1.933   6.968   3.337
  324SOL    HW2 1872   1.887   0.090   3.281
  325SOL     OW 1873   1.229   3.482   2.298
  325SOL    HW1 1874   1.206   3.398   2.348
  325SOL    HW2 1875   1.322   3.475   2.262
  326SOL     OW 1876   1.932   5.399   6.089
  326SOL    HW1 1877   1.938   5.490   6.049
  326SOL    HW2 1878   1.934   5.406   6.188
  327SOL     OW 1879   3.662   5.695   2.925
  327SOL    HW1 1880   3.606   5.684   2.843
  327SOL    HW2 1881   3.747   5.743   2.901
  328SOL     OW 1882   1.301   3.957   1.646
  328SOL    HW1 1883   1.318   4.007   1.561
  328SOL    HW2 1884   1.214   3.906   1.638
  329SOL     OW 1885   3.290   3.788   1.482
  329SOL    HW1 1886   3.227   3.719   1.518
  329SOL    HW2 1887   3.271   3.802   1.385
  330SOL     OW 1888   4.039   5.495   0.348
  330SOL    HW1 1889   4.079   5.574   0.301
  330SOL    HW2 1890   3.957   5.465   0.299
  331SOL     OW 1891   4.940   5.083   0.822
  331SOL    HW1 1892   4.918   4.988   0.802
  331SOL    HW2 1893   4.892   5.143   0.757
  332SOL     OW 1894   5.489   1.885   3.929
  332SOL    HW1 1895   5.450   1.802   3.890
  332SOL    HW2 1896   5.584   1.894   3.901
  333SOL     OW 1897   4.096   0.809   5.025
  333SOL    HW1 1898   4.045   0.801   5.111
  333SOL    HW2 1899   4.049   0.874   4.965
  334SOL     OW 1900   4.067   3.392   2.854
  334SOL    HW1 1901   4.107   3.453   2.786
  334SOL    HW2 1902   4.038   3.445   2.933
  335SOL     OW 1903   3.718   6.815   6.906
  335SOL    HW1 1904   3.739   6.717   6.917
  335SOL    HW2 1905   3.697   6.855   6.995
  336SOL     OW 1906   2.806   1.091   3.781
  336SOL    HW1 1907   2.724   1.138   3.817
  336SOL    HW2 1908   2.871   1.160   3.748
  337SOL     OW 1909   1.540   1.579   5.582
  337SOL    HW1 1910   1.595   1.495   5.578
  337SOL    HW2 1911   1.546   1.618   5.673
  338SOL     OW 1912   4.248   3.131   1.412
  338SOL    HW1 1913   4.291   3.219   1.429
  338SOL    HW2 1914   4.315   3.058   1.427
  339SOL     OW 1915   3.951   4.926   4.654
  339SOL    HW1 1916   3.999   4.838   4.654
  339SOL    HW2 1917   3.946   4.962   4.748
  340SOL     OW 1918   5.066   2.757   4.736
  340SOL    HW1 1919   5.030   2.826   4.798
  340SOL    HW2 1920   5.138   2.797   4.679
  341SOL     OW 1921   5.648   5.705   4.398
  341SOL    HW1 1922   5.738   5.746   4.387
  341SOL    HW2 1923   5.611   5.682   4.308
  342SOL     OW 1924   4.781   3.872   0.894
  342SOL    HW1 1925   4.819   3.869   0.986
  342SOL    HW2 1926   4.812   3.792   0.842
  343SOL     OW 1927   0.781   5.967   2.575
  343SOL    HW1 1928   0.794   5.941   2.479
  343SOL    HW2 1929   0.683   5.967   2.597
  344SOL     OW 1930   0.970   1.511   1.449
  344SOL    HW1 1931   1.005   1.418   1.462
  344SOL    HW2 1932   0.997   1.544   1.359
  345SOL     OW 1933   0.097   2.250   4.280
  345SOL    HW1 1934   0.143   2.254   4.368
  345SOL    HW2 1935   7.022   2.251   4.293
  346SOL     OW 1936   1.961   0.170   2.687
  346SOL    HW1 1937   2.014   0.255   2.688
  346SOL    HW2 1938   1.900   0.168   2.767
  347SOL     OW 1939   2.005   5.979   0.109
  347SOL    HW1 1940   2.060   6.011   0.187
  347SOL    HW2 1941   2.066   5.957   0.033
  348SOL     OW 1942   4.958   4.907   2.573
  348SOL    HW1 1943   4.886   4.837   2.576
  348SOL    HW2 1944   4.983   4.925   2.477
  349SOL     OW 1945   6.757   4.234   1.430
  349SOL    HW1 1946   6.767   4.138   1.406
  349SOL    HW2 1947   6.785   4.291   1.353
  350SOL     OW 1948   3.247   3.108   0.102
  350SOL    HW1 1949   3.188   3.036   0.066
  350SOL    HW2 1950   3.323   3.068   0.152
  351SOL     OW 1951   3.363   3.678   0.425
  351SOL    HW1 1952   3.264   3.680   0.442
  351SOL    HW2 1953   3.409   3.741   0.488
  352SOL     OW 1954   4.221   5.970   3.779
  352SOL    HW1 1955   4.174   5.884   3.762
  352SOL    HW2 1956   4.173   6.021   3.851
  353SOL     OW 1957   3.293   0.037   6.263
  353SOL    HW1 1958   3.294   0.130   6.226
  353SOL    HW2 1959   3.199   0.007   6.276
  354SOL     OW 1960   5.852   2.791   1.051
  354SOL    HW1 1961   5.809   2.722   1.111
  354SOL    HW2 1962   5.940   2.817   1.089
  355SOL     OW 1963   2.186   2.892   2.614
  355SOL    HW1 1964   2.209   2.928   2.705
  355SOL    HW2 1965   2.136   2.962   2.562
  356SOL     OW 1966   1.703   0.977   4.909
  356SOL    HW1 1967   1.621   0.984   4.967
  356SOL    HW2 1968   1.719   0.882   4.884
  357SOL     OW 1969   6.760   6.241   3.902
  357SOL    HW1 1970   6.801   6.269   3.989
  357SOL    HW2 1971   6.815   6.275   3.827
  358SOL     OW 1972   4.956   5.895   1.076
  358SOL    HW1 1973   4.879   5.839   1.046
  358SOL    HW2 1974   4.922   5.975   1.126
  359SOL     OW 1975   3.465   0.800   2.017
  359SOL    HW1 1976   3.397   0.868   2.044
  359SOL    HW2 1977   3.535   0.793   2.088
  360SOL     OW 1978   1.269   4.539   4.996
  360SOL    HW1 1979   1.272   4.512   5.093
  360SOL    HW2 1980   1.361   4.540   4.959
  361SOL     OW 1981   6.065   6.386   2.713
  361SOL    HW1 1982   6.102   6.474   2.686
  361SOL    HW2 1983   6.084   6.370   2.810
  362SOL     OW 1984   4.041   4.335   0.855
  362SOL    HW1 1985   3.989   4.412   0.890
  362SOL    HW2 1986   3.984   4.252   0.856
  363SOL     OW 1987   6.338   4.850   2.623
  363SOL    HW1 1988   6.354   4.948   2.611
  363SOL    HW2 1989   6.275   4.836   2.699
  364SOL     OW 1990   0.688   4.827   6.800
  364SOL    HW1 1991   0.647   4.909   6.759
  364SOL    HW2 1992   0.651   4.746   6.756
  365SOL     OW 1993   3.489   0.465   1.742
  365SOL    HW1 1994   3.444   0.508   1.664
  365SOL    HW2 1995   3.564   0.523   1.774
  366SOL     OW 1996   5.971   3.434   6.607
  366SOL    HW1 1997   5.932   3.525   6.595
  366SOL    HW2 1998   5.967   3.409   6.704
  367SOL     OW 1999   5.675   2.327   6.148
  367SOL    HW1 2000   5.609   2.255   6.128
  367SOL    HW2 2001   5.755   2.288   6.192
  368SOL     OW 2002   6.938   2.150   5.949
  368SOL    HW1 2003   6.881   2.139   6.031
  368SOL    HW2 2004   6.988   2.236   5.955
  369SOL     OW 2005   5.757   3.969   3.186
  369SOL    HW1 2006   5.706   4.054   3.175
  369SOL    HW2 2007   5.736   3.907   3.110
  370SOL     OW 2008   1.593   2.126   4.127
  370SOL    HW1 2009   1.500   2.136   4.163
  370SOL    HW2 2010   1.656   2.106   4.202
  371SOL     OW 2011   2.089   4.399   6.989
  371SOL    HW1 2012   2.006   4.442   0.001
  371SOL    HW2 2013   2.170   4.443   0.004
  372SOL     OW 2014   1.906   0.202   5.098
  372SOL    HW1 2015   1.911   0.249   5.010
  372SOL    HW2 2016   1.812   0.174   5.115
  373SOL     OW 2017   5.855   6.786   5.465
  373SOL    HW1 2018   5.955   6.788   5.468
  373SOL    HW2 2019   5.820   6.879   5.463
  374SOL     OW 2020   2.225   1.533   2.805
  374SOL    HW1 2021   2.165   1.486   2.740
  374SOL    HW2 2022   2.170   1.579   2.874
  375SOL     OW 2023   0.551   5.214   5.452
  375SOL    HW1 2024   0.608   5.155   5.509
  375SOL    HW2 2025   0.578   5.309   5.465
  376SOL     OW 2026   2.154   1.063   5.008
  376SOL    HW1 2027   2.119   0.989   5.066
  376SOL    HW2 2028   2.143   1.150   5.055
  377SOL     OW 2029   1.995   2.210   0.111
  377SOL    HW1 2030   2.078   2.176   0.066
  377SOL    HW2 2031   1.959   2.140   0.172
  378SOL     OW 2032   3.394   1.177   6.808
  378SOL    HW1 2033   3.360   1.229   6.730
  378SOL    HW2 2034   3.320   1.125   6.849
  379SOL     OW 2035   5.715   2.347   6.822
  379SOL    HW1 2036   5.695   2.444   6.812
  379SOL    HW2 2037   5.753   2.329   6.913
  380SOL     OW 2038   3.267   1.360   1.445
  380SOL    HW1 2039   3.245   1.285   1.507
  380SOL    HW2 2040   3.244   1.334   1.351
  381SOL     OW 2041   2.183   3.625   4.772
  381SOL    HW1 2042   2.235   3.577   4.702
  381SOL    HW2 2043   2.117   3.562   4.813
  382SOL     OW 2044   6.385   0.303   0.062
  382SOL    HW1 2045   6.361   0.391   0.104
  382SOL    HW2 2046   6.440   0.250   0.127
  383SOL     OW 2047   4.404   3.401   0.391
  383SOL    HW1 2048   4.489   3.449   0.413
  383SOL    HW2 2049   4.378   3.420   0.297
  384SOL     OW 2050   0.119   3.974   3.949
  384SOL    HW1 2051   0.027   3.940   3.930
  384SOL    HW2 2052   0.156   3.927   4.029
  385SOL     OW 2053   3.599   5.864   5.875
  385SOL    HW1 2054   3.601   5.765   5.891
  385SOL    HW2 2055   3.509   5.900   5.898
  386SOL     OW 2056   4.299   0.312   3.891
  386SOL    HW1 2057   4.323   0.401   3.930
  386SOL    HW2 2058   4.217   0.320   3.835
  387SOL     OW 2059   1.497   5.536   2.538
  387SOL    HW1 2060   1.457   5.571   2.452
  387SOL    HW2 2061   1.595   5.520   2.525
  388SOL     OW 2062   2.083   2.141   6.757
  388SOL    HW1 2063   2.052   2.228   6.795
  388SOL    HW2 2064   2.105   2.153   6.660
  389SOL     OW 2065   4.173   3.543   2.645
  389SOL    HW1 2066   4.115   3.618   2.615
  389SOL    HW2 2067   4.190   3.480   2.568
  390SOL     OW 2068   2.784   0.693   3.696
  390SOL    HW1 2069   2.723   0.681   3.774
  390SOL    HW2 2070   2.877   0.663   3.721
  391SOL     OW 2071   2.413   2.970   6.290
  391SOL    HW1 2072   2.503   3.008   6.313
  391SOL    HW2 2073   2.378   2.919   6.368
  392SOL     OW 2074   1.973   5.382   1.095
  392SOL    HW1 2075   2.062   5.424   1.110
  392SOL    HW2 2076   1.920   5.436   1.030
  393SOL     OW 2077   6.684   4.340   5.928
  393SOL    HW1 2078   6.680   4.247   5.966
  393SOL    HW2 2079   6.633   4.402   5.987
  394SOL     OW 2080   0.126   6.967   0.204
  394SOL    HW1 2081   0.148   6.910   0.283
  394SOL    HW2 2082   0.210   6.989   0.154
  395SOL     OW 2083   4.874   3.882   2.655
  395SOL    HW1 2084   4.811   3.807   2.676
  395SOL    HW2 2085   4.940   3.851   2.586
  396SOL     OW 2086   3.731   4.022   2.303
  396SOL    HW1 2087   3.830   4.018   2.288
  396SOL    HW2 2088   3.685   4.038   2.216
  397SOL     OW 2089   4.275   3.065   5.908
  397SOL    HW1 2090   4.206   3.133   5.888
  397SOL    HW2 2091   4.231   2.977   5.928
  398SOL     OW 2092   0.580   6.080   1.760
  398SOL    HW1 2093   0.620   6.063   1.670
  398SOL    HW2 2094   0.587   6.178   1.781
  399SOL     OW 2095   5.380   5.912   2.890
  399SOL    HW1 2096   5.348   5.944   2.800
  399SOL    HW2 2097   5.408   5.991   2.945
  400SOL     OW 2098   0.173   0.724   5.971
  400SOL    HW1 2099   0.164   0.695   6.066
  400SOL    HW2 2100   0.174   0.824   5.967
  401SOL     OW 2101   4.852   0.680   6.314
  401SOL    HW1 2102   4.878   0.731   6.232
  401SOL    HW2 2103   4.830   0.744   6.387
  402SOL     OW 2104   5.931   6.651   2.655
  402SOL    HW1 2105   5.939   6.674   2.751
  402SOL    HW2 2106   5.840   6.615   2.636
  403SOL     OW 2107   4.144   2.338   6.282
  403SOL    HW1 2108   4.221   2.302   6.333
  403SOL    HW2 2109   4.175   2.412   6.222
  404SOL     OW 2110   1.399   6.688   3.620
  404SOL    HW1 2111   1.455   6.668   3.701
  404SOL    HW2 2112   1.355   6.604   3.589
  405SOL     OW 2113   1.639   3.039   1.441
  405SOL    HW1 2114   1.727   2.993   1.429
  405SOL    HW2 2115   1.653   3.127   1.486
  406SOL     OW 2116   1.122   2.790   3.531
  406SOL    HW1 2117   1.161   2.800   3.440
  406SOL    HW2 2118   1.193   2.758   3.594
  407SOL     OW 2119   1.977   0.599   4.069
  407SOL    HW1 2120   1.907   0.546   4.117
  407SOL    HW2 2121   1.964   0.697   4.088
  408SOL     OW 2122   1.273   0.858   3.431
  408SOL    HW1 2123   1.268   0.912   3.347
  408SOL    HW2 2124   1.311   0.915   3.505
  409SOL     OW 2125   5.998   3.099   2.083
  409SOL    HW1 2126   5.926   3.081   2.150
  409SOL    HW2 2127   5.989   3.193   2.050
  410SOL     OW 2128   2.262   0.463   6.677
  410SOL    HW1 2129   2.257   0.455   6.577
  410SOL    HW2 2130   2.215   0.385   6.719
  411SOL     OW 2131   6.162   6.832   6.517
  411SOL    HW1 2132   6.074   6.790   6.496
  411SOL    HW2 2133   6.148   6.917   6.567
  412SOL     OW 2134   4.875   0.308   3.377
  412SOL    HW1 2135   4.877   0.240   3.450
  412SOL    HW2 2136   4.799   0.290   3.315
  413SOL     OW 2137   4.748   4.480   1.409
  413SOL    HW1 2138   4.701   4.458   1.323
  413SOL    HW2 2139   4.714   4.567   1.445
  414SOL     OW 2140   3.712   5.459   3.064
  414SOL    HW1 2141   3.658   5.458   3.148
  414SOL    HW2 2142   3.689   5.540   3.010
  415SOL     OW 2143   1.122   6.207   0.404
  415SOL    HW1 2144   1.195   6.149   0.441
  415SOL    HW2 2145   1.090   6.169   0.318
  416SOL     OW 2146   4.752   5.399   4.978
  416SOL    HW1 2147   4.656   5.398   5.008
  416SOL    HW2 2148   4.805   5.456   5.040
  417SOL     OW 2149   2.516   6.335   0.743
  417SOL    HW1 2150   2.469   6.248   0.732
  417SOL    HW2 2151   2.604   6.319   0.788
  418SOL     OW 2152   4.607   6.054   1.198
  418SOL    HW1 2153   4.535   5.986   1.212
  418SOL    HW2 2154   4.691   6.008   1.170
  419SOL     OW 2155   1.170   0.600   1.525
  419SOL    HW1 2156   1.219   0.543   1.460
  419SOL    HW2 2157   1.236   0.657   1.575
  420SOL     OW 2158   6.300   3.290   1.250
  420SOL    HW1 2159   6.206   3.320   1.232
  420SOL    HW2 2160   6.306   3.254   1.344
  421SOL     OW 2161   0.537   5.436   6.428
  421SOL    HW1 2162   0.482   5.358   6.396
  421SOL    HW2 2163   0.493   5.521   6.399
  422SOL     OW 2164   5.959   5.353   0.674
  422SOL    HW1 2165   6.042   5.308   0.707
  422SOL    HW2 2166   5.934   5.427   0.737
  423SOL     OW 2167   0.119   2.567   7.003
  423SOL    HW1 2168   0.061   2.491   0.009
  423SOL    HW2 2169   0.062   2.639   6.965
  424SOL     OW 2170   2.686   3.665   0.858
  424SOL    HW1 2171   2.779   3.703   0.867
  424SOL    HW2 2172   2.665   3.610   0.938
  425SOL     OW 2173   5.620   1.405   2.307
  425SOL    HW1 2174   5.549   1.350   2.351
  425SOL    HW2 2175   5.671   1.349   2.241
  426SOL     OW 2176   5.087   2.345   4.590
  426SOL    HW1 2177   5.149   2.336   4.668
  426SOL    HW2 2178   4.992   2.349   4.622
  427SOL     OW 2179   5.567   4.968   2.389
  427SOL    HW1 2180   5.498   4.935   2.454
  427SOL    HW2 2181   5.648   4.999   2.440
  428SOL     OW 2182   4.490   6.805   4.888
  428SOL    HW1 2183   4.583   6.814   4.921
  428SOL    HW2 2184   4.483   6.845   4.796
  429SOL     OW 2185   2.315   4.677   1.846
  429SOL    HW1 2186   2.282   4.771   1.858
  429SOL    HW2 2187   2.403   4.666   1.892
  430SOL     OW 2188   0.974   0.102   4.525
  430SOL    HW1 2189   1.031   0.076   4.447
  430SOL    HW2 2190   0.944   0.020   4.574
  431SOL     OW 2191   3.730   0.312   0.463
  431SOL    HW1 2192   3.788   0.247   0.512
  431SOL    HW2 2193   3.731   0.292   0.365
  432SOL     OW 2194   6.449   2.746   1.964
  432SOL    HW1 2195   6.536   2.711   1.932
  432SOL    HW2 2196   6.399   2.788   1.888
  433SOL     OW 2197   3.013   6.104   4.089
  433SOL    HW1 2198   3.008   6.199   4.058
  433SOL    HW2 2199   2.921   6.068   4.102
  434SOL     OW 2200   4.710   5.254   1.709
  434SOL    HW1 2201   4.658   5.193   1.769
  434SOL    HW2 2202   4.704   5.222   1.615
  435SOL     OW 2203   3.761   2.107   5.317
  435SOL    HW1 2204   3.804   2.193   5.290
  435SOL    HW2 2205   3.813   2.064   5.391
  436SOL     OW 2206   3.070   6.196   1.350
  436SOL    HW1 2207   3.099   6.239   1.436
  436SOL    HW2 2208   3.104   6.249   1.273
  437SOL     OW 2209   0.966   6.898   6.873
  437SOL    HW1 2210   0.992   6.995   6.867
  437SOL    HW2 2211   1.001   6.850   6.792
  438SOL     OW 2212   1.676   3.005   2.228
  438SOL    HW1 2213   1.773   3.010   2.204
  438SOL    HW2 2214   1.664   3.029   2.324
  439SOL     OW 2215   6.316   4.374   3.573
  439SOL    HW1 2216   6.221   4.354   3.550
  439SOL    HW2 2217   6.327   4.377   3.672
  440SOL     OW 2218   1.259   2.177   4.814
  440SOL    HW1 2219   1.354   2.151   4.830
  440SOL    HW2 2220   1.256   2.265   4.767
  441SOL     OW 2221   0.425   1.719   3.223
  441SOL    HW1 2222   0.479   1.649   3.177
  441SOL    HW2 2223   0.362   1.762   3.158
  442SOL     OW 2224   1.979   4.938   0.231
  442SOL    HW1 2225   1.914   4.950   0.156
  442SOL    HW2 2226   2.066   4.906   0.195
  443SOL     OW 2227   0.970   4.276   5.098
  443SOL    HW1 2228   0.968   4.325   5.011
  443SOL    HW2 2229   0.960   4.178   5.082
  444SOL     OW 2230   5.232   2.124   5.786
  444SOL    HW1 2231   5.284   2.087   5.862
  444SOL    HW2 2232   5.134   2.124   5.809
  445SOL     OW 2233   1.283   5.572   3.463
  445SOL    HW1 2234   1.329   5.488   3.490
  445SOL    HW2 2235   1.202   5.585   3.520
  446SOL     OW 2236   4.031   5.046   3.673
  446SOL    HW1 2237   4.032   5.050   3.773
  446SOL    HW2 2238   4.125   5.038   3.638
  447SOL     OW 2239   0.577   3.061   0.347
  447SOL    HW1 2240   0.527   3.054   0.260
  447SOL    HW2 2241   0.584   2.970   0.388
  448SOL     OW 2242   2.930   0.601   4.654
  448SOL    HW1 2243   3.024   0.636   4.657
  448SOL    HW2 2244   2.889   0.607   4.745
  449SOL     OW 2245   3.916   0.747   5.258
  449SOL    HW1 2246   3.835   0.781   5.212
  449SOL    HW2 2247   3.890   0.696   5.340
  450SOL     OW 2248   1.162   5.971   3.838
  450SOL    HW1 2249   1.204   6.062   3.841
  450SOL    HW2 2250   1.178   5.924   3.925
  451SOL     OW 2251   2.073   2.069   3.172
  451SOL    HW1 2252   1.990   2.088   3.120
  451SOL    HW2 2253   2.064   1.981   3.218
  452SOL     OW 2254   6.594   5.937   1.487
  452SOL    HW1 2255   6.526   5.934   1.560
  452SOL    HW2 2256   6.605   5.846   1.448
  453SOL     OW 2257   3.033   0.209   4.606
  453SOL    HW1 2258   3.112   0.210   4.667
  453SOL    HW2 2259   3.032   0.292   4.550
  454SOL     OW 2260   0.343   5.615   6.340
  454SOL    HW1 2261   0.302   5.644   6.253
  454SOL    HW2 2262   0.270   5.591   6.404
  455SOL     OW 2263   0.235   1.689   3.831
  455SOL    HW1 2264   0.159   1.667   3.769
  455SOL    HW2 2265   0.317   1.639   3.802
  456SOL     OW 2266   5.343   4.921   4.329
  456SOL    HW1 2267   5.438   4.904   4.303
  456SOL    HW2 2268   5.330   5.019   4.344
  457SOL     OW 2269   1.870   3.444   3.326
  457SOL    HW1 2270   1.803   3.415   3.257
  457SOL    HW2 2271   1.932   3.368   3.346
  458SOL     OW 2272   5.041   6.070   4.142
  458SOL    HW1 2273   4.968   6.135   4.120
  458SOL    HW2 2274   5.130   6.117   4.139
  459SOL     OW 2275   1.608   6.655   4.102
  459SOL    HW1 2276   1.612   6.703   4.190
  459SOL    HW2 2277   1.591   6.558   4.118
  460SOL     OW 2278   1.521   0.248   2.890
  460SOL    HW1 2279   1.474   0.195   2.819
  460SOL    HW2 2280   1.506   0.204   2.979
  461SOL     OW 2281   5.901   6.964   4.921
  461SOL    HW1 2282   5.893   6.964   5.021
  461SOL    HW2 2283   5.846   6.890   4.883
  462SOL     OW 2284   3.979   2.656   6.440
  462SOL    HW1 2285   3.893   2.680   6.395
  462SOL    HW2 2286   3.971   2.672   6.538
  463SOL     OW 2287   6.556   5.939   3.521
  463SOL    HW1 2288   6.593   6.032   3.528
  463SOL    HW2 2289   6.572   5.904   3.429
  464SOL     OW 2290   2.684   2.044   6.723
  464SOL    HW1 2291   2.758   1.985   6.691
  464SOL    HW2 2292   2.597   1.996   6.715
  465SOL     OW 2293   1.242   2.832   3.975
  465SOL    HW1 2294   1.190   2.747   3.989
  465SOL    HW2 2295   1.340   2.813   3.982
  466SOL     OW 2296   1.104   4.690   3.195
  466SOL    HW1 2297   1.045   4.612   3.174
  466SOL    HW2 2298   1.048   4.773   3.200
  467SOL     OW 2299   1.263   0.669   6.549
  467SOL    HW1 2300   1.223   0.736   6.486
  467SOL    HW2 2301   1.340   0.712   6.598
  468SOL     OW 2302   3.314   6.431   6.732
  468SOL    HW1 2303   3.369   6.480   6.664
  468SOL    HW2 2304   3.372   6.399   6.806
  469SOL     OW 2305   2.820   4.849   0.473
  469SOL    HW1 2306   2.826   4.926   0.537
  469SOL    HW2 2307   2.910   4.810   0.459
  470SOL     OW 2308   3.889   0.574   2.557
  470SOL    HW1 2309   3.899   0.499   2.491
  470SOL    HW2 2310   3.847   0.653   2.512
  471SOL     OW 2311   1.815   2.551   4.183
  471SOL    HW1 2312   1.891   2.616   4.186
  471SOL    HW2 2313   1.822   2.495   4.101
  472SOL     OW 2314   5.019   4.125   6.640
  472SOL    HW1 2315   5.017   4.182   6.722
  472SOL    HW2 2316   5.090   4.055   6.650
  473SOL     OW 2317   0.621   3.396   2.088
  473SOL    HW1 2318   0.678   3.346   2.153
  473SOL    HW2 2319   0.525   3.371   2.102
  474SOL     OW 2320   5.140   4.769   3.743
  474SOL    HW1 2321   5.233   4.802   3.726
  474SOL    HW2 2322   5.080   4.846   3.764
  475SOL     OW 2323   5.366   1.076   5.965
  475SOL    HW1 2324   5.314   0.994   5.944
  475SOL    HW2 2325   5.308   1.142   6.013
  476SOL     OW 2326   6.968   4.031   2.179
  476SOL    HW1 2327   7.018   4.006   2.096
  476SOL    HW2 2328   6.977   4.129   2.196
  477SOL     OW 2329   1.583   4.559   5.238
  477SOL    HW1 2330   1.490   4.523   5.248
  477SOL    HW2 2331   1.648   4.483   5.238
  478SOL     OW 2332   3.433   0.237   2.783
  478SOL    HW1 2333   3.351   0.287   2.812
  478SOL    HW2 2334   3.423   0.212   2.686
  479SOL     OW 2335   4.648   2.110   7.012
  479SOL    HW1 2336   4.585   2.110   6.934
  479SOL    HW2 2337   4.596   2.120   0.073
  480SOL     OW 2338   2.312   1.380   6.838
  480SOL    HW1 2339   2.239   1.404   6.903
  480SOL    HW2 2340   2.273   1.374   6.746
  481SOL     OW 2341   1.748   0.666   0.049
  481SOL    HW1 2342   1.789   0.624   6.992
  481SOL    HW2 2343   1.684   0.737   0.020
  482SOL     OW 2344   4.530   4.440   2.966
  482SOL    HW1 2345   4.439   4.480   2.956
  482SOL    HW2 2346   4.578   4.444   2.878
  483SOL     OW 2347   6.809   1.736   2.214
  483SOL    HW1 2348   6.804   1.686   2.300
  483SOL    HW2 2349   6.824   1.672   2.139
  484SOL     OW 2350   1.292   2.996   5.246
  484SOL    HW1 2351   1.194   3.008   5.230
  484SOL    HW2 2352   1.333   3.084   5.269
  485SOL     OW 2353   4.274   5.518   2.531
  485SOL    HW1 2354   4.293   5.577   2.609
  485SOL    HW2 2355   4.334   5.438   2.534
  486SOL     OW 2356   6.911   1.777   1.078
  486SOL    HW1 2357   6.906   1.875   1.059
  486SOL    HW2 2358   7.005   1.746   1.073
  487SOL     OW 2359   0.993   1.889   0.646
  487SOL    HW1 2360   1.056   1.962   0.671
  487SOL    HW2 2361   0.908   1.929   0.610
  488SOL     OW 2362   0.672   1.568   1.094
  488SOL    HW1 2363   0.666   1.530   1.186
  488SOL    HW2 2364   0.732   1.511   1.037
  489SOL     OW 2365   3.614   6.507   6.143
  489SOL    HW1 2366   3.632   6.433   6.078
  489SOL    HW2 2367   3.696   6.524   6.197
  490SOL     OW 2368   6.978   5.633   3.241
  490SOL    HW1 2369   6.985   5.541   3.202
  490SOL    HW2 2370   6.950   5.627   3.337
  491SOL     OW 2371   7.022   3.028   2.367
  491SOL    HW1 2372   0.022   2.971   2.288
  491SOL    HW2 2373   6.983   2.970   2.439
  492SOL     OW 2374   2.348   6.791   4.782
  492SOL    HW1 2375   2.359   6.891   4.781
  492SOL    HW2 2376   2.438   6.748   4.791
  493SOL     OW 2377   5.565   6.469   5.885
  493SOL    HW1 2378   5.542   6.556   5.841
  493SOL    HW2 2379   5.624   6.487   5.964
  494SOL     OW 2380   6.946   0.689   6.387
  494SOL    HW1 2381   7.003   0.681   6.468
  494SOL    HW2 2382   6.890   0.772   6.393
  495SOL     OW 2383   4.559   5.743   2.994
  495SOL    HW1 2384   4.515   5.780   3.076
  495SOL    HW2 2385   4.510   5.661   2.964
  496SOL     OW 2386   5.181   3.396   2.504
  496SOL    HW1 2387   5.206   3.469   2.440
  496SOL    HW2 2388   5.237   3.315   2.486
  497SOL     OW 2389   3.644   0.834   5.165
  497SOL    HW1 2390   3.598   0.780   5.095
  497SOL    HW2 2391   3.634   0.931   5.145
  498SOL     OW 2392   1.740   4.375   1.512
  498SOL    HW1 2393   1.658   4.430   1.498
  498SOL    HW2 2394   1.743   4.302   1.443
  499SOL     OW 2395   2.557   0.275   4.103
  499SOL    HW1 2396   2.573   0.188   4.150
  499SOL    HW2 2397   2.643   0.306   4.062
  500SOL     OW 2398   1.070   3.138   2.736
  500SOL    HW1 2399   1.097   3.132   2.832
  500SOL    HW2 2400   0.971   3.156   2.730
  501SOL     OW 2401   3.130   6.494   0.112
  501SOL    HW1 2402   3.084   6.575   0.148
  501SOL    HW2 2403   3.062   6.433   0.071
  502SOL     OW 2404   6.840   4.522   6.738
  502SOL    HW1 2405   6.829   4.503   6.835
  502SOL    HW2 2406   6.765   4.479   6.687
  503SOL     OW 2407   5.699   6.015   6.287
  503SOL    HW1 2408   5.716   5.954   6.210
  503SOL    HW2 2409   5.608   6.055   6.279
  504SOL     OW 2410   1.909   5.342   3.328
  504SOL    HW1 2411   1.992   5.390   3.355
  504SOL    HW2 2412   1.835   5.365   3.391
  505SOL     OW 2413   3.555   5.926   4.754
  505SOL    HW1 2414   3.468   5.946   4.707
  505SOL    HW2 2415   3.569   5.993   4.827
  506SOL     OW 2416   2.065   5.544   4.649
  506SOL    HW1 2417   2.081   5.447   4.630
  506SOL    HW2 2418   2.064   5.559   4.748
  507SOL     OW 2419   3.282   0.888   3.282
  507SOL    HW1 2420   3.310   0.797   3.249
  507SOL    HW2 2421   3.360   0.936   3.320
  508SOL     OW 2422   6.517   3.503   2.531
  508SOL    HW1 2423   6.614   3.479   2.527
  508SOL    HW2 2424   6.480   3.511   2.439
  509SOL     OW 2425   3.501   1.257   1.600
  509SOL    HW1 2426   3.424   1.315   1.625
  509SOL    HW2 2427   3.544   1.293   1.518
  510SOL     OW 2428   6.700   4.901   5.978
  510SOL    HW1 2429   6.674   4.956   5.898
  510SOL    HW2 2430   6.755   4.956   6.040
  511SOL     OW 2431   7.007   1.072   6.665
  511SOL    HW1 2432   7.020   1.155   6.719
  511SOL    HW2 2433   0.035   1.080   6.579
  512SOL     OW 2434   0.053   2.994   0.145
  512SOL    HW1 2435   0.069   2.914   0.203
  512SOL    HW2 2436   7.020   3.060   0.193
  513SOL     OW 2437   5.582   5.877   3.209
  513SOL    HW1 2438   5.527   5.950   3.247
  513SOL    HW2 2439   5.582   5.799   3.271
  514SOL     OW 2440   6.745   2.878   3.949
  514SOL    HW1 2441   6.743   2.888   3.850
  514SOL    HW2 2442   6.839   2.876   3.981
  515SOL     OW 2443   1.928   0.760   6.533
  515SOL    HW1 2444   1.838   0.747   6.493
  515SOL    HW2 2445   1.975   0.835   6.487
  516SOL     OW 2446   2.643   4.473   1.685
  516SOL    HW1 2447   2.713   4.485   1.755
  516SOL    HW2 2448   2.579   4.402   1.714
  517SOL     OW 2449   4.906   5.391   2.093
  517SOL    HW1 2450   4.884   5.477   2.048
  517SOL    HW2 2451   4.892   5.399   2.191
  518SOL     OW 2452   2.382   2.498   2.421
  518SOL    HW1 2453   2.421   2.509   2.330
  518SOL    HW2 2454   2.372   2.588   2.464
  519SOL     OW 2455   1.056   0.839   4.462
  519SOL    HW1 2456   1.061   0.890   4.376
  519SOL    HW2 2457   1.125   0.874   4.525
  520SOL     OW 2458   6.245   4.316   0.259
  520SOL    HW1 2459   6.322   4.366   0.222
  520SOL    HW2 2460   6.187   4.378   0.313
  521SOL     OW 2461   0.038   3.563   6.643
  521SOL    HW1 2462   0.107   3.502   6.602
  521SOL    HW2 2463   6.971   3.531   6.618
  522SOL     OW 2464   3.458   3.924   5.523
  522SOL    HW1 2465   3.411   3.923   5.434
  522SOL    HW2 2466   3.461   4.017   5.558
  523SOL     OW 2467   0.678   4.877   1.648
  523SOL    HW1 2468   0.742   4.812   1.607
  523SOL    HW2 2469   0.671   4.957   1.588
  524SOL     OW 2470   1.380   1.097   6.971
  524SOL    HW1 2471   1.337   1.140   6.891
  524SOL    HW2 2472   1.381   1.162   0.023
  525SOL     OW 2473   2.781   3.752   6.680
  525SOL    HW1 2474   2.785   3.834   6.624
  525SOL    HW2 2475   2.686   3.727   6.698
  526SOL     OW 2476   3.945   0.055   3.887
  526SOL    HW1 2477   4.011   0.006   3.943
  526SOL    HW2 2478   3.972   0.151   3.880
  527SOL     OW 2479   6.520   3.214   6.259
  527SOL    HW1 2480   6.456   3.247   6.329
  527SOL    HW2 2481   6.537   3.116   6.272
  528SOL     OW 2482   0.806   1.305   3.662
  528SOL    HW1 2483   0.892   1.294   3.711
  528SOL    HW2 2484   0.820   1.285   3.565
  529SOL     OW 2485   0.577   6.247   4.777
  529SOL    HW1 2486   0.594   6.150   4.758
  529SOL    HW2 2487   0.539   6.291   4.696
  530SOL     OW 2488   2.724   2.940   5.352
  530SOL    HW1 2489   2.649   2.942   5.285
  530SOL    HW2 2490   2.736   3.031   5.391
  531SOL     OW 2491   0.410   0.320   1.994
  531SOL    HW1 2492   0.496   0.283   2.030
  531SOL    HW2 2493   0.385   0.402   2.045
  532SOL     OW 2494   1.253   2.167   6.851
  532SOL    HW1 2495   1.237   2.171   6.949
  532SOL    HW2 2496   1.343   2.205   6.829
  533SOL     OW 2497   3.900   6.262   3.849
  533SOL    HW1 2498   3.913   6.166   3.872
  533SOL    HW2 2499   3.849   6.269   3.764
  534SOL     OW 2500   5.334   5.242   3.793
  534SOL    HW1 2501   5.317   5.315   3.859
  534SOL    HW2 2502   5.345   5.155   3.841
  535SOL     OW 2503   0.365   3.770   4.736
  535SOL    HW1 2504   0.371   3.682   4.689
  535SOL    HW2 2505   0.435   3.832   4.699
  536SOL     OW 2506   0.262   4.704   2.064
  536SOL    HW1 2507   0.203   4.739   2.136
  536SOL    HW2 2508   0.206   4.674   1.986
  537SOL     OW 2509   2.009   6.362   3.577
  537SOL    HW1 2510   2.016   6.443   3.635
  537SOL    HW2 2511   1.912   6.340   3.563
  538SOL     OW 2512   1.801   3.944   3.556
  538SOL    HW1 2513   1.893   3.952   3.518
  538SOL    HW2 2514   1.741   4.010   3.511
  539SOL     OW 2515   0.693   6.073   0.228
  539SOL    HW1 2516   0.699   6.162   0.183
  539SOL    HW2 2517   0.598   6.043   0.231
  540SOL     OW 2518   6.886   1.050   1.666
  540SOL    HW1 2519   6.860   0.971   1.722
  540SOL    HW2 2520   6.847   1.040   1.574
  541SOL     OW 2521   2.989   6.306   3.626
  541SOL    HW1 2522   2.958   6.293   3.720
  541SOL    HW2 2523   3.010   6.402   3.610
  542SOL     OW 2524   6.518   0.426   6.892
  542SOL    HW1 2525   6.576   0.508   6.887
  542SOL    HW2 2526   6.471   0.424   6.980
  543SOL     OW 2527   1.564   5.412   5.324
  543SOL    HW1 2528   1.654   5.409   5.368
  543SOL    HW2 2529   1.518   5.497   5.351
  544SOL     OW 2530   2.068   4.425   1.200
  544SOL    HW1 2531   2.051   4.327   1.189
  544SOL    HW2 2532   2.137   4.454   1.134
  545SOL     OW 2533   3.422   0.653   3.557
  545SOL    HW1 2534   3.424   0.605   3.645
  545SOL    HW2 2535   3.351   0.724   3.559
  546SOL     OW 2536   1.885   3.220   0.150
  546SOL    HW1 2537   1.821   3.297   0.147
  546SOL    HW2 2538   1.837   3.136   0.128
  547SOL     OW 2539   2.813   1.354   6.395
  547SOL    HW1 2540   2.806   1.256   6.377
  547SOL    HW2 2541   2.880   1.395   6.334
  548SOL     OW 2542   4.008   3.152   2.702
  548SOL    HW1 2543   3.925   3.172   2.649
  548SOL    HW2 2544   4.037   3.235   2.751
  549SOL     OW 2545   4.520   3.182   1.175
  549SOL    HW1 2546   4.522   3.083   1.161
  549SOL    HW2 2547   4.545   3.203   1.269
  550SOL     OW 2548   6.621   4.227   3.428
  550SOL    HW1 2549   6.596   4.224   3.525
  550SOL    HW2 2550   6.591   4.314   3.389
  551SOL     OW 2551   0.442   0.739   1.224
  551SOL    HW1 2552   0.440   0.784   1.314
  551SOL    HW2 2553   0.533   0.749   1.184
  552SOL     OW 2554   4.467   5.490   0.586
  552SOL    HW1 2555   4.538   5.540   0.635
  552SOL    HW2 2556   4.454   5.532   0.496
  553SOL     OW 2557   2.160   6.962   1.660
  553SOL    HW1 2558   2.161   7.014   1.746
  553SOL    HW2 2559   2.251   6.924   1.644
  554SOL     OW 2560   5.276   6.274   6.265
  554SOL    HW1 2561   5.271   6.338   6.341
  554SOL    HW2 2562   5.282   6.181   6.300
  555SOL     OW 2563   2.120   5.057   4.237
  555SOL    HW1 2564   2.195   4.991   4.227
  555SOL    HW2 2565   2.147   5.128   4.301
  556SOL     OW 2566   5.827   2.194   3.883
  556SOL    HW1 2567   5.780   2.122   3.833
  556SOL    HW2 2568   5.798   2.283   3.848
  557SOL     OW 2569   0.859   5.423   6.867
  557SOL    HW1 2570   0.904   5.409   6.955
  557SOL    HW2 2571   0.850   5.335   6.820
  558SOL     OW 2572   3.144   4.045   4.458
  558SOL    HW1 2573   3.069   4.107   4.480
  558SOL    HW2 2574   3.185   4.010   4.542
  559SOL     OW 2575   6.236   6.626   6.753
  559SOL    HW1 2576   6.201   6.698   6.813
  559SOL    HW2 2577   6.221   6.653   6.657
  560SOL     OW 2578   3.731   6.050   0.333
  560SOL    HW1 2579   3.681   5.978   0.284
  560SOL    HW2 2580   3.687   6.067   0.421
  561SOL     OW 2581   6.517   0.769   6.963
  561SOL    HW1 2582   6.488   0.833   0.010
  561SOL    HW2 2583   6.573   0.697   7.004
  562SOL     OW 2584   4.674   0.278   6.032
  562SOL    HW1 2585   4.727   0.357   6.060
  562SOL    HW2 2586   4.580   0.306   6.013
  563SOL     OW 2587   2.539   0.448   3.320
  563SOL    HW1 2588   2.630   0.413   3.340
  563SOL    HW2 2589   2.490   0.466   3.405
  564SOL     OW 2590   2.785   1.809   6.233
  564SOL    HW1 2591   2.705   1.837   6.179
  564SOL    HW2 2592   2.756   1.785   6.325
  565SOL     OW 2593   4.211   3.311   5.616
  565SOL    HW1 2594   4.160   3.243   5.564
  565SOL    HW2 2595   4.151   3.355   5.682
  566SOL     OW 2596   5.884   3.890   3.843
  566SOL    HW1 2597   5.792   3.874   3.809
  566SOL    HW2 2598   5.907   3.987   3.832
  567SOL     OW 2599   3.003   3.366   2.950
  567SOL    HW1 2600   2.926   3.391   3.009
  567SOL    HW2 2601   3.078   3.430   2.965
  568SOL     OW 2602   3.285   2.464   1.043
  568SOL    HW1 2603   3.235   2.486   1.127
  568SOL    HW2 2604   3.222   2.422   0.978
  569SOL     OW 2605   1.898   3.163   0.521
  569SOL    HW1 2606   1.852   3.239   0.476
  569SOL    HW2 2607   1.831   3.091   0.541
  570SOL     OW 2608   2.278   6.574   5.532
  570SOL    HW1 2609   2.358   6.530   5.573
  570SOL    HW2 2610   2.214   6.600   5.604
  571SOL     OW 2611   3.785   6.958   2.865
  571SOL    HW1 2612   3.705   6.960   2.925
  571SOL    HW2 2613   3.779   6.878   2.805
  572SOL     OW 2614   2.919   4.634   5.846
  572SOL    HW1 2615   2.887   4.694   5.773
  572SOL    HW2 2616   2.869   4.547   5.843
  573SOL     OW 2617   4.308   1.757   5.468
  573SOL    HW1 2618   4.284   1.702   5.548
  573SOL    HW2 2619   4.344   1.846   5.499
  574SOL     OW 2620   2.029   2.334   3.445
  574SOL    HW1 2621   1.983   2.270   3.507
  574SOL    HW2 2622   2.060   2.285   3.364
  575SOL     OW 2623   6.384   4.050   5.752
  575SOL    HW1 2624   6.426   3.964   5.724
  575SOL    HW2 2625   6.333   4.036   5.837
  576SOL     OW 2626   1.729   1.844   1.997
  576SOL    HW1 2627   1.674   1.923   2.023
  576SOL    HW2 2628   1.826   1.868   2.004
  577SOL     OW 2629   2.422   0.717   3.248
  577SOL    HW1 2630   2.459   0.657   3.319
  577SOL    HW2 2631   2.475   0.706   3.164
  578SOL     OW 2632   6.694   3.509   3.507
  578SOL    HW1 2633   6.617   3.545   3.560
  578SOL    HW2 2634   6.670   3.508   3.410
  579SOL     OW 2635   3.401   2.057   1.221
  579SOL    HW1 2636   3.414   2.123   1.147
  579SOL    HW2 2637   3.488   2.012   1.241
  580SOL     OW 2638   0.685   4.408   6.680
  580SOL    HW1 2639   0.734   4.422   6.766
  580SOL    HW2 2640   0.748   4.371   6.611
  581SOL     OW 2641   3.237   3.629   2.982
  581SOL    HW1 2642   3.314   3.692   2.984
  581SOL    HW2 2643   3.271   3.535   2.976
  582SOL     OW 2644   5.367   4.804   3.096
  582SOL    HW1 2645   5.383   4.891   3.143
  582SOL    HW2 2646   5.327   4.739   3.161
  583SOL     OW 2647   2.791   5.253   6.695
  583SOL    HW1 2648   2.697   5.228   6.672
  583SOL    HW2 2649   2.803   5.252   6.794
  584SOL     OW 2650   1.408   5.605   5.413
  584SOL    HW1 2651   1.340   5.532   5.416
  584SOL    HW2 2652   1.391   5.663   5.334
  585SOL     OW 2653   6.684   2.896   6.036
  585SOL    HW1 2654   6.688   2.961   5.960
  585SOL    HW2 2655   6.626   2.819   6.011
  586SOL     OW 2656   3.122   0.321   0.229
  586SOL    HW1 2657   3.190   0.251   0.208
  586SOL    HW2 2658   3.170   0.406   0.254
  587SOL     OW 2659   2.004   2.171   5.582
  587SOL    HW1 2660   1.961   2.262   5.577
  587SOL    HW2 2661   2.091   2.173   5.534
  588SOL     OW 2662   3.356   5.651   0.904
  588SOL    HW1 2663   3.257   5.638   0.896
  588SOL    HW2 2664   3.393   5.582   0.966
  589SOL     OW 2665   3.636   5.647   1.933
  589SOL    HW1 2666   3.552   5.672   1.885
  589SOL    HW2 2667   3.709   5.633   1.867
  590SOL     OW 2668   5.996   2.905   1.743
  590SOL    HW1 2669   6.020   2.944   1.832
  590SOL    HW2 2670   5.996   2.978   1.674
  591SOL     OW 2671   3.826   6.509   3.983
  591SOL    HW1 2672   3.893   6.530   4.054
  591SOL    HW2 2673   3.854   6.426   3.934
  592SOL     OW 2674   4.341   0.160   0.787
  592SOL    HW1 2675   4.332   0.182   0.885
  592SOL    HW2 2676   4.393   0.076   0.776
  593SOL     OW 2677   4.295   2.079   3.792
  593SOL    HW1 2678   4.281   2.067   3.694
  593SOL    HW2 2679   4.393   2.071   3.813
  594SOL     OW 2680   4.492   2.661   6.701
  594SOL    HW1 2681   4.419   2.730   6.702
  594SOL    HW2 2682   4.451   2.570   6.689
  595SOL     OW 2683   4.643   6.585   3.773
  595SOL    HW1 2684   4.578   6.659   3.789
  595SOL    HW2 2685   4.595   6.507   3.732
  596SOL     OW 2686   1.060   3.613   1.323
  596SOL    HW1 2687   1.087   3.526   1.282
  596SOL    HW2 2688   1.060   3.684   1.254
  597SOL     OW 2689   4.737   0.043   5.919
  597SOL    HW1 2690   4.750   7.000   5.992
  597SOL    HW2 2691   4.691   0.124   5.955
  598SOL     OW 2692   3.612   4.002   0.320
  598SOL    HW1 2693   3.696   3.961   0.354
  598SOL    HW2 2694   3.536   3.977   0.379
  599SOL     OW 2695   0.562   0.427   3.170
  599SOL    HW1 2696   0.526   0.342   3.132
  599SOL    HW2 2697   0.520   0.505   3.122
  600SOL     OW 2698   0.883   0.053   1.127
  600SOL    HW1 2699   0.800   0.022   1.081
  600SOL    HW2 2700   0.954   0.071   1.059
  601SOL     OW 2701   3.063   5.845   3.906
  601SOL    HW1 2702   3.060   5.937   3.943
  601SOL    HW2 2703   2.979   5.797   3.930
  602SOL     OW 2704   0.848   1.815   0.228
  602SOL    HW1 2705   0.895   1.894   0.189
  602SOL    HW2 2706   0.888   1.731   0.191
  603SOL     OW 2707   4.107   1.967   4.147
  603SOL    HW1 2708   4.124   2.064   4.127
  603SOL    HW2 2709   4.191   1.926   4.184
  604SOL     OW 2710   0.300   3.345   1.318
  604SOL    HW1 2711   0.352   3.261   1.310
  604SOL    HW2 2712   0.338   3.403   1.390
  605SOL     OW 2713   6.648   5.499   2.829
  605SOL    HW1 2714   6.569   5.444   2.858
  605SOL    HW2 2715   6.628   5.596   2.844
  606SOL     OW 2716   5.265   0.894   5.582
  606SOL    HW1 2717   5.233   0.863   5.492
  606SOL    HW2 2718   5.251   0.820   5.648
  607SOL     OW 2719   5.552   0.653   5.049
  607SOL    HW1 2720   5.571   0.717   4.974
  607SOL    HW2 2721   5.637   0.607   5.075
  608SOL     OW 2722   3.484   0.107   0.444
  608SOL    HW1 2723   3.578   0.081   0.464
  608SOL    HW2 2724   3.454   0.177   0.508
  609SOL     OW 2725   3.574   3.342   4.246
  609SOL    HW1 2726   3.574   3.341   4.146
  609SOL    HW2 2727   3.530   3.259   4.281
  610SOL     OW 2728   5.782   2.054   3.463
  610SOL    HW1 2729   5.809   1.965   3.498
  610SOL    HW2 2730   5.773   2.049   3.363
  611SOL     OW 2731   0.576   0.626   6.855
  611SOL    HW1 2732   0.576   0.634   6.755
  611SOL    HW2 2733   0.546   0.534   6.881
  612SOL     OW 2734   3.338   5.910   5.909
  612SOL    HW1 2735   3.288   5.867   5.833
  612SOL    HW2 2736   3.306   6.005   5.919
  613SOL     OW 2737   4.780   0.685   5.653
  613SOL    HW1 2738   4.773   0.732   5.741
  613SOL    HW2 2739   4.787   0.586   5.668
  614SOL     OW 2740   5.777   4.466   1.205
  614SOL    HW1 2741   5.861   4.472   1.259
  614SOL    HW2 2742   5.763   4.552   1.156
  615SOL     OW 2743   0.866   0.732   0.152
  615SOL    HW1 2744   0.809   0.769   0.225
  615SOL    HW2 2745   0.961   0.728   0.184
  616SOL     OW 2746   6.035   1.994   3.927
  616SOL    HW1 2747   5.983   2.069   3.887
  616SOL    HW2 2748   6.105   1.964   3.863
  617SOL     OW 2749   0.594   4.008   6.913
  617SOL    HW1 2750   0.503   4.026   6.878
  617SOL    HW2 2751   0.659   3.998   6.837
  618SOL     OW 2752   5.733   3.689   0.726
  618SOL    HW1 2753   5.748   3.590   0.727
  618SOL    HW2 2754   5.785   3.731   0.800
  619SOL     OW 2755   4.039   0.042   6.455
  619SOL    HW1 2756   4.018   0.116   6.518
  619SOL    HW2 2757   4.006   6.979   6.493
  620SOL     OW 2758   5.341   2.806   1.361
  620SOL    HW1 2759   5.316   2.842   1.271
  620SOL    HW2 2760   5.441   2.805   1.370
  621SOL     OW 2761   2.435   0.277   5.142
  621SOL    HW1 2762   2.526   0.236   5.129
  621SOL    HW2 2763   2.420   0.349   5.074
  622SOL     OW 2764   0.600   2.007   5.209
  622SOL    HW1 2765   0.521   2.068   5.210
  622SOL    HW2 2766   0.683   2.059   5.188
  623SOL     OW 2767   6.474   0.006   5.146
  623SOL    HW1 2768   6.558   6.989   5.183
  623SOL    HW2 2769   6.490   0.034   5.052
  624SOL     OW 2770   6.568   1.080   6.991
  624SOL    HW1 2771   6.639   1.063   6.923
  624SOL    HW2 2772   6.489   1.122   6.948
  625SOL     OW 2773   1.332   1.014   0.339
  625SOL    HW1 2774   1.265   0.967   0.397
  625SOL    HW2 2775   1.379   1.084   0.392
  626SOL     OW 2776   0.731   5.542   2.672
  626SOL    HW1 2777   0.791   5.592   2.609
  626SOL    HW2 2778   0.646   5.518   2.624
  627SOL     OW 2779   6.587   6.318   0.437
  627SOL    HW1 2780   6.665   6.277   0.390
  627SOL    HW2 2781   6.569   6.409   0.398
  628SOL     OW 2782   5.629   3.856   4.661
  628SOL    HW1 2783   5.549   3.796   4.670
  628SOL    HW2 2784   5.688   3.822   4.588
  629SOL     OW 2785   0.116   1.298   0.273
  629SOL    HW1 2786   0.065   1.271   0.192
  629SOL    HW2 2787   0.123   1.220   0.335
  630SOL     OW 2788   6.878   1.647   0.787
  630SOL    HW1 2789   6.805   1.715   0.790
  630SOL    HW2 2790   6.919   1.645   0.696
  631SOL     OW 2791   3.311   1.747   4.358
  631SOL    HW1 2792   3.343   1.741   4.263
  631SOL    HW2 2793   3.389   1.738   4.420
  632SOL     OW 2794   4.261   3.335   0.628
  632SOL    HW1 2795   4.320   3.273   0.679
  632SOL    HW2 2796   4.298   3.348   0.536
  633SOL     OW 2797   2.702   4.750   0.960
  633SOL    HW1 2798   2.641   4.805   0.903
  633SOL    HW2 2799   2.792   4.746   0.916
  634SOL     OW 2800   4.033   3.849   4.044
  634SOL    HW1 2801   4.057   3.753   4.057
  634SOL    HW2 2802   4.024   3.868   3.946
  635SOL     OW 2803   4.749   0.045   6.822
  635SOL    HW1 2804   4.829   0.044   6.881
  635SOL    HW2 2805   4.760   0.117   6.753
  636SOL     OW 2806   3.282   0.470   5.159
  636SOL    HW1 2807   3.379   0.481   5.137
  636SOL    HW2 2808   3.259   0.523   5.240
  637SOL     OW 2809   5.946   1.732   2.522
  637SOL    HW1 2810   5.924   1.796   2.595
  637SOL    HW2 2811   5.863   1.686   2.492
  638SOL     OW 2812   5.771   3.439   3.703
  638SOL    HW1 2813   5.680   3.479   3.693
  638SOL    HW2 2814   5.775   3.352   3.653
  639SOL     OW 2815   5.349   4.260   3.444
  639SOL    HW1 2816   5.261   4.302   3.421
  639SOL    HW2 2817   5.359   4.256   3.543
  640SOL     OW 2818   0.310   4.172   3.569
  640SOL    HW1 2819   0.396   4.160   3.619
  640SOL    HW2 2820   0.329   4.217   3.481
  641SOL     OW 2821   1.717   4.903   5.521
  641SOL    HW1 2822   1.642   4.965   5.501
  641SOL    HW2 2823   1.772   4.940   5.595
  642SOL     OW 2824   1.462   3.091   4.647
  642SOL    HW1 2825   1.545   3.041   4.670
  642SOL    HW2 2826   1.413   3.042   4.575
  643SOL     OW 2827   6.206   0.230   6.687
  643SOL    HW1 2828   6.156   0.297   6.632
  643SOL    HW2 2829   6.168   0.139   6.671
  644SOL     OW 2830   1.421   0.737   4.637
  644SOL    HW1 2831   1.332   0.777   4.660
  644SOL    HW2 2832   1.479   0.806   4.594
  645SOL     OW 2833   3.484   5.171   3.380
  645SOL    HW1 2834   3.445   5.139   3.466
  645SOL    HW2 2835   3.445   5.120   3.304
  646SOL     OW 2836   3.499   0.636   4.571
  646SOL    HW1 2837   3.465   0.725   4.602
  646SOL    HW2 2838   3.469   0.620   4.477
  647SOL     OW 2839   5.227   1.616   4.721
  647SOL    HW1 2840   5.309   1.561   4.736
  647SOL    HW2 2841   5.160   1.563   4.668
  648SOL     OW 2842   6.613   3.060   3.354
  648SOL    HW1 2843   6.600   3.120   3.275
  648SOL    HW2 2844   6.651   2.973   3.323
  649SOL     OW 2845   1.912   4.610   0.357
  649SOL    HW1 2846   2.006   4.643   0.361
  649SOL    HW2 2847   1.850   4.685   0.381
  650SOL     OW 2848   6.968   5.478   0.660
  650SOL    HW1 2849   6.882   5.458   0.614
  650SOL    HW2 2850   0.001   5.535   0.600
  651SOL     OW 2851   1.839   0.493   5.501
  651SOL    HW1 2852   1.833   0.402   5.542
  651SOL    HW2 2853   1.794   0.492   5.411
  652SOL     OW 2854   4.402   6.743   1.881
  652SOL    HW1 2855   4.370   6.742   1.976
  652SOL    HW2 2856   4.324   6.755   1.820
  653SOL     OW 2857   0.543   6.546   0.483
  653SOL    HW1 2858   0.533   6.469   0.420
  653SOL    HW2 2859   0.638   6.550   0.515
  654SOL     OW 2860   6.532   6.711   6.086
  654SOL    HW1 2861   6.603   6.701   6.155
  654SOL    HW2 2862   6.540   6.801   6.043
  655SOL     OW 2863   0.224   5.348   1.627
  655SOL    HW1 2864   0.197   5.265   1.577
  655SOL    HW2 2865   0.197   5.339   1.723
  656SOL     OW 2866   2.246   6.381   0.508
  656SOL    HW1 2867   2.244   6.458   0.572
  656SOL    HW2 2868   2.155   6.365   0.471
  657SOL     OW 2869   3.161   3.566   0.781
  657SOL    HW1 2870   3.227   3.510   0.730
  657SOL    HW2 2871   3.069   3.546   0.748
  658SOL     OW 2872   1.898   4.418   5.778
  658SOL    HW1 2873   1.883   4.412   5.679
  658SOL    HW2 2874   1.994   4.437   5.796
  659SOL     OW 2875   3.039   5.423   4.752
  659SOL    HW1 2876   2.943   5.393   4.747
  659SOL    HW2 2877   3.099   5.343   4.745
  660SOL     OW 2878   4.473   4.981   2.395
  660SOL    HW1 2879   4.556   4.978   2.339
  660SOL    HW2 2880   4.411   4.907   2.368
  661SOL     OW 2881   4.922   4.014   4.388
  661SOL    HW1 2882   5.001   4.067   4.360
  661SOL    HW2 2883   4.847   4.029   4.323
  662SOL     OW 2884   4.376   1.978   6.520
  662SOL    HW1 2885   4.336   2.010   6.605
  662SOL    HW2 2886   4.321   1.902   6.484
  663SOL     OW 2887   0.702   4.481   6.995
  663SOL    HW1 2888   0.789   4.461   6.951
  663SOL    HW2 2889   0.716   4.548   0.044
  664SOL     OW 2890   1.897   5.485   6.907
  664SOL    HW1 2891   1.976   5.511   6.963
  664SOL    HW2 2892   1.876   5.389   6.921
  665SOL     OW 2893   3.954   5.249   1.254
  665SOL    HW1 2894   3.865   5.222   1.290
  665SOL    HW2 2895   3.941   5.310   1.175
  666SOL     OW 2896   3.658   1.972   1.312
  666SOL    HW1 2897   3.685   1.969   1.408
  666SOL    HW2 2898   3.731   1.933   1.256
  667SOL     OW 2899   0.664   2.806   4.235
  667SOL    HW1 2900   0.646   2.738   4.164
  667SOL    HW2 2901   0.604   2.789   4.313
  668SOL     OW 2902   4.635   5.851   6.976
  668SOL    HW1 2903   4.667   5.811   6.891
  668SOL    HW2 2904   4.698   5.922   7.006
  669SOL     OW 2905   1.876   6.564   2.912
  669SOL    HW1 2906   1.880   6.550   2.813
  669SOL    HW2 2907   1.781   6.560   2.942
  670SOL     OW 2908   2.865   3.526   2.454
  670SOL    HW1 2909   2.905   3.439   2.483
  670SOL    HW2 2910   2.810   3.512   2.372
  671SOL     OW 2911   2.523   6.057   6.060
  671SOL    HW1 2912   2.578   6.139   6.077
  671SOL    HW2 2913   2.567   6.001   5.990
  672SOL     OW 2914   1.375   3.475   3.263
  672SOL    HW1 2915   1.282   3.469   3.299
  672SOL    HW2 2916   1.440   3.484   3.339
  673SOL     OW 2917   4.451   6.842   0.484
  673SOL    HW1 2918   4.545   6.875   0.478
  673SOL    HW2 2919   4.416   6.856   0.576
  674SOL     OW 2920   0.363   3.229   4.142
  674SOL    HW1 2921   0.264   3.229   4.156
  674SOL    HW2 2922   0.395   3.322   4.127
  675SOL     OW 2923   0.738   1.602   5.060
  675SOL    HW1 2924   0.681   1.652   5.126
  675SOL    HW2 2925   0.748   1.658   4.977
  676SOL     OW 2926   2.613   5.013   3.984
  676SOL    HW1 2927   2.633   4.930   3.933
  676SOL    HW2 2928   2.520   5.007   4.022
  677SOL     OW 2929   5.852   1.340   6.817
  677SOL    HW1 2930   5.830   1.361   6.912
  677SOL    HW2 2931   5.769   1.312   6.769
  678SOL     OW 2932   2.639   1.580   5.439
  678SOL    HW1 2933   2.591   1.527   5.370
  678SOL    HW2 2934   2.574   1.611   5.509
  679SOL     OW 2935   4.230   1.145   4.778
  679SOL    HW1 2936   4.301   1.159   4.848
  679SOL    HW2 2937   4.273   1.144   4.688
  680SOL     OW 2938   5.711   4.602   5.770
  680SOL    HW1 2939   5.774   4.671   5.732
  680SOL    HW2 2940   5.754   4.512   5.763
  681SOL     OW 2941   6.486   0.122   1.037
  681SOL    HW1 2942   6.568   0.160   1.080
  681SOL    HW2 2943   6.502   0.109   0.939
  682SOL     OW 2944   2.663   6.575   6.156
  682SOL    HW1 2945   2.755   6.584   6.118
  682SOL    HW2 2946   2.667   6.529   6.245
  683SOL     OW 2947   3.283   0.320   6.176
  683SOL    HW1 2948   3.361   0.304   6.236
  683SOL    HW2 2949   3.315   0.340   6.084
  684SOL     OW 2950   6.158   1.599   6.263
  684SOL    HW1 2951   6.115   1.510   6.243
  684SOL    HW2 2952   6.087   1.666   6.283
  685SOL     OW 2953   4.793   0.437   5.754
  685SOL    HW1 2954   4.841   0.349   5.748
  685SOL    HW2 2955   4.796   0.470   5.849
  686SOL     OW 2956   6.220   2.728   3.297
  686SOL    HW1 2957   6.131   2.700   3.261
  686SOL    HW2 2958   6.288   2.721   3.224
  687SOL     OW 2959   6.963   2.911   5.671
  687SOL    HW1 2960   6.878   2.873   5.708
  687SOL    HW2 2961   7.001   2.978   5.736
  688SOL     OW 2962   1.860   3.751   6.691
  688SOL    HW1 2963   1.773   3.717   6.724
  688SOL    HW2 2964   1.935   3.702   6.735
  689SOL     OW 2965   0.599   4.523   5.783
  689SOL    HW1 2966   0.523   4.545   5.722
  689SOL    HW2 2967   0.671   4.477   5.732
  690SOL     OW 2968   0.759   3.249   3.339
  690SOL    HW1 2969   0.853   3.226   3.314
  690SOL    HW2 2970   0.757   3.288   3.431
  691SOL     OW 2971   2.354   1.557   6.433
  691SOL    HW1 2972   2.287   1.522   6.498
  691SOL    HW2 2973   2.317   1.637   6.387
  692SOL     OW 2974   3.341   6.846   3.944
  692SOL    HW1 2975   3.383   6.860   3.854
  692SOL    HW2 2976   3.378   6.763   3.985
  693SOL     OW 2977   6.533   1.681   3.472
  693SOL    HW1 2978   6.513   1.583   3.477
  693SOL    HW2 2979   6.602   1.704   3.541
  694SOL     OW 2980   3.331   5.481   2.488
  694SOL    HW1 2981   3.352   5.571   2.525
  694SOL    HW2 2982   3.324   5.415   2.563
  695SOL     OW 2983   5.247   5.013   5.148
  695SOL    HW1 2984   5.151   5.038   5.165
  695SOL    HW2 2985   5.254   4.914   5.138
  696SOL     OW 2986   3.538   5.202   2.489
  696SOL    HW1 2987   3.459   5.223   2.547
  696SOL    HW2 2988   3.599   5.138   2.538
  697SOL     OW 2989   1.203   3.463   6.270
  697SOL    HW1 2990   1.223   3.439   6.365
  697SOL    HW2 2991   1.170   3.383   6.221
  698SOL     OW 2992   5.930   0.183   4.854
  698SOL    HW1 2993   5.922   0.088   4.885
  698SOL    HW2 2994   5.840   0.217   4.826
  699SOL     OW 2995   1.284   4.267   0.225
  699SOL    HW1 2996   1.309   4.329   0.151
  699SOL    HW2 2997   1.266   4.319   0.308
  700SOL     OW 2998   3.005   2.173   3.775
  700SOL    HW1 2999   2.948   2.239   3.825
  700SOL    HW2 3000   2.971   2.162   3.682
  701SOL     OW 3001   0.899   4.850   6.596
  701SOL    HW1 3002   0.984   4.875   6.643
  701SOL    HW2 3003   0.826   4.837   6.664
  702SOL     OW 3004   6.079   6.447   6.462
  702SOL    HW1 3005   6.136   6.413   6.388
  702SOL    HW2 3006   6.005   6.382   6.480
  703SOL     OW 3007   4.169   3.485   6.685
  703SOL    HW1 3008   4.231   3.491   6.606
  703SOL    HW2 3009   4.176   3.569   6.738
  704SOL     OW 3010   2.070   1.152   6.036
  704SOL    HW1 3011   2.101   1.231   5.982
  704SOL    HW2 3012   2.007   1.184   6.108
  705SOL     OW 3013   5.057   6.934   3.858
  705SOL    HW1 3014   5.098   6.847   3.885
  705SOL    HW2 3015   4.966   6.918   3.819
  706SOL     OW 3016   3.982   1.587   3.532
  706SOL    HW1 3017   4.056   1.521   3.526
  706SOL    HW2 3018   3.962   1.624   3.441
  707SOL     OW 3019   4.515   6.928   2.185
  707SOL    HW1 3020   4.489   6.961   2.276
  707SOL    HW2 3021   4.449   6.960   2.117
  708SOL     OW 3022   4.111   0.254   1.053
  708SOL    HW1 3023   4.176   0.202   1.108
  708SOL    HW2 3024   4.132   0.352   1.060
  709SOL     OW 3025   1.141   5.470   0.891
  709SOL    HW1 3026   1.124   5.474   0.792
  709SOL    HW2 3027   1.237   5.490   0.909
  710SOL     OW 3028   3.583   4.051   3.118
  710SOL    HW1 3029   3.570   4.086   3.026
  710SOL    HW2 3030   3.507   3.990   3.143
  711SOL     OW 3031   0.481   2.125   5.712
  711SOL    HW1 3032   0.477   2.097   5.616
  711SOL    HW2 3033   0.412   2.196   5.728
  712SOL     OW 3034   2.161   4.486   0.696
  712SOL    HW1 3035   2.085   4.466   0.757
  712SOL    HW2 3036   2.183   4.405   0.641
  713SOL     OW 3037   3.323   4.154   0.494
  713SOL    HW1 3038   3.264   4.150   0.413
  713SOL    HW2 3039   3.274   4.200   0.568
  714SOL     OW 3040   5.871   4.535   5.180
  714SOL    HW1 3041   5.950   4.567   5.232
  714SOL    HW2 3042   5.897   4.520   5.085
  715SOL     OW 3043   4.929   5.997   0.213
  715SOL    HW1 3044   4.902   5.927   0.147
  715SOL    HW2 3045   5.026   5.987   0.234
  716SOL     OW 3046   0.966   5.573   1.067
  716SOL    HW1 3047   1.050   5.535   1.029
  716SOL    HW2 3048   0.928   5.641   1.004
  717SOL     OW 3049   6.414   4.760   6.410
  717SOL    HW1 3050   6.366   4.674   6.391
  717SOL    HW2 3051   6.348   4.831   6.431
  718SOL     OW 3052   3.694   1.707   6.156
  718SOL    HW1 3053   3.720   1.709   6.059
  718SOL    HW2 3054   3.648   1.620   6.176
  719SOL     OW 3055   6.031   2.303   1.839
  719SOL    HW1 3056   6.008   2.302   1.742
  719SOL    HW2 3057   6.087   2.384   1.859
  720SOL     OW 3058   2.829   1.586   6.111
  720SOL    HW1 3059   2.886   1.533   6.174
  720SOL    HW2 3060   2.804   1.672   6.155
  721SOL     OW 3061   1.202   0.423   4.866
  721SOL    HW1 3062   1.231   0.426   4.961
  721SOL    HW2 3063   1.186   0.328   4.839
  722SOL     OW 3064   4.006   6.727   5.092
  722SOL    HW1 3065   4.049   6.638   5.076
  722SOL    HW2 3066   4.039   6.793   5.024
  723SOL     OW 3067   2.325   2.852   1.856
  723SOL    HW1 3068   2.406   2.792   1.858
  723SOL    HW2 3069   2.261   2.823   1.928
  724SOL     OW 3070   1.243   1.352   4.591
  724SOL    HW1 3071   1.186   1.337   4.510
  724SOL    HW2 3072   1.197   1.416   4.653
  725SOL     OW 3073   3.018   5.116   1.627
  725SOL    HW1 3074   3.021   5.155   1.719
  725SOL    HW2 3075   3.081   5.039   1.622
  726SOL     OW 3076   3.897   4.508   0.536
  726SOL    HW1 3077   3.905   4.568   0.615
  726SOL    HW2 3078   3.818   4.536   0.481
  727SOL     OW 3079   4.484   6.018   4.221
  727SOL    HW1 3080   4.521   5.968   4.143
  727SOL    HW2 3081   4.422   5.959   4.272
  728SOL     OW 3082   0.330   4.522   4.916
  728SOL    HW1 3083   0.375   4.462   4.982
  728SOL    HW2 3084   0.352   4.491   4.823
  729SOL     OW 3085   2.405   0.587   0.644
  729SOL    HW1 3086   2.498   0.563   0.673
  729SOL    HW2 3087   2.393   0.564   0.548
  730SOL     OW 3088   5.640   6.922   3.425
  730SOL    HW1 3089   5.570   6.904   3.356
  730SOL    HW2 3090   5.714   6.855   3.415
  731SOL     OW 3091   5.528   3.398   6.283
  731SOL    HW1 3092   5.587   3.452   6.223
  731SOL    HW2 3093   5.499   3.315   6.235
  732SOL     OW 3094   0.447   3.795   0.784
  732SOL    HW1 3095   0.503   3.727   0.830
  732SOL    HW2 3096   0.415   3.758   0.696
  733SOL     OW 3097   5.305   4.214   4.638
  733SOL    HW1 3098   5.325   4.312   4.646
  733SOL    HW2 3099   5.383   4.168   4.595
  734SOL     OW 3100   6.644   4.466   2.721
  734SOL    HW1 3101   6.569   4.411   2.756
  734SOL    HW2 3102   6.731   4.431   2.758
  735SOL     OW 3103   3.494   2.284   1.021
  735SOL    HW1 3104   3.583   2.331   1.021
  735SOL    HW2 3105   3.421   2.352   1.015
  736SOL     OW 3106   0.081   6.709   2.394
  736SOL    HW1 3107   0.028   6.779   2.441
  736SOL    HW2 3108   0.100   6.633   2.456
  737SOL     OW 3109   4.875   3.404   0.739
  737SOL    HW1 3110   4.899   3.373   0.831
  737SOL    HW2 3111   4.931   3.358   0.672
  738SOL     OW 3112   1.666   5.236   3.964
  738SOL    HW1 3113   1.601   5.178   3.915
  738SOL    HW2 3114   1.750   5.185   3.982
  739SOL     OW 3115   4.625   6.045   5.536
  739SOL    HW1 3116   4.558   6.027   5.608
  739SOL    HW2 3117   4.649   5.959   5.491
  740SOL     OW 3118   5.615   0.454   0.597
  740SOL    HW1 3119   5.542   0.439   0.530
  740SOL    HW2 3120   5.576   0.491   0.681
  741SOL     OW 3121   2.185   6.313   3.375
  741SOL    HW1 3122   2.102   6.349   3.419
  741SOL    HW2 3123   2.214   6.230   3.422
  742SOL     OW 3124   2.150   6.923   2.071
  742SOL    HW1 3125   2.240   6.940   2.032
  742SOL    HW2 3126   2.154   6.932   2.171
  743SOL     OW 3127   1.432   4.276   4.766
  743SOL    HW1 3128   1.411   4.183   4.733
  743SOL    HW2 3129   1.496   4.319   4.703
  744SOL     OW 3130   6.416   0.234   6.289
  744SOL    HW1 3131   6.356   0.169   6.242
  744SOL    HW2 3132   6.457   0.295   6.221
  745SOL     OW 3133   0.997   6.027   4.536
  745SOL    HW1 3134   1.078   6.066   4.580
  745SOL    HW2 3135   1.012   6.021   4.437
  746SOL     OW 3136   0.587   6.603   5.126
  746SOL    HW1 3137   0.628   6.562   5.045
  746SOL    HW2 3138   0.552   6.694   5.104
  747SOL     OW 3139   4.409   5.047   4.516
  747SOL    HW1 3140   4.372   4.973   4.459
  747SOL    HW2 3141   4.469   5.104   4.460
  748SOL     OW 3142   4.155   5.408   2.846
  748SOL    HW1 3143   4.189   5.316   2.865
  748SOL    HW2 3144   4.115   5.446   2.929
  749SOL     OW 3145   6.708   3.575   5.054
  749SOL    HW1 3146   6.732   3.542   4.963
  749SOL    HW2 3147   6.706   3.498   5.118
  750SOL     OW 3148   1.680   3.041   0.593
  750SOL    HW1 3149   1.594   3.092   0.591
  750SOL    HW2 3150   1.661   2.945   0.613
  751SOL     OW 3151   3.804   1.876   5.877
  751SOL    HW1 3152   3.857   1.822   5.811
  751SOL    HW2 3153   3.723   1.913   5.832
  752SOL     OW 3154   4.190   1.928   1.994
  752SOL    HW1 3155   4.121   1.898   2.060
  752SOL    HW2 3156   4.220   2.021   2.016
  753SOL     OW 3157   1.945   2.938   3.987
  753SOL    HW1 3158   1.979   2.955   3.894
  753SOL    HW2 3159   1.898   3.019   4.021
  754SOL     OW 3160   6.111   3.683   6.169
  754SOL    HW1 3161   6.211   3.691   6.167
  754SOL    HW2 3162   6.072   3.763   6.213
  755SOL     OW 3163   1.047   6.232   0.097
  755SOL    HW1 3164   1.027   6.330   0.094
  755SOL    HW2 3165   0.996   6.186   0.025
  756SOL     OW 3166   5.086   6.628   1.045
  756SOL    HW1 3167   5.045   6.541   1.072
  756SOL    HW2 3168   5.067   6.646   0.949
  757SOL     OW 3169   0.710   6.002   2.939
  757SOL    HW1 3170   0.763   6.003   3.024
  757SOL    HW2 3171   0.659   5.916   2.932
  758SOL     OW 3172   3.969   0.735   1.272
  758SOL    HW1 3173   3.945   0.826   1.235
  758SOL    HW2 3174   3.888   0.676   1.267
  759SOL     OW 3175   6.939   0.833   0.699
  759SOL    HW1 3176   6.964   0.829   0.603
  759SOL    HW2 3177   6.978   0.916   0.740
  760SOL     OW 3178   4.050   1.344   6.640
  760SOL    HW1 3179   4.009   1.270   6.586
  760SOL    HW2 3180   4.149   1.329   6.647
  761SOL     OW 3181   5.337   3.862   6.271
  761SOL    HW1 3182   5.316   3.765   6.273
  761SOL    HW2 3183   5.356   3.891   6.177
  762SOL     OW 3184   2.402   6.418   3.756
  762SOL    HW1 3185   2.411   6.318   3.761
  762SOL    HW2 3186   2.371   6.443   3.664
  763SOL     OW 3187   4.280   5.585   6.279
  763SOL    HW1 3188   4.225   5.581   6.196
  763SOL    HW2 3189   4.360   5.643   6.264
  764SOL     OW 3190   4.748   0.180   4.388
  764SOL    HW1 3191   4.704   0.258   4.343
  764SOL    HW2 3192   4.777   0.114   4.319
  765SOL     OW 3193   1.174   6.330   1.318
  765SOL    HW1 3194   1.219   6.350   1.405
  765SOL    HW2 3195   1.231   6.269   1.264
  766SOL     OW 3196   0.548   1.881   0.583
  766SOL    HW1 3197   0.576   1.881   0.679
  766SOL    HW2 3198   0.524   1.788   0.556
  767SOL     OW 3199   0.513   6.043   2.560
  767SOL    HW1 3200   0.496   6.142   2.557
  767SOL    HW2 3201   0.447   5.997   2.502
  768SOL     OW 3202   2.224   0.301   2.447
  768SOL    HW1 3203   2.235   0.400   2.437
  768SOL    HW2 3204   2.142   0.271   2.397
  769SOL     OW 3205   2.645   6.593   3.920
  769SOL    HW1 3206   2.673   6.556   3.832
  769SOL    HW2 3207   2.559   6.644   3.910
  770SOL     OW 3208   2.001   4.285   2.970
  770SOL    HW1 3209   1.973   4.351   2.900
  770SOL    HW2 3210   2.057   4.214   2.928
  771SOL     OW 3211   1.899   5.357   2.814
  771SOL    HW1 3212   1.996   5.350   2.789
  771SOL    HW2 3213   1.869   5.270   2.854
  772SOL     OW 3214   6.829   4.863   0.852
  772SOL    HW1 3215   6.878   4.860   0.764
  772SOL    HW2 3216   6.741   4.909   0.839
  773SOL     OW 3217   0.615   3.750   3.603
  773SOL    HW1 3218   0.593   3.767   3.506
  773SOL    HW2 3219   0.598   3.654   3.624
  774SOL     OW 3220   1.065   1.493   2.363
  774SOL    HW1 3221   1.008   1.503   2.282
  774SOL    HW2 3222   1.117   1.577   2.378
  775SOL     OW 3223   0.730   1.819   3.541
  775SOL    HW1 3224   0.662   1.877   3.496
  775SOL    HW2 3225   0.766   1.867   3.621
  776SOL     OW 3226   6.827   1.552   5.898
  776SOL    HW1 3227   6.806   1.525   5.992
  776SOL    HW2 3228   6.871   1.641   5.898
  777SOL     OW 3229   2.982   6.434   1.058
  777SOL    HW1 3230   3.056   6.409   1.121
  777SOL    HW2 3231   3.022   6.470   0.974
  778SOL     OW 3232   3.487   1.695   4.103
  778SOL    HW1 3233   3.537   1.614   4.071
  778SOL    HW2 3234   3.551   1.768   4.125
  779SOL     OW 3235   0.807   1.714   2.740
  779SOL    HW1 3236   0.820   1.717   2.641
  779SOL    HW2 3237   0.887   1.671   2.784
  780SOL     OW 3238   6.267   3.700   4.638
  780SOL    HW1 3239   6.352   3.700   4.691
  780SOL    HW2 3240   6.278   3.642   4.558
  781SOL     OW 3241   5.682   1.016   6.300
  781SOL    HW1 3242   5.719   0.993   6.210
  781SOL    HW2 3243   5.757   1.028   6.365
  782SOL     OW 3244   1.371   3.967   0.470
  782SOL    HW1 3245   1.292   3.971   0.409
  782SOL    HW2 3246   1.343   3.992   0.563
  783SOL     OW 3247   3.656   4.432   0.835
  783SOL    HW1 3248   3.614   4.514   0.798
  783SOL    HW2 3249   3.673   4.367   0.762
  784SOL     OW 3250   5.170   6.622   5.786
  784SOL    HW1 3251   5.182   6.716   5.818
  784SOL    HW2 3252   5.187   6.559   5.862
  785SOL     OW 3253   0.188   2.243   3.208
  785SOL    HW1 3254   0.271   2.277   3.252
  785SOL    HW2 3255   0.185   2.143   3.215
  786SOL     OW 3256   1.426   0.571   0.770
  786SOL    HW1 3257   1.464   0.598   0.681
  786SOL    HW2 3258   1.334   0.609   0.779
  787SOL     OW 3259   3.274   1.536   6.583
  787SOL    HW1 3260   3.359   1.590   6.589
  787SOL    HW2 3261   3.222   1.567   6.503
  788SOL     OW 3262   2.364   2.743   4.856
  788SOL    HW1 3263   2.399   2.814   4.918
  788SOL    HW2 3264   2.382   2.653   4.895
  789SOL     OW 3265   5.822   4.222   1.520
  789SOL    HW1 3266   5.863   4.239   1.431
  789SOL    HW2 3267   5.838   4.127   1.547
  790SOL     OW 3268   2.533   1.565   4.227
  790SOL    HW1 3269   2.502   1.521   4.311
  790SOL    HW2 3270   2.488   1.522   4.149
  791SOL     OW 3271   3.802   0.230   3.566
  791SOL    HW1 3272   3.821   0.309   3.508
  791SOL    HW2 3273   3.854   0.151   3.533
  792SOL     OW 3274   0.332   0.288   1.431
  792SOL    HW1 3275   0.378   0.328   1.510
  792SOL    HW2 3276   0.341   0.350   1.353
  793SOL     OW 3277   4.225   6.078   2.151
  793SOL    HW1 3278   4.210   6.176   2.143
  793SOL    HW2 3279   4.177   6.043   2.232
  794SOL     OW 3280   2.664   3.223   5.520
  794SOL    HW1 3281   2.683   3.297   5.456
  794SOL    HW2 3282   2.750   3.189   5.558
  795SOL     OW 3283   2.832   5.484   5.208
  795SOL    HW1 3284   2.793   5.423   5.139
  795SOL    HW2 3285   2.767   5.557   5.228
  796SOL     OW 3286   0.926   2.316   6.346
  796SOL    HW1 3287   0.863   2.315   6.424
  796SOL    HW2 3288   0.950   2.410   6.325
  797SOL     OW 3289   5.550   2.490   2.525
  797SOL    HW1 3290   5.464   2.463   2.569
  797SOL    HW2 3291   5.535   2.570   2.467
  798SOL     OW 3292   4.943   0.165   1.277
  798SOL    HW1 3293   4.851   0.135   1.254
  798SOL    HW2 3294   4.994   0.089   1.317
  799SOL     OW 3295   6.591   1.147   3.977
  799SOL    HW1 3296   6.684   1.174   3.953
  799SOL    HW2 3297   6.536   1.139   3.894
  800SOL     OW 3298   5.819   1.235   2.646
  800SOL    HW1 3299   5.818   1.331   2.676
  800SOL    HW2 3300   5.900   1.190   2.684
  801SOL     OW 3301   1.299   3.752   2.856
  801SOL    HW1 3302   1.355   3.730   2.936
  801SOL    HW2 3303   1.355   3.745   2.774
  802SOL     OW 3304   4.386   0.448   0.399
  802SOL    HW1 3305   4.338   0.398   0.327
  802SOL    HW2 3306   4.343   0.429   0.488
  803SOL     OW 3307   7.009   5.808   4.979
  803SOL    HW1 3308   6.986   5.789   4.883
  803SOL    HW2 3309   6.959   5.743   5.037
  804SOL     OW 3310   6.230   6.431   6.961
  804SOL    HW1 3311   6.206   6.468   6.871
  804SOL    HW2 3312   6.322   6.462   6.985
  805SOL     OW 3313   3.955   2.379   5.852
  805SOL    HW1 3314   3.910   2.346   5.935
  805SOL    HW2 3315   3.886   2.398   5.782
  806SOL     OW 3316   4.427   1.246   4.941
  806SOL    HW1 3317   4.473   1.312   4.882
  806SOL    HW2 3318   4.444   1.269   5.037
  807SOL     OW 3319   0.628   1.569   3.440
  807SOL    HW1 3320   0.720   1.538   3.415
  807SOL    HW2 3321   0.635   1.649   3.500
  808SOL     OW 3322   4.874   3.551   6.310
  808SOL    HW1 3323   4.940   3.627   6.311
  808SOL    HW2 3324   4.797   3.575   6.251
  809SOL     OW 3325   0.863   4.774   1.494
  809SOL    HW1 3326   0.856   4.680   1.462
  809SOL    HW2 3327   0.953   4.811   1.470
  810SOL     OW 3328   4.136   2.611   1.498
  810SOL    HW1 3329   4.106   2.658   1.415
  810SOL    HW2 3330   4.060   2.556   1.534
  811SOL     OW 3331   4.636   5.257   3.665
  811SOL    HW1 3332   4.665   5.238   3.571
  811SOL    HW2 3333   4.540   5.284   3.666
  812SOL     OW 3334   0.164   1.327   2.035
  812SOL    HW1 3335   0.098   1.257   2.008
  812SOL    HW2 3336   0.116   1.404   2.077
  813SOL     OW 3337   3.741   4.912   4.243
  813SOL    HW1 3338   3.840   4.906   4.235
  813SOL    HW2 3339   3.710   5.000   4.208
  814SOL     OW 3340   5.163   6.294   3.563
  814SOL    HW1 3341   5.257   6.274   3.533
  814SOL    HW2 3342   5.118   6.351   3.494
  815SOL     OW 3343   6.908   2.964   2.647
  815SOL    HW1 3344   6.812   2.956   2.617
  815SOL    HW2 3345   6.926   3.058   2.677
  816SOL     OW 3346   6.749   0.074   6.983
  816SOL    HW1 3347   6.654   0.080   7.016
  816SOL    HW2 3348   6.800   0.009   0.015
  817SOL     OW 3349   1.820   3.666   2.074
  817SOL    HW1 3350   1.879   3.595   2.113
  817SOL    HW2 3351   1.874   3.726   2.015
  818SOL     OW 3352   6.587   3.323   0.873
  818SOL    HW1 3353   6.672   3.311   0.822
  818SOL    HW2 3354   6.592   3.272   0.959
  819SOL     OW 3355   6.084   3.038   3.921
  819SOL    HW1 3356   6.146   3.045   3.842
  819SOL    HW2 3357   6.133   3.063   4.004
  820SOL     OW 3358   1.650   2.443   6.046
  820SOL    HW1 3359   1.623   2.410   6.137
  820SOL    HW2 3360   1.702   2.527   6.055
  821SOL     OW 3361   2.443   5.111   0.377
  821SOL    HW1 3362   2.520   5.092   0.316
  821SOL    HW2 3363   2.412   5.025   0.419
  822SOL     OW 3364   1.093   5.073   4.934
  822SOL    HW1 3365   1.116   5.003   4.866
  822SOL    HW2 3366   1.171   5.135   4.944
  823SOL     OW 3367   4.642   4.449   6.668
  823SOL    HW1 3368   4.631   4.361   6.715
  823SOL    HW2 3369   4.581   4.516   6.710
  824SOL     OW 3370   5.621   1.235   5.457
  824SOL    HW1 3371   5.531   1.209   5.494
  824SOL    HW2 3372   5.693   1.193   5.511
  825SOL     OW 3373   1.793   3.981   1.072
  825SOL    HW1 3374   1.705   3.957   1.033
  825SOL    HW2 3375   1.856   3.904   1.063
  826SOL     OW 3376   5.381   3.997   0.204
  826SOL    HW1 3377   5.339   4.086   0.185
  826SOL    HW2 3378   5.478   4.001   0.180
  827SOL     OW 3379   2.993   5.289   5.321
  827SOL    HW1 3380   3.077   5.341   5.337
  827SOL    HW2 3381   2.925   5.349   5.278
  828SOL     OW 3382   6.299   0.541   5.433
  828SOL    HW1 3383   6.315   0.639   5.446
  828SOL    HW2 3384   6.210   0.527   5.390
  829SOL     OW 3385   3.036   3.552   4.486
  829SOL    HW1 3386   3.085   3.523   4.569
  829SOL    HW2 3387   3.063   3.645   4.463
  830SOL     OW 3388   5.143   4.722   5.998
  830SOL    HW1 3389   5.043   4.720   5.995
  830SOL    HW2 3390   5.179   4.672   5.920
  831SOL     OW 3391   0.000   0.524   4.704
  831SOL    HW1 3392   6.937   0.494   4.666
  831SOL    HW2 3393   7.007   0.587   4.780
  832SOL     OW 3394   1.599   0.937   0.013
  832SOL    HW1 3395   1.644   1.025   0.032
  832SOL    HW2 3396   1.502   0.953   7.019
  833SOL     OW 3397   0.543   5.807   6.057
  833SOL    HW1 3398   0.586   5.749   5.987
  833SOL    HW2 3399   0.567   5.773   6.148
  834SOL     OW 3400   3.649   4.053   1.714
  834SOL    HW1 3401   3.677   4.148   1.708
  834SOL    HW2 3402   3.605   4.026   1.627
  835SOL     OW 3403   3.600   0.141   4.108
  835SOL    HW1 3404   3.586   0.134   4.206
  835SOL    HW2 3405   3.698   0.153   4.089
  836SOL     OW 3406   3.141   6.642   6.875
  836SOL    HW1 3407   3.136   6.554   6.826
  836SOL    HW2 3408   3.185   6.628   6.964
  837SOL     OW 3409   4.946   6.573   6.529
  837SOL    HW1 3410   4.983   6.485   6.501
  837SOL    HW2 3411   5.019   6.628   6.570
  838SOL     OW 3412   0.591   0.576   4.735
  838SOL    HW1 3413   0.537   0.659   4.747
  838SOL    HW2 3414   0.646   0.584   4.652
  839SOL     OW 3415   2.638   1.745   1.928
  839SOL    HW1 3416   2.638   1.653   1.889
  839SOL    HW2 3417   2.661   1.740   2.025
  840SOL     OW 3418   5.965   0.579   5.651
  840SOL    HW1 3419   5.945   0.483   5.669
  840SOL    HW2 3420   5.975   0.593   5.552
  841SOL     OW 3421   5.839   4.464   0.459
  841SOL    HW1 3422   5.801   4.517   0.535
  841SOL    HW2 3423   5.824   4.513   0.373
  842SOL     OW 3424   4.226   5.122   4.270
  842SOL    HW1 3425   4.133   5.127   4.307
  842SOL    HW2 3426   4.260   5.027   4.278
  843SOL     OW 3427   4.998   1.987   0.125
  843SOL    HW1 3428   4.917   1.946   0.082
  843SOL    HW2 3429   5.044   2.047   0.060
  844SOL     OW 3430   4.686   6.356   1.196
  844SOL    HW1 3431   4.620   6.431   1.196
  844SOL    HW2 3432   4.637   6.269   1.196
  845SOL     OW 3433   6.508   3.410   4.231
  845SOL    HW1 3434   6.586   3.460   4.195
  845SOL    HW2 3435   6.452   3.376   4.155
  846SOL     OW 3436   5.161   1.620   6.563
  846SOL    HW1 3437   5.102   1.617   6.644
  846SOL    HW2 3438   5.107   1.596   6.482
  847SOL     OW 3439   6.398   3.459   0.656
  847SOL    HW1 3440   6.361   3.548   0.681
  847SOL    HW2 3441   6.431   3.412   0.738
  848SOL     OW 3442   6.301   1.340   6.445
  848SOL    HW1 3443   6.334   1.251   6.414
  848SOL    HW2 3444   6.379   1.397   6.473
  849SOL     OW 3445   0.664   5.620   5.419
  849SOL    HW1 3446   0.671   5.546   5.486
  849SOL    HW2 3447   0.620   5.700   5.462
  850SOL     OW 3448   5.057   0.756   3.385
  850SOL    HW1 3449   5.016   0.788   3.300
  850SOL    HW2 3450   5.002   0.682   3.423
  851SOL     OW 3451   0.095   1.561   0.962
  851SOL    HW1 3452   0.080   1.554   0.864
  851SOL    HW2 3453   0.013   1.532   1.011
  852SOL     OW 3454   2.578   2.352   7.018
  852SOL    HW1 3455   2.652   2.327   0.057
  852SOL    HW2 3456   2.498   2.382   0.047
  853SOL     OW 3457   1.216   3.831   3.511
  853SOL    HW1 3458   1.241   3.915   3.559
  853SOL    HW2 3459   1.153   3.778   3.567
  854SOL     OW 3460   4.931   6.131   2.319
  854SOL    HW1 3461   4.857   6.065   2.335
  854SOL    HW2 3462   4.938   6.193   2.397
  855SOL     OW 3463   5.824   6.557   1.141
  855SOL    HW1 3464   5.861   6.603   1.222
  855SOL    HW2 3465   5.823   6.621   1.064
  856SOL     OW 3466   2.196   1.528   5.135
  856SOL    HW1 3467   2.127   1.576   5.081
  856SOL    HW2 3468   2.179   1.544   5.233
  857SOL     OW 3469   5.721   5.254   1.107
  857SOL    HW1 3470   5.699   5.182   1.042
  857SOL    HW2 3471   5.647   5.262   1.174
  858SOL     OW 3472   2.531   4.666   2.008
  858SOL    HW1 3473   2.530   4.758   2.048
  858SOL    HW2 3474   2.625   4.639   1.989
  859SOL     OW 3475   5.821   5.192   6.753
  859SOL    HW1 3476   5.891   5.217   6.687
  859SOL    HW2 3477   5.731   5.223   6.721
  860SOL     OW 3478   4.698   4.339   0.727
  860SOL    HW1 3479   4.643   4.406   0.777
  860SOL    HW2 3480   4.792   4.340   0.762
  861SOL     OW 3481   2.048   0.001   4.718
  861SOL    HW1 3482   1.985   0.078   4.706
  861SOL    HW2 3483   2.066   7.012   4.816
  862SOL     OW 3484   6.362   3.656   5.236
  862SOL    HW1 3485   6.372   3.754   5.253
  862SOL    HW2 3486   6.267   3.629   5.252
  863SOL     OW 3487   1.419   0.401   0.441
  863SOL    HW1 3488   1.505   0.384   0.392
  863SOL    HW2 3489   1.415   0.345   0.523
  864SOL     OW 3490   5.471   4.571   3.748
  864SOL    HW1 3491   5.462   4.670   3.757
  864SOL    HW2 3492   5.478   4.547   3.651
  865SOL     OW 3493   0.745   6.394   4.921
  865SOL    HW1 3494   0.689   6.314   4.900
  865SOL    HW2 3495   0.707   6.474   4.875
  866SOL     OW 3496   2.004   1.605   1.442
  866SOL    HW1 3497   2.055   1.670   1.385
  866SOL    HW2 3498   2.067   1.558   1.504
  867SOL     OW 3499   3.137   2.576   1.233
  867SOL    HW1 3500   3.062   2.627   1.192
  867SOL    HW2 3501   3.136   2.589   1.332
  868SOL     OW 3502   6.005   6.229   1.097
  868SOL    HW1 3503   5.972   6.262   1.185
  868SOL    HW2 3504   6.098   6.194   1.106
  869SOL     OW 3505   6.275   5.592   2.773
  869SOL    HW1 3506   6.336   5.588   2.693
  869SOL    HW2 3507   6.241   5.500   2.792
  870SOL     OW 3508   5.907   4.059   0.959
  870SOL    HW1 3509   5.837   4.003   0.913
  870SOL    HW2 3510   5.869   4.150   0.977
  871SOL     OW 3511   0.011   3.190   1.996
  871SOL    HW1 3512   7.022   3.196   1.897
  871SOL    HW2 3513   0.063   3.107   2.018
  872SOL     OW 3514   6.573   3.823   4.214
  872SOL    HW1 3515   6.653   3.824   4.154
  872SOL    HW2 3516   6.600   3.791   4.305
  873SOL     OW 3517   4.089   0.668   2.692
  873SOL    HW1 3518   4.061   0.734   2.761
  873SOL    HW2 3519   4.008   0.629   2.648
  874SOL     OW 3520   1.354   3.803   5.524
  874SOL    HW1 3521   1.433   3.858   5.497
  874SOL    HW2 3522   1.270   3.850   5.496
  875SOL     OW 3523   5.050   4.093   0.858
  875SOL    HW1 3524   4.978   4.041   0.904
  875SOL    HW2 3525   5.014   4.183   0.832
  876SOL     OW 3526   6.764   4.530   3.416
  876SOL    HW1 3527   6.680   4.554   3.464
  876SOL    HW2 3528   6.817   4.613   3.398
  877SOL     OW 3529   4.830   4.678   6.719
  877SOL    HW1 3530   4.904   4.662   6.784
  877SOL    HW2 3531   4.791   4.591   6.690
  878SOL     OW 3532   4.080   5.513   6.672
  878SOL    HW1 3533   4.077   5.545   6.766
  878SOL    HW2 3534   4.150   5.565   6.621
  879SOL     OW 3535   4.345   2.207   2.661
  879SOL    HW1 3536   4.353   2.295   2.707
  879SOL    HW2 3537   4.253   2.198   2.622
  880SOL     OW 3538   3.313   4.617   0.032
  880SOL    HW1 3539   3.238   4.562   7.020
  880SOL    HW2 3540   3.369   4.561   0.094
  881SOL     OW 3541   4.246   4.920   5.016
  881SOL    HW1 3542   4.255   4.839   4.958
  881SOL    HW2 3543   4.153   4.926   5.050
  882SOL     OW 3544   2.047   1.422   3.803
  882SOL    HW1 3545   1.983   1.478   3.750
  882SOL    HW2 3546   2.069   1.469   3.889
  883SOL     OW 3547   4.606   5.085   5.496
  883SOL    HW1 3548   4.520   5.080   5.548
  883SOL    HW2 3549   4.631   5.181   5.482
  884SOL     OW 3550   6.836   3.629   2.521
  884SOL    HW1 3551   6.768   3.702   2.512
  884SOL    HW2 3552   6.800   3.544   2.481
  885SOL     OW 3553   5.789   6.743   0.073
  885SOL    HW1 3554   5.708   6.788   0.109
  885SOL    HW2 3555   5.761   6.666   0.015
  886SOL     OW 3556   4.361   0.802   0.665
  886SOL    HW1 3557   4.405   0.774   0.580
  886SOL    HW2 3558   4.291   0.870   0.646
  887SOL     OW 3559   4.185   6.348   5.620
  887SOL    HW1 3560   4.275   6.391   5.609
  887SOL    HW2 3561   4.181   6.302   5.709
  888SOL     OW 3562   6.914   6.497   3.534
  888SOL    HW1 3563   6.843   6.516   3.601
  888SOL    HW2 3564   6.984   6.569   3.538
  889SOL     OW 3565   0.201   0.271   5.772
  889SOL    HW1 3566   0.103   0.251   5.773
  889SOL    HW2 3567   0.238   0.263   5.865
  890SOL     OW 3568   2.849   4.821   2.117
  890SOL    HW1 3569   2.927   4.865   2.073
  890SOL    HW2 3570   2.821   4.742   2.062
  891SOL     OW 3571   5.809   3.541   1.451
  891SOL    HW1 3572   5.738   3.567   1.518
  891SOL    HW2 3573   5.833   3.621   1.396
  892SOL     OW 3574   4.108   3.902   0.518
  892SOL    HW1 3575   4.194   3.851   0.520
  892SOL    HW2 3576   4.038   3.846   0.473
  893SOL     OW 3577   1.780   0.802   0.888
  893SOL    HW1 3578   1.767   0.894   0.851
  893SOL    HW2 3579   1.691   0.767   0.920
  894SOL     OW 3580   2.123   4.019   4.188
  894SOL    HW1 3581   2.149   3.937   4.238
  894SOL    HW2 3582   2.086   3.994   4.099
  895SOL     OW 3583   1.591   6.992   4.493
  895SOL    HW1 3584   1.606   6.981   4.591
  895SOL    HW2 3585   1.515   0.031   4.478
  896SOL     OW 3586   5.894   5.736   4.092
  896SOL    HW1 3587   5.901   5.754   4.190
  896SOL    HW2 3588   5.893   5.823   4.043
  897SOL     OW 3589   4.693   1.257   0.783
  897SOL    HW1 3590   4.601   1.222   0.799
  897SOL    HW2 3591   4.739   1.272   0.871
  898SOL     OW 3592   5.001   5.828   3.986
  898SOL    HW1 3593   5.030   5.914   4.027
  898SOL    HW2 3594   4.902   5.828   3.973
  899SOL     OW 3595   0.429   4.800   0.030
  899SOL    HW1 3596   0.507   4.846   0.072
  899SOL    HW2 3597   0.355   4.793   0.096
  900SOL     OW 3598   6.072   5.672   2.100
  900SOL    HW1 3599   6.161   5.669   2.055
  900SOL    HW2 3600   6.081   5.641   2.194
  901SOL     OW 3601   0.312   1.841   4.510
  901SOL    HW1 3602   0.290   1.937   4.529
  901SOL    HW2 3603   0.337   1.796   4.596
  902SOL     OW 3604   0.124   1.105   6.437
  902SOL    HW1 3605   0.204   1.149   6.480
  902SOL    HW2 3606   0.152   1.061   6.352
  903SOL     OW 3607   6.457   4.467   0.164
  903SOL    HW1 3608   6.491   4.423   0.080
  903SOL    HW2 3609   6.532   4.515   0.209
  904SOL     OW 3610   1.527   1.908   3.955
  904SOL    HW1 3611   1.571   1.963   4.025
  904SOL    HW2 3612   1.503   1.966   3.877
  905SOL     OW 3613   5.190   2.572   7.022
  905SOL    HW1 3614   5.213   2.496   6.963
  905SOL    HW2 3615   5.248   2.651   6.999
  906SOL     OW 3616   0.373   4.263   6.992
  906SOL    HW1 3617   0.427   4.251   0.052
  906SOL    HW2 3618   0.368   4.361   6.970
  907SOL     OW 3619   6.067   2.186   3.006
  907SOL    HW1 3620   6.041   2.098   3.044
  907SOL    HW2 3621   6.113   2.240   3.076
  908SOL     OW 3622   1.037   6.968   4.157
  908SOL    HW1 3623   1.057   7.013   4.070
  908SOL    HW2 3624   1.110   6.990   4.222
  909SOL     OW 3625   2.629   1.111   0.448
  909SOL    HW1 3626   2.543   1.061   0.461
  909SOL    HW2 3627   2.688   1.062   0.384
  910SOL     OW 3628   1.999   0.462   0.919
  910SOL    HW1 3629   2.040   0.505   0.839
  910SOL    HW2 3630   1.944   0.529   0.968
  911SOL     OW 3631   0.433   4.917   1.357
  911SOL    HW1 3632   0.363   4.859   1.315
  911SOL    HW2 3633   0.419   4.919   1.456
  912SOL     OW 3634   0.600   1.333   5.622
  912SOL    HW1 3635   0.641   1.418   5.653
  912SOL    HW2 3636   0.548   1.350   5.538
  913SOL     OW 3637   1.950   0.504   3.376
  913SOL    HW1 3638   1.895   0.529   3.456
  913SOL    HW2 3639   2.023   0.571   3.364
  914SOL     OW 3640   2.402   5.760   4.984
  914SOL    HW1 3641   2.344   5.685   5.015
  914SOL    HW2 3642   2.393   5.771   4.885
  915SOL     OW 3643   0.703   3.139   0.649
  915SOL    HW1 3644   0.739   3.160   0.558
  915SOL    HW2 3645   0.675   3.043   0.652
  916SOL     OW 3646   2.097   2.127   1.639
  916SOL    HW1 3647   2.128   2.035   1.663
  916SOL    HW2 3648   1.998   2.126   1.627
  917SOL     OW 3649   3.961   0.863   1.514
  917SOL    HW1 3650   4.035   0.930   1.507
  917SOL    HW2 3651   3.973   0.794   1.442
  918SOL     OW 3652   3.095   6.374   6.553
  918SOL    HW1 3653   3.091   6.279   6.521
  918SOL    HW2 3654   3.167   6.383   6.622
  919SOL     OW 3655   1.541   6.472   2.017
  919SOL    HW1 3656   1.505   6.563   1.999
  919SOL    HW2 3657   1.481   6.403   1.978
  920SOL     OW 3658   2.532   0.681   3.015
  920SOL    HW1 3659   2.506   0.725   2.929
  920SOL    HW2 3660   2.624   0.643   3.006
  921SOL     OW 3661   6.222   4.495   3.934
  921SOL    HW1 3662   6.181   4.510   4.024
  921SOL    HW2 3663   6.304   4.551   3.925
  922SOL     OW 3664   3.443   3.684   6.546
  922SOL    HW1 3665   3.456   3.699   6.448
  922SOL    HW2 3666   3.518   3.726   6.597
  923SOL     OW 3667   2.564   6.076   0.082
  923SOL    HW1 3668   2.508   6.136   0.025
  923SOL    HW2 3669   2.522   5.985   0.086
  924SOL     OW 3670   5.385   3.051   2.235
  924SOL    HW1 3671   5.328   3.026   2.157
  924SOL    HW2 3672   5.458   2.984   2.246
  925SOL     OW 3673   6.676   1.839   5.787
  925SOL    HW1 3674   6.717   1.874   5.702
  925SOL    HW2 3675   6.742   1.847   5.862
  926SOL     OW 3676   5.897   0.227   0.441
  926SOL    HW1 3677   5.852   0.198   0.525
  926SOL    HW2 3678   5.934   0.148   0.394
  927SOL     OW 3679   4.709   4.098   3.704
  927SOL    HW1 3680   4.703   4.159   3.625
  927SOL    HW2 3681   4.693   4.150   3.788
  928SOL     OW 3682   1.349   0.194   0.600
  928SOL    HW1 3683   1.299   0.114   0.567
  928SOL    HW2 3684   1.440   0.167   0.630
  929SOL     OW 3685   0.108   2.869   2.150
  929SOL    HW1 3686   0.015   2.879   2.114
  929SOL    HW2 3687   0.127   2.773   2.166
  930SOL     OW 3688   6.306   5.148   4.172
  930SOL    HW1 3689   6.296   5.229   4.116
  930SOL    HW2 3690   6.227   5.088   4.159
  931SOL     OW 3691   0.219   3.461   3.202
  931SOL    HW1 3692   0.257   3.501   3.118
  931SOL    HW2 3693   0.217   3.362   3.194
  932SOL     OW 3694   3.529   6.160   2.234
  932SOL    HW1 3695   3.540   6.167   2.333
  932SOL    HW2 3696   3.615   6.185   2.189
  933SOL     OW 3697   1.263   4.502   3.448
  933SOL    HW1 3698   1.194   4.467   3.511
  933SOL    HW2 3699   1.329   4.559   3.498
  934SOL     OW 3700   2.668   1.432   4.550
  934SOL    HW1 3701   2.647   1.344   4.593
  934SOL    HW2 3702   2.760   1.429   4.511
  935SOL     OW 3703   4.778   3.863   6.009
  935SOL    HW1 3704   4.746   3.883   5.916
  935SOL    HW2 3705   4.740   3.930   6.073
  936SOL     OW 3706   0.243   6.802   0.629
  936SOL    HW1 3707   0.212   6.756   0.712
  936SOL    HW2 3708   0.303   6.877   0.653
  937SOL     OW 3709   5.057   1.925   4.362
  937SOL    HW1 3710   5.144   1.961   4.328
  937SOL    HW2 3711   4.982   1.964   4.308
  938SOL     OW 3712   0.234   3.915   6.570
  938SOL    HW1 3713   0.307   3.905   6.638
  938SOL    HW2 3714   0.267   3.972   6.495
  939SOL     OW 3715   5.118   1.222   6.011
  939SOL    HW1 3716   5.104   1.309   6.059
  939SOL    HW2 3717   5.042   1.206   5.948
  940SOL     OW 3718   6.940   1.532   2.902
  940SOL    HW1 3719   6.968   1.628   2.897
  940SOL    HW2 3720   6.949   1.500   2.996
  941SOL     OW 3721   5.789   1.229   3.519
  941SOL    HW1 3722   5.798   1.132   3.501
  941SOL    HW2 3723   5.825   1.250   3.610
  942SOL     OW 3724   4.948   6.869   5.013
  942SOL    HW1 3725   5.000   6.910   4.938
  942SOL    HW2 3726   5.001   6.794   5.054
  943SOL     OW 3727   0.157   3.478   2.254
  943SOL    HW1 3728   0.090   3.406   2.267
  943SOL    HW2 3729   0.118   3.566   2.281
  944SOL     OW 3730   6.408   3.562   4.981
  944SOL    HW1 3731   6.416   3.641   4.921
  944SOL    HW2 3732   6.401   3.592   5.076
  945SOL     OW 3733   5.136   4.532   4.363
  945SOL    HW1 3734   5.068   4.494   4.300
  945SOL    HW2 3735   5.090   4.594   4.428
  946SOL     OW 3736   6.280   3.015   6.031
  946SOL    HW1 3737   6.233   3.029   6.118
  946SOL    HW2 3738   6.366   2.967   6.047
  947SOL     OW 3739   3.210   3.765   6.207
  947SOL    HW1 3740   3.208   3.704   6.286
  947SOL    HW2 3741   3.294   3.749   6.155
  948SOL     OW 3742   4.164   0.960   0.534
  948SOL    HW1 3743   4.183   0.874   0.486
  948SOL    HW2 3744   4.094   1.011   0.485
  949SOL     OW 3745   6.804   6.174   5.833
  949SOL    HW1 3746   6.771   6.268   5.822
  949SOL    HW2 3747   6.725   6.114   5.846
  950SOL     OW 3748   4.040   5.177   2.615
  950SOL    HW1 3749   3.982   5.150   2.538
  950SOL    HW2 3750   4.028   5.111   2.689
  951SOL     OW 3751   0.671   0.462   1.877
  951SOL    HW1 3752   0.678   0.505   1.967
  951SOL    HW2 3753   0.575   0.442   1.858
  952SOL     OW 3754   5.501   2.145   2.425
  952SOL    HW1 3755   5.455   2.223   2.383
  952SOL    HW2 3756   5.517   2.075   2.356
  953SOL     OW 3757   4.428   5.941   5.707
  953SOL    HW1 3758   4.404   5.895   5.621
  953SOL    HW2 3759   4.455   5.873   5.775
  954SOL     OW 3760   5.929   0.148   1.270
  954SOL    HW1 3761   5.934   0.171   1.173
  954SOL    HW2 3762   5.931   0.232   1.324
  955SOL     OW 3763   0.899   4.927   3.867
  955SOL    HW1 3764   0.835   5.001   3.847
  955SOL    HW2 3765   0.884   4.894   3.960
  956SOL     OW 3766   1.013   1.544   1.178
  956SOL    HW1 3767   1.083   1.589   1.123
  956SOL    HW2 3768   0.980   1.463   1.129
  957SOL     OW 3769   1.547   5.069   5.416
  957SOL    HW1 3770   1.450   5.084   5.403
  957SOL    HW2 3771   1.595   5.156   5.419
  958SOL     OW 3772   5.414   1.836   0.504
  958SOL    HW1 3773   5.339   1.772   0.489
  958SOL    HW2 3774   5.469   1.807   0.583
  959SOL     OW 3775   2.863   4.744   3.224
  959SOL    HW1 3776   2.811   4.693   3.156
  959SOL    HW2 3777   2.827   4.723   3.315
  960SOL     OW 3778   1.229   5.935   4.098
  960SOL    HW1 3779   1.187   5.859   4.148
  960SOL    HW2 3780   1.327   5.936   4.117
  961SOL     OW 3781   4.055   6.541   2.282
  961SOL    HW1 3782   4.126   6.565   2.348
  961SOL    HW2 3783   4.021   6.624   2.238
  962SOL     OW 3784   1.317   1.271   3.660
  962SOL    HW1 3785   1.382   1.330   3.612
  962SOL    HW2 3786   1.322   1.290   3.759
  963SOL     OW 3787   6.200   0.365   0.665
  963SOL    HW1 3788   6.202   0.372   0.565
  963SOL    HW2 3789   6.105   0.365   0.696
  964SOL     OW 3790   5.457   3.201   1.042
  964SOL    HW1 3791   5.550   3.231   1.066
  964SOL    HW2 3792   5.393   3.275   1.061
  965SOL     OW 3793   6.012   1.997   0.627
  965SOL    HW1 3794   5.921   1.955   0.624
  965SOL    HW2 3795   6.031   2.028   0.720
  966SOL     OW 3796   5.834   1.330   2.970
  966SOL    HW1 3797   5.754   1.389   2.960
  966SOL    HW2 3798   5.915   1.378   2.937
  967SOL     OW 3799   1.415   5.522   0.857
  967SOL    HW1 3800   1.495   5.463   0.868
  967SOL    HW2 3801   1.412   5.558   0.764
  968SOL     OW 3802   4.720   2.500   2.325
  968SOL    HW1 3803   4.779   2.580   2.341
  968SOL    HW2 3804   4.724   2.475   2.228
  969SOL     OW 3805   3.362   5.919   5.154
  969SOL    HW1 3806   3.298   5.962   5.090
  969SOL    HW2 3807   3.417   5.851   5.106
  970SOL     OW 3808   4.580   1.588   5.102
  970SOL    HW1 3809   4.649   1.660   5.089
  970SOL    HW2 3810   4.621   1.512   5.152
  971SOL     OW 3811   0.132   1.150   2.577
  971SOL    HW1 3812   0.118   1.225   2.641
  971SOL    HW2 3813   0.177   1.074   2.624
  972SOL     OW 3814   5.784   4.563   0.748
  972SOL    HW1 3815   5.796   4.471   0.785
  972SOL    HW2 3816   5.848   4.626   0.792
  973SOL     OW 3817   0.553   5.076   6.758
  973SOL    HW1 3818   0.477   5.051   6.818
  973SOL    HW2 3819   0.564   5.175   6.757
  974SOL     OW 3820   3.654   0.767   2.216
  974SOL    HW1 3821   3.633   0.760   2.314
  974SOL    HW2 3822   3.748   0.799   2.204
  975SOL     OW 3823   2.926   6.351   6.155
  975SOL    HW1 3824   2.924   6.440   6.111
  975SOL    HW2 3825   2.893   6.360   6.249
  976SOL     OW 3826   6.881   2.799   2.195
  976SOL    HW1 3827   6.876   2.700   2.207
  976SOL    HW2 3828   6.816   2.843   2.257
  977SOL     OW 3829   2.074   1.544   4.047
  977SOL    HW1 3830   2.098   1.638   4.073
  977SOL    HW2 3831   1.981   1.524   4.076
  978SOL     OW 3832   5.165   3.978   4.618
  978SOL    HW1 3833   5.213   4.063   4.637
  978SOL    HW2 3834   5.069   3.997   4.597
  979SOL     OW 3835   6.306   1.397   3.087
  979SOL    HW1 3836   6.305   1.491   3.120
  979SOL    HW2 3837   6.284   1.335   3.163
  980SOL     OW 3838   5.073   2.272   3.527
  980SOL    HW1 3839   5.083   2.242   3.622
  980SOL    HW2 3840   5.133   2.350   3.511
  981SOL     OW 3841   1.586   1.789   4.793
  981SOL    HW1 3842   1.559   1.778   4.697
  981SOL    HW2 3843   1.664   1.729   4.812
  982SOL     OW 3844   1.817   2.401   2.769
  982SOL    HW1 3845   1.846   2.412   2.864
  982SOL    HW2 3846   1.751   2.473   2.746
  983SOL     OW 3847   5.876   2.686   3.588
  983SOL    HW1 3848   5.916   2.753   3.525
  983SOL    HW2 3849   5.796   2.726   3.632
  984SOL     OW 3850   3.923   0.053   4.804
  984SOL    HW1 3851   3.842   0.098   4.766
  984SOL    HW2 3852   4.002   0.072   4.746
  985SOL     OW 3853   4.465   4.646   6.743
  985SOL    HW1 3854   4.474   4.669   6.840
  985SOL    HW2 3855   4.489   4.726   6.688
  986SOL     OW 3856   5.540   5.487   0.132
  986SOL    HW1 3857   5.635   5.499   0.161
  986SOL    HW2 3858   5.525   5.537   0.046
  987SOL     OW 3859   3.743   6.810   1.118
  987SOL    HW1 3860   3.809   6.735   1.122
  987SOL    HW2 3861   3.685   6.808   1.200
  988SOL     OW 3862   4.448   2.474   1.239
  988SOL    HW1 3863   4.468   2.450   1.333
  988SOL    HW2 3864   4.531   2.466   1.183
  989SOL     OW 3865   0.428   0.974   6.006
  989SOL    HW1 3866   0.445   0.880   5.976
  989SOL    HW2 3867   0.452   1.037   5.932
  990SOL     OW 3868   5.155   6.673   3.926
  990SOL    HW1 3869   5.114   6.584   3.905
  990SOL    HW2 3870   5.224   6.662   3.997
  991SOL     OW 3871   1.754   1.543   4.771
  991SOL    HW1 3872   1.828   1.558   4.836
  991SOL    HW2 3873   1.792   1.515   4.683
  992SOL     OW 3874   0.823   3.157   0.384
  992SOL    HW1 3875   0.745   3.109   0.341
  992SOL    HW2 3876   0.895   3.091   0.403
  993SOL     OW 3877   2.494   5.308   2.626
  993SOL    HW1 3878   2.485   5.403   2.595
  993SOL    HW2 3879   2.475   5.246   2.550
  994SOL     OW 3880   3.447   3.791   3.014
  994SOL    HW1 3881   3.432   3.795   3.113
  994SOL    HW2 3882   3.540   3.757   2.995
  995SOL     OW 3883   2.534   2.185   6.318
  995SOL    HW1 3884   2.473   2.234   6.380
  995SOL    HW2 3885   2.629   2.211   6.337
  996SOL     OW 3886   1.895   3.815   3.993
  996SOL    HW1 3887   1.869   3.738   4.050
  996SOL    HW2 3888   1.863   3.799   3.899
  997SOL     OW 3889   6.772   6.953   1.475
  997SOL    HW1 3890   6.771   7.016   1.552
  997SOL    HW2 3891   6.739   6.863   1.505
  998SOL     OW 3892   4.754   6.920   3.388
  998SOL    HW1 3893   4.800   6.979   3.454
  998SOL    HW2 3894   4.801   6.925   3.300
  999SOL     OW 3895   5.354   5.593   1.417
  999SOL    HW1 3896   5.447   5.598   1.454
  999SOL    HW2 3897   5.288   5.592   1.493
 1000SOL     OW 3898   0.618   1.026   2.602
 1000SOL    HW1 3899   0.654   1.070   2.520
 1000SOL    HW2 3900   0.678   0.951   2.630
 1001SOL     OW 3901   4.395   6.540   6.569
 1001SOL    HW1 3902   4.347   6.572   6.650
 1001SOL    HW2 3903   4.488   6.577   6.567
 1002SOL     OW 3904   5.256   1.824   6.731
 1002SOL    HW1 3905   5.217   1.913   6.757
 1002SOL    HW2 3906   5.205   1.786   6.654
 1003SOL     OW 3907   2.775   6.805   1.667
 1003SOL    HW1 3908   2.827   6.838   1.746
 1003SOL    HW2 3909   2.677   6.810   1.688
 1004SOL     OW 3910   0.011   0.598   0.147
 1004SOL    HW1 3911   6.966   0.569   0.214
 1004SOL    HW2 3912   6.990   0.624   0.062
 1005SOL     OW 3913   6.740   0.941   2.960
 1005SOL    HW1 3914   6.701   0.882   2.889
 1005SOL    HW2 3915   6.833   0.967   2.935
 1006SOL     OW 3916   2.273   5.983   1.119
 1006SOL    HW1 3917   2.196   6.041   1.090
 1006SOL    HW2 3918   2.269   5.968   1.217
 1007SOL     OW 3919   6.073   6.800   3.691
 1007SOL    HW1 3920   6.135   6.727   3.664
 1007SOL    HW2 3921   6.104   6.886   3.652
 1008SOL     OW 3922   1.201   2.955   4.266
 1008SOL    HW1 3923   1.274   2.983   4.204
 1008SOL    HW2 3924   1.112   2.976   4.225
 1009SOL     OW 3925   0.011   5.404   3.883
 1009SOL    HW1 3926   7.000   5.447   3.967
 1009SOL    HW2 3927   6.963   5.403   3.814
 1010SOL     OW 3928   4.296   2.522   0.251
 1010SOL    HW1 3929   4.252   2.607   0.282
 1010SOL    HW2 3930   4.395   2.533   0.252
 1011SOL     OW 3931   2.925   5.454   2.998
 1011SOL    HW1 3932   2.908   5.496   3.088
 1011SOL    HW2 3933   2.843   5.407   2.968
 1012SOL     OW 3934   6.418   5.242   0.331
 1012SOL    HW1 3935   6.353   5.173   0.364
 1012SOL    HW2 3936   6.387   5.333   0.358
 1013SOL     OW 3937   0.360   1.624   6.552
 1013SOL    HW1 3938   0.434   1.563   6.578
 1013SOL    HW2 3939   0.397   1.704   6.504
 1014SOL     OW 3940   5.485   5.641   6.949
 1014SOL    HW1 3941   5.474   5.606   6.856
 1014SOL    HW2 3942   5.446   5.733   6.955
 1015SOL     OW 3943   3.351   6.866   5.016
 1015SOL    HW1 3944   3.340   6.877   4.918
 1015SOL    HW2 3945   3.295   6.790   5.048
 1016SOL     OW 3946   2.219   3.028   1.074
 1016SOL    HW1 3947   2.141   3.089   1.090
 1016SOL    HW2 3948   2.289   3.077   1.022
 1017SOL     OW 3949   4.418   2.885   0.425
 1017SOL    HW1 3950   4.356   2.955   0.390
 1017SOL    HW2 3951   4.403   2.873   0.523
 1018SOL     OW 3952   1.850   3.439   4.173
 1018SOL    HW1 3953   1.808   3.439   4.082
 1018SOL    HW2 3954   1.825   3.524   4.221
 1019SOL     OW 3955   0.355   1.134   0.067
 1019SOL    HW1 3956   0.416   1.092   0.001
 1019SOL    HW2 3957   0.260   1.120   0.038
 1020SOL     OW 3958   1.362   6.643   1.231
 1020SOL    HW1 3959   1.280   6.618   1.179
 1020SOL    HW2 3960   1.437   6.584   1.203
 1021SOL     OW 3961   6.037   1.145   0.893
 1021SOL    HW1 3962   5.982   1.137   0.976
 1021SOL    HW2 3963   6.130   1.171   0.917
 1022SOL     OW 3964   4.184   4.956   6.049
 1022SOL    HW1 3965   4.122   4.975   6.125
 1022SOL    HW2 3966   4.278   4.951   6.084
 1023SOL     OW 3967   6.963   6.897   2.518
 1023SOL    HW1 3968   6.880   6.953   2.516
 1023SOL    HW2 3969   7.022   6.927   2.594
 1024SOL     OW 3970   6.618   2.786   4.408
 1024SOL    HW1 3971   6.542   2.837   4.449
 1024SOL    HW2 3972   6.649   2.833   4.326
 1025SOL     OW 3973   3.631   4.205   0.132
 1025SOL    HW1 3974   3.605   4.145   0.207
 1025SOL    HW2 3975   3.703   4.268   0.162
 1026SOL     OW 3976   1.282   1.313   0.791
 1026SOL    HW1 3977   1.224   1.372   0.735
 1026SOL    HW2 3978   1.230   1.232   0.818
 1027SOL     OW 3979   2.926   5.901   1.850
 1027SOL    HW1 3980   2.994   5.961   1.809
 1027SOL    HW2 3981   2.972   5.830   1.903
 1028SOL     OW 3982   3.244   6.079   0.042
 1028SOL    HW1 3983   3.156   6.112   0.077
 1028SOL    HW2 3984   3.229   6.022   6.985
 1029SOL     OW 3985   1.972   1.026   0.220
 1029SOL    HW1 3986   2.046   1.032   0.153
 1029SOL    HW2 3987   1.891   1.073   0.183
 1030SOL     OW 3988   3.954   2.977   3.221
 1030SOL    HW1 3989   3.995   2.886   3.211
 1030SOL    HW2 3990   3.954   3.023   3.132
 1031SOL     OW 3991   4.244   5.253   1.241
 1031SOL    HW1 3992   4.290   5.197   1.310
 1031SOL    HW2 3993   4.145   5.249   1.255
 1032SOL     OW 3994   1.366   1.774   5.022
 1032SOL    HW1 3995   1.390   1.863   5.060
 1032SOL    HW2 3996   1.424   1.754   4.943
 1033SOL     OW 3997   1.698   6.897   1.430
 1033SOL    HW1 3998   1.765   6.824   1.421
 1033SOL    HW2 3999   1.729   6.963   1.498
 1034SOL     OW 4000   1.800   6.400   4.782
 1034SOL    HW1 4001   1.880   6.455   4.806
 1034SOL    HW2 4002   1.735   6.457   4.731
 1035SOL     OW 4003   2.544   1.935   3.545
 1035SOL    HW1 4004   2.473   1.971   3.486
 1035SOL    HW2 4005   2.599   1.868   3.495
 1036SOL     OW 4006   3.446   0.149   0.949
 1036SOL    HW1 4007   3.544   0.165   0.942
 1036SOL    HW2 4008   3.421   0.071   0.892
 1037SOL     OW 4009   1.289   1.265   1.090
 1037SOL    HW1 4010   1.204   1.314   1.107
 1037SOL    HW2 4011   1.353   1.324   1.041
 1038SOL     OW 4012   0.823   1.071   5.224
 1038SOL    HW1 4013   0.877   1.154   5.241
 1038SOL    HW2 4014   0.877   1.006   5.171
 1039SOL     OW 4015   4.435   1.976   5.592
 1039SOL    HW1 4016   4.468   2.059   5.549
 1039SOL    HW2 4017   4.508   1.933   5.644
 1040SOL     OW 4018   5.547   2.825   3.425
 1040SOL    HW1 4019   5.630   2.828   3.369
 1040SOL    HW2 4020   5.571   2.802   3.519
 1041SOL     OW 4021   6.491   0.134   4.545
 1041SOL    HW1 4022   6.422   0.192   4.502
 1041SOL    HW2 4023   6.540   0.188   4.614
 1042SOL     OW 4024   3.661   5.148   2.921
 1042SOL    HW1 4025   3.575   5.197   2.925
 1042SOL    HW2 4026   3.723   5.184   2.991
 1043SOL     OW 4027   4.152   1.110   6.388
 1043SOL    HW1 4028   4.166   1.026   6.335
 1043SOL    HW2 4029   4.109   1.086   6.476
 1044SOL     OW 4030   4.313   2.466   1.737
 1044SOL    HW1 4031   4.410   2.490   1.746
 1044SOL    HW2 4032   4.265   2.536   1.685
 1045SOL     OW 4033   2.885   0.049   1.591
 1045SOL    HW1 4034   2.803   0.028   1.538
 1045SOL    HW2 4035   2.868   0.031   1.688
 1046SOL     OW 4036   2.578   6.770   6.435
 1046SOL    HW1 4037   2.654   6.706   6.448
 1046SOL    HW2 4038   2.491   6.722   6.449
 1047SOL     OW 4039   1.591   5.383   3.094
 1047SOL    HW1 4040   1.648   5.448   3.043
 1047SOL    HW2 4041   1.637   5.295   3.099
 1048SOL     OW 4042   4.907   5.845   5.194
 1048SOL    HW1 4043   4.999   5.859   5.231
 1048SOL    HW2 4044   4.896   5.901   5.112
 1049SOL     OW 4045   0.419   4.149   4.960
 1049SOL    HW1 4046   0.406   4.226   5.023
 1049SOL    HW2 4047   0.345   4.083   4.972
 1050SOL     OW 4048   2.433   5.676   0.783
 1050SOL    HW1 4049   2.396   5.743   0.848
 1050SOL    HW2 4050   2.473   5.600   0.834
 1051SOL     OW 4051   3.907   4.700   0.750
 1051SOL    HW1 4052   3.884   4.642   0.828
 1051SOL    HW2 4053   3.997   4.742   0.765
 1052SOL     OW 4054   4.729   0.600   4.175
 1052SOL    HW1 4055   4.799   0.671   4.172
 1052SOL    HW2 4056   4.704   0.574   4.082
 1053SOL     OW 4057   5.773   5.676   3.518
 1053SOL    HW1 4058   5.710   5.604   3.490
 1053SOL    HW2 4059   5.739   5.719   3.602
 1054SOL     OW 4060   2.717   4.733   5.700
 1054SOL    HW1 4061   2.675   4.788   5.772
 1054SOL    HW2 4062   2.646   4.678   5.655
 1055SOL     OW 4063   5.341   6.141   4.714
 1055SOL    HW1 4064   5.380   6.144   4.806
 1055SOL    HW2 4065   5.313   6.047   4.693
 1056SOL     OW 4066   1.777   6.331   5.328
 1056SOL    HW1 4067   1.867   6.349   5.370
 1056SOL    HW2 4068   1.745   6.414   5.282
 1057SOL     OW 4069   2.983   3.841   3.272
 1057SOL    HW1 4070   2.919   3.910   3.308
 1057SOL    HW2 4071   3.012   3.867   3.180
 1058SOL     OW 4072   4.832   1.415   2.521
 1058SOL    HW1 4073   4.737   1.427   2.492
 1058SOL    HW2 4074   4.893   1.426   2.443
 1059SOL     OW 4075   3.242   0.621   1.805
 1059SOL    HW1 4076   3.240   0.582   1.713
 1059SOL    HW2 4077   3.293   0.707   1.804
 1060SOL     OW 4078   0.482   3.744   5.730
 1060SOL    HW1 4079   0.484   3.817   5.662
 1060SOL    HW2 4080   0.439   3.663   5.691
 1061SOL     OW 4081   4.205   4.679   0.950
 1061SOL    HW1 4082   4.293   4.709   0.988
 1061SOL    HW2 4083   4.161   4.617   1.015
 1062SOL     OW 4084   7.012   6.082   5.676
 1062SOL    HW1 4085   6.956   6.133   5.742
 1062SOL    HW2 4086   7.006   6.126   5.587
 1063SOL     OW 4087   1.328   4.204   1.006
 1063SOL    HW1 4088   1.353   4.234   0.915
 1063SOL    HW2 4089   1.236   4.165   1.005
 1064SOL     OW 4090   1.037   3.551   2.503
 1064SOL    HW1 4091   1.075   3.550   2.595
 1064SOL    HW2 4092   1.111   3.557   2.436
 1065SOL     OW 4093   4.361   0.721   5.215
 1065SOL    HW1 4094   4.354   0.818   5.238
 1065SOL    HW2 4095   4.428   0.708   5.142
 1066SOL     OW 4096   5.281   0.422   4.372
 1066SOL    HW1 4097   5.279   0.452   4.467
 1066SOL    HW2 4098   5.203   0.463   4.323
 1067SOL     OW 4099   1.236   2.892   0.901
 1067SOL    HW1 4100   1.160   2.904   0.838
 1067SOL    HW2 4101   1.236   2.798   0.937
 1068SOL     OW 4102   6.029   3.391   1.365
 1068SOL    HW1 4103   5.951   3.438   1.407
 1068SOL    HW2 4104   6.101   3.377   1.433
 1069SOL     OW 4105   4.468   4.740   1.046
 1069SOL    HW1 4106   4.567   4.754   1.035
 1069SOL    HW2 4107   4.424   4.827   1.068
 1070SOL     OW 4108   1.159   0.834   6.363
 1070SOL    HW1 4109   1.159   0.802   6.268
 1070SOL    HW2 4110   1.164   0.933   6.364
 1071SOL     OW 4111   3.857   0.463   3.438
 1071SOL    HW1 4112   3.943   0.513   3.445
 1071SOL    HW2 4113   3.782   0.528   3.427
 1072SOL     OW 4114   2.244   6.061   2.310
 1072SOL    HW1 4115   2.292   6.071   2.397
 1072SOL    HW2 4116   2.223   5.964   2.294
 1073SOL     OW 4117   3.319   5.857   2.396
 1073SOL    HW1 4118   3.387   5.814   2.337
 1073SOL    HW2 4119   3.229   5.853   2.353
 1074SOL     OW 4120   2.180   5.952   1.644
 1074SOL    HW1 4121   2.186   5.863   1.598
 1074SOL    HW2 4122   2.141   5.939   1.735
 1075SOL     OW 4123   4.675   5.222   3.387
 1075SOL    HW1 4124   4.637   5.282   3.316
 1075SOL    HW2 4125   4.745   5.163   3.347
 1076SOL     OW 4126   0.673   4.587   5.259
 1076SOL    HW1 4127   0.645   4.559   5.167
 1076SOL    HW2 4128   0.603   4.645   5.300
 1077SOL     OW 4129   5.972   7.012   0.087
 1077SOL    HW1 4130   5.980   6.987   0.184
 1077SOL    HW2 4131   5.906   6.952   0.043
 1078SOL     OW 4132   1.593   1.090   2.436
 1078SOL    HW1 4133   1.544   1.176   2.449
 1078SOL    HW2 4134   1.663   1.101   2.366
 1079SOL     OW 4135   2.030   5.099   3.294
 1079SOL    HW1 4136   1.985   5.188   3.306
 1079SOL    HW2 4137   1.965   5.034   3.255
 1080SOL     OW 4138   2.020   4.598   3.480
 1080SOL    HW1 4139   1.973   4.621   3.395
 1080SOL    HW2 4140   2.110   4.642   3.482
 1081SOL     OW 4141   0.065   1.757   5.454
 1081SOL    HW1 4142   0.059   1.663   5.490
 1081SOL    HW2 4143   0.018   1.762   5.366
 1082SOL     OW 4144   1.478   0.276   5.710
 1082SOL    HW1 4145   1.492   0.368   5.674
 1082SOL    HW2 4146   1.498   0.275   5.808
 1083SOL     OW 4147   3.977   4.013   2.257
 1083SOL    HW1 4148   4.014   4.047   2.170
 1083SOL    HW2 4149   4.021   3.926   2.279
 1084SOL     OW 4150   6.565   5.329   0.625
 1084SOL    HW1 4151   6.477   5.355   0.584
 1084SOL    HW2 4152   6.620   5.411   0.641
 1085SOL     OW 4153   2.016   4.034   3.920
 1085SOL    HW1 4154   1.952   3.962   3.950
 1085SOL    HW2 4155   1.964   4.111   3.883
 1086SOL     OW 4156   5.985   5.578   3.235
 1086SOL    HW1 4157   5.924   5.573   3.314
 1086SOL    HW2 4158   5.960   5.507   3.169
 1087SOL     OW 4159   4.955   2.842   5.813
 1087SOL    HW1 4160   4.928   2.938   5.811
 1087SOL    HW2 4161   5.012   2.825   5.893
 1088SOL     OW 4162   6.133   4.452   3.243
 1088SOL    HW1 4163   6.095   4.430   3.333
 1088SOL    HW2 4164   6.059   4.466   3.178
 1089SOL     OW 4165   0.654   0.791   4.318
 1089SOL    HW1 4166   0.618   0.854   4.386
 1089SOL    HW2 4167   0.657   0.698   4.356
 1090SOL     OW 4168   2.955   1.358   4.564
 1090SOL    HW1 4169   2.966   1.421   4.488
 1090SOL    HW2 4170   2.939   1.410   4.648
 1091SOL     OW 4171   1.748   2.140   3.687
 1091SOL    HW1 4172   1.772   2.090   3.771
 1091SOL    HW2 4173   1.754   2.239   3.705
 1092SOL     OW 4174   2.123   3.904   1.662
 1092SOL    HW1 4175   2.074   3.903   1.574
 1092SOL    HW2 4176   2.155   3.811   1.682
 1093SOL     OW 4177   1.909   1.799   2.648
 1093SOL    HW1 4178   1.811   1.809   2.629
 1093SOL    HW2 4179   1.927   1.822   2.743
 1094SOL     OW 4180   0.316   6.403   2.794
 1094SOL    HW1 4181   0.231   6.439   2.757
 1094SOL    HW2 4182   0.296   6.335   2.864
 1095SOL     OW 4183   5.993   2.120   6.068
 1095SOL    HW1 4184   5.923   2.154   6.131
 1095SOL    HW2 4185   5.956   2.122   5.975
 1096SOL     OW 4186   3.398   4.959   1.641
 1096SOL    HW1 4187   3.392   4.995   1.548
 1096SOL    HW2 4188   3.308   4.927   1.670
 1097SOL     OW 4189   1.223   4.791   4.884
 1097SOL    HW1 4190   1.196   4.706   4.929
 1097SOL    HW2 4191   1.242   4.860   4.954
 1098SOL     OW 4192   5.150   2.335   0.805
 1098SOL    HW1 4193   5.086   2.273   0.759
 1098SOL    HW2 4194   5.176   2.408   0.741
 1099SOL     OW 4195   4.264   1.641   4.660
 1099SOL    HW1 4196   4.267   1.736   4.692
 1099SOL    HW2 4197   4.218   1.584   4.728
 1100SOL     OW 4198   1.038   1.794   6.354
 1100SOL    HW1 4199   1.098   1.748   6.420
 1100SOL    HW2 4200   1.055   1.892   6.358
 1101SOL     OW 4201   5.203   3.141   1.511
 1101SOL    HW1 4202   5.248   3.078   1.574
 1101SOL    HW2 4203   5.192   3.097   1.421
 1102SOL     OW 4204   1.182   4.892   4.377
 1102SOL    HW1 4205   1.152   4.873   4.471
 1102SOL    HW2 4206   1.105   4.929   4.324
 1103SOL     OW 4207   2.167   0.805   1.827
 1103SOL    HW1 4208   2.229   0.795   1.749
 1103SOL    HW2 4209   2.197   0.880   1.885
 1104SOL     OW 4210   1.862   4.535   6.373
 1104SOL    HW1 4211   1.926   4.557   6.299
 1104SOL    HW2 4212   1.787   4.481   6.337
 1105SOL     OW 4213   4.610   4.240   6.243
 1105SOL    HW1 4214   4.624   4.312   6.311
 1105SOL    HW2 4215   4.623   4.151   6.286
 1106SOL     OW 4216   1.257   2.145   6.578
 1106SOL    HW1 4217   1.234   2.162   6.674
 1106SOL    HW2 4218   1.351   2.173   6.560
 1107SOL     OW 4219   0.557   0.267   6.532
 1107SOL    HW1 4220   0.614   0.243   6.453
 1107SOL    HW2 4221   0.489   0.336   6.504
 1108SOL     OW 4222   2.637   0.538   5.488
 1108SOL    HW1 4223   2.725   0.496   5.509
 1108SOL    HW2 4224   2.637   0.571   5.393
 1109SOL     OW 4225   4.118   5.402   4.440
 1109SOL    HW1 4226   4.180   5.444   4.507
 1109SOL    HW2 4227   4.069   5.474   4.391
 1110SOL     OW 4228   3.184   1.898   1.633
 1110SOL    HW1 4229   3.204   1.985   1.677
 1110SOL    HW2 4230   3.158   1.914   1.537
 1111SOL     OW 4231   5.257   6.306   6.923
 1111SOL    HW1 4232   5.271   6.355   7.010
 1111SOL    HW2 4233   5.267   6.370   6.847
 1112SOL     OW 4234   5.980   0.982   2.733
 1112SOL    HW1 4235   5.911   0.910   2.745
 1112SOL    HW2 4236   6.059   0.945   2.685
 1113SOL     OW 4237   6.191   3.042   2.297
 1113SOL    HW1 4238   6.184   3.069   2.201
 1113SOL    HW2 4239   6.179   3.123   2.355
 1114SOL     OW 4240   4.853   1.475   6.573
 1114SOL    HW1 4241   4.823   1.568   6.596
 1114SOL    HW2 4242   4.787   1.434   6.510
 1115SOL     OW 4243   4.328   3.126   0.328
 1115SOL    HW1 4244   4.361   3.214   0.364
 1115SOL    HW2 4245   4.353   3.119   0.231
 1116SOL     OW 4246   5.572   4.972   4.180
 1116SOL    HW1 4247   5.580   5.032   4.259
 1116SOL    HW2 4248   5.661   4.961   4.136
 1117SOL     OW 4249   2.803   2.866   1.416
 1117SOL    HW1 4250   2.706   2.889   1.419
 1117SOL    HW2 4251   2.845   2.887   1.504
 1118SOL     OW 4252   1.054   4.716   2.753
 1118SOL    HW1 4253   1.081   4.621   2.737
 1118SOL    HW2 4254   1.096   4.774   2.684
 1119SOL     OW 4255   3.714   3.995   1.319
 1119SOL    HW1 4256   3.740   4.083   1.280
 1119SOL    HW2 4257   3.623   4.003   1.361
 1120SOL     OW 4258   5.333   6.975   5.907
 1120SOL    HW1 4259   5.385   6.894   5.934
 1120SOL    HW2 4260   5.240   6.948   5.882
 1121SOL     OW 4261   5.117   2.964   2.182
 1121SOL    HW1 4262   5.177   2.964   2.262
 1121SOL    HW2 4263   5.072   3.053   2.175
 1122SOL     OW 4264   5.260   2.623   6.461
 1122SOL    HW1 4265   5.161   2.614   6.471
 1122SOL    HW2 4266   5.287   2.717   6.479
 1123SOL     OW 4267   4.327   1.597   2.218
 1123SOL    HW1 4268   4.352   1.612   2.123
 1123SOL    HW2 4269   4.242   1.645   2.239
 1124SOL     OW 4270   6.937   3.999   4.734
 1124SOL    HW1 4271   6.954   4.020   4.831
 1124SOL    HW2 4272   6.841   4.015   4.713
 1125SOL     OW 4273   2.737   2.063   5.010
 1125SOL    HW1 4274   2.796   2.120   4.955
 1125SOL    HW2 4275   2.726   1.973   4.967
 1126SOL     OW 4276   4.661   6.626   6.587
 1126SOL    HW1 4277   4.733   6.592   6.527
 1126SOL    HW2 4278   4.688   6.714   6.626
 1127SOL     OW 4279   3.255   4.465   5.867
 1127SOL    HW1 4280   3.168   4.422   5.844
 1127SOL    HW2 4281   3.313   4.466   5.786
 1128SOL     OW 4282   4.431   2.073   4.106
 1128SOL    HW1 4283   4.491   2.072   4.025
 1128SOL    HW2 4284   4.397   1.981   4.122
 1129SOL     OW 4285   3.816   0.140   0.159
 1129SOL    HW1 4286   3.762   0.197   0.097
 1129SOL    HW2 4287   3.776   0.048   0.162
 1130SOL     OW 4288   1.851   4.600   0.919
 1130SOL    HW1 4289   1.904   4.516   0.907
 1130SOL    HW2 4290   1.851   4.626   1.015
 1131SOL     OW 4291   0.646   6.655   5.908
 1131SOL    HW1 4292   0.551   6.683   5.922
 1131SOL    HW2 4293   0.694   6.726   5.856
 1132SOL     OW 4294   5.104   0.341   6.882
 1132SOL    HW1 4295   5.117   0.394   6.966
 1132SOL    HW2 4296   5.158   0.381   6.808
 1133SOL     OW 4297   0.105   1.894   1.684
 1133SOL    HW1 4298   0.038   1.953   1.727
 1133SOL    HW2 4299   0.077   1.875   1.590
 1134SOL     OW 4300   5.858   2.115   6.761
 1134SOL    HW1 4301   5.949   2.150   6.783
 1134SOL    HW2 4302   5.789   2.176   6.799
 1135SOL     OW 4303   3.177   2.153   2.891
 1135SOL    HW1 4304   3.230   2.238   2.893
 1135SOL    HW2 4305   3.081   2.174   2.870
 1136SOL     OW 4306   2.873   4.826   4.097
 1136SOL    HW1 4307   2.849   4.816   4.193
 1136SOL    HW2 4308   2.972   4.841   4.089
 1137SOL     OW 4309   1.142   2.548   6.939
 1137SOL    HW1 4310   1.229   2.527   6.983
 1137SOL    HW2 4311   1.108   2.467   6.891
 1138SOL     OW 4312   2.287   2.694   5.853
 1138SOL    HW1 4313   2.244   2.742   5.776
 1138SOL    HW2 4314   2.270   2.596   5.844
 1139SOL     OW 4315   2.136   6.263   2.724
 1139SOL    HW1 4316   2.182   6.174   2.728
 1139SOL    HW2 4317   2.047   6.253   2.681
 1140SOL     OW 4318   4.209   2.168   3.001
 1140SOL    HW1 4319   4.278   2.240   2.996
 1140SOL    HW2 4320   4.136   2.197   3.062
 1141SOL     OW 4321   5.784   5.552   6.178
 1141SOL    HW1 4322   5.827   5.502   6.104
 1141SOL    HW2 4323   5.686   5.531   6.180
 1142SOL     OW 4324   5.305   0.423   4.651
 1142SOL    HW1 4325   5.357   0.343   4.681
 1142SOL    HW2 4326   5.211   0.415   4.685
 1143SOL     OW 4327   3.672   2.024   2.417
 1143SOL    HW1 4328   3.643   2.025   2.322
 1143SOL    HW2 4329   3.592   2.029   2.477
 1144SOL     OW 4330   0.167   4.316   4.598
 1144SOL    HW1 4331   0.248   4.375   4.601
 1144SOL    HW2 4332   0.191   4.224   4.631
 1145SOL     OW 4333   0.071   5.136   3.436
 1145SOL    HW1 4334   0.152   5.176   3.479
 1145SOL    HW2 4335   0.017   5.088   3.505
 1146SOL     OW 4336   5.343   1.405   1.010
 1146SOL    HW1 4337   5.283   1.333   0.974
 1146SOL    HW2 4338   5.352   1.478   0.942
 1147SOL     OW 4339   1.651   3.750   0.864
 1147SOL    HW1 4340   1.602   3.832   0.893
 1147SOL    HW2 4341   1.600   3.669   0.892
 1148SOL     OW 4342   2.944   6.119   6.401
 1148SOL    HW1 4343   2.963   6.051   6.472
 1148SOL    HW2 4344   3.029   6.141   6.352
 1149SOL     OW 4345   5.747   3.217   3.025
 1149SOL    HW1 4346   5.839   3.184   3.002
 1149SOL    HW2 4347   5.752   3.311   3.057
 1150SOL     OW 4348   2.376   4.277   1.138
 1150SOL    HW1 4349   2.425   4.364   1.135
 1150SOL    HW2 4350   2.358   4.246   1.045
 1151SOL     OW 4351   5.550   5.764   6.646
 1151SOL    HW1 4352   5.641   5.725   6.648
 1151SOL    HW2 4353   5.553   5.858   6.682
 1152SOL     OW 4354   1.118   6.667   4.964
 1152SOL    HW1 4355   1.098   6.592   4.902
 1152SOL    HW2 4356   1.065   6.656   5.049
 1153SOL     OW 4357   2.317   6.466   2.640
 1153SOL    HW1 4358   2.232   6.419   2.665
 1153SOL    HW2 4359   2.311   6.562   2.666
 1154SOL     OW 4360   0.070   3.434   1.502
 1154SOL    HW1 4361   0.104   3.352   1.456
 1154SOL    HW2 4362   0.050   3.505   1.434
 1155SOL     OW 4363   3.609   5.906   6.992
 1155SOL    HW1 4364   3.636   5.857   6.909
 1155SOL    HW2 4365   3.666   5.988   7.002
 1156SOL     OW 4366   2.321   0.399   3.523
 1156SOL    HW1 4367   2.252   0.463   3.556
 1156SOL    HW2 4368   2.408   0.417   3.569
 1157SOL     OW 4369   7.021   2.686   4.441
 1157SOL    HW1 4370   0.088   2.645   4.436
 1157SOL    HW2 4371   6.957   2.620   4.481
 1158SOL     OW 4372   5.709   5.327   5.494
 1158SOL    HW1 4373   5.622   5.348   5.448
 1158SOL    HW2 4374   5.702   5.240   5.542
 1159SOL     OW 4375   4.215   0.613   2.447
 1159SOL    HW1 4376   4.171   0.641   2.533
 1159SOL    HW2 4377   4.274   0.687   2.416
 1160SOL     OW 4378   4.010   3.616   1.647
 1160SOL    HW1 4379   3.978   3.522   1.648
 1160SOL    HW2 4380   3.936   3.677   1.618
 1161SOL     OW 4381   4.993   0.044   5.416
 1161SOL    HW1 4382   5.010   0.021   5.511
 1161SOL    HW2 4383   4.952   6.989   5.369
 1162SOL     OW 4384   3.829   2.659   1.016
 1162SOL    HW1 4385   3.912   2.639   1.069
 1162SOL    HW2 4386   3.757   2.594   1.041
 1163SOL     OW 4387   5.357   2.322   2.249
 1163SOL    HW1 4388   5.342   2.256   2.175
 1163SOL    HW2 4389   5.277   2.322   2.310
 1164SOL     OW 4390   5.203   2.848   3.685
 1164SOL    HW1 4391   5.142   2.879   3.758
 1164SOL    HW2 4392   5.165   2.767   3.641
 1165SOL     OW 4393   1.336   3.523   3.738
 1165SOL    HW1 4394   1.393   3.565   3.667
 1165SOL    HW2 4395   1.383   3.443   3.775
 1166SOL     OW 4396   3.790   1.632   6.607
 1166SOL    HW1 4397   3.834   1.693   6.673
 1166SOL    HW2 4398   3.820   1.656   6.515
 1167SOL     OW 4399   3.435   0.276   5.275
 1167SOL    HW1 4400   3.389   0.321   5.198
 1167SOL    HW2 4401   3.480   0.193   5.243
 1168SOL     OW 4402   5.949   6.893   2.527
 1168SOL    HW1 4403   5.954   6.798   2.559
 1168SOL    HW2 4404   5.876   6.902   2.459
 1169SOL     OW 4405   0.007   3.040   0.561
 1169SOL    HW1 4406   6.965   2.984   0.612
 1169SOL    HW2 4407   0.100   3.018   0.591
 1170SOL     OW 4408   3.928   0.320   1.877
 1170SOL    HW1 4409   3.954   0.391   1.943
 1170SOL    HW2 4410   3.951   0.351   1.785
 1171SOL     OW 4411   2.891   5.905   0.799
 1171SOL    HW1 4412   2.832   5.904   0.880
 1171SOL    HW2 4413   2.984   5.927   0.827
 1172SOL     OW 4414   3.034   3.749   3.733
 1172SOL    HW1 4415   2.990   3.728   3.645
 1172SOL    HW2 4416   2.987   3.826   3.776
 1173SOL     OW 4417   3.599   0.517   5.718
 1173SOL    HW1 4418   3.517   0.523   5.661
 1173SOL    HW2 4419   3.586   0.569   5.802
 1174SOL     OW 4420   2.070   5.707   0.880
 1174SOL    HW1 4421   2.111   5.790   0.843
 1174SOL    HW2 4422   2.112   5.686   0.969
 1175SOL     OW 4423   5.318   4.396   6.851
 1175SOL    HW1 4424   5.256   4.317   6.846
 1175SOL    HW2 4425   5.383   4.392   6.775
 1176SOL     OW 4426   6.003   5.113   1.020
 1176SOL    HW1 4427   6.056   5.190   1.055
 1176SOL    HW2 4428   5.907   5.124   1.047
 1177SOL     OW 4429   0.021   2.178   5.333
 1177SOL    HW1 4430   7.002   2.134   5.412
 1177SOL    HW2 4431   0.092   2.241   5.365
 1178SOL     OW 4432   4.759   4.145   1.946
 1178SOL    HW1 4433   4.665   4.176   1.936
 1178SOL    HW2 4434   4.782   4.081   1.872
 1179SOL     OW 4435   2.333   4.455   0.379
 1179SOL    HW1 4436   2.391   4.519   0.429
 1179SOL    HW2 4437   2.237   4.476   0.395
 1180SOL     OW 4438   2.441   1.031   3.507
 1180SOL    HW1 4439   2.541   1.032   3.518
 1180SOL    HW2 4440   2.418   0.989   3.419
 1181SOL     OW 4441   1.194   4.042   4.893
 1181SOL    HW1 4442   1.236   4.107   4.957
 1181SOL    HW2 4443   1.097   4.034   4.914
 1182SOL     OW 4444   1.790   4.400   3.142
 1182SOL    HW1 4445   1.870   4.372   3.089
 1182SOL    HW2 4446   1.812   4.483   3.193
 1183SOL     OW 4447   4.718   5.463   2.281
 1183SOL    HW1 4448   4.735   5.530   2.210
 1183SOL    HW2 4449   4.634   5.486   2.330
 1184SOL     OW 4450   3.311   3.111   5.821
 1184SOL    HW1 4451   3.335   3.105   5.724
 1184SOL    HW2 4452   3.339   3.201   5.856
 1185SOL     OW 4453   2.283   0.199   0.163
 1185SOL    HW1 4454   2.203   0.189   0.223
 1185SOL    HW2 4455   2.255   0.185   0.068
 1186SOL     OW 4456   5.854   0.299   5.725
 1186SOL    HW1 4457   5.773   0.345   5.689
 1186SOL    HW2 4458   5.848   0.201   5.708
 1187SOL     OW 4459   5.484   6.253   5.713
 1187SOL    HW1 4460   5.420   6.193   5.761
 1187SOL    HW2 4461   5.511   6.328   5.774
 1188SOL     OW 4462   3.092   6.599   6.412
 1188SOL    HW1 4463   3.094   6.520   6.473
 1188SOL    HW2 4464   3.140   6.576   6.327
 1189SOL     OW 4465   4.830   1.832   2.290
 1189SOL    HW1 4466   4.772   1.770   2.238
 1189SOL    HW2 4467   4.801   1.834   2.385
 1190SOL     OW 4468   4.271   4.700   4.117
 1190SOL    HW1 4469   4.172   4.686   4.110
 1190SOL    HW2 4470   4.300   4.767   4.049
 1191SOL     OW 4471   3.685   5.218   5.971
 1191SOL    HW1 4472   3.671   5.278   6.049
 1191SOL    HW2 4473   3.756   5.151   5.993
 1192SOL     OW 4474   5.512   4.531   2.962
 1192SOL    HW1 4475   5.570   4.485   3.029
 1192SOL    HW2 4476   5.439   4.581   3.009
 1193SOL     OW 4477   5.987   6.893   4.557
 1193SOL    HW1 4478   5.990   6.985   4.597
 1193SOL    HW2 4479   6.012   6.826   4.627
 1194SOL     OW 4480   0.151   1.079   0.428
 1194SOL    HW1 4481   0.236   1.035   0.458
 1194SOL    HW2 4482   0.079   1.011   0.422
 1195SOL     OW 4483   6.335   1.821   0.295
 1195SOL    HW1 4484   6.364   1.789   0.205
 1195SOL    HW2 4485   6.238   1.847   0.291
 1196SOL     OW 4486   0.002   4.870   1.693
 1196SOL    HW1 4487   6.930   4.894   1.709
 1196SOL    HW2 4488   0.014   4.772   1.706
 1197SOL     OW 4489   4.031   5.630   5.715
 1197SOL    HW1 4490   3.953   5.667   5.664
 1197SOL    HW2 4491   4.115   5.645   5.664
 1198SOL     OW 4492   2.153   2.773   2.060
 1198SOL    HW1 4493   2.113   2.681   2.053
 1198SOL    HW2 4494   2.200   2.783   2.147
 1199SOL     OW 4495   3.970   3.925   3.336
 1199SOL    HW1 4496   3.926   3.985   3.269
 1199SOL    HW2 4497   3.953   3.960   3.428
 1200SOL     OW 4498   4.071   3.807   5.536
 1200SOL    HW1 4499   4.054   3.774   5.629
 1200SOL    HW2 4500   4.150   3.868   5.537
 1201SOL     OW 4501   1.085   1.467   4.772
 1201SOL    HW1 4502   1.096   1.553   4.821
 1201SOL    HW2 4503   1.015   1.411   4.817
 1202SOL     OW 4504   5.728   0.486   6.183
 1202SOL    HW1 4505   5.734   0.407   6.122
 1202SOL    HW2 4506   5.636   0.490   6.223
 1203SOL     OW 4507   5.590   0.094   0.967
 1203SOL    HW1 4508   5.496   0.083   0.998
 1203SOL    HW2 4509   5.632   0.004   0.953
 1204SOL     OW 4510   4.181   1.271   0.579
 1204SOL    HW1 4511   4.153   1.237   0.490
 1204SOL    HW2 4512   4.272   1.237   0.601
 1205SOL     OW 4513   5.399   3.419   7.014
 1205SOL    HW1 4514   5.483   3.409   6.961
 1205SOL    HW2 4515   5.349   3.499   6.982
 1206SOL     OW 4516   1.919   1.389   4.916
 1206SOL    HW1 4517   1.856   1.337   4.857
 1206SOL    HW2 4518   2.012   1.383   4.879
 1207SOL     OW 4519   6.673   6.430   0.989
 1207SOL    HW1 4520   6.710   6.515   1.026
 1207SOL    HW2 4521   6.608   6.451   0.915
 1208SOL     OW 4522   3.812   3.939   2.530
 1208SOL    HW1 4523   3.813   3.997   2.448
 1208SOL    HW2 4524   3.723   3.944   2.573
 1209SOL     OW 4525   6.057   6.146   5.646
 1209SOL    HW1 4526   6.085   6.242   5.635
 1209SOL    HW2 4527   5.978   6.142   5.707
 1210SOL     OW 4528   4.104   0.504   2.933
 1210SOL    HW1 4529   4.103   0.572   2.859
 1210SOL    HW2 4530   4.023   0.445   2.925
 1211SOL     OW 4531   1.726   3.425   3.912
 1211SOL    HW1 4532   1.736   3.466   3.821
 1211SOL    HW2 4533   1.652   3.470   3.961
 1212SOL     OW 4534   0.581   2.855   5.498
 1212SOL    HW1 4535   0.653   2.902   5.448
 1212SOL    HW2 4536   0.618   2.816   5.582
 1213SOL     OW 4537   6.032   2.667   5.203
 1213SOL    HW1 4538   5.995   2.696   5.115
 1213SOL    HW2 4539   6.104   2.599   5.188
 1214SOL     OW 4540   1.385   3.365   4.082
 1214SOL    HW1 4541   1.396   3.343   3.985
 1214SOL    HW2 4542   1.297   3.327   4.114
 1215SOL     OW 4543   2.273   4.222   2.068
 1215SOL    HW1 4544   2.191   4.277   2.051
 1215SOL    HW2 4545   2.333   4.271   2.132
 1216SOL     OW 4546   6.920   6.932   1.758
 1216SOL    HW1 4547   6.914   6.842   1.714
 1216SOL    HW2 4548   6.947   7.001   1.690
 1217SOL     OW 4549   0.941   6.678   0.883
 1217SOL    HW1 4550   0.865   6.683   0.947
 1217SOL    HW2 4551   0.935   6.754   0.819
 1218SOL     OW 4552   1.266   3.040   4.826
 1218SOL    HW1 4553   1.336   3.066   4.759
 1218SOL    HW2 4554   1.291   2.953   4.869
 1219SOL     OW 4555   4.155   5.134   0.935
 1219SOL    HW1 4556   4.168   5.140   0.836
 1219SOL    HW2 4557   4.178   5.221   0.978
 1220SOL     OW 4558   5.404   3.742   2.270
 1220SOL    HW1 4559   5.467   3.671   2.302
 1220SOL    HW2 4560   5.310   3.708   2.274
 1221SOL     OW 4561   5.958   3.854   6.802
 1221SOL    HW1 4562   5.868   3.848   6.844
 1221SOL    HW2 4563   6.020   3.789   6.847
 1222SOL     OW 4564   6.980   6.938   0.565
 1222SOL    HW1 4565   0.052   6.915   0.552
 1222SOL    HW2 4566   6.971   0.013   0.578
 1223SOL     OW 4567   5.911   0.770   0.357
 1223SOL    HW1 4568   6.010   0.755   0.368
 1223SOL    HW2 4569   5.892   0.868   0.356
 1224SOL     OW 4570   4.100   6.432   6.573
 1224SOL    HW1 4571   4.095   6.376   6.490
 1224SOL    HW2 4572   4.173   6.500   6.563
 1225SOL     OW 4573   4.252   1.894   0.911
 1225SOL    HW1 4574   4.192   1.900   0.991
 1225SOL    HW2 4575   4.203   1.848   0.836
 1226SOL     OW 4576   5.725   6.761   0.586
 1226SOL    HW1 4577   5.784   6.711   0.524
 1226SOL    HW2 4578   5.637   6.714   0.594
 1227SOL     OW 4579   5.843   5.046   5.688
 1227SOL    HW1 4580   5.768   5.045   5.622
 1227SOL    HW2 4581   5.819   4.987   5.766
 1228SOL     OW 4582   4.040   3.077   1.949
 1228SOL    HW1 4583   4.014   3.129   2.030
 1228SOL    HW2 4584   4.101   3.002   1.976
 1229SOL     OW 4585   1.060   0.152   2.324
 1229SOL    HW1 4586   1.144   0.169   2.376
 1229SOL    HW2 4587   1.080   0.092   2.246
 1230SOL     OW 4588   5.559   5.467   2.887
 1230SOL    HW1 4589   5.530   5.547   2.834
 1230SOL    HW2 4590   5.515   5.385   2.851
 1231SOL     OW 4591   1.775   2.670   6.169
 1231SOL    HW1 4592   1.771   2.643   6.265
 1231SOL    HW2 4593   1.847   2.738   6.157
 1232SOL     OW 4594   4.389   1.333   5.222
 1232SOL    HW1 4595   4.374   1.287   5.310
 1232SOL    HW2 4596   4.314   1.397   5.205
 1233SOL     OW 4597   0.818   5.010   3.399
 1233SOL    HW1 4598   0.902   5.013   3.453
 1233SOL    HW2 4599   0.740   4.995   3.459
 1234SOL     OW 4600   6.975   2.765   6.896
 1234SOL    HW1 4601   6.972   2.841   6.961
 1234SOL    HW2 4602   6.885   2.724   6.888
 1235SOL     OW 4603   6.328   4.989   6.767
 1235SOL    HW1 4604   6.264   5.065   6.753
 1235SOL    HW2 4605   6.400   4.992   6.697
 1236SOL     OW 4606   3.591   1.694   0.700
 1236SOL    HW1 4607   3.665   1.656   0.646
 1236SOL    HW2 4608   3.522   1.624   0.716
 1237SOL     OW 4609   1.725   0.071   4.815
 1237SOL    HW1 4610   1.654   0.124   4.767
 1237SOL    HW2 4611   1.808   0.126   4.823
 1238SOL     OW 4612   0.589   6.565   3.231
 1238SOL    HW1 4613   0.683   6.584   3.201
 1238SOL    HW2 4614   0.531   6.552   3.151
 1239SOL     OW 4615   0.089   5.185   4.070
 1239SOL    HW1 4616   0.098   5.103   4.014
 1239SOL    HW2 4617   0.074   5.264   4.011
 1240SOL     OW 4618   6.144   5.574   2.353
 1240SOL    HW1 4619   6.098   5.597   2.439
 1240SOL    HW2 4620   6.188   5.485   2.362
 1241SOL     OW 4621   0.255   4.608   4.433
 1241SOL    HW1 4622   0.253   4.542   4.358
 1241SOL    HW2 4623   0.177   4.592   4.494
 1242SOL     OW 4624   1.932   4.019   6.722
 1242SOL    HW1 4625   2.032   4.025   6.723
 1242SOL    HW2 4626   1.905   3.923   6.709
 1243SOL     OW 4627   0.109   2.489   5.300
 1243SOL    HW1 4628   0.034   2.463   5.361
 1243SOL    HW2 4629   0.095   2.582   5.267
 1244SOL     OW 4630   5.793   6.520   5.453
 1244SOL    HW1 4631   5.805   6.617   5.474
 1244SOL    HW2 4632   5.882   6.477   5.440
 1245SOL     OW 4633   5.533   5.667   1.227
 1245SOL    HW1 4634   5.599   5.709   1.289
 1245SOL    HW2 4635   5.449   5.646   1.277
 1246SOL     OW 4636   4.783   0.767   1.505
 1246SOL    HW1 4637   4.851   0.707   1.546
 1246SOL    HW2 4638   4.818   0.860   1.502
 1247SOL     OW 4639   6.454   6.568   4.447
 1247SOL    HW1 4640   6.480   6.653   4.492
 1247SOL    HW2 4641   6.432   6.499   4.515
 1248SOL     OW 4642   0.271   6.316   4.429
 1248SOL    HW1 4643   0.347   6.375   4.456
 1248SOL    HW2 4644   0.251   6.328   4.332
 1249SOL     OW 4645   0.139   4.304   1.336
 1249SOL    HW1 4646   0.236   4.325   1.325
 1249SOL    HW2 4647   0.124   4.207   1.319
 1250SOL     OW 4648   5.919   3.655   5.174
 1250SOL    HW1 4649   5.984   3.598   5.224
 1250SOL    HW2 4650   5.965   3.737   5.140
 1251SOL     OW 4651   2.086   1.613   3.014
 1251SOL    HW1 4652   2.013   1.605   3.083
 1251SOL    HW2 4653   2.173   1.632   3.060
 1252SOL     OW 4654   3.376   5.433   6.639
 1252SOL    HW1 4655   3.405   5.439   6.735
 1252SOL    HW2 4656   3.445   5.476   6.581
 1253SOL     OW 4657   3.119   0.613   0.976
 1253SOL    HW1 4658   3.137   0.563   1.060
 1253SOL    HW2 4659   3.020   0.616   0.960
 1254SOL     OW 4660   6.030   1.529   3.255
 1254SOL    HW1 4661   5.949   1.584   3.234
 1254SOL    HW2 4662   6.003   1.433   3.263
 1255SOL     OW 4663   5.634   2.609   5.228
 1255SOL    HW1 4664   5.687   2.602   5.312
 1255SOL    HW2 4665   5.599   2.702   5.218
 1256SOL     OW 4666   6.699   5.858   3.307
 1256SOL    HW1 4667   6.732   5.770   3.339
 1256SOL    HW2 4668   6.760   5.930   3.340
 1257SOL     OW 4669   0.141   4.375   4.303
 1257SOL    HW1 4670   0.201   4.321   4.244
 1257SOL    HW2 4671   0.123   4.324   4.387
 1258SOL     OW 4672   2.162   6.060   3.472
 1258SOL    HW1 4673   2.149   6.044   3.374
 1258SOL    HW2 4674   2.208   5.981   3.513
 1259SOL     OW 4675   4.266   0.014   4.856
 1259SOL    HW1 4676   4.317   6.975   4.798
 1259SOL    HW2 4677   4.241   6.993   4.942
 1260SOL     OW 4678   3.009   0.528   2.152
 1260SOL    HW1 4679   3.052   0.441   2.127
 1260SOL    HW2 4680   3.025   0.596   2.081
 1261SOL     OW 4681   0.117   3.650   0.191
 1261SOL    HW1 4682   0.074   3.618   0.107
 1261SOL    HW2 4683   0.208   3.684   0.171
 1262SOL     OW 4684   4.123   4.766   1.252
 1262SOL    HW1 4685   4.201   4.726   1.299
 1262SOL    HW2 4686   4.156   4.815   1.170
 1263SOL     OW 4687   6.527   2.306   1.205
 1263SOL    HW1 4688   6.505   2.291   1.108
 1263SOL    HW2 4689   6.612   2.360   1.211
 1264SOL     OW 4690   0.346   4.180   3.272
 1264SOL    HW1 4691   0.320   4.084   3.277
 1264SOL    HW2 4692   0.395   4.197   3.186
 1265SOL     OW 4693   0.152   4.253   3.989
 1265SOL    HW1 4694   0.102   4.178   3.944
 1265SOL    HW2 4695   0.187   4.222   4.077
 1266SOL     OW 4696   3.010   1.659   4.697
 1266SOL    HW1 4697   3.015   1.637   4.794
 1266SOL    HW2 4698   2.952   1.740   4.684
 1267SOL     OW 4699   6.370   5.882   2.367
 1267SOL    HW1 4700   6.385   5.829   2.284
 1267SOL    HW2 4701   6.311   5.830   2.430
 1268SOL     OW 4702   5.780   2.251   0.048
 1268SOL    HW1 4703   5.701   2.196   0.075
 1268SOL    HW2 4704   5.794   2.324   0.114
 1269SOL     OW 4705   6.656   6.989   5.510
 1269SOL    HW1 4706   6.659   6.922   5.435
 1269SOL    HW2 4707   6.575   0.023   5.499
 1270SOL     OW 4708   1.979   3.958   4.653
 1270SOL    HW1 4709   1.994   3.980   4.750
 1270SOL    HW2 4710   2.001   4.038   4.597
 1271SOL     OW 4711   3.663   2.125   2.963
 1271SOL    HW1 4712   3.598   2.081   2.901
 1271SOL    HW2 4713   3.747   2.146   2.914
 1272SOL     OW 4714   0.351   6.165   0.932
 1272SOL    HW1 4715   0.267   6.220   0.936
 1272SOL    HW2 4716   0.421   6.208   0.990
 1273SOL     OW 4717   2.282   3.822   0.167
 1273SOL    HW1 4718   2.239   3.821   0.076
 1273SOL    HW2 4719   2.381   3.813   0.158
 1274SOL     OW 4720   0.300   3.158   1.884
 1274SOL    HW1 4721   0.318   3.181   1.980
 1274SOL    HW2 4722   0.237   3.225   1.845
 1275SOL     OW 4723   4.726   0.544   3.902
 1275SOL    HW1 4724   4.649   0.488   3.871
 1275SOL    HW2 4725   4.717   0.637   3.865
 1276SOL     OW 4726   6.540   0.357   3.748
 1276SOL    HW1 4727   6.487   0.399   3.675
 1276SOL    HW2 4728   6.638   0.367   3.727
 1277SOL     OW 4729   0.460   1.034   4.281
 1277SOL    HW1 4730   0.423   0.985   4.360
 1277SOL    HW2 4731   0.555   1.061   4.300
 1278SOL     OW 4732   2.193   2.176   5.167
 1278SOL    HW1 4733   2.240   2.126   5.094
 1278SOL    HW2 4734   2.133   2.245   5.127
 1279SOL     OW 4735   1.873   0.049   0.657
 1279SOL    HW1 4736   1.925   0.081   0.736
 1279SOL    HW2 4737   1.850   6.976   0.668
 1280SOL     OW 4738   2.785   6.666   3.481
 1280SOL    HW1 4739   2.835   6.602   3.422
 1280SOL    HW2 4740   2.747   6.739   3.426
 1281SOL     OW 4741   1.065   5.329   2.784
 1281SOL    HW1 4742   1.076   5.416   2.830
 1281SOL    HW2 4743   0.970   5.297   2.794
 1282SOL     OW 4744   0.359   0.770   0.725
 1282SOL    HW1 4745   0.454   0.742   0.737
 1282SOL    HW2 4746   0.352   0.832   0.646
 1283SOL     OW 4747   5.228   3.602   5.468
 1283SOL    HW1 4748   5.166   3.606   5.547
 1283SOL    HW2 4749   5.311   3.554   5.494
 1284SOL     OW 4750   3.204   2.810   1.893
 1284SOL    HW1 4751   3.268   2.801   1.969
 1284SOL    HW2 4752   3.191   2.721   1.849
 1285SOL     OW 4753   5.623   3.778   6.164
 1285SOL    HW1 4754   5.597   3.733   6.249
 1285SOL    HW2 4755   5.675   3.862   6.185
 1286SOL     OW 4756   4.360   4.741   2.389
 1286SOL    HW1 4757   4.443   4.713   2.341
 1286SOL    HW2 4758   4.280   4.716   2.335
 1287SOL     OW 4759   5.770   4.414   6.627
 1287SOL    HW1 4760   5.724   4.350   6.689
 1287SOL    HW2 4761   5.775   4.504   6.669
 1288SOL     OW 4762   6.878   2.889   0.768
 1288SOL    HW1 4763   6.975   2.874   0.785
 1288SOL    HW2 4764   6.831   2.906   0.855
 1289SOL     OW 4765   0.466   5.781   1.525
 1289SOL    HW1 4766   0.563   5.786   1.501
 1289SOL    HW2 4767   0.435   5.686   1.522
 1290SOL     OW 4768   0.463   0.949   0.247
 1290SOL    HW1 4769   0.397   1.013   0.208
 1290SOL    HW2 4770   0.414   0.875   0.294
 1291SOL     OW 4771   1.708   4.858   6.309
 1291SOL    HW1 4772   1.683   4.765   6.282
 1291SOL    HW2 4773   1.807   4.864   6.325
 1292SOL     OW 4774   6.876   4.749   2.139
 1292SOL    HW1 4775   6.953   4.685   2.141
 1292SOL    HW2 4776   6.893   4.824   2.203
 1293SOL     OW 4777   3.346   1.310   6.007
 1293SOL    HW1 4778   3.396   1.229   5.978
 1293SOL    HW2 4779   3.279   1.335   5.936
 1294SOL     OW 4780   0.476   2.826   0.903
 1294SOL    HW1 4781   0.533   2.811   0.822
 1294SOL    HW2 4782   0.402   2.759   0.905
 1295SOL     OW 4783   6.025   3.691   2.460
 1295SOL    HW1 4784   5.939   3.642   2.474
 1295SOL    HW2 4785   6.091   3.662   2.529
 1296SOL     OW 4786   4.138   1.585   5.950
 1296SOL    HW1 4787   4.073   1.511   5.930
 1296SOL    HW2 4788   4.114   1.665   5.894
 1297SOL     OW 4789   5.447   0.933   6.312
 1297SOL    HW1 4790   5.397   1.019   6.303
 1297SOL    HW2 4791   5.545   0.950   6.297
 1298SOL     OW 4792   6.269   3.113   3.086
 1298SOL    HW1 4793   6.215   3.192   3.117
 1298SOL    HW2 4794   6.340   3.093   3.153
 1299SOL     OW 4795   1.759   4.100   3.113
 1299SOL    HW1 4796   1.704   4.096   3.196
 1299SOL    HW2 4797   1.766   4.195   3.082
 1300SOL     OW 4798   3.526   3.548   1.840
 1300SOL    HW1 4799   3.570   3.637   1.839
 1300SOL    HW2 4800   3.538   3.503   1.752
 1301SOL     OW 4801   1.240   5.943   2.685
 1301SOL    HW1 4802   1.273   5.907   2.598
 1301SOL    HW2 4803   1.142   5.925   2.693
 1302SOL     OW 4804   3.040   6.771   4.715
 1302SOL    HW1 4805   3.001   6.855   4.677
 1302SOL    HW2 4806   3.014   6.694   4.657
 1303SOL     OW 4807   4.077   1.136   0.860
 1303SOL    HW1 4808   4.090   1.150   0.762
 1303SOL    HW2 4809   4.081   1.039   0.881
 1304SOL     OW 4810   1.984   1.543   6.266
 1304SOL    HW1 4811   2.067   1.600   6.265
 1304SOL    HW2 4812   1.941   1.546   6.175
 1305SOL     OW 4813   6.205   5.880   6.814
 1305SOL    HW1 4814   6.293   5.914   6.849
 1305SOL    HW2 4815   6.165   5.949   6.753
 1306SOL     OW 4816   0.874   4.711   5.651
 1306SOL    HW1 4817   0.834   4.721   5.560
 1306SOL    HW2 4818   0.812   4.658   5.709
 1307SOL     OW 4819   1.740   3.156   4.074
 1307SOL    HW1 4820   1.728   3.255   4.074
 1307SOL    HW2 4821   1.741   3.123   4.168
 1308SOL     OW 4822   4.307   6.214   4.691
 1308SOL    HW1 4823   4.398   6.255   4.682
 1308SOL    HW2 4824   4.314   6.115   4.682
 1309SOL     OW 4825   5.474   2.928   5.516
 1309SOL    HW1 4826   5.403   2.998   5.515
 1309SOL    HW2 4827   5.538   2.945   5.440
 1310SOL     OW 4828   5.652   3.814   4.932
 1310SOL    HW1 4829   5.648   3.856   4.841
 1310SOL    HW2 4830   5.635   3.716   4.924
 1311SOL     OW 4831   6.607   6.549   4.211
 1311SOL    HW1 4832   6.529   6.551   4.275
 1311SOL    HW2 4833   6.573   6.554   4.117
 1312SOL     OW 4834   0.550   0.680   6.601
 1312SOL    HW1 4835   0.460   0.714   6.627
 1312SOL    HW2 4836   0.587   0.734   6.526
 1313SOL     OW 4837   2.404   5.707   5.929
 1313SOL    HW1 4838   2.338   5.692   6.003
 1313SOL    HW2 4839   2.445   5.797   5.939
 1314SOL     OW 4840   1.890   1.530   5.409
 1314SOL    HW1 4841   1.877   1.468   5.332
 1314SOL    HW2 4842   1.875   1.481   5.494
 1315SOL     OW 4843   0.789   1.371   0.234
 1315SOL    HW1 4844   0.796   1.271   0.238
 1315SOL    HW2 4845   0.693   1.397   0.219
 1316SOL     OW 4846   2.137   0.076   2.941
 1316SOL    HW1 4847   2.046   0.036   2.929
 1316SOL    HW2 4848   2.178   0.096   2.852
 1317SOL     OW 4849   1.023   4.429   4.882
 1317SOL    HW1 4850   1.023   4.380   4.795
 1317SOL    HW2 4851   1.113   4.470   4.899
 1318SOL     OW 4852   0.386   0.990   0.567
 1318SOL    HW1 4853   0.415   1.086   0.565
 1318SOL    HW2 4854   0.429   0.940   0.493
 1319SOL     OW 4855   6.798   1.856   0.164
 1319SOL    HW1 4856   6.770   1.858   0.068
 1319SOL    HW2 4857   6.825   1.948   0.193
 1320SOL     OW 4858   6.011   4.712   0.272
 1320SOL    HW1 4859   6.104   4.725   0.237
 1320SOL    HW2 4860   5.983   4.793   0.323
 1321SOL     OW 4861   3.852   2.218   0.211
 1321SOL    HW1 4862   3.770   2.161   0.219
 1321SOL    HW2 4863   3.861   2.275   0.292
 1322SOL     OW 4864   5.351   1.347   3.614
 1322SOL    HW1 4865   5.359   1.296   3.700
 1322SOL    HW2 4866   5.290   1.425   3.627
 1323SOL     OW 4867   5.171   2.171   5.255
 1323SOL    HW1 4868   5.177   2.094   5.191
 1323SOL    HW2 4869   5.250   2.168   5.317
 1324SOL     OW 4870   1.372   1.967   1.673
 1324SOL    HW1 4871   1.464   1.928   1.671
 1324SOL    HW2 4872   1.305   1.897   1.647
 1325SOL     OW 4873   2.780   6.532   2.685
 1325SOL    HW1 4874   2.758   6.629   2.691
 1325SOL    HW2 4875   2.710   6.479   2.734
 1326SOL     OW 4876   4.673   2.686   4.798
 1326SOL    HW1 4877   4.664   2.659   4.702
 1326SOL    HW2 4878   4.615   2.628   4.855
 1327SOL     OW 4879   2.942   5.510   2.701
 1327SOL    HW1 4880   2.968   5.495   2.797
 1327SOL    HW2 4881   2.913   5.424   2.660
 1328SOL     OW 4882   1.038   2.776   0.669
 1328SOL    HW1 4883   1.042   2.713   0.591
 1328SOL    HW2 4884   0.997   2.729   0.747
 1329SOL     OW 4885   6.700   1.875   0.739
 1329SOL    HW1 4886   6.761   1.928   0.681
 1329SOL    HW2 4887   6.606   1.882   0.704
 1330SOL     OW 4888   6.354   6.893   1.101
 1330SOL    HW1 4889   6.406   6.858   1.179
 1330SOL    HW2 4890   6.393   6.980   1.071
 1331SOL     OW 4891   4.779   1.919   3.352
 1331SOL    HW1 4892   4.786   2.019   3.350
 1331SOL    HW2 4893   4.690   1.892   3.316
 1332SOL     OW 4894   3.651   0.359   0.733
 1332SOL    HW1 4895   3.714   0.297   0.781
 1332SOL    HW2 4896   3.672   0.357   0.635
 1333SOL     OW 4897   3.717   4.364   5.560
 1333SOL    HW1 4898   3.708   4.425   5.482
 1333SOL    HW2 4899   3.794   4.393   5.617
 1334SOL     OW 4900   0.597   3.371   4.512
 1334SOL    HW1 4901   0.564   3.286   4.470
 1334SOL    HW2 4902   0.695   3.381   4.494
 1335SOL     OW 4903   2.423   6.202   2.513
 1335SOL    HW1 4904   2.381   6.290   2.534
 1335SOL    HW2 4905   2.473   6.168   2.592
 1336SOL     OW 4906   1.681   1.027   5.919
 1336SOL    HW1 4907   1.679   0.961   5.844
 1336SOL    HW2 4908   1.699   0.979   6.005
 1337SOL     OW 4909   0.869   2.497   5.004
 1337SOL    HW1 4910   0.829   2.580   5.042
 1337SOL    HW2 4911   0.929   2.520   4.928
 1338SOL     OW 4912   4.414   4.017   6.098
 1338SOL    HW1 4913   4.465   3.992   6.180
 1338SOL    HW2 4914   4.477   4.034   6.023
 1339SOL     OW 4915   6.891   5.777   7.016
 1339SOL    HW1 4916   6.914   5.707   6.948
 1339SOL    HW2 4917   6.921   5.747   0.082
 1340SOL     OW 4918   0.987   1.447   1.765
 1340SOL    HW1 4919   0.958   1.416   1.674
 1340SOL    HW2 4920   0.917   1.423   1.832
 1341SOL     OW 4921   4.353   0.710   5.545
 1341SOL    HW1 4922   4.429   0.766   5.577
 1341SOL    HW2 4923   4.377   0.668   5.458
 1342SOL     OW 4924   1.211   6.007   6.150
 1342SOL    HW1 4925   1.212   5.989   6.051
 1342SOL    HW2 4926   1.124   6.049   6.175
 1343SOL     OW 4927   3.755   6.600   2.410
 1343SOL    HW1 4928   3.722   6.660   2.482
 1343SOL    HW2 4929   3.818   6.650   2.350
 1344SOL     OW 4930   0.104   3.049   3.334
 1344SOL    HW1 4931   0.011   3.016   3.316
 1344SOL    HW2 4932   0.101   3.147   3.353
 1345SOL     OW 4933   0.477   1.278   3.637
 1345SOL    HW1 4934   0.460   1.341   3.561
 1345SOL    HW2 4935   0.573   1.248   3.634
 1346SOL     OW 4936   1.474   0.052   2.444
 1346SOL    HW1 4937   1.553   0.081   2.390
 1346SOL    HW2 4938   1.396   0.112   2.424
 1347SOL     OW 4939   6.387   6.348   3.995
 1347SOL    HW1 4940   6.288   6.340   3.993
 1347SOL    HW2 4941   6.427   6.285   3.928
 1348SOL     OW 4942   5.982   4.937   3.291
 1348SOL    HW1 4943   5.933   4.904   3.372
 1348SOL    HW2 4944   5.971   5.036   3.284
 1349SOL     OW 4945   4.994   2.626   6.434
 1349SOL    HW1 4946   4.950   2.560   6.495
 1349SOL    HW2 4947   4.924   2.677   6.383
 1350SOL     OW 4948   4.043   5.223   6.807
 1350SOL    HW1 4949   4.067   5.208   6.711
 1350SOL    HW2 4950   4.118   5.271   6.852
 1351SOL     OW 4951   0.752   1.057   3.176
 1351SOL    HW1 4952   0.728   0.978   3.233
 1351SOL    HW2 4953   0.670   1.111   3.159
 1352SOL     OW 4954   0.307   0.062   3.643
 1352SOL    HW1 4955   0.344   0.073   3.551
 1352SOL    HW2 4956   0.361   0.118   3.707
 1353SOL     OW 4957   6.992   4.422   6.265
 1353SOL    HW1 4958   0.007   4.401   6.354
 1353SOL    HW2 4959   0.034   4.398   6.193
 1354SOL     OW 4960   6.812   2.045   0.953
 1354SOL    HW1 4961   6.763   1.973   0.904
 1354SOL    HW2 4962   6.808   2.130   0.901
 1355SOL     OW 4963   5.042   3.746   6.651
 1355SOL    HW1 4964   5.075   3.652   6.639
 1355SOL    HW2 4965   5.061   3.798   6.568
 1356SOL     OW 4966   3.648   3.871   3.871
 1356SOL    HW1 4967   3.738   3.889   3.831
 1356SOL    HW2 4968   3.624   3.944   3.934
 1357SOL     OW 4969   2.445   3.381   5.993
 1357SOL    HW1 4970   2.434   3.407   6.089
 1357SOL    HW2 4971   2.539   3.397   5.964
 1358SOL     OW 4972   2.874   1.986   5.821
 1358SOL    HW1 4973   2.911   1.984   5.728
 1358SOL    HW2 4974   2.902   1.903   5.869
 1359SOL     OW 4975   6.463   3.856   1.543
 1359SOL    HW1 4976   6.518   3.933   1.576
 1359SOL    HW2 4977   6.520   3.795   1.488
 1360SOL     OW 4978   4.059   3.771   2.529
 1360SOL    HW1 4979   4.044   3.870   2.531
 1360SOL    HW2 4980   4.072   3.742   2.434
 1361SOL     OW 4981   0.159   6.870   6.207
 1361SOL    HW1 4982   0.092   6.939   6.235
 1361SOL    HW2 4983   0.178   6.809   6.283
 1362SOL     OW 4984   2.914   3.220   5.616
 1362SOL    HW1 4985   2.956   3.286   5.678
 1362SOL    HW2 4986   2.947   3.128   5.637
 1363SOL     OW 4987   6.428   5.969   4.036
 1363SOL    HW1 4988   6.520   5.967   3.997
 1363SOL    HW2 4989   6.417   5.893   4.100
 1364SOL     OW 4990   6.910   2.458   0.123
 1364SOL    HW1 4991   6.823   2.476   0.078
 1364SOL    HW2 4992   6.896   2.398   0.202
 1365SOL     OW 4993   0.812   3.907   5.409
 1365SOL    HW1 4994   0.908   3.908   5.382
 1365SOL    HW2 4995   0.805   3.909   5.508
 1366SOL     OW 4996   0.088   3.302   1.112
 1366SOL    HW1 4997   0.142   3.359   1.173
 1366SOL    HW2 4998   0.146   3.265   1.040
 1367SOL     OW 4999   1.298   5.008   3.550
 1367SOL    HW1 5000   1.227   4.956   3.504
 1367SOL    HW2 5001   1.256   5.074   3.612
 1368SOL     OW 5002   6.615   0.651   4.148
 1368SOL    HW1 5003   6.695   0.599   4.178
 1368SOL    HW2 5004   6.590   0.622   4.055
 1369SOL     OW 5005   2.471   6.047   1.718
 1369SOL    HW1 5006   2.388   6.024   1.667
 1369SOL    HW2 5007   2.536   6.092   1.658
 1370SOL     OW 5008   0.173   1.513   4.064
 1370SOL    HW1 5009   0.216   1.562   3.988
 1370SOL    HW2 5010   0.244   1.469   4.119
 1371SOL     OW 5011   4.718   1.267   4.766
 1371SOL    HW1 5012   4.656   1.339   4.796
 1371SOL    HW2 5013   4.759   1.223   4.846
 1372SOL     OW 5014   6.462   2.274   0.906
 1372SOL    HW1 5015   6.408   2.304   0.827
 1372SOL    HW2 5016   6.467   2.174   0.907
 1373SOL     OW 5017   5.742   1.915   0.716
 1373SOL    HW1 5018   5.781   1.866   0.794
 1373SOL    HW2 5019   5.744   1.855   0.635
 1374SOL     OW 5020   5.660   4.478   6.981
 1374SOL    HW1 5021   5.625   4.387   6.959
 1374SOL    HW2 5022   5.652   4.538   6.902
 1375SOL     OW 5023   6.701   6.976   6.284
 1375SOL    HW1 5024   6.654   6.963   6.371
 1375SOL    HW2 5025   6.707   6.889   6.235
 1376SOL     OW 5026   3.669   4.806   6.281
 1376SOL    HW1 5027   3.575   4.777   6.262
 1376SOL    HW2 5028   3.717   4.734   6.330
 1377SOL     OW 5029   1.053   2.485   3.947
 1377SOL    HW1 5030   1.129   2.450   4.001
 1377SOL    HW2 5031   0.967   2.471   3.996
 1378SOL     OW 5032   4.816   2.407   4.655
 1378SOL    HW1 5033   4.762   2.426   4.573
 1378SOL    HW2 5034   4.849   2.493   4.694
 1379SOL     OW 5035   4.780   5.597   2.887
 1379SOL    HW1 5036   4.722   5.662   2.935
 1379SOL    HW2 5037   4.793   5.515   2.943
 1380SOL     OW 5038   7.013   6.291   2.654
 1380SOL    HW1 5039   6.942   6.225   2.627
 1380SOL    HW2 5040   0.004   6.285   2.752
 1381SOL     OW 5041   5.937   1.639   6.845
 1381SOL    HW1 5042   5.958   1.586   6.763
 1381SOL    HW2 5043   5.864   1.704   6.826
 1382SOL     OW 5044   4.998   2.988   0.871
 1382SOL    HW1 5045   4.956   3.065   0.919
 1382SOL    HW2 5046   5.062   3.022   0.802
 1383SOL     OW 5047   0.571   0.132   1.229
 1383SOL    HW1 5048   0.482   0.087   1.230
 1383SOL    HW2 5049   0.612   0.129   1.320
 1384SOL     OW 5050   4.259   6.952   1.277
 1384SOL    HW1 5051   4.241   0.026   1.284
 1384SOL    HW2 5052   4.200   6.912   1.206
 1385SOL     OW 5053   1.904   4.386   3.587
 1385SOL    HW1 5054   1.962   4.457   3.546
 1385SOL    HW2 5055   1.852   4.341   3.515
 1386SOL     OW 5056   3.338   0.209   3.264
 1386SOL    HW1 5057   3.245   0.181   3.287
 1386SOL    HW2 5058   3.395   0.205   3.346
 1387SOL     OW 5059   3.088   5.645   2.334
 1387SOL    HW1 5060   3.177   5.615   2.302
 1387SOL    HW2 5061   3.017   5.580   2.305
 1388SOL     OW 5062   6.624   6.828   1.897
 1388SOL    HW1 5063   6.574   6.886   1.834
 1388SOL    HW2 5064   6.698   6.880   1.939
 1389SOL     OW 5065   6.171   2.234   3.676
 1389SOL    HW1 5066   6.114   2.292   3.617
 1389SOL    HW2 5067   6.170   2.272   3.769
 1390SOL     OW 5068   0.075   3.898   6.988
 1390SOL    HW1 5069   0.067   3.830   6.916
 1390SOL    HW2 5070   7.008   3.936   7.009
 1391SOL     OW 5071   6.044   0.192   4.602
 1391SOL    HW1 5072   5.970   0.241   4.556
 1391SOL    HW2 5073   6.034   0.201   4.701
 1392SOL     OW 5074   5.456   5.727   6.393
 1392SOL    HW1 5075   5.441   5.821   6.363
 1392SOL    HW2 5076   5.461   5.724   6.493
 1393SOL     OW 5077   6.097   4.902   5.431
 1393SOL    HW1 5078   6.106   4.968   5.355
 1393SOL    HW2 5079   6.001   4.887   5.450
 1394SOL     OW 5080   2.930   5.854   5.082
 1394SOL    HW1 5081   2.900   5.875   5.175
 1394SOL    HW2 5082   2.895   5.925   5.020
 1395SOL     OW 5083   2.497   4.189   5.783
 1395SOL    HW1 5084   2.498   4.090   5.794
 1395SOL    HW2 5085   2.491   4.233   5.872
 1396SOL     OW 5086   1.713   1.232   4.781
 1396SOL    HW1 5087   1.706   1.137   4.809
 1396SOL    HW2 5088   1.628   1.262   4.739
 1397SOL     OW 5089   0.480   0.222   3.816
 1397SOL    HW1 5090   0.560   0.163   3.826
 1397SOL    HW2 5091   0.495   0.286   3.740
 1398SOL     OW 5092   2.940   0.620   6.038
 1398SOL    HW1 5093   2.984   0.697   5.991
 1398SOL    HW2 5094   2.897   0.653   6.122
 1399SOL     OW 5095   3.324   5.922   0.531
 1399SOL    HW1 5096   3.298   6.008   0.487
 1399SOL    HW2 5097   3.263   5.849   0.500
 1400SOL     OW 5098   6.993   1.047   2.928
 1400SOL    HW1 5099   7.012   1.132   2.878
 1400SOL    HW2 5100   0.054   1.011   2.965
 1401SOL     OW 5101   6.777   2.344   4.728
 1401SOL    HW1 5102   6.687   2.307   4.752
 1401SOL    HW2 5103   6.766   2.436   4.690
 1402SOL     OW 5104   0.561   3.707   0.106
 1402SOL    HW1 5105   0.579   3.609   0.114
 1402SOL    HW2 5106   0.477   3.722   0.053
 1403SOL     OW 5107   2.286   2.309   1.620
 1403SOL    HW1 5108   2.215   2.238   1.615
 1403SOL    HW2 5109   2.376   2.267   1.609
 1404SOL     OW 5110   5.583   6.865   0.238
 1404SOL    HW1 5111   5.502   6.895   0.188
 1404SOL    HW2 5112   5.645   6.943   0.252
 1405SOL     OW 5113   2.038   3.681   0.701
 1405SOL    HW1 5114   2.038   3.582   0.716
 1405SOL    HW2 5115   2.110   3.705   0.635
 1406SOL     OW 5116   1.277   5.150   1.259
 1406SOL    HW1 5117   1.343   5.209   1.212
 1406SOL    HW2 5118   1.268   5.179   1.354
 1407SOL     OW 5119   0.375   1.971   2.421
 1407SOL    HW1 5120   0.444   2.030   2.380
 1407SOL    HW2 5121   0.411   1.878   2.431
 1408SOL     OW 5122   5.543   1.402   5.687
 1408SOL    HW1 5123   5.521   1.307   5.665
 1408SOL    HW2 5124   5.642   1.417   5.678
 1409SOL     OW 5125   0.646   1.073   5.031
 1409SOL    HW1 5126   0.708   1.077   5.110
 1409SOL    HW2 5127   0.634   1.164   4.993
 1410SOL     OW 5128   1.904   2.935   6.201
 1410SOL    HW1 5129   1.995   2.969   6.177
 1410SOL    HW2 5130   1.834   2.999   6.168
 1411SOL     OW 5131   2.826   6.698   1.977
 1411SOL    HW1 5132   2.826   6.716   2.075
 1411SOL    HW2 5133   2.835   6.784   1.927
 1412SOL     OW 5134   0.073   2.285   1.197
 1412SOL    HW1 5135   0.118   2.232   1.126
 1412SOL    HW2 5136   7.020   2.233   1.235
 1413SOL     OW 5137   1.594   1.549   5.222
 1413SOL    HW1 5138   1.514   1.529   5.279
 1413SOL    HW2 5139   1.639   1.632   5.255
 1414SOL     OW 5140   2.451   1.227   1.718
 1414SOL    HW1 5141   2.465   1.167   1.639
 1414SOL    HW2 5142   2.539   1.263   1.748
 1415SOL     OW 5143   2.322   0.815   4.517
 1415SOL    HW1 5144   2.263   0.807   4.597
 1415SOL    HW2 5145   2.369   0.728   4.501
 1416SOL     OW 5146   4.668   4.592   4.131
 1416SOL    HW1 5147   4.751   4.628   4.089
 1416SOL    HW2 5148   4.633   4.658   4.197
 1417SOL     OW 5149   3.095   1.852   0.304
 1417SOL    HW1 5150   3.096   1.862   0.404
 1417SOL    HW2 5151   3.187   1.829   0.272
 1418SOL     OW 5152   2.912   3.574   3.930
 1418SOL    HW1 5153   2.896   3.507   3.858
 1418SOL    HW2 5154   2.970   3.647   3.896
 1419SOL     OW 5155   2.459   6.326   5.135
 1419SOL    HW1 5156   2.448   6.233   5.172
 1419SOL    HW2 5157   2.370   6.371   5.131
 1420SOL     OW 5158   2.493   6.972   1.500
 1420SOL    HW1 5159   2.456   6.880   1.493
 1420SOL    HW2 5160   2.570   6.982   1.436
 1421SOL     OW 5161   1.702   3.527   3.668
 1421SOL    HW1 5162   1.718   3.437   3.627
 1421SOL    HW2 5163   1.623   3.570   3.624
 1422SOL     OW 5164   1.345   3.850   1.329
 1422SOL    HW1 5165   1.287   3.808   1.399
 1422SOL    HW2 5166   1.351   3.949   1.345
 1423SOL     OW 5167   5.359   6.226   3.232
 1423SOL    HW1 5168   5.407   6.178   3.306
 1423SOL    HW2 5169   5.309   6.304   3.270
 1424SOL     OW 5170   6.260   4.999   5.615
 1424SOL    HW1 5171   6.328   4.932   5.646
 1424SOL    HW2 5172   6.184   4.952   5.570
 1425SOL     OW 5173   0.937   6.306   5.132
 1425SOL    HW1 5174   1.003   6.262   5.071
 1425SOL    HW2 5175   0.858   6.337   5.079
 1426SOL     OW 5176   2.116   2.488   6.179
 1426SOL    HW1 5177   2.156   2.580   6.175
 1426SOL    HW2 5178   2.037   2.484   6.117
 1427SOL     OW 5179   0.242   6.522   3.603
 1427SOL    HW1 5180   0.235   6.534   3.702
 1427SOL    HW2 5181   0.301   6.593   3.565
 1428SOL     OW 5182   5.873   2.835   0.752
 1428SOL    HW1 5183   5.956   2.889   0.740
 1428SOL    HW2 5184   5.836   2.849   0.844
 1429SOL     OW 5185   5.190   2.321   0.471
 1429SOL    HW1 5186   5.204   2.390   0.542
 1429SOL    HW2 5187   5.175   2.366   0.383
 1430SOL     OW 5188   1.616   4.371   4.040
 1430SOL    HW1 5189   1.667   4.400   3.959
 1430SOL    HW2 5190   1.634   4.435   4.115
 1431SOL     OW 5191   2.306   1.784   1.066
 1431SOL    HW1 5192   2.399   1.770   1.101
 1431SOL    HW2 5193   2.310   1.840   0.984
 1432SOL     OW 5194   3.177   1.462   2.699
 1432SOL    HW1 5195   3.148   1.445   2.793
 1432SOL    HW2 5196   3.111   1.421   2.635
 1433SOL     OW 5197   3.922   1.152   5.529
 1433SOL    HW1 5198   3.980   1.146   5.448
 1433SOL    HW2 5199   3.826   1.153   5.501
 1434SOL     OW 5200   0.031   0.685   5.732
 1434SOL    HW1 5201   0.088   0.698   5.813
 1434SOL    HW2 5202   7.006   0.598   5.740
 1435SOL     OW 5203   6.339   6.994   3.133
 1435SOL    HW1 5204   6.370   0.021   3.053
 1435SOL    HW2 5205   6.284   0.030   3.191
 1436SOL     OW 5206   5.726   3.844   6.946
 1436SOL    HW1 5207   5.778   3.773   6.995
 1436SOL    HW2 5208   5.633   3.812   6.930
 1437SOL     OW 5209   2.590   2.306   3.435
 1437SOL    HW1 5210   2.591   2.366   3.515
 1437SOL    HW2 5211   2.497   2.271   3.421
 1438SOL     OW 5212   3.210   5.793   1.546
 1438SOL    HW1 5213   3.290   5.820   1.492
 1438SOL    HW2 5214   3.195   5.860   1.618
 1439SOL     OW 5215   6.887   5.672   1.453
 1439SOL    HW1 5216   6.941   5.588   1.452
 1439SOL    HW2 5217   6.864   5.698   1.359
 1440SOL     OW 5218   3.094   3.640   0.236
 1440SOL    HW1 5219   3.112   3.544   0.261
 1440SOL    HW2 5220   3.062   3.644   0.142
 1441SOL     OW 5221   5.815   0.940   3.566
 1441SOL    HW1 5222   5.740   0.878   3.588
 1441SOL    HW2 5223   5.897   0.913   3.617
 1442SOL     OW 5224   6.898   6.303   6.962
 1442SOL    HW1 5225   6.916   6.290   0.036
 1442SOL    HW2 5226   6.918   6.217   6.913
 1443SOL     OW 5227   0.626   2.948   2.685
 1443SOL    HW1 5228   0.668   2.873   2.736
 1443SOL    HW2 5229   0.556   2.992   2.740
 1444SOL     OW 5230   5.203   5.877   1.191
 1444SOL    HW1 5231   5.218   5.884   1.290
 1444SOL    HW2 5232   5.108   5.854   1.173
 1445SOL     OW 5233   0.968   2.514   2.873
 1445SOL    HW1 5234   0.935   2.567   2.794
 1445SOL    HW2 5235   0.890   2.474   2.921
 1446SOL     OW 5236   5.876   1.510   0.120
 1446SOL    HW1 5237   5.895   1.563   0.203
 1446SOL    HW2 5238   5.873   1.571   0.041
 1447SOL     OW 5239   6.157   5.886   4.248
 1447SOL    HW1 5240   6.207   5.813   4.293
 1447SOL    HW2 5241   6.167   5.876   4.149
 1448SOL     OW 5242   6.358   3.003   5.422
 1448SOL    HW1 5243   6.390   3.090   5.385
 1448SOL    HW2 5244   6.382   2.996   5.519
 1449SOL     OW 5245   1.145   3.466   5.695
 1449SOL    HW1 5246   1.207   3.398   5.657
 1449SOL    HW2 5247   1.174   3.488   5.789
 1450SOL     OW 5248   1.039   2.323   6.818
 1450SOL    HW1 5249   0.973   2.265   6.866
 1450SOL    HW2 5250   1.125   2.273   6.806
 1451SOL     OW 5251   1.073   5.978   2.248
 1451SOL    HW1 5252   1.130   5.924   2.310
 1451SOL    HW2 5253   0.983   5.934   2.239
 1452SOL     OW 5254   4.165   2.346   5.425
 1452SOL    HW1 5255   4.118   2.300   5.500
 1452SOL    HW2 5256   4.100   2.402   5.374
 1453SOL     OW 5257   0.603   4.347   6.183
 1453SOL    HW1 5258   0.683   4.398   6.152
 1453SOL    HW2 5259   0.626   4.250   6.191
 1454SOL     OW 5260   1.040   2.120   1.683
 1454SOL    HW1 5261   1.074   2.174   1.760
 1454SOL    HW2 5262   1.088   2.148   1.600
 1455SOL     OW 5263   1.645   6.886   2.173
 1455SOL    HW1 5264   1.669   6.805   2.226
 1455SOL    HW2 5265   1.689   6.882   2.084
 1456SOL     OW 5266   6.206   0.395   6.365
 1456SOL    HW1 5267   6.215   0.465   6.294
 1456SOL    HW2 5268   6.274   0.324   6.351
 1457SOL     OW 5269   0.847   6.023   0.468
 1457SOL    HW1 5270   0.935   6.005   0.425
 1457SOL    HW2 5271   0.784   6.062   0.401
 1458SOL     OW 5272   6.187   4.963   5.117
 1458SOL    HW1 5273   6.106   4.980   5.061
 1458SOL    HW2 5274   6.211   5.048   5.165
 1459SOL     OW 5275   3.829   6.994   5.510
 1459SOL    HW1 5276   3.762   6.960   5.577
 1459SOL    HW2 5277   3.911   7.023   5.557
 1460SOL     OW 5278   1.031   0.044   5.318
 1460SOL    HW1 5279   1.019   0.133   5.273
 1460SOL    HW2 5280   0.960   0.033   5.388
 1461SOL     OW 5281   6.830   4.035   2.722
 1461SOL    HW1 5282   6.910   4.069   2.772
 1461SOL    HW2 5283   6.828   4.077   2.631
 1462SOL     OW 5284   0.997   1.158   6.589
 1462SOL    HW1 5285   0.953   1.236   6.546
 1462SOL    HW2 5286   1.055   1.111   6.522
 1463SOL     OW 5287   1.056   5.536   5.552
 1463SOL    HW1 5288   0.999   5.472   5.603
 1463SOL    HW2 5289   1.032   5.630   5.578
 1464SOL     OW 5290   0.056   5.855   2.327
 1464SOL    HW1 5291   0.100   5.819   2.244
 1464SOL    HW2 5292   0.042   5.954   2.316
 1465SOL     OW 5293   1.720   1.033   4.142
 1465SOL    HW1 5294   1.673   1.054   4.056
 1465SOL    HW2 5295   1.653   1.022   4.216
 1466SOL     OW 5296   2.910   1.419   2.383
 1466SOL    HW1 5297   2.962   1.504   2.375
 1466SOL    HW2 5298   2.824   1.427   2.332
 1467SOL     OW 5299   1.699   1.335   3.637
 1467SOL    HW1 5300   1.719   1.242   3.608
 1467SOL    HW2 5301   1.609   1.362   3.603
 1468SOL     OW 5302   2.335   5.434   2.337
 1468SOL    HW1 5303   2.396   5.495   2.388
 1468SOL    HW2 5304   2.248   5.426   2.386
 1469SOL     OW 5305   6.583   0.643   3.267
 1469SOL    HW1 5306   6.522   0.680   3.337
 1469SOL    HW2 5307   6.628   0.561   3.302
 1470SOL     OW 5308   0.804   1.311   1.994
 1470SOL    HW1 5309   0.725   1.271   1.947
 1470SOL    HW2 5310   0.781   1.326   2.090
 1471SOL     OW 5311   0.834   0.322   0.575
 1471SOL    HW1 5312   0.891   0.382   0.520
 1471SOL    HW2 5313   0.885   0.239   0.598
 1472SOL     OW 5314   2.679   5.750   6.612
 1472SOL    HW1 5315   2.708   5.832   6.562
 1472SOL    HW2 5316   2.715   5.754   6.705
 1473SOL     OW 5317   3.567   5.360   5.262
 1473SOL    HW1 5318   3.612   5.350   5.174
 1473SOL    HW2 5319   3.612   5.433   5.314
 1474SOL     OW 5320   4.630   4.745   1.363
 1474SOL    HW1 5321   4.583   4.747   1.274
 1474SOL    HW2 5322   4.728   4.763   1.349
 1475SOL     OW 5323   5.613   0.799   0.740
 1475SOL    HW1 5324   5.656   0.876   0.695
 1475SOL    HW2 5325   5.684   0.738   0.777
 1476SOL     OW 5326   2.602   1.206   1.007
 1476SOL    HW1 5327   2.611   1.144   0.929
 1476SOL    HW2 5328   2.690   1.213   1.054
 1477SOL     OW 5329   3.659   6.179   6.426
 1477SOL    HW1 5330   3.569   6.137   6.428
 1477SOL    HW2 5331   3.719   6.135   6.493
 1478SOL     OW 5332   6.262   5.755   5.543
 1478SOL    HW1 5333   6.176   5.803   5.528
 1478SOL    HW2 5334   6.245   5.673   5.598
 1479SOL     OW 5335   2.843   3.523   1.191
 1479SOL    HW1 5336   2.943   3.527   1.192
 1479SOL    HW2 5337   2.812   3.460   1.262
 1480SOL     OW 5338   2.715   0.061   4.240
 1480SOL    HW1 5339   2.728   7.003   4.296
 1480SOL    HW2 5340   2.797   0.078   4.186
 1481SOL     OW 5341   5.982   3.455   6.144
 1481SOL    HW1 5342   6.001   3.416   6.053
 1481SOL    HW2 5343   6.044   3.531   6.162
 1482SOL     OW 5344   4.562   0.483   1.932
 1482SOL    HW1 5345   4.516   0.394   1.937
 1482SOL    HW2 5346   4.500   0.550   1.893
 1483SOL     OW 5347   5.486   2.353   5.418
 1483SOL    HW1 5348   5.457   2.401   5.335
 1483SOL    HW2 5349   5.406   2.333   5.475
 1484SOL     OW 5350   4.761   4.815   3.681
 1484SOL    HW1 5351   4.817   4.898   3.684
 1484SOL    HW2 5352   4.737   4.794   3.586
 1485SOL     OW 5353   5.006   0.402   4.673
 1485SOL    HW1 5354   4.985   0.462   4.596
 1485SOL    HW2 5355   4.978   0.309   4.652
 1486SOL     OW 5356   5.288   0.445   3.149
 1486SOL    HW1 5357   5.247   0.537   3.147
 1486SOL    HW2 5358   5.384   0.452   3.173
 1487SOL     OW 5359   0.195   2.227   6.954
 1487SOL    HW1 5360   0.124   2.269   6.898
 1487SOL    HW2 5361   0.154   2.180   0.008
 1488SOL     OW 5362   4.878   0.072   3.546
 1488SOL    HW1 5363   4.964   0.123   3.549
 1488SOL    HW2 5364   4.865   0.024   3.633
 1489SOL     OW 5365   3.687   5.165   6.570
 1489SOL    HW1 5366   3.721   5.257   6.592
 1489SOL    HW2 5367   3.710   5.103   6.644
 1490SOL     OW 5368   0.052   3.644   1.310
 1490SOL    HW1 5369   6.987   3.685   1.332
 1490SOL    HW2 5370   0.117   3.716   1.285
 1491SOL     OW 5371   6.367   4.215   2.305
 1491SOL    HW1 5372   6.321   4.296   2.341
 1491SOL    HW2 5373   6.410   4.238   2.217
 1492SOL     OW 5374   5.989   0.516   2.234
 1492SOL    HW1 5375   6.069   0.457   2.237
 1492SOL    HW2 5376   6.017   0.611   2.220
 1493SOL     OW 5377   3.815   0.385   6.080
 1493SOL    HW1 5378   3.866   0.313   6.032
 1493SOL    HW2 5379   3.842   0.474   6.043
 1494SOL     OW 5380   5.597   2.686   6.501
 1494SOL    HW1 5381   5.607   2.755   6.430
 1494SOL    HW2 5382   5.574   2.598   6.459
 1495SOL     OW 5383   0.264   4.404   5.260
 1495SOL    HW1 5384   0.233   4.345   5.186
 1495SOL    HW2 5385   0.364   4.405   5.261
 1496SOL     OW 5386   1.520   1.197   0.442
 1496SOL    HW1 5387   1.506   1.266   0.514
 1496SOL    HW2 5388   1.603   1.146   0.461
 1497SOL     OW 5389   5.354   3.045   1.953
 1497SOL    HW1 5390   5.448   3.078   1.950
 1497SOL    HW2 5391   5.352   2.946   1.936
 1498SOL     OW 5392   2.585   4.692   0.444
 1498SOL    HW1 5393   2.573   4.614   0.505
 1498SOL    HW2 5394   2.681   4.720   0.444
 1499SOL     OW 5395   0.523   2.502   5.829
 1499SOL    HW1 5396   0.469   2.572   5.876
 1499SOL    HW2 5397   0.513   2.514   5.730
 1500SOL     OW 5398   0.376   6.747   0.136
 1500SOL    HW1 5399   0.414   6.796   0.057
 1500SOL    HW2 5400   0.302   6.688   0.107
 1501SOL     OW 5401   5.892   2.230   6.307
 1501SOL    HW1 5402   5.938   2.145   6.332
 1501SOL    HW2 5403   5.859   2.275   6.390
 1502SOL     OW 5404   5.063   0.845   0.095
 1502SOL    HW1 5405   4.991   0.777   0.083
 1502SOL    HW2 5406   5.057   0.886   0.186
 1503SOL     OW 5407   1.425   2.938   2.515
 1503SOL    HW1 5408   1.461   2.925   2.607
 1503SOL    HW2 5409   1.325   2.947   2.519
 1504SOL     OW 5410   0.260   0.160   4.190
 1504SOL    HW1 5411   0.249   0.153   4.289
 1504SOL    HW2 5412   0.292   0.072   4.154
 1505SOL     OW 5413   4.543   0.300   5.669
 1505SOL    HW1 5414   4.598   0.344   5.740
 1505SOL    HW2 5415   4.521   0.366   5.598
 1506SOL     OW 5416   0.769   6.718   0.217
 1506SOL    HW1 5417   0.838   6.783   0.247
 1506SOL    HW2 5418   0.683   6.736   0.265
 1507SOL     OW 5419   0.237   2.060   5.935
 1507SOL    HW1 5420   0.293   2.002   5.995
 1507SOL    HW2 5421   0.232   2.019   5.844
 1508SOL     OW 5422   6.054   1.483   1.216
 1508SOL    HW1 5423   6.066   1.427   1.298
 1508SOL    HW2 5424   6.003   1.431   1.147
 1509SOL     OW 5425   4.569   2.141   4.842
 1509SOL    HW1 5426   4.521   2.205   4.783
 1509SOL    HW2 5427   4.660   2.176   4.862
 1510SOL     OW 5428   5.143   6.698   5.076
 1510SOL    HW1 5429   5.240   6.693   5.053
 1510SOL    HW2 5430   5.098   6.613   5.050
 1511SOL     OW 5431   4.146   3.676   4.293
 1511SOL    HW1 5432   4.229   3.731   4.284
 1511SOL    HW2 5433   4.115   3.648   4.202
 1512SOL     OW 5434   6.612   5.637   1.507
 1512SOL    HW1 5435   6.578   5.629   1.600
 1512SOL    HW2 5436   6.711   5.643   1.508
 1513SOL     OW 5437   3.929   0.628   4.268
 1513SOL    HW1 5438   3.908   0.621   4.170
 1513SOL    HW2 5439   3.945   0.724   4.291
 1514SOL     OW 5440   3.850   3.157   5.770
 1514SOL    HW1 5441   3.881   3.250   5.749
 1514SOL    HW2 5442   3.870   3.135   5.865
 1515SOL     OW 5443   5.459   1.761   2.500
 1515SOL    HW1 5444   5.430   1.667   2.519
 1515SOL    HW2 5445   5.389   1.824   2.532
 1516SOL     OW 5446   6.166   5.527   6.089
 1516SOL    HW1 5447   6.156   5.461   6.015
 1516SOL    HW2 5448   6.097   5.509   6.159
 1517SOL     OW 5449   4.575   6.310   2.771
 1517SOL    HW1 5450   4.608   6.251   2.698
 1517SOL    HW2 5451   4.628   6.293   2.854
 1518SOL     OW 5452   6.892   1.975   0.538
 1518SOL    HW1 5453   6.812   1.995   0.481
 1518SOL    HW2 5454   6.956   2.052   0.535
 1519SOL     OW 5455   6.307   4.443   1.502
 1519SOL    HW1 5456   6.352   4.469   1.587
 1519SOL    HW2 5457   6.273   4.526   1.456
 1520SOL     OW 5458   0.252   4.485   1.625
 1520SOL    HW1 5459   0.341   4.445   1.602
 1520SOL    HW2 5460   0.185   4.412   1.639
 1521SOL     OW 5461   2.658   4.823   6.451
 1521SOL    HW1 5462   2.589   4.800   6.520
 1521SOL    HW2 5463   2.744   4.845   6.496
 1522SOL     OW 5464   6.125   5.832   4.993
 1522SOL    HW1 5465   6.072   5.751   4.968
 1522SOL    HW2 5466   6.148   5.829   5.090
 1523SOL     OW 5467   3.741   6.566   6.952
 1523SOL    HW1 5468   3.838   6.557   6.929
 1523SOL    HW2 5469   3.689   6.497   6.901
 1524SOL     OW 5470   2.213   1.644   1.905
 1524SOL    HW1 5471   2.156   1.605   1.977
 1524SOL    HW2 5472   2.256   1.571   1.852
 1525SOL     OW 5473   6.014   3.066   0.418
 1525SOL    HW1 5474   5.927   3.100   0.383
 1525SOL    HW2 5475   6.034   3.111   0.505
 1526SOL     OW 5476   6.758   1.150   6.805
 1526SOL    HW1 5477   6.844   1.128   6.760
 1526SOL    HW2 5478   6.682   1.128   6.743
 1527SOL     OW 5479   3.368   1.324   3.958
 1527SOL    HW1 5480   3.401   1.419   3.960
 1527SOL    HW2 5481   3.394   1.278   4.042
 1528SOL     OW 5482   4.220   4.943   2.898
 1528SOL    HW1 5483   4.243   4.876   2.968
 1528SOL    HW2 5484   4.230   4.902   2.807
 1529SOL     OW 5485   4.319   0.603   6.945
 1529SOL    HW1 5486   4.382   0.637   6.876
 1529SOL    HW2 5487   4.363   0.529   6.996
 1530SOL     OW 5488   3.707   1.787   2.155
 1530SOL    HW1 5489   3.744   1.778   2.062
 1530SOL    HW2 5490   3.664   1.877   2.165
 1531SOL     OW 5491   4.742   0.770   5.378
 1531SOL    HW1 5492   4.694   0.762   5.465
 1531SOL    HW2 5493   4.816   0.702   5.374
 1532SOL     OW 5494   3.647   4.078   6.128
 1532SOL    HW1 5495   3.647   4.161   6.072
 1532SOL    HW2 5496   3.618   4.102   6.221
 1533SOL     OW 5497   6.490   4.884   0.331
 1533SOL    HW1 5498   6.490   4.929   0.420
 1533SOL    HW2 5499   6.397   4.856   0.307
 1534SOL     OW 5500   3.019   6.147   5.969
 1534SOL    HW1 5501   3.002   6.048   5.967
 1534SOL    HW2 5502   2.991   6.184   6.057
 1535SOL     OW 5503   5.315   5.977   4.411
 1535SOL    HW1 5504   5.393   6.031   4.443
 1535SOL    HW2 5505   5.230   6.028   4.427
 1536SOL     OW 5506   4.061   5.265   6.076
 1536SOL    HW1 5507   4.086   5.303   5.987
 1536SOL    HW2 5508   3.997   5.189   6.063
 1537SOL     OW 5509   4.740   5.540   4.249
 1537SOL    HW1 5510   4.685   5.617   4.283
 1537SOL    HW2 5511   4.837   5.559   4.265
 1538SOL     OW 5512   3.310   6.977   6.960
 1538SOL    HW1 5513   3.328   0.019   6.888
 1538SOL    HW2 5514   3.213   6.956   6.962
 1539SOL     OW 5515   4.555   3.445   1.638
 1539SOL    HW1 5516   4.535   3.542   1.647
 1539SOL    HW2 5517   4.618   3.416   1.709
 1540SOL     OW 5518   0.267   6.534   5.356
 1540SOL    HW1 5519   0.251   6.583   5.442
 1540SOL    HW2 5520   0.306   6.444   5.376
 1541SOL     OW 5521   3.019   3.152   4.689
 1541SOL    HW1 5522   2.992   3.118   4.779
 1541SOL    HW2 5523   2.962   3.110   4.619
 1542SOL     OW 5524   6.244   0.972   2.626
 1542SOL    HW1 5525   6.209   0.945   2.536
 1542SOL    HW2 5526   6.284   0.892   2.672
 1543SOL     OW 5527   3.585   4.920   4.904
 1543SOL    HW1 5528   3.574   4.987   4.830
 1543SOL    HW2 5529   3.628   4.837   4.867
 1544SOL     OW 5530   3.040   3.388   3.423
 1544SOL    HW1 5531   3.067   3.404   3.517
 1544SOL    HW2 5532   3.031   3.289   3.407
 1545SOL     OW 5533   4.880   0.192   2.953
 1545SOL    HW1 5534   4.796   0.217   3.002
 1545SOL    HW2 5535   4.859   0.120   2.886
 1546SOL     OW 5536   4.449   6.880   5.568
 1546SOL    HW1 5537   4.466   6.972   5.534
 1546SOL    HW2 5538   4.475   6.874   5.665
 1547SOL     OW 5539   2.130   3.965   1.015
 1547SOL    HW1 5540   2.076   3.886   0.986
 1547SOL    HW2 5541   2.156   4.019   0.934
 1548SOL     OW 5542   5.518   3.991   6.620
 1548SOL    HW1 5543   5.475   4.021   6.535
 1548SOL    HW2 5544   5.617   3.994   6.610
 1549SOL     OW 5545   4.024   1.711   1.668
 1549SOL    HW1 5546   4.007   1.627   1.719
 1549SOL    HW2 5547   3.950   1.726   1.602
 1550SOL     OW 5548   2.623   3.544   0.332
 1550SOL    HW1 5549   2.606   3.622   0.272
 1550SOL    HW2 5550   2.536   3.513   0.371
 1551SOL     OW 5551   1.786   4.005   6.291
 1551SOL    HW1 5552   1.876   3.981   6.254
 1551SOL    HW2 5553   1.782   3.981   6.388
 1552SOL     OW 5554   2.305   5.562   0.566
 1552SOL    HW1 5555   2.345   5.592   0.653
 1552SOL    HW2 5556   2.336   5.470   0.546
 1553SOL     OW 5557   6.117   1.399   6.761
 1553SOL    HW1 5558   6.140   1.379   6.666
 1553SOL    HW2 5559   6.018   1.391   6.773
 1554SOL     OW 5560   3.453   1.884   3.522
 1554SOL    HW1 5561   3.448   1.955   3.452
 1554SOL    HW2 5562   3.539   1.893   3.573
 1555SOL     OW 5563   5.814   3.092   0.196
 1555SOL    HW1 5564   5.749   3.021   0.171
 1555SOL    HW2 5565   5.774   3.149   0.268
 1556SOL     OW 5566   2.894   2.276   0.046
 1556SOL    HW1 5567   2.875   2.182   0.018
 1556SOL    HW2 5568   2.950   2.321   7.001
 1557SOL     OW 5569   1.800   2.344   4.863
 1557SOL    HW1 5570   1.860   2.423   4.850
 1557SOL    HW2 5571   1.717   2.373   4.909
 1558SOL     OW 5572   6.033   0.653   4.625
 1558SOL    HW1 5573   5.983   0.636   4.710
 1558SOL    HW2 5574   5.970   0.689   4.557
 1559SOL     OW 5575   2.270   2.840   6.491
 1559SOL    HW1 5576   2.297   2.837   6.587
 1559SOL    HW2 5577   2.171   2.852   6.484
 1560SOL     OW 5578   0.100   0.994   5.940
 1560SOL    HW1 5579   0.035   0.976   5.866
 1560SOL    HW2 5580   0.111   1.093   5.952
 1561SOL     OW 5581   5.688   6.601   3.776
 1561SOL    HW1 5582   5.740   6.686   3.783
 1561SOL    HW2 5583   5.590   6.623   3.772
 1562SOL     OW 5584   5.098   5.797   2.723
 1562SOL    HW1 5585   5.078   5.790   2.821
 1562SOL    HW2 5586   5.195   5.815   2.710
 1563SOL     OW 5587   2.259   0.234   4.806
 1563SOL    HW1 5588   2.241   0.141   4.837
 1563SOL    HW2 5589   2.353   0.259   4.828
 1564SOL     OW 5590   1.432   2.101   3.414
 1564SOL    HW1 5591   1.517   2.120   3.364
 1564SOL    HW2 5592   1.391   2.187   3.444
 1565SOL     OW 5593   4.672   4.365   3.556
 1565SOL    HW1 5594   4.695   4.413   3.641
 1565SOL    HW2 5595   4.605   4.420   3.505
 1566SOL     OW 5596   6.064   4.416   2.863
 1566SOL    HW1 5597   6.110   4.327   2.868
 1566SOL    HW2 5598   5.966   4.403   2.878
 1567SOL     OW 5599   6.316   6.284   0.816
 1567SOL    HW1 5600   6.394   6.247   0.866
 1567SOL    HW2 5601   6.320   6.384   0.816
 1568SOL     OW 5602   1.675   6.851   6.692
 1568SOL    HW1 5603   1.705   6.882   6.602
 1568SOL    HW2 5604   1.579   6.874   6.704
 1569SOL     OW 5605   4.642   6.234   3.545
 1569SOL    HW1 5606   4.656   6.251   3.447
 1569SOL    HW2 5607   4.613   6.139   3.558
 1570SOL     OW 5608   1.511   0.383   0.990
 1570SOL    HW1 5609   1.486   0.437   0.910
 1570SOL    HW2 5610   1.453   0.302   0.995
 1571SOL     OW 5611   5.587   2.427   0.968
 1571SOL    HW1 5612   5.533   2.510   0.981
 1571SOL    HW2 5613   5.552   2.355   1.028
 1572SOL     OW 5614   6.976   6.676   1.656
 1572SOL    HW1 5615   0.033   6.656   1.602
 1572SOL    HW2 5616   6.943   6.591   1.699
 1573SOL     OW 5617   5.299   2.456   2.639
 1573SOL    HW1 5618   5.285   2.370   2.689
 1573SOL    HW2 5619   5.212   2.485   2.598
 1574SOL     OW 5620   6.132   0.898   1.846
 1574SOL    HW1 5621   6.069   0.916   1.921
 1574SOL    HW2 5622   6.210   0.960   1.852
 1575SOL     OW 5623   3.102   0.935   0.511
 1575SOL    HW1 5624   3.038   0.955   0.436
 1575SOL    HW2 5625   3.193   0.967   0.487
 1576SOL     OW 5626   0.256   6.394   3.872
 1576SOL    HW1 5627   0.208   6.347   3.797
 1576SOL    HW2 5628   0.323   6.331   3.913
 1577SOL     OW 5629   3.540   1.852   4.477
 1577SOL    HW1 5630   3.558   1.824   4.571
 1577SOL    HW2 5631   3.536   1.952   4.472
 1578SOL     OW 5632   6.208   3.723   5.476
 1578SOL    HW1 5633   6.256   3.800   5.435
 1578SOL    HW2 5634   6.254   3.695   5.560
 1579SOL     OW 5635   6.994   1.818   2.978
 1579SOL    HW1 5636   0.059   1.851   2.945
 1579SOL    HW2 5637   6.921   1.861   2.926
 1580SOL     OW 5638   2.669   3.466   5.342
 1580SOL    HW1 5639   2.594   3.510   5.392
 1580SOL    HW2 5640   2.708   3.532   5.276
 1581SOL     OW 5641   0.002   4.733   5.001
 1581SOL    HW1 5642   6.926   4.731   4.994
 1581SOL    HW2 5643   0.030   4.687   5.085
 1582SOL     OW 5644   1.374   6.670   4.308
 1582SOL    HW1 5645   1.406   6.708   4.395
 1582SOL    HW2 5646   1.299   6.606   4.325
 1583SOL     OW 5647   0.969   3.394   3.779
 1583SOL    HW1 5648   0.973   3.481   3.828
 1583SOL    HW2 5649   0.994   3.320   3.841
 1584SOL     OW 5650   1.408   6.690   4.898
 1584SOL    HW1 5651   1.309   6.691   4.917
 1584SOL    HW2 5652   1.455   6.640   4.971
 1585SOL     OW 5653   5.480   1.636   3.154
 1585SOL    HW1 5654   5.403   1.573   3.160
 1585SOL    HW2 5655   5.447   1.729   3.146
 1586SOL     OW 5656   2.988   4.040   0.881
 1586SOL    HW1 5657   2.919   4.073   0.945
 1586SOL    HW2 5658   2.979   3.942   0.869
 1587SOL     OW 5659   2.901   5.397   0.146
 1587SOL    HW1 5660   2.971   5.469   0.140
 1587SOL    HW2 5661   2.918   5.341   0.227
 1588SOL     OW 5662   4.925   1.385   3.123
 1588SOL    HW1 5663   4.945   1.308   3.063
 1588SOL    HW2 5664   4.908   1.352   3.216
 1589SOL     OW 5665   6.301   4.006   2.997
 1589SOL    HW1 5666   6.277   4.023   3.092
 1589SOL    HW2 5667   6.328   3.910   2.986
 1590SOL     OW 5668   2.614   6.864   5.891
 1590SOL    HW1 5669   2.585   6.770   5.905
 1590SOL    HW2 5670   2.711   6.873   5.915
 1591SOL     OW 5671   0.938   4.958   2.940
 1591SOL    HW1 5672   0.995   4.903   2.879
 1591SOL    HW2 5673   0.843   4.954   2.910
 1592SOL     OW 5674   2.663   4.400   1.403
 1592SOL    HW1 5675   2.576   4.447   1.388
 1592SOL    HW2 5676   2.686   4.404   1.501
 1593SOL     OW 5677   0.921   6.319   4.212
 1593SOL    HW1 5678   0.899   6.408   4.251
 1593SOL    HW2 5679   0.842   6.284   4.162
 1594SOL     OW 5680   0.015   5.495   2.872
 1594SOL    HW1 5681   0.046   5.590   2.868
 1594SOL    HW2 5682   6.992   5.471   2.787
 1595SOL     OW 5683   1.266   5.049   6.599
 1595SOL    HW1 5684   1.364   5.066   6.601
 1595SOL    HW2 5685   1.235   5.041   6.504
 1596SOL     OW 5686   0.775   2.555   5.370
 1596SOL    HW1 5687   0.715   2.475   5.358
 1596SOL    HW2 5688   0.722   2.639   5.357
 1597SOL     OW 5689   2.511   5.804   0.087
 1597SOL    HW1 5690   2.583   5.751   0.129
 1597SOL    HW2 5691   2.500   5.776   7.015
 1598SOL     OW 5692   0.906   3.768   7.000
 1598SOL    HW1 5693   0.814   3.803   7.021
 1598SOL    HW2 5694   0.912   3.672   0.002
 1599SOL     OW 5695   4.992   4.055   5.767
 1599SOL    HW1 5696   5.063   4.097   5.823
 1599SOL    HW2 5697   4.967   4.118   5.693
 1600SOL     OW 5698   5.439   2.045   4.838
 1600SOL    HW1 5699   5.393   2.011   4.756
 1600SOL    HW2 5700   5.469   1.967   4.894
 1601SOL     OW 5701   0.530   5.142   4.733
 1601SOL    HW1 5702   0.551   5.096   4.647
 1601SOL    HW2 5703   0.616   5.162   4.781
 1602SOL     OW 5704   2.173   5.362   4.332
 1602SOL    HW1 5705   2.150   5.447   4.285
 1602SOL    HW2 5706   2.260   5.326   4.297
 1603SOL     OW 5707   0.557   5.910   2.242
 1603SOL    HW1 5708   0.479   5.865   2.286
 1603SOL    HW2 5709   0.535   6.005   2.223
 1604SOL     OW 5710   6.306   4.642   6.988
 1604SOL    HW1 5711   6.258   4.624   0.050
 1604SOL    HW2 5712   6.287   4.567   6.923
 1605SOL     OW 5713   6.205   6.828   2.080
 1605SOL    HW1 5714   6.205   6.730   2.059
 1605SOL    HW2 5715   6.139   6.874   2.020
 1606SOL     OW 5716   3.672   0.149   4.747
 1606SOL    HW1 5717   3.675   0.154   4.846
 1606SOL    HW2 5718   3.612   0.220   4.711
 1607SOL     OW 5719   4.549   2.601   0.377
 1607SOL    HW1 5720   4.645   2.587   0.353
 1607SOL    HW2 5721   4.536   2.695   0.410
 1608SOL     OW 5722   1.497   0.530   5.595
 1608SOL    HW1 5723   1.582   0.560   5.552
 1608SOL    HW2 5724   1.420   0.558   5.539
 1609SOL     OW 5725   4.320   0.775   0.166
 1609SOL    HW1 5726   4.395   0.840   0.158
 1609SOL    HW2 5727   4.311   0.723   0.081
 1610SOL     OW 5728   6.335   3.923   5.307
 1610SOL    HW1 5729   6.281   3.982   5.247
 1610SOL    HW2 5730   6.392   3.980   5.367
 1611SOL     OW 5731   3.647   3.547   1.364
 1611SOL    HW1 5732   3.732   3.494   1.371
 1611SOL    HW2 5733   3.626   3.565   1.268
 1612SOL     OW 5734   2.891   1.274   5.509
 1612SOL    HW1 5735   2.805   1.295   5.554
 1612SOL    HW2 5736   2.963   1.333   5.546
 1613SOL     OW 5737   1.836   6.069   1.855
 1613SOL    HW1 5738   1.742   6.102   1.844
 1613SOL    HW2 5739   1.900   6.143   1.834
 1614SOL     OW 5740   6.544   3.764   0.391
 1614SOL    HW1 5741   6.444   3.759   0.391
 1614SOL    HW2 5742   6.578   3.748   0.484
 1615SOL     OW 5743   6.345   4.790   1.150
 1615SOL    HW1 5744   6.259   4.836   1.174
 1615SOL    HW2 5745   6.325   4.697   1.118
 1616SOL     OW 5746   4.136   2.594   5.831
 1616SOL    HW1 5747   4.224   2.579   5.786
 1616SOL    HW2 5748   4.075   2.517   5.813
 1617SOL     OW 5749   5.708   6.877   1.399
 1617SOL    HW1 5750   5.623   6.833   1.370
 1617SOL    HW2 5751   5.780   6.856   1.333
 1618SOL     OW 5752   0.623   4.009   0.792
 1618SOL    HW1 5753   0.601   4.051   0.704
 1618SOL    HW2 5754   0.553   3.941   0.815
 1619SOL     OW 5755   1.242   1.945   3.786
 1619SOL    HW1 5756   1.323   2.002   3.775
 1619SOL    HW2 5757   1.172   1.997   3.835
 1620SOL     OW 5758   1.843   6.169   0.567
 1620SOL    HW1 5759   1.925   6.118   0.594
 1620SOL    HW2 5760   1.825   6.241   0.633
 1621SOL     OW 5761   0.500   1.240   0.531
 1621SOL    HW1 5762   0.471   1.309   0.598
 1621SOL    HW2 5763   0.480   1.273   0.439
 1622SOL     OW 5764   1.291   2.432   4.691
 1622SOL    HW1 5765   1.380   2.407   4.654
 1622SOL    HW2 5766   1.299   2.514   4.746
 1623SOL     OW 5767   2.700   2.800   5.968
 1623SOL    HW1 5768   2.683   2.723   5.907
 1623SOL    HW2 5769   2.628   2.869   5.957
 1624SOL     OW 5770   3.285   0.940   5.914
 1624SOL    HW1 5771   3.315   1.019   5.860
 1624SOL    HW2 5772   3.185   0.933   5.911
 1625SOL     OW 5773   1.350   5.981   1.814
 1625SOL    HW1 5774   1.315   5.965   1.721
 1625SOL    HW2 5775   1.274   5.976   1.879
 1626SOL     OW 5776   3.170   1.881   6.568
 1626SOL    HW1 5777   3.079   1.918   6.549
 1626SOL    HW2 5778   3.182   1.796   6.516
 1627SOL     OW 5779   6.444   2.509   4.109
 1627SOL    HW1 5780   6.498   2.447   4.051
 1627SOL    HW2 5781   6.359   2.463   4.137
 1628SOL     OW 5782   4.729   4.933   6.780
 1628SOL    HW1 5783   4.774   4.972   6.860
 1628SOL    HW2 5784   4.765   4.841   6.763
 1629SOL     OW 5785   3.417   2.104   4.667
 1629SOL    HW1 5786   3.337   2.078   4.721
 1629SOL    HW2 5787   3.489   2.136   4.729
 1630SOL     OW 5788   1.290   6.013   5.445
 1630SOL    HW1 5789   1.343   5.953   5.506
 1630SOL    HW2 5790   1.339   6.099   5.433
 1631SOL     OW 5791   0.106   1.291   5.993
 1631SOL    HW1 5792   0.162   1.317   5.914
 1631SOL    HW2 5793   0.106   1.365   6.060
 1632SOL     OW 5794   0.266   1.526   6.993
 1632SOL    HW1 5795   0.230   1.550   0.059
 1632SOL    HW2 5796   0.271   1.608   6.936
 1633SOL     OW 5797   4.989   2.429   3.920
 1633SOL    HW1 5798   5.076   2.395   3.885
 1633SOL    HW2 5799   4.962   2.375   4.000
 1634SOL     OW 5800   4.386   5.149   5.682
 1634SOL    HW1 5801   4.375   5.134   5.780
 1634SOL    HW2 5802   4.404   5.246   5.666
 1635SOL     OW 5803   6.165   5.189   5.263
 1635SOL    HW1 5804   6.228   5.244   5.319
 1635SOL    HW2 5805   6.073   5.227   5.269
 1636SOL     OW 5806   2.107   4.425   1.496
 1636SOL    HW1 5807   2.065   4.454   1.409
 1636SOL    HW2 5808   2.145   4.333   1.485
 1637SOL     OW 5809   6.605   0.621   2.953
 1637SOL    HW1 5810   6.606   0.679   3.035
 1637SOL    HW2 5811   6.636   0.674   2.874
 1638SOL     OW 5812   0.729   4.134   4.058
 1638SOL    HW1 5813   0.642   4.119   4.011
 1638SOL    HW2 5814   0.779   4.207   4.012
 1639SOL     OW 5815   4.810   0.017   2.782
 1639SOL    HW1 5816   4.797   6.960   2.724
 1639SOL    HW2 5817   4.725   0.069   2.786
 1640SOL     OW 5818   5.797   1.763   0.934
 1640SOL    HW1 5819   5.881   1.720   0.903
 1640SOL    HW2 5820   5.745   1.699   0.991
 1641SOL     OW 5821   5.333   2.927   4.011
 1641SOL    HW1 5822   5.301   2.991   3.942
 1641SOL    HW2 5823   5.433   2.919   4.006
 1642SOL     OW 5824   6.594   3.452   0.252
 1642SOL    HW1 5825   6.665   3.498   0.305
 1642SOL    HW2 5826   6.614   3.462   0.154
 1643SOL     OW 5827   2.895   5.741   4.125
 1643SOL    HW1 5828   2.843   5.656   4.119
 1643SOL    HW2 5829   2.832   5.819   4.126
 1644SOL     OW 5830   1.551   2.517   1.221
 1644SOL    HW1 5831   1.640   2.489   1.258
 1644SOL    HW2 5832   1.566   2.574   1.140
 1645SOL     OW 5833   3.528   6.568   5.054
 1645SOL    HW1 5834   3.553   6.471   5.057
 1645SOL    HW2 5835   3.490   6.590   4.965
 1646SOL     OW 5836   2.567   5.730   1.257
 1646SOL    HW1 5837   2.600   5.797   1.323
 1646SOL    HW2 5838   2.550   5.643   1.304
 1647SOL     OW 5839   5.443   2.462   4.338
 1647SOL    HW1 5840   5.491   2.421   4.260
 1647SOL    HW2 5841   5.375   2.397   4.372
 1648SOL     OW 5842   5.960   6.032   1.502
 1648SOL    HW1 5843   5.942   6.116   1.554
 1648SOL    HW2 5844   6.057   6.008   1.511
 1649SOL     OW 5845   3.357   0.421   3.707
 1649SOL    HW1 5846   3.275   0.372   3.737
 1649SOL    HW2 5847   3.427   0.416   3.778
 1650SOL     OW 5848   2.422   6.983   4.124
 1650SOL    HW1 5849   2.358   6.917   4.162
 1650SOL    HW2 5850   2.424   6.973   4.024
 1651SOL     OW 5851   0.679   0.766   1.127
 1651SOL    HW1 5852   0.724   0.852   1.101
 1651SOL    HW2 5853   0.744   0.691   1.121
 1652SOL     OW 5854   1.205   2.586   1.906
 1652SOL    HW1 5855   1.180   2.623   1.816
 1652SOL    HW2 5856   1.139   2.515   1.932
 1653SOL     OW 5857   0.348   6.120   1.921
 1653SOL    HW1 5858   0.271   6.163   1.874
 1653SOL    HW2 5859   0.429   6.122   1.862
 1654SOL     OW 5860   6.968   2.564   1.960
 1654SOL    HW1 5861   7.006   2.473   1.975
 1654SOL    HW2 5862   7.013   2.607   1.882
 1655SOL     OW 5863   5.374   3.986   6.004
 1655SOL    HW1 5864   5.395   4.080   5.977
 1655SOL    HW2 5865   5.446   3.924   5.971
 1656SOL     OW 5866   1.612   4.698   3.359
 1656SOL    HW1 5867   1.583   4.730   3.450
 1656SOL    HW2 5868   1.532   4.671   3.307
 1657SOL     OW 5869   0.147   1.437   4.469
 1657SOL    HW1 5870   0.200   1.431   4.385
 1657SOL    HW2 5871   0.078   1.365   4.470
 1658SOL     OW 5872   0.610   0.050   3.300
 1658SOL    HW1 5873   0.689   0.101   3.266
 1658SOL    HW2 5874   0.526   0.085   3.258
 1659SOL     OW 5875   3.947   2.075   6.011
 1659SOL    HW1 5876   4.046   2.069   6.009
 1659SOL    HW2 5877   3.908   1.998   5.961
 1660SOL     OW 5878   1.694   4.750   3.982
 1660SOL    HW1 5879   1.678   4.671   4.042
 1660SOL    HW2 5880   1.789   4.780   3.990
 1661SOL     OW 5881   3.220   1.409   1.787
 1661SOL    HW1 5882   3.299   1.455   1.827
 1661SOL    HW2 5883   3.145   1.475   1.775
 1662SOL     OW 5884   6.315   1.469   3.715
 1662SOL    HW1 5885   6.307   1.440   3.620
 1662SOL    HW2 5886   6.224   1.496   3.749
 1663SOL     OW 5887   2.564   1.414   3.112
 1663SOL    HW1 5888   2.479   1.398   3.161
 1663SOL    HW2 5889   2.545   1.453   3.022
 1664SOL     OW 5890   1.280   0.407   3.978
 1664SOL    HW1 5891   1.363   0.436   3.930
 1664SOL    HW2 5892   1.200   0.432   3.925
 1665SOL     OW 5893   6.699   1.594   2.737
 1665SOL    HW1 5894   6.780   1.565   2.788
 1665SOL    HW2 5895   6.622   1.534   2.760
 1666SOL     OW 5896   6.005   3.718   0.498
 1666SOL    HW1 5897   5.976   3.657   0.572
 1666SOL    HW2 5898   5.924   3.744   0.444
 1667SOL     OW 5899   5.454   6.819   0.896
 1667SOL    HW1 5900   5.399   6.775   0.967
 1667SOL    HW2 5901   5.397   6.840   0.817
 1668SOL     OW 5902   5.000   6.259   6.213
 1668SOL    HW1 5903   4.980   6.258   6.311
 1668SOL    HW2 5904   5.094   6.227   6.199
 1669SOL     OW 5905   6.301   6.948   0.856
 1669SOL    HW1 5906   6.309   6.897   0.942
 1669SOL    HW2 5907   6.218   7.003   0.858
 1670SOL     OW 5908   6.919   5.930   5.922
 1670SOL    HW1 5909   6.886   6.019   5.893
 1670SOL    HW2 5910   6.858   5.858   5.888
 1671SOL     OW 5911   4.467   2.364   0.805
 1671SOL    HW1 5912   4.425   2.352   0.896
 1671SOL    HW2 5913   4.407   2.418   0.747
 1672SOL     OW 5914   2.041   4.188   2.557
 1672SOL    HW1 5915   2.123   4.241   2.581
 1672SOL    HW2 5916   1.965   4.250   2.538
 1673SOL     OW 5917   0.860   2.402   4.524
 1673SOL    HW1 5918   0.800   2.451   4.462
 1673SOL    HW2 5919   0.955   2.432   4.509
 1674SOL     OW 5920   0.947   4.054   1.449
 1674SOL    HW1 5921   0.920   4.019   1.359
 1674SOL    HW2 5922   0.886   4.018   1.519
 1675SOL     OW 5923   3.911   0.051   6.198
 1675SOL    HW1 5924   3.969   0.036   6.278
 1675SOL    HW2 5925   3.939   7.013   6.124
 1676SOL     OW 5926   3.563   1.077   2.317
 1676SOL    HW1 5927   3.466   1.098   2.309
 1676SOL    HW2 5928   3.614   1.127   2.247
 1677SOL     OW 5929   4.275   2.588   5.570
 1677SOL    HW1 5930   4.366   2.552   5.591
 1677SOL    HW2 5931   4.230   2.530   5.502
 1678SOL     OW 5932   5.238   4.723   4.660
 1678SOL    HW1 5933   5.259   4.761   4.570
 1678SOL    HW2 5934   5.313   4.743   4.723
 1679SOL     OW 5935   2.148   3.529   5.265
 1679SOL    HW1 5936   2.121   3.564   5.355
 1679SOL    HW2 5937   2.234   3.572   5.237
 1680SOL     OW 5938   1.050   1.689   4.113
 1680SOL    HW1 5939   1.057   1.649   4.022
 1680SOL    HW2 5940   1.140   1.721   4.143
 1681SOL     OW 5941   6.654   5.875   1.082
 1681SOL    HW1 5942   6.559   5.873   1.112
 1681SOL    HW2 5943   6.696   5.962   1.110
 1682SOL     OW 5944   0.257   3.230   4.653
 1682SOL    HW1 5945   0.171   3.233   4.602
 1682SOL    HW2 5946   0.322   3.169   4.607
 1683SOL     OW 5947   3.766   5.572   1.279
 1683SOL    HW1 5948   3.771   5.479   1.314
 1683SOL    HW2 5949   3.838   5.587   1.211
 1684SOL     OW 5950   1.191   6.195   2.777
 1684SOL    HW1 5951   1.095   6.171   2.765
 1684SOL    HW2 5952   1.248   6.114   2.768
 1685SOL     OW 5953   2.874   1.332   6.658
 1685SOL    HW1 5954   2.956   1.375   6.695
 1685SOL    HW2 5955   2.860   1.362   6.564
 1686SOL     OW 5956   2.141   4.989   5.577
 1686SOL    HW1 5957   2.222   5.046   5.564
 1686SOL    HW2 5958   2.086   5.025   5.651
 1687SOL     OW 5959   1.964   3.165   1.363
 1687SOL    HW1 5960   2.059   3.149   1.391
 1687SOL    HW2 5961   1.946   3.263   1.362
 1688SOL     OW 5962   1.414   2.589   3.417
 1688SOL    HW1 5963   1.419   2.679   3.374
 1688SOL    HW2 5964   1.505   2.547   3.417
 1689SOL     OW 5965   3.647   0.695   1.836
 1689SOL    HW1 5966   3.633   0.732   1.744
 1689SOL    HW2 5967   3.576   0.732   1.897
 1690SOL     OW 5968   1.162   2.879   3.241
 1690SOL    HW1 5969   1.074   2.925   3.252
 1690SOL    HW2 5970   1.161   2.824   3.157
 1691SOL     OW 5971   4.940   3.688   3.009
 1691SOL    HW1 5972   4.946   3.786   3.031
 1691SOL    HW2 5973   4.914   3.637   3.090
 1692SOL     OW 5974   6.532   6.908   1.293
 1692SOL    HW1 5975   6.463   6.940   1.358
 1692SOL    HW2 5976   6.623   6.935   1.326
 1693SOL     OW 5977   1.114   2.258   1.916
 1693SOL    HW1 5978   1.055   2.330   1.953
 1693SOL    HW2 5979   1.146   2.200   1.991
 1694SOL     OW 5980   4.417   6.661   4.321
 1694SOL    HW1 5981   4.453   6.745   4.281
 1694SOL    HW2 5982   4.473   6.634   4.400
 1695SOL     OW 5983   2.444   1.417   5.303
 1695SOL    HW1 5984   2.386   1.369   5.369
 1695SOL    HW2 5985   2.388   1.474   5.243
 1696SOL     OW 5986   5.544   5.229   0.779
 1696SOL    HW1 5987   5.483   5.196   0.851
 1696SOL    HW2 5988   5.527   5.326   0.764
 1697SOL     OW 5989   6.563   6.518   1.850
 1697SOL    HW1 5990   6.514   6.495   1.766
 1697SOL    HW2 5991   6.601   6.610   1.843
 1698SOL     OW 5992   4.380   1.556   0.682
 1698SOL    HW1 5993   4.351   1.615   0.607
 1698SOL    HW2 5994   4.317   1.568   0.759
 1699SOL     OW 5995   3.043   1.256   2.527
 1699SOL    HW1 5996   2.982   1.318   2.478
 1699SOL    HW2 5997   2.990   1.178   2.561
 1700SOL     OW 5998   6.418   2.089   3.880
 1700SOL    HW1 5999   6.363   2.141   3.814
 1700SOL    HW2 6000   6.359   2.051   3.950
 1701SOL     OW 6001   4.792   3.142   5.163
 1701SOL    HW1 6002   4.821   3.059   5.115
 1701SOL    HW2 6003   4.706   3.126   5.210
 1702SOL     OW 6004   6.718   3.617   0.637
 1702SOL    HW1 6005   6.773   3.700   0.634
 1702SOL    HW2 6006   6.636   3.633   0.692
 1703SOL     OW 6007   3.573   4.104   3.412
 1703SOL    HW1 6008   3.613   4.084   3.323
 1703SOL    HW2 6009   3.474   4.115   3.403
 1704SOL     OW 6010   0.653   1.289   1.036
 1704SOL    HW1 6011   0.665   1.358   0.965
 1704SOL    HW2 6012   0.556   1.271   1.050
 1705SOL     OW 6013   3.392   2.134   1.890
 1705SOL    HW1 6014   3.380   2.087   1.978
 1705SOL    HW2 6015   3.480   2.183   1.890
 1706SOL     OW 6016   4.146   6.581   1.354
 1706SOL    HW1 6017   4.193   6.521   1.419
 1706SOL    HW2 6018   4.120   6.529   1.273
 1707SOL     OW 6019   4.549   1.447   2.647
 1707SOL    HW1 6020   4.474   1.483   2.592
 1707SOL    HW2 6021   4.520   1.361   2.690
 1708SOL     OW 6022   5.221   5.616   2.460
 1708SOL    HW1 6023   5.125   5.626   2.435
 1708SOL    HW2 6024   5.275   5.685   2.413
 1709SOL     OW 6025   2.781   5.696   2.026
 1709SOL    HW1 6026   2.692   5.721   1.988
 1709SOL    HW2 6027   2.821   5.622   1.973
 1710SOL     OW 6028   5.983   4.576   3.808
 1710SOL    HW1 6029   6.060   4.517   3.828
 1710SOL    HW2 6030   6.015   4.670   3.796
 1711SOL     OW 6031   1.158   4.631   5.398
 1711SOL    HW1 6032   1.166   4.695   5.475
 1711SOL    HW2 6033   1.064   4.597   5.393
 1712SOL     OW 6034   0.677   3.003   6.447
 1712SOL    HW1 6035   0.581   2.993   6.423
 1712SOL    HW2 6036   0.726   2.919   6.423
 1713SOL     OW 6037   3.258   1.536   1.112
 1713SOL    HW1 6038   3.237   1.439   1.097
 1713SOL    HW2 6039   3.356   1.550   1.107
 1714SOL     OW 6040   4.388   1.878   6.157
 1714SOL    HW1 6041   4.485   1.855   6.149
 1714SOL    HW2 6042   4.360   1.877   6.253
 1715SOL     OW 6043   6.633   3.812   2.450
 1715SOL    HW1 6044   6.660   3.904   2.421
 1715SOL    HW2 6045   6.533   3.805   2.449
 1716SOL     OW 6046   5.418   6.559   1.566
 1716SOL    HW1 6047   5.349   6.490   1.548
 1716SOL    HW2 6048   5.393   6.612   1.647
 1717SOL     OW 6049   1.847   6.108   6.368
 1717SOL    HW1 6050   1.797   6.189   6.335
 1717SOL    HW2 6051   1.785   6.050   6.420
 1718SOL     OW 6052   1.780   1.817   0.848
 1718SOL    HW1 6053   1.747   1.799   0.940
 1718SOL    HW2 6054   1.830   1.904   0.847
 1719SOL     OW 6055   2.386   4.416   1.407
 1719SOL    HW1 6056   2.301   4.457   1.440
 1719SOL    HW2 6057   2.366   4.354   1.331
 1720SOL     OW 6058   6.741   1.280   1.444
 1720SOL    HW1 6059   6.817   1.226   1.409
 1720SOL    HW2 6060   6.688   1.317   1.368
 1721SOL     OW 6061   1.312   6.415   2.549
 1721SOL    HW1 6062   1.332   6.439   2.454
 1721SOL    HW2 6063   1.241   6.346   2.552
 1722SOL     OW 6064   5.224   1.250   3.957
 1722SOL    HW1 6065   5.174   1.172   3.921
 1722SOL    HW2 6066   5.315   1.254   3.916
 1723SOL     OW 6067   6.865   2.712   3.387
 1723SOL    HW1 6068   6.865   2.614   3.369
 1723SOL    HW2 6069   6.873   2.728   3.485
 1724SOL     OW 6070   5.731   1.773   0.484
 1724SOL    HW1 6071   5.676   1.789   0.402
 1724SOL    HW2 6072   5.783   1.689   0.473
 1725SOL     OW 6073   3.232   4.847   0.327
 1725SOL    HW1 6074   3.238   4.920   0.259
 1725SOL    HW2 6075   3.180   4.770   0.288
 1726SOL     OW 6076   0.090   4.257   5.838
 1726SOL    HW1 6077   0.167   4.271   5.776
 1726SOL    HW2 6078   0.101   4.316   5.918
 1727SOL     OW 6079   3.417   3.077   4.410
 1727SOL    HW1 6080   3.328   3.049   4.374
 1727SOL    HW2 6081   3.452   3.006   4.471
 1728SOL     OW 6082   5.653   5.424   4.783
 1728SOL    HW1 6083   5.671   5.367   4.702
 1728SOL    HW2 6084   5.732   5.482   4.801
 1729SOL     OW 6085   2.122   3.495   3.967
 1729SOL    HW1 6086   2.052   3.531   4.029
 1729SOL    HW2 6087   2.171   3.571   3.924
 1730SOL     OW 6088   6.566   0.745   4.816
 1730SOL    HW1 6089   6.544   0.725   4.720
 1730SOL    HW2 6090   6.605   0.837   4.823
 1731SOL     OW 6091   1.105   5.226   1.901
 1731SOL    HW1 6092   1.175   5.167   1.860
 1731SOL    HW2 6093   1.122   5.321   1.875
 1732SOL     OW 6094   2.492   4.559   6.053
 1732SOL    HW1 6095   2.546   4.475   6.049
 1732SOL    HW2 6096   2.423   4.551   6.125
 1733SOL     OW 6097   1.113   3.576   2.768
 1733SOL    HW1 6098   1.026   3.583   2.816
 1733SOL    HW2 6099   1.173   3.650   2.797
 1734SOL     OW 6100   4.825   2.945   1.665
 1734SOL    HW1 6101   4.801   2.850   1.643
 1734SOL    HW2 6102   4.754   2.984   1.724
 1735SOL     OW 6103   5.516   5.289   1.284
 1735SOL    HW1 6104   5.444   5.354   1.261
 1735SOL    HW2 6105   5.591   5.337   1.331
 1736SOL     OW 6106   4.825   1.568   0.638
 1736SOL    HW1 6107   4.891   1.583   0.565
 1736SOL    HW2 6108   4.751   1.510   0.604
 1737SOL     OW 6109   2.844   0.468   4.169
 1737SOL    HW1 6110   2.865   0.548   4.113
 1737SOL    HW2 6111   2.821   0.391   4.110
 1738SOL     OW 6112   2.099   2.456   3.942
 1738SOL    HW1 6113   2.012   2.407   3.949
 1738SOL    HW2 6114   2.158   2.410   3.876
 1739SOL     OW 6115   4.688   2.886   5.352
 1739SOL    HW1 6116   4.637   2.971   5.363
 1739SOL    HW2 6117   4.673   2.849   5.260
 1740SOL     OW 6118   6.911   1.836   6.649
 1740SOL    HW1 6119   6.969   1.762   6.683
 1740SOL    HW2 6120   6.944   1.923   6.685
 1741SOL     OW 6121   2.649   1.252   2.774
 1741SOL    HW1 6122   2.652   1.165   2.725
 1741SOL    HW2 6123   2.629   1.235   2.871
 1742SOL     OW 6124   4.261   6.151   5.811
 1742SOL    HW1 6125   4.303   6.182   5.896
 1742SOL    HW2 6126   4.326   6.095   5.760
 1743SOL     OW 6127   2.003   1.439   1.745
 1743SOL    HW1 6128   2.063   1.402   1.817
 1743SOL    HW2 6129   1.960   1.523   1.778
 1744SOL     OW 6130   0.360   6.800   1.971
 1744SOL    HW1 6131   0.429   6.871   1.960
 1744SOL    HW2 6132   0.269   6.843   1.978
 1745SOL     OW 6133   6.998   1.070   4.231
 1745SOL    HW1 6134   0.022   1.081   4.144
 1745SOL    HW2 6135   7.014   0.977   4.266
 1746SOL     OW 6136   2.072   5.425   5.488
 1746SOL    HW1 6137   2.003   5.418   5.561
 1746SOL    HW2 6138   2.140   5.352   5.500
 1747SOL     OW 6139   5.118   6.780   2.164
 1747SOL    HW1 6140   5.038   6.720   2.159
 1747SOL    HW2 6141   5.120   6.839   2.084
 1748SOL     OW 6142   0.196   0.529   3.689
 1748SOL    HW1 6143   0.168   0.537   3.593
 1748SOL    HW2 6144   0.238   0.615   3.718
 1749SOL     OW 6145   3.105   6.680   5.231
 1749SOL    HW1 6146   3.038   6.628   5.177
 1749SOL    HW2 6147   3.070   6.772   5.247
 1750SOL     OW 6148   5.480   1.250   3.852
 1750SOL    HW1 6149   5.516   1.300   3.931
 1750SOL    HW2 6150   5.530   1.278   3.770
 1751SOL     OW 6151   3.299   5.340   4.569
 1751SOL    HW1 6152   3.226   5.396   4.530
 1751SOL    HW2 6153   3.262   5.281   4.640
 1752SOL     OW 6154   6.766   2.356   2.380
 1752SOL    HW1 6155   6.838   2.287   2.393
 1752SOL    HW2 6156   6.805   2.438   2.338
 1753SOL     OW 6157   0.328   1.790   0.772
 1753SOL    HW1 6158   0.314   1.697   0.738
 1753SOL    HW2 6159   0.390   1.788   0.851
 1754SOL     OW 6160   3.419   3.223   1.500
 1754SOL    HW1 6161   3.453   3.148   1.556
 1754SOL    HW2 6162   3.455   3.214   1.407
 1755SOL     OW 6163   5.669   5.043   1.983
 1755SOL    HW1 6164   5.673   5.086   1.893
 1755SOL    HW2 6165   5.624   4.955   1.976
 1756SOL     OW 6166   4.262   4.382   6.394
 1756SOL    HW1 6167   4.185   4.424   6.345
 1756SOL    HW2 6168   4.284   4.436   6.475
 1757SOL     OW 6169   2.463   6.080   4.683
 1757SOL    HW1 6170   2.457   6.179   4.699
 1757SOL    HW2 6171   2.471   6.063   4.584
 1758SOL     OW 6172   2.425   0.397   3.096
 1758SOL    HW1 6173   2.437   0.478   3.039
 1758SOL    HW2 6174   2.462   0.415   3.187
 1759SOL     OW 6175   1.140   5.071   6.344
 1759SOL    HW1 6176   1.050   5.098   6.379
 1759SOL    HW2 6177   1.176   5.142   6.284
 1760SOL     OW 6178   6.651   1.324   1.685
 1760SOL    HW1 6179   6.684   1.284   1.599
 1760SOL    HW2 6180   6.650   1.423   1.678
 1761SOL     OW 6181   6.913   0.041   0.261
 1761SOL    HW1 6182   6.859   7.020   0.332
 1761SOL    HW2 6183   7.004   7.024   0.257
 1762SOL     OW 6184   6.243   1.467   4.995
 1762SOL    HW1 6185   6.271   1.406   5.069
 1762SOL    HW2 6186   6.312   1.540   4.984
 1763SOL     OW 6187   1.722   3.677   4.688
 1763SOL    HW1 6188   1.762   3.696   4.598
 1763SOL    HW2 6189   1.719   3.761   4.742
 1764SOL     OW 6190   1.727   3.893   2.906
 1764SOL    HW1 6191   1.797   3.902   2.835
 1764SOL    HW2 6192   1.752   3.951   2.984
 1765SOL     OW 6193   3.419   2.629   0.106
 1765SOL    HW1 6194   3.389   2.654   0.198
 1765SOL    HW2 6195   3.515   2.598   0.110
 1766SOL     OW 6196   4.870   3.112   4.272
 1766SOL    HW1 6197   4.827   3.160   4.348
 1766SOL    HW2 6198   4.939   3.170   4.230
 1767SOL     OW 6199   5.728   3.682   2.637
 1767SOL    HW1 6200   5.644   3.632   2.659
 1767SOL    HW2 6201   5.745   3.750   2.709
 1768SOL     OW 6202   3.735   1.278   4.627
 1768SOL    HW1 6203   3.834   1.270   4.616
 1768SOL    HW2 6204   3.700   1.347   4.563
 1769SOL     OW 6205   4.372   2.319   4.704
 1769SOL    HW1 6206   4.315   2.262   4.645
 1769SOL    HW2 6207   4.320   2.346   4.785
 1770SOL     OW 6208   0.951   5.768   4.669
 1770SOL    HW1 6209   0.881   5.697   4.677
 1770SOL    HW2 6210   0.908   5.856   4.655
 1771SOL     OW 6211   2.725   5.035   0.247
 1771SOL    HW1 6212   2.737   4.955   0.305
 1771SOL    HW2 6213   2.791   5.106   0.272
 1772SOL     OW 6214   3.373   6.628   3.545
 1772SOL    HW1 6215   3.382   6.594   3.638
 1772SOL    HW2 6216   3.464   6.637   3.504
 1773SOL     OW 6217   2.579   4.905   5.893
 1773SOL    HW1 6218   2.545   4.868   5.980
 1773SOL    HW2 6219   2.604   5.001   5.905
 1774SOL     OW 6220   4.188   6.412   1.593
 1774SOL    HW1 6221   4.267   6.351   1.603
 1774SOL    HW2 6222   4.104   6.360   1.606
 1775SOL     OW 6223   1.403   4.786   4.254
 1775SOL    HW1 6224   1.434   4.821   4.166
 1775SOL    HW2 6225   1.316   4.828   4.278
 1776SOL     OW 6226   2.903   0.072   4.051
 1776SOL    HW1 6227   2.859   0.136   3.989
 1776SOL    HW2 6228   2.959   0.007   3.998
 1777SOL     OW 6229   3.232   5.008   5.998
 1777SOL    HW1 6230   3.242   4.930   5.936
 1777SOL    HW2 6231   3.280   5.087   5.960
 1778SOL     OW 6232   4.276   3.510   5.441
 1778SOL    HW1 6233   4.196   3.533   5.386
 1778SOL    HW2 6234   4.250   3.441   5.510
 1779SOL     OW 6235   4.180   0.947   4.506
 1779SOL    HW1 6236   4.265   0.988   4.538
 1779SOL    HW2 6237   4.169   0.856   4.545
 1780SOL     OW 6238   3.069   3.132   6.352
 1780SOL    HW1 6239   3.075   3.081   6.438
 1780SOL    HW2 6240   2.972   3.146   6.329
 1781SOL     OW 6241   4.575   5.683   3.842
 1781SOL    HW1 6242   4.665   5.639   3.845
 1781SOL    HW2 6243   4.565   5.735   3.758
 1782SOL     OW 6244   3.614   1.826   2.614
 1782SOL    HW1 6245   3.609   1.767   2.533
 1782SOL    HW2 6246   3.710   1.836   2.642
 1783SOL     OW 6247   1.491   4.742   6.485
 1783SOL    HW1 6248   1.535   4.725   6.573
 1783SOL    HW2 6249   1.551   4.799   6.428
 1784SOL     OW 6250   3.231   1.265   5.542
 1784SOL    HW1 6251   3.162   1.253   5.613
 1784SOL    HW2 6252   3.272   1.176   5.521
 1785SOL     OW 6253   6.514   4.564   3.508
 1785SOL    HW1 6254   6.477   4.656   3.520
 1785SOL    HW2 6255   6.443   4.496   3.527
 1786SOL     OW 6256   1.307   2.266   1.163
 1786SOL    HW1 6257   1.339   2.244   1.255
 1786SOL    HW2 6258   1.367   2.335   1.122
 1787SOL     OW 6259   2.482   0.882   4.944
 1787SOL    HW1 6260   2.479   0.811   4.874
 1787SOL    HW2 6261   2.455   0.970   4.904
 1788SOL     OW 6262   3.299   3.253   0.630
 1788SOL    HW1 6263   3.283   3.251   0.729
 1788SOL    HW2 6264   3.354   3.174   0.604
 1789SOL     OW 6265   6.145   2.284   3.242
 1789SOL    HW1 6266   6.096   2.356   3.292
 1789SOL    HW2 6267   6.162   2.207   3.304
 1790SOL     OW 6268   4.116   6.182   4.247
 1790SOL    HW1 6269   4.211   6.211   4.237
 1790SOL    HW2 6270   4.069   6.245   4.309
 1791SOL     OW 6271   6.538   1.144   3.557
 1791SOL    HW1 6272   6.595   1.100   3.486
 1791SOL    HW2 6273   6.504   1.074   3.619
 1792SOL     OW 6274   0.012   3.269   4.496
 1792SOL    HW1 6275   6.936   3.262   4.486
 1792SOL    HW2 6276   0.052   3.296   4.409
 1793SOL     OW 6277   6.710   6.870   3.773
 1793SOL    HW1 6278   6.750   6.961   3.771
 1793SOL    HW2 6279   6.760   6.814   3.840
 1794SOL     OW 6280   5.817   6.262   6.535
 1794SOL    HW1 6281   5.738   6.323   6.540
 1794SOL    HW2 6282   5.788   6.173   6.501
 1795SOL     OW 6283   1.165   2.642   1.267
 1795SOL    HW1 6284   1.069   2.622   1.287
 1795SOL    HW2 6285   1.221   2.621   1.348
 1796SOL     OW 6286   2.324   0.467   4.217
 1796SOL    HW1 6287   2.302   0.428   4.306
 1796SOL    HW2 6288   2.381   0.403   4.166
 1797SOL     OW 6289   1.382   0.193   6.966
 1797SOL    HW1 6290   1.366   0.189   6.867
 1797SOL    HW2 6291   1.299   0.223   7.012
 1798SOL     OW 6292   5.281   2.004   4.227
 1798SOL    HW1 6293   5.275   2.103   4.214
 1798SOL    HW2 6294   5.252   1.958   4.143
 1799SOL     OW 6295   6.418   1.394   5.968
 1799SOL    HW1 6296   6.478   1.429   5.896
 1799SOL    HW2 6297   6.469   1.391   6.054
 1800SOL     OW 6298   3.809   4.858   2.436
 1800SOL    HW1 6299   3.765   4.921   2.371
 1800SOL    HW2 6300   3.877   4.803   2.387
 1801SOL     OW 6301   0.204   0.339   2.323
 1801SOL    HW1 6302   0.303   0.352   2.334
 1801SOL    HW2 6303   0.170   0.279   2.395
 1802SOL     OW 6304   5.784   5.427   3.037
 1802SOL    HW1 6305   5.827   5.346   2.996
 1802SOL    HW2 6306   5.704   5.453   2.983
 1803SOL     OW 6307   0.777   6.278   6.869
 1803SOL    HW1 6308   0.822   6.359   6.831
 1803SOL    HW2 6309   0.732   6.227   6.795
 1804SOL     OW 6310   2.431   3.639   5.445
 1804SOL    HW1 6311   2.464   3.625   5.538
 1804SOL    HW2 6312   2.331   3.641   5.446
 1805SOL     OW 6313   6.484   4.321   5.709
 1805SOL    HW1 6314   6.562   4.296   5.766
 1805SOL    HW2 6315   6.429   4.240   5.690
 1806SOL     OW 6316   0.618   0.495   0.406
 1806SOL    HW1 6317   0.586   0.450   0.322
 1806SOL    HW2 6318   0.687   0.437   0.450
 1807SOL     OW 6319   4.869   2.673   5.371
 1807SOL    HW1 6320   4.951   2.674   5.428
 1807SOL    HW2 6321   4.813   2.753   5.390
 1808SOL     OW 6322   0.663   4.086   6.249
 1808SOL    HW1 6323   0.661   4.063   6.152
 1808SOL    HW2 6324   0.718   4.019   6.298
 1809SOL     OW 6325   2.138   2.465   4.618
 1809SOL    HW1 6326   2.192   2.520   4.555
 1809SOL    HW2 6327   2.198   2.400   4.665
 1810SOL     OW 6328   2.936   6.831   3.663
 1810SOL    HW1 6329   2.946   6.916   3.610
 1810SOL    HW2 6330   2.867   6.773   3.619
 1811SOL     OW 6331   5.448   4.854   3.734
 1811SOL    HW1 6332   5.425   4.883   3.826
 1811SOL    HW2 6333   5.537   4.893   3.708
 1812SOL     OW 6334   4.381   6.052   4.971
 1812SOL    HW1 6335   4.466   6.032   4.922
 1812SOL    HW2 6336   4.303   6.025   4.915
 1813SOL     OW 6337   6.652   5.463   0.900
 1813SOL    HW1 6338   6.691   5.443   0.990
 1813SOL    HW2 6339   6.661   5.383   0.841
 1814SOL     OW 6340   6.021   1.619   0.883
 1814SOL    HW1 6341   6.029   1.553   0.808
 1814SOL    HW2 6342   6.107   1.622   0.933
 1815SOL     OW 6343   6.260   1.962   2.176
 1815SOL    HW1 6344   6.231   1.905   2.253
 1815SOL    HW2 6345   6.228   2.056   2.191
 1816SOL     OW 6346   2.600   3.692   1.217
 1816SOL    HW1 6347   2.693   3.657   1.206
 1816SOL    HW2 6348   2.585   3.768   1.155
 1817SOL     OW 6349   3.928   0.116   2.723
 1817SOL    HW1 6350   3.893   0.033   2.765
 1817SOL    HW2 6351   3.895   0.196   2.773
 1818SOL     OW 6352   1.868   6.224   2.697
 1818SOL    HW1 6353   1.783   6.260   2.660
 1818SOL    HW2 6354   1.851   6.133   2.736
 1819SOL     OW 6355   0.991   5.114   1.601
 1819SOL    HW1 6356   0.924   5.159   1.542
 1819SOL    HW2 6357   0.944   5.063   1.672
 1820SOL     OW 6358   4.670   0.715   2.293
 1820SOL    HW1 6359   4.613   0.762   2.226
 1820SOL    HW2 6360   4.709   0.632   2.252
 1821SOL     OW 6361   0.856   0.792   1.917
 1821SOL    HW1 6362   0.928   0.838   1.968
 1821SOL    HW2 6363   0.894   0.719   1.862
 1822SOL     OW 6364   2.521   2.940   1.413
 1822SOL    HW1 6365   2.474   2.873   1.355
 1822SOL    HW2 6366   2.460   2.969   1.486
 1823SOL     OW 6367   3.013   5.737   2.906
 1823SOL    HW1 6368   3.006   5.683   2.822
 1823SOL    HW2 6369   2.931   5.721   2.962
 1824SOL     OW 6370   3.169   2.553   1.745
 1824SOL    HW1 6371   3.089   2.500   1.772
 1824SOL    HW2 6372   3.247   2.491   1.734
 1825SOL     OW 6373   1.547   1.810   3.004
 1825SOL    HW1 6374   1.515   1.904   2.991
 1825SOL    HW2 6375   1.640   1.811   3.041
 1826SOL     OW 6376   3.023   6.955   1.289
 1826SOL    HW1 6377   2.925   6.946   1.310
 1826SOL    HW2 6378   3.076   6.919   1.366
 1827SOL     OW 6379   0.030   5.582   2.357
 1827SOL    HW1 6380   6.968   5.578   2.306
 1827SOL    HW2 6381   0.050   5.678   2.380
 1828SOL     OW 6382   1.147   2.115   0.719
 1828SOL    HW1 6383   1.129   2.154   0.810
 1828SOL    HW2 6384   1.098   2.168   0.650
 1829SOL     OW 6385   4.014   0.081   3.485
 1829SOL    HW1 6386   4.096   0.119   3.529
 1829SOL    HW2 6387   4.010   7.006   3.501
 1830SOL     OW 6388   5.968   5.920   3.885
 1830SOL    HW1 6389   5.987   5.887   3.793
 1830SOL    HW2 6390   6.042   5.981   3.915
 1831SOL     OW 6391   5.902   0.156   1.963
 1831SOL    HW1 6392   5.968   0.137   2.036
 1831SOL    HW2 6393   5.811   0.167   2.003
 1832SOL     OW 6394   5.242   1.170   0.937
 1832SOL    HW1 6395   5.326   1.117   0.952
 1832SOL    HW2 6396   5.170   1.136   0.998
 1833SOL     OW 6397   5.533   0.314   5.488
 1833SOL    HW1 6398   5.455   0.285   5.544
 1833SOL    HW2 6399   5.529   0.413   5.475
 1834SOL     OW 6400   2.636   3.939   0.417
 1834SOL    HW1 6401   2.695   4.013   0.450
 1834SOL    HW2 6402   2.582   3.903   0.494
 1835SOL     OW 6403   1.357   4.349   1.244
 1835SOL    HW1 6404   1.381   4.312   1.154
 1835SOL    HW2 6405   1.258   4.354   1.252
 1836SOL     OW 6406   5.172   1.389   1.240
 1836SOL    HW1 6407   5.234   1.388   1.161
 1836SOL    HW2 6408   5.203   1.459   1.305
 1837SOL     OW 6409   1.108   2.514   4.499
 1837SOL    HW1 6410   1.159   2.529   4.414
 1837SOL    HW2 6411   1.170   2.526   4.577
 1838SOL     OW 6412   0.140   1.973   4.123
 1838SOL    HW1 6413   0.074   2.034   4.079
 1838SOL    HW2 6414   0.093   1.892   4.159
 1839SOL     OW 6415   4.863   2.884   5.096
 1839SOL    HW1 6416   4.900   2.801   5.137
 1839SOL    HW2 6417   4.890   2.888   4.999
 1840SOL     OW 6418   3.571   5.746   1.321
 1840SOL    HW1 6419   3.500   5.739   1.251
 1840SOL    HW2 6420   3.644   5.680   1.301
 1841SOL     OW 6421   2.429   2.264   4.002
 1841SOL    HW1 6422   2.482   2.179   4.001
 1841SOL    HW2 6423   2.337   2.245   4.038
 1842SOL     OW 6424   0.704   5.328   0.555
 1842SOL    HW1 6425   0.785   5.318   0.612
 1842SOL    HW2 6426   0.622   5.324   0.612
 1843SOL     OW 6427   0.361   2.089   4.275
 1843SOL    HW1 6428   0.300   2.102   4.353
 1843SOL    HW2 6429   0.306   2.071   4.193
 1844SOL     OW 6430   3.653   0.759   5.884
 1844SOL    HW1 6431   3.570   0.747   5.938
 1844SOL    HW2 6432   3.732   0.766   5.944
 1845SOL     OW 6433   1.951   6.619   4.825
 1845SOL    HW1 6434   1.889   6.685   4.783
 1845SOL    HW2 6435   1.961   6.639   4.922
 1846SOL     OW 6436   4.431   2.383   0.509
 1846SOL    HW1 6437   4.469   2.465   0.465
 1846SOL    HW2 6438   4.506   2.328   0.545
 1847SOL     OW 6439   0.932   0.347   6.047
 1847SOL    HW1 6440   0.836   0.317   6.043
 1847SOL    HW2 6441   0.961   0.353   6.142
 1848SOL     OW 6442   0.751   6.649   2.542
 1848SOL    HW1 6443   0.846   6.681   2.544
 1848SOL    HW2 6444   0.730   6.601   2.628
 1849SOL     OW 6445   3.588   1.857   0.918
 1849SOL    HW1 6446   3.681   1.862   0.953
 1849SOL    HW2 6447   3.589   1.820   0.825
 1850SOL     OW 6448   0.222   3.110   2.535
 1850SOL    HW1 6449   0.147   3.079   2.476
 1850SOL    HW2 6450   0.294   3.040   2.535
 1851SOL     OW 6451   0.583   2.118   1.429
 1851SOL    HW1 6452   0.680   2.095   1.432
 1851SOL    HW2 6453   0.529   2.036   1.412
 1852SOL     OW 6454   5.874   3.402   1.718
 1852SOL    HW1 6455   5.802   3.365   1.777
 1852SOL    HW2 6456   5.832   3.455   1.644
 1853SOL     OW 6457   0.299   3.211   3.099
 1853SOL    HW1 6458   0.373   3.195   3.165
 1853SOL    HW2 6459   0.304   3.141   3.027
 1854SOL     OW 6460   2.387   6.292   3.172
 1854SOL    HW1 6461   2.289   6.276   3.182
 1854SOL    HW2 6462   2.434   6.262   3.255
 1855SOL     OW 6463   4.767   4.061   6.494
 1855SOL    HW1 6464   4.851   4.090   6.540
 1855SOL    HW2 6465   4.698   4.038   6.563
 1856SOL     OW 6466   6.607   3.661   5.383
 1856SOL    HW1 6467   6.531   3.644   5.320
 1856SOL    HW2 6468   6.671   3.584   5.378
 1857SOL     OW 6469   3.683   0.985   6.176
 1857SOL    HW1 6470   3.589   0.991   6.142
 1857SOL    HW2 6471   3.683   0.938   6.265
 1858SOL     OW 6472   6.011   2.983   3.477
 1858SOL    HW1 6473   6.001   3.072   3.522
 1858SOL    HW2 6474   6.104   2.950   3.490
 1859SOL     OW 6475   4.174   1.402   3.442
 1859SOL    HW1 6476   4.196   1.320   3.389
 1859SOL    HW2 6477   4.197   1.483   3.388
 1860SOL     OW 6478   6.387   0.586   3.856
 1860SOL    HW1 6479   6.431   0.673   3.880
 1860SOL    HW2 6480   6.456   0.523   3.821
 1861SOL     OW 6481   5.393   6.985   2.300
 1861SOL    HW1 6482   5.339   6.923   2.357
 1861SOL    HW2 6483   5.417   0.042   2.353
 1862SOL     OW 6484   2.604   0.535   6.338
 1862SOL    HW1 6485   2.611   0.597   6.260
 1862SOL    HW2 6486   2.566   0.448   6.308
 1863SOL     OW 6487   2.008   1.521   0.534
 1863SOL    HW1 6488   2.047   1.487   0.620
 1863SOL    HW2 6489   1.993   1.444   0.472
 1864SOL     OW 6490   0.766   6.885   5.749
 1864SOL    HW1 6491   0.782   6.877   5.650
 1864SOL    HW2 6492   0.847   6.855   5.799
 1865SOL     OW 6493   3.571   0.292   6.182
 1865SOL    HW1 6494   3.513   0.281   6.102
 1865SOL    HW2 6495   3.658   0.334   6.155
 1866SOL     OW 6496   4.195   4.980   3.276
 1866SOL    HW1 6497   4.137   4.966   3.356
 1866SOL    HW2 6498   4.286   5.010   3.305
 1867SOL     OW 6499   0.680   3.946   0.129
 1867SOL    HW1 6500   0.650   3.975   0.039
 1867SOL    HW2 6501   0.628   3.866   0.158
 1868SOL     OW 6502   4.967   3.961   0.258
 1868SOL    HW1 6503   4.982   3.867   0.226
 1868SOL    HW2 6504   4.927   3.959   0.349
 1869SOL     OW 6505   5.893   2.940   5.694
 1869SOL    HW1 6506   5.873   2.842   5.699
 1869SOL    HW2 6507   5.922   2.973   5.783
 1870SOL     OW 6508   1.992   3.055   5.574
 1870SOL    HW1 6509   1.979   2.957   5.555
 1870SOL    HW2 6510   1.936   3.109   5.512
 1871SOL     OW 6511   0.380   1.212   6.550
 1871SOL    HW1 6512   0.407   1.271   6.626
 1871SOL    HW2 6513   0.445   1.222   6.475
 1872SOL     OW 6514   3.354   2.728   0.369
 1872SOL    HW1 6515   3.270   2.755   0.417
 1872SOL    HW2 6516   3.391   2.808   0.322
 1873SOL     OW 6517   4.927   1.794   5.942
 1873SOL    HW1 6518   4.849   1.734   5.924
 1873SOL    HW2 6519   4.983   1.801   5.859
 1874SOL     OW 6520   3.212   1.236   1.171
 1874SOL    HW1 6521   3.233   1.219   1.075
 1874SOL    HW2 6522   3.132   1.184   1.198
 1875SOL     OW 6523   0.409   1.299   0.288
 1875SOL    HW1 6524   0.442   1.260   0.203
 1875SOL    HW2 6525   0.313   1.327   0.277
 1876SOL     OW 6526   4.255   0.015   5.991
 1876SOL    HW1 6527   4.184   6.969   6.002
 1876SOL    HW2 6528   4.231   0.076   5.916
 1877SOL     OW 6529   0.529   0.029   2.498
 1877SOL    HW1 6530   0.627   0.044   2.509
 1877SOL    HW2 6531   0.511   6.955   2.489
 1878SOL     OW 6532   6.824   1.984   3.717
 1878SOL    HW1 6533   6.804   2.036   3.634
 1878SOL    HW2 6534   6.779   2.027   3.795
 1879SOL     OW 6535   1.339   4.363   4.407
 1879SOL    HW1 6536   1.379   4.454   4.408
 1879SOL    HW2 6537   1.406   4.297   4.372
 1880SOL     OW 6538   6.922   2.106   4.738
 1880SOL    HW1 6539   6.881   2.193   4.711
 1880SOL    HW2 6540   6.995   2.123   4.804
 1881SOL     OW 6541   5.756   1.834   3.033
 1881SOL    HW1 6542   5.687   1.823   2.961
 1881SOL    HW2 6543   5.843   1.793   3.003
 1882SOL     OW 6544   1.336   4.005   6.168
 1882SOL    HW1 6545   1.340   3.906   6.184
 1882SOL    HW2 6546   1.269   4.024   6.097
 1883SOL     OW 6547   6.905   2.016   3.223
 1883SOL    HW1 6548   7.005   2.018   3.218
 1883SOL    HW2 6549   6.874   1.921   3.223
 1884SOL     OW 6550   0.072   2.358   0.815
 1884SOL    HW1 6551   7.011   2.308   0.800
 1884SOL    HW2 6552   0.108   2.336   0.906
 1885SOL     OW 6553   1.868   1.791   6.271
 1885SOL    HW1 6554   1.902   1.701   6.298
 1885SOL    HW2 6555   1.887   1.857   6.345
 1886SOL     OW 6556   1.542   0.614   1.439
 1886SOL    HW1 6557   1.502   0.524   1.421
 1886SOL    HW2 6558   1.641   0.609   1.429
 1887SOL     OW 6559   1.161   5.506   4.984
 1887SOL    HW1 6560   1.116   5.430   5.031
 1887SOL    HW2 6561   1.250   5.524   5.026
 1888SOL     OW 6562   3.064   2.137   6.857
 1888SOL    HW1 6563   3.090   2.041   6.855
 1888SOL    HW2 6564   2.992   2.153   6.789
 1889SOL     OW 6565   0.259   3.260   5.566
 1889SOL    HW1 6566   0.160   3.256   5.578
 1889SOL    HW2 6567   0.293   3.348   5.601
 1890SOL     OW 6568   1.722   5.959   4.225
 1890SOL    HW1 6569   1.692   5.948   4.320
 1890SOL    HW2 6570   1.661   5.907   4.165
 1891SOL     OW 6571   5.433   2.444   1.890
 1891SOL    HW1 6572   5.439   2.503   1.971
 1891SOL    HW2 6573   5.412   2.351   1.919
 1892SOL     OW 6574   2.052   0.814   2.615
 1892SOL    HW1 6575   2.050   0.732   2.671
 1892SOL    HW2 6576   2.119   0.879   2.653
 1893SOL     OW 6577   3.103   3.789   1.227
 1893SOL    HW1 6578   3.155   3.860   1.180
 1893SOL    HW2 6579   3.029   3.832   1.280
 1894SOL     OW 6580   3.543   4.069   4.044
 1894SOL    HW1 6581   3.611   4.093   4.113
 1894SOL    HW2 6582   3.453   4.065   4.087
 1895SOL     OW 6583   4.489   0.406   1.486
 1895SOL    HW1 6584   4.446   0.443   1.403
 1895SOL    HW2 6585   4.535   0.480   1.535
 1896SOL     OW 6586   5.203   1.231   1.491
 1896SOL    HW1 6587   5.173   1.205   1.399
 1896SOL    HW2 6588   5.134   1.292   1.532
 1897SOL     OW 6589   2.227   5.698   1.529
 1897SOL    HW1 6590   2.182   5.621   1.574
 1897SOL    HW2 6591   2.212   5.693   1.431
 1898SOL     OW 6592   2.203   5.239   3.957
 1898SOL    HW1 6593   2.117   5.290   3.963
 1898SOL    HW2 6594   2.183   5.144   3.931
 1899SOL     OW 6595   0.276   1.388   1.599
 1899SOL    HW1 6596   0.186   1.346   1.609
 1899SOL    HW2 6597   0.301   1.435   1.684
 1900SOL     OW 6598   2.224   0.633   6.923
 1900SOL    HW1 6599   2.234   0.583   6.837
 1900SOL    HW2 6600   2.291   0.707   6.927
 1901SOL     OW 6601   1.638   2.021   0.639
 1901SOL    HW1 6602   1.712   2.088   0.642
 1901SOL    HW2 6603   1.632   1.974   0.728
 1902SOL     OW 6604   1.978   0.757   5.266
 1902SOL    HW1 6605   2.008   0.662   5.281
 1902SOL    HW2 6606   1.970   0.804   5.353
 1903SOL     OW 6607   0.342   3.866   2.986
 1903SOL    HW1 6608   0.426   3.913   2.958
 1903SOL    HW2 6609   0.274   3.872   2.913
 1904SOL     OW 6610   5.784   5.349   3.716
 1904SOL    HW1 6611   5.864   5.377   3.769
 1904SOL    HW2 6612   5.706   5.406   3.741
 1905SOL     OW 6613   0.936   0.283   3.505
 1905SOL    HW1 6614   0.910   0.379   3.511
 1905SOL    HW2 6615   0.951   0.258   3.409
 1906SOL     OW 6616   1.881   0.302   4.846
 1906SOL    HW1 6617   1.967   0.347   4.824
 1906SOL    HW2 6618   1.805   0.362   4.820
 1907SOL     OW 6619   3.904   1.520   1.840
 1907SOL    HW1 6620   3.842   1.597   1.857
 1907SOL    HW2 6621   3.853   1.446   1.796
 1908SOL     OW 6622   3.767   6.607   5.564
 1908SOL    HW1 6623   3.737   6.692   5.607
 1908SOL    HW2 6624   3.775   6.536   5.634
 1909SOL     OW 6625   0.771   3.405   3.576
 1909SOL    HW1 6626   0.821   3.478   3.528
 1909SOL    HW2 6627   0.815   3.386   3.663
 1910SOL     OW 6628   0.186   5.715   6.093
 1910SOL    HW1 6629   0.168   5.731   5.996
 1910SOL    HW2 6630   0.206   5.803   6.138
 1911SOL     OW 6631   7.016   3.682   5.050
 1911SOL    HW1 6632   0.026   3.738   5.126
 1911SOL    HW2 6633   6.920   3.704   5.033
 1912SOL     OW 6634   3.085   5.696   0.954
 1912SOL    HW1 6635   3.081   5.796   0.954
 1912SOL    HW2 6636   2.992   5.659   0.961
 1913SOL     OW 6637   2.537   0.232   4.745
 1913SOL    HW1 6638   2.578   0.307   4.797
 1913SOL    HW2 6639   2.560   0.243   4.648
 1914SOL     OW 6640   3.914   3.117   6.482
 1914SOL    HW1 6641   3.992   3.178   6.465
 1914SOL    HW2 6642   3.890   3.120   6.579
 1915SOL     OW 6643   3.498   2.918   5.920
 1915SOL    HW1 6644   3.419   2.973   5.893
 1915SOL    HW2 6645   3.549   2.966   5.992
 1916SOL     OW 6646   4.091   5.692   1.508
 1916SOL    HW1 6647   4.156   5.616   1.501
 1916SOL    HW2 6648   4.066   5.722   1.416
 1917SOL     OW 6649   2.201   3.097   0.139
 1917SOL    HW1 6650   2.299   3.116   0.133
 1917SOL    HW2 6651   2.155   3.174   0.182
 1918SOL     OW 6652   1.466   1.527   4.744
 1918SOL    HW1 6653   1.429   1.471   4.817
 1918SOL    HW2 6654   1.565   1.533   4.754
 1919SOL     OW 6655   1.343   1.574   1.800
 1919SOL    HW1 6656   1.275   1.627   1.850
 1919SOL    HW2 6657   1.435   1.605   1.825
 1920SOL     OW 6658   6.857   4.355   2.887
 1920SOL    HW1 6659   6.823   4.319   2.974
 1920SOL    HW2 6660   6.952   4.326   2.874
 1921SOL     OW 6661   1.869   3.639   0.011
 1921SOL    HW1 6662   1.807   3.569   0.048
 1921SOL    HW2 6663   1.936   3.664   0.081
 1922SOL     OW 6664   2.875   3.611   1.499
 1922SOL    HW1 6665   2.815   3.630   1.577
 1922SOL    HW2 6666   2.970   3.615   1.528
 1923SOL     OW 6667   4.223   1.811   6.386
 1923SOL    HW1 6668   4.180   1.763   6.310
 1923SOL    HW2 6669   4.211   1.758   6.470
 1924SOL     OW 6670   4.523   6.488   0.499
 1924SOL    HW1 6671   4.526   6.527   0.407
 1924SOL    HW2 6672   4.485   6.555   0.563
 1925SOL     OW 6673   1.451   4.673   0.845
 1925SOL    HW1 6674   1.510   4.674   0.764
 1925SOL    HW2 6675   1.418   4.765   0.864
 1926SOL     OW 6676   3.299   6.841   2.641
 1926SOL    HW1 6677   3.329   6.935   2.660
 1926SOL    HW2 6678   3.249   6.805   2.719
 1927SOL     OW 6679   2.470   4.793   0.170
 1927SOL    HW1 6680   2.486   4.780   0.267
 1927SOL    HW2 6681   2.557   4.801   0.122
 1928SOL     OW 6682   6.146   4.263   4.946
 1928SOL    HW1 6683   6.237   4.278   4.907
 1928SOL    HW2 6684   6.089   4.214   4.880
 1929SOL     OW 6685   2.537   0.450   1.637
 1929SOL    HW1 6686   2.526   0.527   1.573
 1929SOL    HW2 6687   2.511   0.365   1.591
 1930SOL     OW 6688   5.553   3.761   6.446
 1930SOL    HW1 6689   5.509   3.684   6.492
 1930SOL    HW2 6690   5.531   3.846   6.494
 1931SOL     OW 6691   0.663   2.178   0.311
 1931SOL    HW1 6692   0.590   2.116   0.282
 1931SOL    HW2 6693   0.737   2.174   0.243
 1932SOL     OW 6694   4.754   2.537   3.460
 1932SOL    HW1 6695   4.776   2.513   3.555
 1932SOL    HW2 6696   4.678   2.480   3.429
 1933SOL     OW 6697   1.005   3.057   0.783
 1933SOL    HW1 6698   0.912   3.026   0.763
 1933SOL    HW2 6699   1.014   3.073   0.882
 1934SOL     OW 6700   0.156   1.492   4.732
 1934SOL    HW1 6701   0.074   1.544   4.755
 1934SOL    HW2 6702   0.160   1.479   4.633
 1935SOL     OW 6703   4.455   5.064   3.394
 1935SOL    HW1 6704   4.533   5.123   3.414
 1935SOL    HW2 6705   4.485   4.969   3.388
 1936SOL     OW 6706   4.832   3.880   3.831
 1936SOL    HW1 6707   4.920   3.885   3.783
 1936SOL    HW2 6708   4.770   3.950   3.794
 1937SOL     OW 6709   4.395   6.261   0.231
 1937SOL    HW1 6710   4.377   6.339   0.171
 1937SOL    HW2 6711   4.348   6.275   0.318
 1938SOL     OW 6712   1.535   2.083   0.977
 1938SOL    HW1 6713   1.452   2.105   1.029
 1938SOL    HW2 6714   1.580   2.168   0.950
 1939SOL     OW 6715   6.587   6.829   4.813
 1939SOL    HW1 6716   6.499   6.800   4.851
 1939SOL    HW2 6717   6.582   6.826   4.713
 1940SOL     OW 6718   5.984   4.201   1.319
 1940SOL    HW1 6719   6.045   4.249   1.256
 1940SOL    HW2 6720   5.951   4.117   1.274
 1941SOL     OW 6721   1.666   2.687   3.919
 1941SOL    HW1 6722   1.667   2.771   3.865
 1941SOL    HW2 6723   1.759   2.664   3.947
 1942SOL     OW 6724   5.341   3.311   2.930
 1942SOL    HW1 6725   5.299   3.348   3.013
 1942SOL    HW2 6726   5.285   3.335   2.851
 1943SOL     OW 6727   1.491   0.414   2.588
 1943SOL    HW1 6728   1.490   0.349   2.664
 1943SOL    HW2 6729   1.580   0.459   2.584
 1944SOL     OW 6730   6.013   3.998   0.432
 1944SOL    HW1 6731   5.953   3.925   0.463
 1944SOL    HW2 6732   6.057   4.042   0.511
 1945SOL     OW 6733   3.885   5.665   0.072
 1945SOL    HW1 6734   3.893   5.568   0.097
 1945SOL    HW2 6735   3.793   5.697   0.094
 1946SOL     OW 6736   5.659   0.186   1.395
 1946SOL    HW1 6737   5.746   0.153   1.360
 1946SOL    HW2 6738   5.647   0.155   1.489
 1947SOL     OW 6739   5.525   5.617   4.144
 1947SOL    HW1 6740   5.479   5.636   4.057
 1947SOL    HW2 6741   5.550   5.521   4.149
 1948SOL     OW 6742   6.423   5.150   2.607
 1948SOL    HW1 6743   6.520   5.152   2.633
 1948SOL    HW2 6744   6.366   5.153   2.689
 1949SOL     OW 6745   4.033   3.468   6.941
 1949SOL    HW1 6746   4.033   3.437   6.846
 1949SOL    HW2 6747   3.972   3.411   6.995
 1950SOL     OW 6748   3.960   3.111   2.991
 1950SOL    HW1 6749   3.901   3.192   2.982
 1950SOL    HW2 6750   4.011   3.097   2.907
 1951SOL     OW 6751   0.264   4.661   6.311
 1951SOL    HW1 6752   0.214   4.691   6.229
 1951SOL    HW2 6753   0.347   4.612   6.283
 1952SOL     OW 6754   5.450   4.757   1.276
 1952SOL    HW1 6755   5.480   4.852   1.266
 1952SOL    HW2 6756   5.360   4.755   1.320
 1953SOL     OW 6757   6.623   1.789   6.221
 1953SOL    HW1 6758   6.596   1.696   6.193
 1953SOL    HW2 6759   6.713   1.786   6.265
 1954SOL     OW 6760   5.916   0.365   1.423
 1954SOL    HW1 6761   5.833   0.334   1.469
 1954SOL    HW2 6762   5.930   0.462   1.442
 1955SOL     OW 6763   0.008   0.886   2.320
 1955SOL    HW1 6764   0.033   0.975   2.284
 1955SOL    HW2 6765   0.090   0.834   2.341
 1956SOL     OW 6766   4.495   0.215   1.959
 1956SOL    HW1 6767   4.555   0.189   2.035
 1956SOL    HW2 6768   4.542   0.197   1.872
 1957SOL     OW 6769   5.374   4.658   4.277
 1957SOL    HW1 6770   5.328   4.586   4.330
 1957SOL    HW2 6771   5.336   4.747   4.302
 1958SOL     OW 6772   4.733   1.082   1.930
 1958SOL    HW1 6773   4.764   1.058   2.022
 1958SOL    HW2 6774   4.638   1.113   1.934
 1959SOL     OW 6775   0.048   6.726   3.905
 1959SOL    HW1 6776   0.084   6.722   3.998
 1959SOL    HW2 6777   0.058   6.818   3.869
 1960SOL     OW 6778   0.163   3.855   2.249
 1960SOL    HW1 6779   0.146   3.803   2.332
 1960SOL    HW2 6780   0.076   3.891   2.214
 1961SOL     OW 6781   5.959   4.496   4.649
 1961SOL    HW1 6782   5.908   4.425   4.599
 1961SOL    HW2 6783   5.949   4.583   4.602
 1962SOL     OW 6784   1.613   6.349   2.587
 1962SOL    HW1 6785   1.599   6.327   2.684
 1962SOL    HW2 6786   1.527   6.339   2.537
 1963SOL     OW 6787   1.296   2.177   1.489
 1963SOL    HW1 6788   1.370   2.171   1.423
 1963SOL    HW2 6789   1.313   2.113   1.565
 1964SOL     OW 6790   4.304   4.897   1.956
 1964SOL    HW1 6791   4.307   4.876   1.859
 1964SOL    HW2 6792   4.371   4.969   1.976
 1965SOL     OW 6793   1.789   2.439   4.433
 1965SOL    HW1 6794   1.830   2.469   4.347
 1965SOL    HW2 6795   1.776   2.518   4.493
 1966SOL     OW 6796   1.560   5.674   1.243
 1966SOL    HW1 6797   1.517   5.586   1.224
 1966SOL    HW2 6798   1.547   5.736   1.165
 1967SOL     OW 6799   6.311   2.817   4.286
 1967SOL    HW1 6800   6.240   2.877   4.248
 1967SOL    HW2 6801   6.367   2.782   4.211
 1968SOL     OW 6802   2.664   0.568   5.182
 1968SOL    HW1 6803   2.683   0.508   5.104
 1968SOL    HW2 6804   2.568   0.594   5.181
 1969SOL     OW 6805   3.339   0.555   1.547
 1969SOL    HW1 6806   3.290   0.503   1.478
 1969SOL    HW2 6807   3.410   0.611   1.502
 1970SOL     OW 6808   0.242   0.225   5.312
 1970SOL    HW1 6809   0.304   0.293   5.273
 1970SOL    HW2 6810   0.284   0.135   5.306
 1971SOL     OW 6811   0.548   0.949   5.615
 1971SOL    HW1 6812   0.639   0.932   5.576
 1971SOL    HW2 6813   0.480   0.896   5.564
 1972SOL     OW 6814   5.565   2.573   1.393
 1972SOL    HW1 6815   5.617   2.488   1.399
 1972SOL    HW2 6816   5.471   2.557   1.424
 1973SOL     OW 6817   2.671   4.107   1.686
 1973SOL    HW1 6818   2.629   4.019   1.665
 1973SOL    HW2 6819   2.601   4.178   1.684
 1974SOL     OW 6820   4.715   6.563   4.601
 1974SOL    HW1 6821   4.756   6.615   4.675
 1974SOL    HW2 6822   4.625   6.601   4.580
 1975SOL     OW 6823   2.160   2.076   4.073
 1975SOL    HW1 6824   2.124   2.149   4.132
 1975SOL    HW2 6825   2.137   1.987   4.113
 1976SOL     OW 6826   5.487   5.895   0.059
 1976SOL    HW1 6827   5.549   5.842   0.116
 1976SOL    HW2 6828   5.397   5.898   0.102
 1977SOL     OW 6829   1.899   3.569   5.118
 1977SOL    HW1 6830   1.930   3.564   5.213
 1977SOL    HW2 6831   1.815   3.624   5.114
 1978SOL     OW 6832   1.608   5.866   3.236
 1978SOL    HW1 6833   1.659   5.918   3.167
 1978SOL    HW2 6834   1.672   5.814   3.293
 1979SOL     OW 6835   5.320   5.069   6.859
 1979SOL    HW1 6836   5.285   5.111   6.942
 1979SOL    HW2 6837   5.404   5.115   6.831
 1980SOL     OW 6838   3.991   0.845   2.871
 1980SOL    HW1 6839   3.935   0.785   2.929
 1980SOL    HW2 6840   4.056   0.895   2.928
 1981SOL     OW 6841   5.552   2.707   2.341
 1981SOL    HW1 6842   5.496   2.746   2.414
 1981SOL    HW2 6843   5.644   2.746   2.346
 1982SOL     OW 6844   6.533   3.835   3.841
 1982SOL    HW1 6845   6.593   3.758   3.864
 1982SOL    HW2 6846   6.589   3.915   3.818
 1983SOL     OW 6847   1.074   0.400   1.681
 1983SOL    HW1 6848   1.104   0.463   1.610
 1983SOL    HW2 6849   1.080   0.306   1.648
 1984SOL     OW 6850   4.439   2.470   5.243
 1984SOL    HW1 6851   4.393   2.558   5.256
 1984SOL    HW2 6852   4.537   2.485   5.232
 1985SOL     OW 6853   6.808   5.857   2.443
 1985SOL    HW1 6854   6.901   5.819   2.446
 1985SOL    HW2 6855   6.774   5.853   2.350
 1986SOL     OW 6856   2.798   1.182   6.102
 1986SOL    HW1 6857   2.866   1.128   6.152
 1986SOL    HW2 6858   2.711   1.133   6.102
 1987SOL     OW 6859   2.204   1.691   3.751
 1987SOL    HW1 6860   2.239   1.598   3.764
 1987SOL    HW2 6861   2.273   1.757   3.781
 1988SOL     OW 6862   0.446   1.737   1.033
 1988SOL    HW1 6863   0.543   1.715   1.043
 1988SOL    HW2 6864   0.391   1.659   1.061
 1989SOL     OW 6865   2.188   5.946   4.287
 1989SOL    HW1 6866   2.120   6.019   4.277
 1989SOL    HW2 6867   2.178   5.903   4.376
 1990SOL     OW 6868   3.870   6.443   0.166
 1990SOL    HW1 6869   3.942   6.391   0.120
 1990SOL    HW2 6870   3.823   6.501   0.099
 1991SOL     OW 6871   2.076   5.438   0.075
 1991SOL    HW1 6872   2.144   5.370   0.047
 1991SOL    HW2 6873   2.121   5.509   0.129
 1992SOL     OW 6874   6.899   0.593   0.404
 1992SOL    HW1 6875   6.932   0.498   0.411
 1992SOL    HW2 6876   6.836   0.612   0.479
 1993SOL     OW 6877   3.399   1.830   4.980
 1993SOL    HW1 6878   3.447   1.848   5.065
 1993SOL    HW2 6879   3.341   1.908   4.957
 1994SOL     OW 6880   5.172   1.715   1.194
 1994SOL    HW1 6881   5.220   1.781   1.137
 1994SOL    HW2 6882   5.114   1.657   1.136
 1995SOL     OW 6883   5.619   3.067   3.682
 1995SOL    HW1 6884   5.617   3.081   3.583
 1995SOL    HW2 6885   5.559   3.133   3.726
 1996SOL     OW 6886   2.584   1.861   1.410
 1996SOL    HW1 6887   2.578   1.944   1.356
 1996SOL    HW2 6888   2.638   1.793   1.361
 1997SOL     OW 6889   3.334   1.443   3.656
 1997SOL    HW1 6890   3.248   1.422   3.702
 1997SOL    HW2 6891   3.335   1.400   3.565
 1998SOL     OW 6892   1.541   3.709   0.571
 1998SOL    HW1 6893   1.570   3.717   0.666
 1998SOL    HW2 6894   1.523   3.800   0.534
 1999SOL     OW 6895   0.778   0.337   5.070
 1999SOL    HW1 6896   0.839   0.261   5.094
 1999SOL    HW2 6897   0.805   0.375   4.982
 2000SOL     OW 6898   4.092   3.305   5.954
 2000SOL    HW1 6899   4.039   3.256   6.024
 2000SOL    HW2 6900   4.156   3.368   5.999
 2001SOL     OW 6901   2.102   1.449   7.004
 2001SOL    HW1 6902   2.029   1.393   6.964
 2001SOL    HW2 6903   2.095   1.445   0.080
 2002SOL     OW 6904   0.524   5.617   0.910
 2002SOL    HW1 6905   0.457   5.687   0.936
 2002SOL    HW2 6906   0.475   5.533   0.884
 2003SOL     OW 6907   6.770   4.904   1.737
 2003SOL    HW1 6908   6.749   4.907   1.640
 2003SOL    HW2 6909   6.686   4.905   1.790
 2004SOL     OW 6910   4.580   0.684   5.066
 2004SOL    HW1 6911   4.652   0.745   5.032
 2004SOL    HW2 6912   4.595   0.592   5.031
 2005SOL     OW 6913   0.005   5.095   6.758
 2005SOL    HW1 6914   0.064   5.026   6.717
 2005SOL    HW2 6915   0.057   5.151   6.822
 2006SOL     OW 6916   5.753   6.663   4.538
 2006SOL    HW1 6917   5.849   6.692   4.537
 2006SOL    HW2 6918   5.719   6.656   4.444
 2007SOL     OW 6919   5.406   3.920   1.424
 2007SOL    HW1 6920   5.400   3.821   1.431
 2007SOL    HW2 6921   5.469   3.945   1.351
 2008SOL     OW 6922   2.123   3.297   3.400
 2008SOL    HW1 6923   2.088   3.309   3.492
 2008SOL    HW2 6924   2.172   3.380   3.372
 2009SOL     OW 6925   5.364   6.287   2.332
 2009SOL    HW1 6926   5.424   6.367   2.343
 2009SOL    HW2 6927   5.274   6.307   2.371
 2010SOL     OW 6928   1.934   1.298   1.534
 2010SOL    HW1 6929   1.955   1.364   1.607
 2010SOL    HW2 6930   1.845   1.319   1.495
 2011SOL     OW 6931   0.202   1.039   4.820
 2011SOL    HW1 6932   0.293   1.032   4.780
 2011SOL    HW2 6933   0.160   0.948   4.824
 2012SOL     OW 6934   1.788   3.350   2.228
 2012SOL    HW1 6935   1.736   3.350   2.143
 2012SOL    HW2 6936   1.878   3.311   2.212
 2013SOL     OW 6937   6.692   3.124   3.608
 2013SOL    HW1 6938   6.775   3.178   3.597
 2013SOL    HW2 6939   6.651   3.109   3.518
 2014SOL     OW 6940   2.822   7.020   3.093
 2014SOL    HW1 6941   2.754   7.016   3.020
 2014SOL    HW2 6942   2.801   6.951   3.163
 2015SOL     OW 6943   3.590   6.651   0.356
 2015SOL    HW1 6944   3.607   6.555   0.332
 2015SOL    HW2 6945   3.493   6.673   0.340
 2016SOL     OW 6946   1.707   5.622   5.604
 2016SOL    HW1 6947   1.759   5.687   5.548
 2016SOL    HW2 6948   1.652   5.672   5.671
 2017SOL     OW 6949   4.386   0.492   3.289
 2017SOL    HW1 6950   4.315   0.457   3.228
 2017SOL    HW2 6951   4.394   0.591   3.279
 2018SOL     OW 6952   6.841   3.181   4.062
 2018SOL    HW1 6953   6.901   3.101   4.053
 2018SOL    HW2 6954   6.861   3.246   3.989
 2019SOL     OW 6955   6.188   4.053   6.402
 2019SOL    HW1 6956   6.153   4.125   6.462
 2019SOL    HW2 6957   6.257   4.092   6.341
 2020SOL     OW 6958   1.804   6.396   5.687
 2020SOL    HW1 6959   1.883   6.342   5.716
 2020SOL    HW2 6960   1.800   6.481   5.740
 2021SOL     OW 6961   6.155   6.639   4.022
 2021SOL    HW1 6962   6.213   6.645   3.941
 2021SOL    HW2 6963   6.211   6.646   4.104
 2022SOL     OW 6964   2.057   4.415   4.621
 2022SOL    HW1 6965   2.026   4.508   4.641
 2022SOL    HW2 6966   2.157   4.411   4.622
 2023SOL     OW 6967   0.103   0.056   6.825
 2023SOL    HW1 6968   0.165   0.108   6.884
 2023SOL    HW2 6969   0.015   0.102   6.821
 2024SOL     OW 6970   6.886   5.776   3.893
 2024SOL    HW1 6971   6.975   5.799   3.852
 2024SOL    HW2 6972   6.823   5.747   3.821
 2025SOL     OW 6973   2.998   0.433   3.824
 2025SOL    HW1 6974   3.017   0.526   3.855
 2025SOL    HW2 6975   3.051   0.368   3.878
 2026SOL     OW 6976   6.350   1.882   6.683
 2026SOL    HW1 6977   6.325   1.816   6.753
 2026SOL    HW2 6978   6.406   1.838   6.613
 2027SOL     OW 6979   0.571   6.293   1.456
 2027SOL    HW1 6980   0.627   6.370   1.425
 2027SOL    HW2 6981   0.629   6.222   1.495
 2028SOL     OW 6982   3.395   5.702   3.106
 2028SOL    HW1 6983   3.336   5.769   3.151
 2028SOL    HW2 6984   3.490   5.734   3.107
 2029SOL     OW 6985   6.714   2.412   6.936
 2029SOL    HW1 6986   6.756   2.323   6.918
 2029SOL    HW2 6987   6.614   2.402   6.939
 2030SOL     OW 6988   3.385   0.152   2.535
 2030SOL    HW1 6989   3.482   0.156   2.511
 2030SOL    HW2 6990   3.338   0.230   2.495
 2031SOL     OW 6991   0.026   6.346   2.388
 2031SOL    HW1 6992   6.962   6.384   2.359
 2031SOL    HW2 6993   0.025   6.329   2.487
 2032SOL     OW 6994   3.513   1.269   1.185
 2032SOL    HW1 6995   3.529   1.349   1.242
 2032SOL    HW2 6996   3.415   1.255   1.173
 2033SOL     OW 6997   2.268   0.838   1.067
 2033SOL    HW1 6998   2.216   0.801   1.144
 2033SOL    HW2 6999   2.306   0.764   1.013
 2034SOL     OW 7000   1.784   5.032   5.765
 2034SOL    HW1 7001   1.846   5.105   5.794
 2034SOL    HW2 7002   1.690   5.067   5.763
 2035SOL     OW 7003   6.339   6.855   2.328
 2035SOL    HW1 7004   6.298   6.781   2.380
 2035SOL    HW2 7005   6.303   6.853   2.234
 2036SOL     OW 7006   1.478   3.655   3.568
 2036SOL    HW1 7007   1.473   3.728   3.636
 2036SOL    HW2 7008   1.484   3.695   3.476
 2037SOL     OW 7009   6.608   2.942   6.288
 2037SOL    HW1 7010   6.645   2.923   6.197
 2037SOL    HW2 7011   6.590   2.855   6.335
 2038SOL     OW 7012   2.454   0.858   0.303
 2038SOL    HW1 7013   2.462   0.886   0.207
 2038SOL    HW2 7014   2.382   0.912   0.348
 2039SOL     OW 7015   0.483   6.530   2.942
 2039SOL    HW1 7016   0.569   6.479   2.938
 2039SOL    HW2 7017   0.422   6.499   2.869
 2040SOL     OW 7018   1.678   1.837   6.981
 2040SOL    HW1 7019   1.747   1.893   6.937
 2040SOL    HW2 7020   1.720   1.784   0.031
 2041SOL     OW 7021   1.036   0.344   5.539
 2041SOL    HW1 7022   1.047   0.316   5.444
 2041SOL    HW2 7023   0.943   0.378   5.553
 2042SOL     OW 7024   4.970   0.160   6.157
 2042SOL    HW1 7025   5.034   0.155   6.081
 2042SOL    HW2 7026   4.884   0.114   6.132
 2043SOL     OW 7027   6.400   2.644   2.247
 2043SOL    HW1 7028   6.396   2.716   2.317
 2043SOL    HW2 7029   6.427   2.684   2.160
 2044SOL     OW 7030   6.031   0.978   1.276
 2044SOL    HW1 7031   5.969   1.044   1.235
 2044SOL    HW2 7032   6.052   0.906   1.210
 2045SOL     OW 7033   1.173   5.749   4.824
 2045SOL    HW1 7034   1.178   5.670   4.885
 2045SOL    HW2 7035   1.098   5.735   4.759
 2046SOL     OW 7036   6.409   2.607   5.542
 2046SOL    HW1 7037   6.355   2.524   5.528
 2046SOL    HW2 7038   6.476   2.591   5.615
 2047SOL     OW 7039   5.842   2.501   1.089
 2047SOL    HW1 7040   5.908   2.488   1.015
 2047SOL    HW2 7041   5.749   2.490   1.053
 2048SOL     OW 7042   0.271   0.927   4.514
 2048SOL    HW1 7043   0.267   0.838   4.469
 2048SOL    HW2 7044   0.179   0.961   4.529
 2049SOL     OW 7045   4.720   0.956   4.634
 2049SOL    HW1 7046   4.693   0.968   4.730
 2049SOL    HW2 7047   4.691   1.035   4.581
 2050SOL     OW 7048   0.457   2.513   4.559
 2050SOL    HW1 7049   0.426   2.539   4.650
 2050SOL    HW2 7050   0.520   2.435   4.566
 2051SOL     OW 7051   1.796   5.938   6.933
 2051SOL    HW1 7052   1.855   5.956   7.013
 2051SOL    HW2 7053   1.851   5.941   6.850
 2052SOL     OW 7054   1.345   3.135   0.927
 2052SOL    HW1 7055   1.358   3.171   0.835
 2052SOL    HW2 7056   1.292   3.050   0.923
 2053SOL     OW 7057   1.329   5.222   4.935
 2053SOL    HW1 7058   1.371   5.298   4.886
 2053SOL    HW2 7059   1.375   5.210   5.023
 2054SOL     OW 7060   3.369   3.089   3.186
 2054SOL    HW1 7061   3.426   3.079   3.104
 2054SOL    HW2 7062   3.415   3.149   3.252
 2055SOL     OW 7063   7.003   2.685   4.788
 2055SOL    HW1 7064   6.925   2.701   4.728
 2055SOL    HW2 7065   0.012   2.773   4.822
 2056SOL     OW 7066   4.359   4.451   1.197
 2056SOL    HW1 7067   4.378   4.534   1.250
 2056SOL    HW2 7068   4.263   4.449   1.169
 2057SOL     OW 7069   5.194   3.354   4.616
 2057SOL    HW1 7070   5.143   3.309   4.689
 2057SOL    HW2 7071   5.291   3.360   4.643
 2058SOL     OW 7072   0.697   6.504   2.286
 2058SOL    HW1 7073   0.720   6.601   2.274
 2058SOL    HW2 7074   0.697   6.483   2.384
 2059SOL     OW 7075   2.900   0.387   5.661
 2059SOL    HW1 7076   2.884   0.308   5.603
 2059SOL    HW2 7077   2.836   0.386   5.738
 2060SOL     OW 7078   0.421   3.121   1.502
 2060SOL    HW1 7079   0.434   3.105   1.404
 2060SOL    HW2 7080   0.436   3.036   1.552
 2061SOL     OW 7081   1.882   2.433   2.251
 2061SOL    HW1 7082   1.883   2.507   2.318
 2061SOL    HW2 7083   1.959   2.444   2.188
 2062SOL     OW 7084   6.668   5.622   5.261
 2062SOL    HW1 7085   6.736   5.695   5.266
 2062SOL    HW2 7086   6.668   5.570   5.347
 2063SOL     OW 7087   1.641   6.589   4.673
 2063SOL    HW1 7088   1.656   6.681   4.710
 2063SOL    HW2 7089   1.544   6.576   4.653
 2064SOL     OW 7090   0.909   3.024   4.234
 2064SOL    HW1 7091   0.834   2.961   4.213
 2064SOL    HW2 7092   0.873   3.106   4.277
 2065SOL     OW 7093   5.289   3.596   6.189
 2065SOL    HW1 7094   5.334   3.586   6.100
 2065SOL    HW2 7095   5.313   3.519   6.248
 2066SOL     OW 7096   6.868   4.163   5.408
 2066SOL    HW1 7097   6.846   4.125   5.498
 2066SOL    HW2 7098   6.964   4.145   5.387
 2067SOL     OW 7099   6.100   5.098   1.464
 2067SOL    HW1 7100   6.049   5.012   1.466
 2067SOL    HW2 7101   6.046   5.166   1.415
 2068SOL     OW 7102   3.980   1.303   4.153
 2068SOL    HW1 7103   4.063   1.339   4.197
 2068SOL    HW2 7104   3.993   1.300   4.054
 2069SOL     OW 7105   0.276   2.348   4.077
 2069SOL    HW1 7106   0.342   2.297   4.022
 2069SOL    HW2 7107   0.268   2.305   4.167
 2070SOL     OW 7108   1.503   2.853   0.873
 2070SOL    HW1 7109   1.518   2.843   0.775
 2070SOL    HW2 7110   1.409   2.883   0.890
 2071SOL     OW 7111   5.923   1.748   6.327
 2071SOL    HW1 7112   5.878   1.750   6.237
 2071SOL    HW2 7113   5.933   1.841   6.362
 2072SOL     OW 7114   3.880   5.136   5.579
 2072SOL    HW1 7115   3.841   5.191   5.653
 2072SOL    HW2 7116   3.811   5.120   5.508
 2073SOL     OW 7117   3.688   6.264   5.912
 2073SOL    HW1 7118   3.649   6.234   5.999
 2073SOL    HW2 7119   3.684   6.189   5.846
 2074SOL     OW 7120   1.848   2.628   6.521
 2074SOL    HW1 7121   1.906   2.584   6.590
 2074SOL    HW2 7122   1.894   2.709   6.486
 2075SOL     OW 7123   6.615   2.102   3.109
 2075SOL    HW1 7124   6.616   2.135   3.204
 2075SOL    HW2 7125   6.693   2.140   3.060
 2076SOL     OW 7126   6.404   0.670   5.132
 2076SOL    HW1 7127   6.462   0.622   5.066
 2076SOL    HW2 7128   6.459   0.733   5.186
 2077SOL     OW 7129   6.288   2.154   1.616
 2077SOL    HW1 7130   6.350   2.220   1.658
 2077SOL    HW2 7131   6.260   2.086   1.684
 2078SOL     OW 7132   1.568   5.001   6.105
 2078SOL    HW1 7133   1.583   4.930   6.174
 2078SOL    HW2 7134   1.637   4.992   6.033
 2079SOL     OW 7135   5.629   1.105   2.154
 2079SOL    HW1 7136   5.659   1.091   2.249
 2079SOL    HW2 7137   5.688   1.052   2.093
 2080SOL     OW 7138   3.753   1.577   4.854
 2080SOL    HW1 7139   3.671   1.598   4.801
 2080SOL    HW2 7140   3.763   1.644   4.927
 2081SOL     OW 7141   0.883   6.644   3.955
 2081SOL    HW1 7142   0.969   6.677   3.916
 2081SOL    HW2 7143   0.854   6.561   3.907
 2082SOL     OW 7144   1.023   6.003   3.074
 2082SOL    HW1 7145   1.022   5.922   3.016
 2082SOL    HW2 7146   1.099   5.997   3.138
 2083SOL     OW 7147   0.779   5.893   3.838
 2083SOL    HW1 7148   0.683   5.895   3.867
 2083SOL    HW2 7149   0.819   5.984   3.849
 2084SOL     OW 7150   1.211   2.449   1.530
 2084SOL    HW1 7151   1.287   2.490   1.480
 2084SOL    HW2 7152   1.215   2.349   1.521
 2085SOL     OW 7153   5.092   6.210   0.740
 2085SOL    HW1 7154   5.108   6.216   0.838
 2085SOL    HW2 7155   5.100   6.115   0.710
 2086SOL     OW 7156   3.354   6.318   0.135
 2086SOL    HW1 7157   3.329   6.241   0.077
 2086SOL    HW2 7158   3.276   6.379   0.145
 2087SOL     OW 7159   4.110   2.146   0.176
 2087SOL    HW1 7160   4.015   2.173   0.192
 2087SOL    HW2 7161   4.165   2.168   0.256
 2088SOL     OW 7162   1.005   6.080   5.476
 2088SOL    HW1 7163   0.968   6.032   5.396
 2088SOL    HW2 7164   1.105   6.084   5.468
 2089SOL     OW 7165   3.912   2.331   5.276
 2089SOL    HW1 7166   3.861   2.390   5.339
 2089SOL    HW2 7167   3.989   2.382   5.237
 2090SOL     OW 7168   5.002   2.977   5.327
 2090SOL    HW1 7169   4.927   2.947   5.268
 2090SOL    HW2 7170   4.964   3.016   5.411
 2091SOL     OW 7171   6.986   6.182   1.137
 2091SOL    HW1 7172   0.048   6.135   1.120
 2091SOL    HW2 7173   7.001   6.258   1.199
 2092SOL     OW 7174   5.360   3.975   0.476
 2092SOL    HW1 7175   5.418   3.898   0.503
 2092SOL    HW2 7176   5.344   3.973   0.377
 2093SOL     OW 7177   3.583   2.020   2.166
 2093SOL    HW1 7178   3.611   2.098   2.109
 2093SOL    HW2 7179   3.485   2.006   2.158
 2094SOL     OW 7180   5.649   2.332   0.474
 2094SOL    HW1 7181   5.599   2.369   0.396
 2094SOL    HW2 7182   5.614   2.372   0.559
 2095SOL     OW 7183   5.942   6.261   3.211
 2095SOL    HW1 7184   5.893   6.175   3.200
 2095SOL    HW2 7185   6.026   6.246   3.264
 2096SOL     OW 7186   4.447   6.134   3.101
 2096SOL    HW1 7187   4.404   6.210   3.054
 2096SOL    HW2 7188   4.472   6.063   3.035
 2097SOL     OW 7189   2.956   3.887   6.245
 2097SOL    HW1 7190   2.880   3.830   6.213
 2097SOL    HW2 7191   3.042   3.845   6.217
 2098SOL     OW 7192   4.243   6.383   3.026
 2098SOL    HW1 7193   4.298   6.456   2.987
 2098SOL    HW2 7194   4.219   6.317   2.954
 2099SOL     OW 7195   4.530   1.918   0.360
 2099SOL    HW1 7196   4.510   2.008   0.321
 2099SOL    HW2 7197   4.610   1.925   0.419
 2100SOL     OW 7198   5.150   0.993   0.660
 2100SOL    HW1 7199   5.116   1.048   0.737
 2100SOL    HW2 7200   5.214   1.048   0.605
 2101SOL     OW 7201   0.194   6.400   0.898
 2101SOL    HW1 7202   0.186   6.409   0.799
 2101SOL    HW2 7203   0.115   6.442   0.942
 2102SOL     OW 7204   4.409   3.610   1.284
 2102SOL    HW1 7205   4.423   3.511   1.288
 2102SOL    HW2 7206   4.336   3.635   1.347
 2103SOL     OW 7207   3.128   3.844   0.409
 2103SOL    HW1 7208   3.074   3.849   0.493
 2103SOL    HW2 7209   3.104   3.762   0.358
 2104SOL     OW 7210   1.495   4.616   2.306
 2104SOL    HW1 7211   1.577   4.586   2.356
 2104SOL    HW2 7212   1.415   4.608   2.366
 2105SOL     OW 7213   4.426   4.635   0.099
 2105SOL    HW1 7214   4.332   4.603   0.113
 2105SOL    HW2 7215   4.490   4.560   0.119
 2106SOL     OW 7216   5.279   3.519   1.606
 2106SOL    HW1 7217   5.244   3.600   1.653
 2106SOL    HW2 7218   5.342   3.548   1.533
 2107SOL     OW 7219   5.917   3.405   5.715
 2107SOL    HW1 7220   5.848   3.332   5.707
 2107SOL    HW2 7221   5.903   3.473   5.643
 2108SOL     OW 7222   5.612   6.457   6.459
 2108SOL    HW1 7223   5.552   6.377   6.454
 2108SOL    HW2 7224   5.598   6.515   6.379
 2109SOL     OW 7225   3.164   5.346   2.298
 2109SOL    HW1 7226   3.214   5.382   2.377
 2109SOL    HW2 7227   3.137   5.251   2.316
 2110SOL     OW 7228   4.452   0.728   6.259
 2110SOL    HW1 7229   4.525   0.793   6.235
 2110SOL    HW2 7230   4.440   0.663   6.183
 2111SOL     OW 7231   0.966   2.239   5.488
 2111SOL    HW1 7232   0.894   2.238   5.558
 2111SOL    HW2 7233   1.010   2.329   5.486
 2112SOL     OW 7234   6.074   1.938   6.659
 2112SOL    HW1 7235   6.016   1.926   6.740
 2112SOL    HW2 7236   6.160   1.888   6.673
 2113SOL     OW 7237   2.003   6.886   4.480
 2113SOL    HW1 7238   2.015   6.792   4.512
 2113SOL    HW2 7239   2.011   6.948   4.558
 2114SOL     OW 7240   2.581   2.787   0.121
 2114SOL    HW1 7241   2.674   2.758   0.100
 2114SOL    HW2 7242   2.584   2.856   0.194
 2115SOL     OW 7243   0.983   4.762   2.253
 2115SOL    HW1 7244   1.024   4.681   2.296
 2115SOL    HW2 7245   0.961   4.829   2.324
 2116SOL     OW 7246   0.547   2.492   0.765
 2116SOL    HW1 7247   0.494   2.415   0.729
 2116SOL    HW2 7248   0.521   2.509   0.860
 2117SOL     OW 7249   4.987   2.958   1.233
 2117SOL    HW1 7250   4.943   3.047   1.225
 2117SOL    HW2 7251   5.064   2.953   1.169
 2118SOL     OW 7252   6.130   3.675   2.213
 2118SOL    HW1 7253   6.131   3.769   2.181
 2118SOL    HW2 7254   6.104   3.672   2.309
 2119SOL     OW 7255   1.500   0.900   6.650
 2119SOL    HW1 7256   1.411   0.916   6.693
 2119SOL    HW2 7257   1.566   0.873   6.720
 2120SOL     OW 7258   6.538   1.995   2.863
 2120SOL    HW1 7259   6.519   2.072   2.802
 2120SOL    HW2 7260   6.564   2.029   2.953
 2121SOL     OW 7261   2.428   1.629   6.048
 2121SOL    HW1 7262   2.400   1.551   6.105
 2121SOL    HW2 7263   2.348   1.685   6.028
 2122SOL     OW 7264   5.789   6.898   5.986
 2122SOL    HW1 7265   5.793   6.891   6.085
 2122SOL    HW2 7266   5.880   6.921   5.950
 2123SOL     OW 7267   6.811   6.469   2.316
 2123SOL    HW1 7268   6.747   6.536   2.278
 2123SOL    HW2 7269   6.797   6.462   2.415
 2124SOL     OW 7270   2.872   2.238   5.516
 2124SOL    HW1 7271   2.918   2.320   5.550
 2124SOL    HW2 7272   2.850   2.251   5.419
 2125SOL     OW 7273   1.748   6.162   3.059
 2125SOL    HW1 7274   1.790   6.074   3.081
 2125SOL    HW2 7275   1.819   6.227   3.030
 2126SOL     OW 7276   3.864   3.129   0.272
 2126SOL    HW1 7277   3.774   3.099   0.304
 2126SOL    HW2 7278   3.922   3.152   0.351
 2127SOL     OW 7279   6.873   2.523   5.405
 2127SOL    HW1 7280   6.923   2.524   5.491
 2127SOL    HW2 7281   6.813   2.603   5.400
 2128SOL     OW 7282   5.519   3.786   0.564
 2128SOL    HW1 7283   5.537   3.787   0.662
 2128SOL    HW2 7284   5.516   3.691   0.532
 2129SOL     OW 7285   5.023   3.924   3.645
 2129SOL    HW1 7286   5.092   3.870   3.597
 2129SOL    HW2 7287   5.059   4.015   3.663
 2130SOL     OW 7288   2.549   1.694   1.152
 2130SOL    HW1 7289   2.625   1.686   1.087
 2130SOL    HW2 7290   2.534   1.606   1.197
 2131SOL     OW 7291   5.397   2.143   6.833
 2131SOL    HW1 7292   5.415   2.183   6.743
 2131SOL    HW2 7293   5.339   2.205   6.885
 2132SOL     OW 7294   3.282   0.900   6.900
 2132SOL    HW1 7295   3.216   0.955   6.850
 2132SOL    HW2 7296   3.350   0.863   6.836
 2133SOL     OW 7297   2.691   2.259   1.366
 2133SOL    HW1 7298   2.746   2.246   1.449
 2133SOL    HW2 7299   2.709   2.350   1.328
 2134SOL     OW 7300   0.673   0.537   4.465
 2134SOL    HW1 7301   0.764   0.498   4.480
 2134SOL    HW2 7302   0.607   0.464   4.449
 2135SOL     OW 7303   0.569   2.261   3.990
 2135SOL    HW1 7304   0.582   2.177   3.938
 2135SOL    HW2 7305   0.579   2.242   4.088
 2136SOL     OW 7306   1.125   3.827   5.223
 2136SOL    HW1 7307   1.223   3.842   5.215
 2136SOL    HW2 7308   1.076   3.890   5.162
 2137SOL     OW 7309   0.884   6.724   5.145
 2137SOL    HW1 7310   0.836   6.753   5.227
 2137SOL    HW2 7311   0.837   6.646   5.105
 2138SOL     OW 7312   6.447   2.371   1.704
 2138SOL    HW1 7313   6.465   2.415   1.616
 2138SOL    HW2 7314   6.375   2.421   1.752
 2139SOL     OW 7315   3.037   0.716   3.820
 2139SOL    HW1 7316   3.010   0.791   3.881
 2139SOL    HW2 7317   3.129   0.733   3.784
 2140SOL     OW 7318   2.579   6.140   2.729
 2140SOL    HW1 7319   2.575   6.154   2.828
 2140SOL    HW2 7320   2.664   6.179   2.693
 2141SOL     OW 7321   6.680   2.647   1.570
 2141SOL    HW1 7322   6.683   2.676   1.665
 2141SOL    HW2 7323   6.769   2.611   1.543
 2142SOL     OW 7324   1.676   2.096   3.269
 2142SOL    HW1 7325   1.731   2.101   3.186
 2142SOL    HW2 7326   1.733   2.066   3.345
 2143SOL     OW 7327   3.865   6.001   1.249
 2143SOL    HW1 7328   3.869   5.990   1.150
 2143SOL    HW2 7329   3.923   6.078   1.277
 2144SOL     OW 7330   1.426   0.704   3.148
 2144SOL    HW1 7331   1.424   0.665   3.056
 2144SOL    HW2 7332   1.333   0.713   3.182
 2145SOL     OW 7333   3.359   5.656   3.684
 2145SOL    HW1 7334   3.322   5.563   3.682
 2145SOL    HW2 7335   3.322   5.705   3.763
 2146SOL     OW 7336   3.085   3.966   2.286
 2146SOL    HW1 7337   3.008   4.029   2.276
 2146SOL    HW2 7338   3.051   3.873   2.298
 2147SOL     OW 7339   0.100   1.551   0.232
 2147SOL    HW1 7340   0.016   1.591   0.197
 2147SOL    HW2 7341   0.082   1.458   0.265
 2148SOL     OW 7342   4.871   3.584   3.714
 2148SOL    HW1 7343   4.876   3.511   3.782
 2148SOL    HW2 7344   4.787   3.636   3.726
 2149SOL     OW 7345   3.599   0.193   1.755
 2149SOL    HW1 7346   3.633   0.163   1.844
 2149SOL    HW2 7347   3.539   0.272   1.768
 2150SOL     OW 7348   3.433   2.068   2.558
 2150SOL    HW1 7349   3.477   2.120   2.631
 2150SOL    HW2 7350   3.439   1.970   2.578
 2151SOL     OW 7351   3.785   2.557   5.460
 2151SOL    HW1 7352   3.698   2.577   5.415
 2151SOL    HW2 7353   3.859   2.608   5.415
 2152SOL     OW 7354   5.788   6.338   2.123
 2152SOL    HW1 7355   5.700   6.377   2.094
 2152SOL    HW2 7356   5.839   6.406   2.175
 2153SOL     OW 7357   4.570   1.175   3.928
 2153SOL    HW1 7358   4.641   1.243   3.912
 2153SOL    HW2 7359   4.551   1.169   4.026
 2154SOL     OW 7360   3.343   5.965   4.552
 2154SOL    HW1 7361   3.255   5.969   4.599
 2154SOL    HW2 7362   3.330   5.927   4.460
 2155SOL     OW 7363   1.656   5.200   0.065
 2155SOL    HW1 7364   1.559   5.206   0.038
 2155SOL    HW2 7365   1.713   5.226   7.011
 2156SOL     OW 7366   1.811   0.542   1.416
 2156SOL    HW1 7367   1.907   0.544   1.443
 2156SOL    HW2 7368   1.803   0.520   1.319
 2157SOL     OW 7369   6.590   1.338   4.812
 2157SOL    HW1 7370   6.655   1.346   4.736
 2157SOL    HW2 7371   6.499   1.318   4.776
 2158SOL     OW 7372   3.295   6.662   0.324
 2158SOL    HW1 7373   3.285   6.758   0.352
 2158SOL    HW2 7374   3.309   6.658   0.225
 2159SOL     OW 7375   1.707   6.799   5.046
 2159SOL    HW1 7376   1.667   6.869   5.105
 2159SOL    HW2 7377   1.805   6.794   5.062
 2160SOL     OW 7378   4.162   4.168   1.662
 2160SOL    HW1 7379   4.245   4.177   1.718
 2160SOL    HW2 7380   4.187   4.131   1.573
 2161SOL     OW 7381   4.948   3.522   3.233
 2161SOL    HW1 7382   4.965   3.432   3.193
 2161SOL    HW2 7383   4.927   3.513   3.331
 2162SOL     OW 7384   1.711   0.807   6.796
 2162SOL    HW1 7385   1.723   0.711   6.772
 2162SOL    HW2 7386   1.787   0.837   6.854
 2163SOL     OW 7387   1.420   6.849   6.543
 2163SOL    HW1 7388   1.398   6.770   6.485
 2163SOL    HW2 7389   1.347   6.916   6.538
 2164SOL     OW 7390   2.400   0.704   6.124
 2164SOL    HW1 7391   2.309   0.697   6.166
 2164SOL    HW2 7392   2.417   0.623   6.068
 2165SOL     OW 7393   1.570   0.773   2.722
 2165SOL    HW1 7394   1.562   0.784   2.623
 2165SOL    HW2 7395   1.478   0.768   2.761
 2166SOL     OW 7396   1.506   2.568   5.305
 2166SOL    HW1 7397   1.421   2.518   5.327
 2166SOL    HW2 7398   1.497   2.662   5.336
 2167SOL     OW 7399   2.735   0.582   2.160
 2167SOL    HW1 7400   2.705   0.556   2.251
 2167SOL    HW2 7401   2.835   0.573   2.154
 2168SOL     OW 7402   5.963   2.988   5.155
 2168SOL    HW1 7403   5.905   3.066   5.130
 2168SOL    HW2 7404   5.968   2.925   5.077
 2169SOL     OW 7405   5.755   2.597   6.112
 2169SOL    HW1 7406   5.682   2.665   6.118
 2169SOL    HW2 7407   5.717   2.506   6.131
 2170SOL     OW 7408   5.234   4.731   5.196
 2170SOL    HW1 7409   5.145   4.708   5.234
 2170SOL    HW2 7410   5.256   4.668   5.121
 2171SOL     OW 7411   6.803   2.979   0.002
 2171SOL    HW1 7412   6.757   2.894   0.029
 2171SOL    HW2 7413   6.764   3.056   0.053
 2172SOL     OW 7414   3.125   0.665   0.505
 2172SOL    HW1 7415   3.125   0.640   0.409
 2172SOL    HW2 7416   3.093   0.760   0.515
 2173SOL     OW 7417   4.159   0.453   5.767
 2173SOL    HW1 7418   4.178   0.532   5.709
 2173SOL    HW2 7419   4.060   0.437   5.770
 2174SOL     OW 7420   6.560   4.531   5.565
 2174SOL    HW1 7421   6.524   4.452   5.613
 2174SOL    HW2 7422   6.660   4.527   5.564
 2175SOL     OW 7423   3.023   0.370   3.559
 2175SOL    HW1 7424   3.114   0.412   3.549
 2175SOL    HW2 7425   2.991   0.382   3.652
 2176SOL     OW 7426   1.674   1.898   1.657
 2176SOL    HW1 7427   1.763   1.854   1.645
 2176SOL    HW2 7428   1.647   1.891   1.754
 2177SOL     OW 7429   6.483   1.414   2.124
 2177SOL    HW1 7430   6.463   1.459   2.211
 2177SOL    HW2 7431   6.579   1.431   2.100
 2178SOL     OW 7432   0.993   4.270   0.305
 2178SOL    HW1 7433   1.060   4.286   0.377
 2178SOL    HW2 7434   0.935   4.191   0.330
 2179SOL     OW 7435   1.533   5.913   3.828
 2179SOL    HW1 7436   1.495   5.842   3.769
 2179SOL    HW2 7437   1.630   5.898   3.842
 2180SOL     OW 7438   3.065   3.867   3.010
 2180SOL    HW1 7439   3.061   3.909   2.919
 2180SOL    HW2 7440   3.108   3.777   3.004
 2181SOL     OW 7441   4.879   4.816   5.842
 2181SOL    HW1 7442   4.864   4.718   5.827
 2181SOL    HW2 7443   4.811   4.868   5.791
 2182SOL     OW 7444   0.171   3.524   6.267
 2182SOL    HW1 7445   0.150   3.621   6.256
 2182SOL    HW2 7446   0.238   3.496   6.198
 2183SOL     OW 7447   2.731   3.105   0.764
 2183SOL    HW1 7448   2.821   3.098   0.806
 2183SOL    HW2 7449   2.737   3.158   0.679
 2184SOL     OW 7450   3.995   0.705   6.364
 2184SOL    HW1 7451   3.924   0.775   6.373
 2184SOL    HW2 7452   4.028   0.678   6.454
 2185SOL     OW 7453   1.533   1.369   0.675
 2185SOL    HW1 7454   1.456   1.342   0.733
 2185SOL    HW2 7455   1.514   1.459   0.635
 2186SOL     OW 7456   0.104   4.728   2.318
 2186SOL    HW1 7457   0.064   4.638   2.300
 2186SOL    HW2 7458   0.116   4.740   2.417
 2187SOL     OW 7459   0.031   1.297   1.284
 2187SOL    HW1 7460   0.127   1.302   1.311
 2187SOL    HW2 7461   0.008   1.205   1.254
 2188SOL     OW 7462   4.818   6.039   3.869
 2188SOL    HW1 7463   4.822   6.052   3.770
 2188SOL    HW2 7464   4.826   6.127   3.915
 2189SOL     OW 7465   1.818   6.974   6.101
 2189SOL    HW1 7466   1.915   6.968   6.123
 2189SOL    HW2 7467   1.802   6.931   6.011
 2190SOL     OW 7468   6.195   2.534   1.921
 2190SOL    HW1 7469   6.184   2.632   1.936
 2190SOL    HW2 7470   6.177   2.485   2.007
 2191SOL     OW 7471   3.489   2.520   6.794
 2191SOL    HW1 7472   3.461   2.430   6.761
 2191SOL    HW2 7473   3.414   2.585   6.781
 2192SOL     OW 7474   4.330   6.208   5.292
 2192SOL    HW1 7475   4.373   6.251   5.212
 2192SOL    HW2 7476   4.245   6.257   5.314
 2193SOL     OW 7477   0.082   5.504   5.587
 2193SOL    HW1 7478   0.147   5.522   5.513
 2193SOL    HW2 7479   0.115   5.426   5.640
 2194SOL     OW 7480   1.873   5.768   0.302
 2194SOL    HW1 7481   1.937   5.733   0.370
 2194SOL    HW2 7482   1.923   5.795   0.220
 2195SOL     OW 7483   0.589   6.356   1.849
 2195SOL    HW1 7484   0.668   6.388   1.901
 2195SOL    HW2 7485   0.505   6.375   1.899
 2196SOL     OW 7486   3.106   0.624   5.402
 2196SOL    HW1 7487   3.042   0.556   5.368
 2196SOL    HW2 7488   3.101   0.706   5.345
 2197SOL     OW 7489   4.724   4.454   1.947
 2197SOL    HW1 7490   4.676   4.541   1.933
 2197SOL    HW2 7491   4.658   4.379   1.941
 2198SOL     OW 7492   6.579   3.473   7.001
 2198SOL    HW1 7493   6.581   3.384   6.956
 2198SOL    HW2 7494   6.501   3.526   6.968
 2199SOL     OW 7495   4.707   6.908   0.570
 2199SOL    HW1 7496   4.725   6.924   0.667
 2199SOL    HW2 7497   4.776   6.846   0.533
 2200SOL     OW 7498   4.266   0.702   4.698
 2200SOL    HW1 7499   4.268   0.729   4.794
 2200SOL    HW2 7500   4.183   0.648   4.680
 2201SOL     OW 7501   6.003   3.613   1.874
 2201SOL    HW1 7502   5.938   3.548   1.835
 2201SOL    HW2 7503   6.096   3.585   1.852
 2202SOL     OW 7504   3.709   4.918   4.521
 2202SOL    HW1 7505   3.805   4.903   4.543
 2202SOL    HW2 7506   3.693   4.895   4.425
 2203SOL     OW 7507   3.403   2.115   3.196
 2203SOL    HW1 7508   3.457   2.132   3.113
 2203SOL    HW2 7509   3.457   2.138   3.277
 2204SOL     OW 7510   3.640   1.293   6.920
 2204SOL    HW1 7511   3.556   1.248   6.891
 2204SOL    HW2 7512   3.626   1.338   7.008
 2205SOL     OW 7513   1.156   0.308   0.079
 2205SOL    HW1 7514   1.171   0.405   0.058
 2205SOL    HW2 7515   1.146   0.296   0.177
 2206SOL     OW 7516   2.976   3.528   6.412
 2206SOL    HW1 7517   2.908   3.596   6.385
 2206SOL    HW2 7518   3.052   3.573   6.458
 2207SOL     OW 7519   1.027   4.046   6.351
 2207SOL    HW1 7520   0.945   3.988   6.345
 2207SOL    HW2 7521   1.070   4.034   6.440
 2208SOL     OW 7522   0.206   3.441   1.887
 2208SOL    HW1 7523   0.240   3.527   1.927
 2208SOL    HW2 7524   0.107   3.449   1.873
 2209SOL     OW 7525   1.736   5.946   6.574
 2209SOL    HW1 7526   1.774   6.001   6.648
 2209SOL    HW2 7527   1.637   5.943   6.582
 2210SOL     OW 7528   0.898   4.868   3.184
 2210SOL    HW1 7529   0.917   4.919   3.100
 2210SOL    HW2 7530   0.878   4.932   3.258
 2211SOL     OW 7531   6.160   1.543   5.376
 2211SOL    HW1 7532   6.162   1.449   5.343
 2211SOL    HW2 7533   6.111   1.601   5.311
 2212SOL     OW 7534   0.388   6.892   5.957
 2212SOL    HW1 7535   0.382   6.962   5.885
 2212SOL    HW2 7536   0.457   6.918   6.023
 2213SOL     OW 7537   4.132   2.232   4.133
 2213SOL    HW1 7538   4.184   2.306   4.090
 2213SOL    HW2 7539   4.131   2.245   4.232
 2214SOL     OW 7540   5.336   0.489   5.099
 2214SOL    HW1 7541   5.418   0.544   5.086
 2214SOL    HW2 7542   5.262   0.525   5.042
 2215SOL     OW 7543   6.681   1.668   5.461
 2215SOL    HW1 7544   6.726   1.750   5.495
 2215SOL    HW2 7545   6.584   1.670   5.486
 2216SOL     OW 7546   1.460   6.777   1.490
 2216SOL    HW1 7547   1.546   6.815   1.456
 2216SOL    HW2 7548   1.423   6.713   1.422
 2217SOL     OW 7549   4.016   0.004   0.920
 2217SOL    HW1 7550   4.062   0.092   0.907
 2217SOL    HW2 7551   4.010   7.007   1.017
 2218SOL     OW 7552   1.167   6.377   6.338
 2218SOL    HW1 7553   1.252   6.389   6.287
 2218SOL    HW2 7554   1.181   6.403   6.433
 2219SOL     OW 7555   1.593   4.069   3.378
 2219SOL    HW1 7556   1.563   3.975   3.359
 2219SOL    HW2 7557   1.512   4.126   3.395
 2220SOL     OW 7558   0.629   2.137   4.802
 2220SOL    HW1 7559   0.616   2.053   4.749
 2220SOL    HW2 7560   0.726   2.161   4.801
 2221SOL     OW 7561   6.567   1.983   1.551
 2221SOL    HW1 7562   6.554   1.910   1.484
 2221SOL    HW2 7563   6.479   2.011   1.588
 2222SOL     OW 7564   4.255   0.303   1.646
 2222SOL    HW1 7565   4.256   0.347   1.736
 2222SOL    HW2 7566   4.335   0.331   1.594
 2223SOL     OW 7567   6.424   5.233   3.294
 2223SOL    HW1 7568   6.514   5.255   3.255
 2223SOL    HW2 7569   6.356   5.230   3.222
 2224SOL     OW 7570   1.719   4.799   1.657
 2224SOL    HW1 7571   1.789   4.733   1.683
 2224SOL    HW2 7572   1.714   4.806   1.557
 2225SOL     OW 7573   6.026   4.763   2.441
 2225SOL    HW1 7574   6.104   4.709   2.472
 2225SOL    HW2 7575   5.944   4.707   2.444
 2226SOL     OW 7576   4.007   2.679   1.255
 2226SOL    HW1 7577   4.022   2.580   1.246
 2226SOL    HW2 7578   3.925   2.696   1.310
 2227SOL     OW 7579   6.588   4.111   6.072
 2227SOL    HW1 7580   6.519   4.098   6.144
 2227SOL    HW2 7581   6.679   4.096   6.110
 2228SOL     OW 7582   3.162   4.827   6.987
 2228SOL    HW1 7583   3.214   4.903   6.947
 2228SOL    HW2 7584   3.225   4.763   0.008
 2229SOL     OW 7585   4.857   1.170   4.285
 2229SOL    HW1 7586   4.882   1.266   4.278
 2229SOL    HW2 7587   4.807   1.154   4.370
 2230SOL     OW 7588   1.269   5.464   4.172
 2230SOL    HW1 7589   1.353   5.414   4.153
 2230SOL    HW2 7590   1.197   5.432   4.111
 2231SOL     OW 7591   1.815   1.168   2.250
 2231SOL    HW1 7592   1.780   1.138   2.161
 2231SOL    HW2 7593   1.873   1.249   2.238
 2232SOL     OW 7594   0.392   3.323   2.664
 2232SOL    HW1 7595   0.466   3.349   2.602
 2232SOL    HW2 7596   0.327   3.264   2.615
 2233SOL     OW 7597   3.402   5.206   0.446
 2233SOL    HW1 7598   3.369   5.203   0.351
 2233SOL    HW2 7599   3.323   5.215   0.508
 2234SOL     OW 7600   3.820   1.875   1.113
 2234SOL    HW1 7601   3.888   1.939   1.148
 2234SOL    HW2 7602   3.852   1.835   1.027
 2235SOL     OW 7603   0.922   0.159   6.855
 2235SOL    HW1 7604   0.830   0.169   6.818
 2235SOL    HW2 7605   0.948   0.244   6.903
 2236SOL     OW 7606   0.262   4.353   0.891
 2236SOL    HW1 7607   0.258   4.276   0.826
 2236SOL    HW2 7608   0.179   4.408   0.882
 2237SOL     OW 7609   6.578   3.421   4.767
 2237SOL    HW1 7610   6.507   3.430   4.837
 2237SOL    HW2 7611   6.570   3.497   4.702
 2238SOL     OW 7612   0.183   5.339   1.921
 2238SOL    HW1 7613   0.246   5.414   1.942
 2238SOL    HW2 7614   0.222   5.253   1.954
 2239SOL     OW 7615   4.485   4.516   3.416
 2239SOL    HW1 7616   4.433   4.432   3.410
 2239SOL    HW2 7617   4.431   4.592   3.380
 2240SOL     OW 7618   6.752   5.414   3.733
 2240SOL    HW1 7619   6.717   5.352   3.663
 2240SOL    HW2 7620   6.718   5.506   3.715
 2241SOL     OW 7621   0.087   6.118   2.257
 2241SOL    HW1 7622   0.182   6.109   2.226
 2241SOL    HW2 7623   0.077   6.202   2.310
 2242SOL     OW 7624   5.065   2.003   3.228
 2242SOL    HW1 7625   4.978   1.966   3.261
 2242SOL    HW2 7626   5.073   1.987   3.130
 2243SOL     OW 7627   2.428   6.199   4.365
 2243SOL    HW1 7628   2.372   6.233   4.441
 2243SOL    HW2 7629   2.395   6.110   4.336
 2244SOL     OW 7630   4.118   0.763   4.066
 2244SOL    HW1 7631   4.160   0.787   4.154
 2244SOL    HW2 7632   4.089   0.846   4.019
 2245SOL     OW 7633   0.151   2.377   2.230
 2245SOL    HW1 7634   0.158   2.360   2.329
 2245SOL    HW2 7635   0.116   2.295   2.185
 2246SOL     OW 7636   1.551   3.350   5.439
 2246SOL    HW1 7637   1.476   3.322   5.498
 2246SOL    HW2 7638   1.541   3.447   5.415
 2247SOL     OW 7639   2.243   2.236   5.431
 2247SOL    HW1 7640   2.204   2.225   5.339
 2247SOL    HW2 7641   2.330   2.187   5.436
 2248SOL     OW 7642   4.946   4.353   5.220
 2248SOL    HW1 7643   4.877   4.285   5.194
 2248SOL    HW2 7644   5.006   4.370   5.143
 2249SOL     OW 7645   5.135   5.854   2.997
 2249SOL    HW1 7646   5.228   5.874   2.966
 2249SOL    HW2 7647   5.102   5.929   3.055
 2250SOL     OW 7648   5.450   3.485   1.145
 2250SOL    HW1 7649   5.507   3.541   1.085
 2250SOL    HW2 7650   5.508   3.432   1.206
 2251SOL     OW 7651   6.051   1.891   6.956
 2251SOL    HW1 7652   6.011   1.936   0.012
 2251SOL    HW2 7653   6.011   1.800   6.945
 2252SOL     OW 7654   5.307   2.709   5.512
 2252SOL    HW1 7655   5.353   2.797   5.509
 2252SOL    HW2 7656   5.209   2.723   5.528
 2253SOL     OW 7657   2.470   2.970   6.984
 2253SOL    HW1 7658   2.527   2.909   0.016
 2253SOL    HW2 7659   2.515   3.059   6.976
 2254SOL     OW 7660   1.766   3.395   5.915
 2254SOL    HW1 7661   1.800   3.312   5.959
 2254SOL    HW2 7662   1.770   3.385   5.816
 2255SOL     OW 7663   6.150   2.904   1.996
 2255SOL    HW1 7664   6.092   2.983   2.017
 2255SOL    HW2 7665   6.154   2.844   2.076
 2256SOL     OW 7666   3.667   5.012   2.663
 2256SOL    HW1 7667   3.757   4.995   2.623
 2256SOL    HW2 7668   3.677   5.031   2.760
 2257SOL     OW 7669   1.378   3.608   4.428
 2257SOL    HW1 7670   1.313   3.651   4.366
 2257SOL    HW2 7671   1.349   3.514   4.447
 2258SOL     OW 7672   1.699   4.943   5.227
 2258SOL    HW1 7673   1.717   4.847   5.251
 2258SOL    HW2 7674   1.641   4.984   5.297
 2259SOL     OW 7675   5.746   4.020   6.247
 2259SOL    HW1 7676   5.768   4.080   6.324
 2259SOL    HW2 7677   5.697   4.072   6.177
 2260SOL     OW 7678   4.353   5.226   2.542
 2260SOL    HW1 7679   4.380   5.136   2.506
 2260SOL    HW2 7680   4.260   5.220   2.578
 2261SOL     OW 7681   5.388   6.475   0.857
 2261SOL    HW1 7682   5.450   6.552   0.874
 2261SOL    HW2 7683   5.341   6.490   0.770
 2262SOL     OW 7684   5.682   2.120   4.399
 2262SOL    HW1 7685   5.704   2.188   4.328
 2262SOL    HW2 7686   5.658   2.168   4.483
 2263SOL     OW 7687   1.873   5.414   5.656
 2263SOL    HW1 7688   1.803   5.486   5.661
 2263SOL    HW2 7689   1.850   5.340   5.719
 2264SOL     OW 7690   2.951   3.168   2.755
 2264SOL    HW1 7691   2.964   3.232   2.830
 2264SOL    HW2 7692   2.944   3.075   2.790
 2265SOL     OW 7693   6.902   1.021   2.498
 2265SOL    HW1 7694   6.974   1.078   2.537
 2265SOL    HW2 7695   6.942   0.955   2.435
 2266SOL     OW 7696   6.528   0.826   1.042
 2266SOL    HW1 7697   6.532   0.731   1.072
 2266SOL    HW2 7698   6.585   0.838   0.961
 2267SOL     OW 7699   5.843   2.453   4.845
 2267SOL    HW1 7700   5.923   2.439   4.904
 2267SOL    HW2 7701   5.760   2.458   4.902
 2268SOL     OW 7702   6.870   6.287   0.515
 2268SOL    HW1 7703   6.825   6.353   0.576
 2268SOL    HW2 7704   6.811   6.207   0.503
 2269SOL     OW 7705   6.445   6.191   5.779
 2269SOL    HW1 7706   6.513   6.120   5.798
 2269SOL    HW2 7707   6.369   6.182   5.844
 2270SOL     OW 7708   3.109   2.996   2.104
 2270SOL    HW1 7709   3.034   2.951   2.152
 2270SOL    HW2 7710   3.154   2.931   2.043
 2271SOL     OW 7711   5.737   4.596   1.536
 2271SOL    HW1 7712   5.660   4.545   1.498
 2271SOL    HW2 7713   5.815   4.591   1.473
 2272SOL     OW 7714   4.921   2.233   5.379
 2272SOL    HW1 7715   4.864   2.273   5.307
 2272SOL    HW2 7716   5.010   2.207   5.341
 2273SOL     OW 7717   0.340   0.118   3.380
 2273SOL    HW1 7718   0.433   0.150   3.395
 2273SOL    HW2 7719   0.312   0.142   3.286
 2274SOL     OW 7720   1.624   3.645   5.064
 2274SOL    HW1 7721   1.657   3.573   5.003
 2274SOL    HW2 7722   1.530   3.625   5.092
 2275SOL     OW 7723   5.184   5.868   4.754
 2275SOL    HW1 7724   5.098   5.893   4.709
 2275SOL    HW2 7725   5.198   5.770   4.745
 2276SOL     OW 7726   4.287   4.291   0.744
 2276SOL    HW1 7727   4.311   4.384   0.718
 2276SOL    HW2 7728   4.197   4.291   0.788
 2277SOL     OW 7729   2.995   3.463   5.901
 2277SOL    HW1 7730   3.053   3.488   5.824
 2277SOL    HW2 7731   3.023   3.373   5.937
 2278SOL     OW 7732   5.516   6.064   2.391
 2278SOL    HW1 7733   5.459   6.146   2.381
 2278SOL    HW2 7734   5.610   6.087   2.364
 2279SOL     OW 7735   5.721   3.371   4.557
 2279SOL    HW1 7736   5.740   3.294   4.618
 2279SOL    HW2 7737   5.797   3.383   4.493
 2280SOL     OW 7738   6.839   6.311   5.270
 2280SOL    HW1 7739   6.834   6.288   5.173
 2280SOL    HW2 7740   6.746   6.313   5.308
 2281SOL     OW 7741   3.851   1.996   1.877
 2281SOL    HW1 7742   3.945   2.020   1.902
 2281SOL    HW2 7743   3.792   2.077   1.889
 2282SOL     OW 7744   5.009   5.357   4.380
 2282SOL    HW1 7745   4.997   5.331   4.476
 2282SOL    HW2 7746   4.960   5.294   4.321
 2283SOL     OW 7747   6.685   4.051   3.208
 2283SOL    HW1 7748   6.638   4.105   3.277
 2283SOL    HW2 7749   6.619   3.999   3.155
 2284SOL     OW 7750   2.221   2.524   1.792
 2284SOL    HW1 7751   2.284   2.513   1.869
 2284SOL    HW2 7752   2.241   2.453   1.724
 2285SOL     OW 7753   1.657   3.648   0.256
 2285SOL    HW1 7754   1.691   3.725   0.203
 2285SOL    HW2 7755   1.594   3.681   0.327
 2286SOL     OW 7756   6.517   5.525   4.939
 2286SOL    HW1 7757   6.560   5.478   5.016
 2286SOL    HW2 7758   6.475   5.458   4.877
 2287SOL     OW 7759   2.226   2.449   0.982
 2287SOL    HW1 7760   2.308   2.474   1.033
 2287SOL    HW2 7761   2.228   2.491   0.891
 2288SOL     OW 7762   0.587   6.473   3.532
 2288SOL    HW1 7763   0.638   6.519   3.605
 2288SOL    HW2 7764   0.544   6.542   3.474
 2289SOL     OW 7765   5.415   1.577   2.141
 2289SOL    HW1 7766   5.479   1.626   2.201
 2289SOL    HW2 7767   5.399   1.485   2.178
 2290SOL     OW 7768   2.908   3.674   3.495
 2290SOL    HW1 7769   2.857   3.598   3.455
 2290SOL    HW2 7770   2.933   3.739   3.424
 2291SOL     OW 7771   1.705   1.676   1.140
 2291SOL    HW1 7772   1.782   1.629   1.184
 2291SOL    HW2 7773   1.677   1.625   1.059
 2292SOL     OW 7774   4.703   2.182   4.031
 2292SOL    HW1 7775   4.743   2.236   4.106
 2292SOL    HW2 7776   4.767   2.109   4.006
 2293SOL     OW 7777   5.611   1.310   1.016
 2293SOL    HW1 7778   5.604   1.227   1.070
 2293SOL    HW2 7779   5.529   1.366   1.028
 2294SOL     OW 7780   1.915   2.396   5.851
 2294SOL    HW1 7781   1.898   2.432   5.759
 2294SOL    HW2 7782   1.828   2.373   5.894
 2295SOL     OW 7783   6.416   0.502   1.528
 2295SOL    HW1 7784   6.351   0.559   1.579
 2295SOL    HW2 7785   6.375   0.475   1.441
 2296SOL     OW 7786   2.314   5.129   3.653
 2296SOL    HW1 7787   2.295   5.071   3.732
 2296SOL    HW2 7788   2.228   5.155   3.609
 2297SOL     OW 7789   5.368   4.705   5.433
 2297SOL    HW1 7790   5.399   4.792   5.471
 2297SOL    HW2 7791   5.342   4.718   5.337
 2298SOL     OW 7792   3.890   3.039   4.781
 2298SOL    HW1 7793   3.845   3.016   4.868
 2298SOL    HW2 7794   3.956   3.112   4.796
 2299SOL     OW 7795   5.462   3.330   5.048
 2299SOL    HW1 7796   5.413   3.243   5.054
 2299SOL    HW2 7797   5.409   3.401   5.094
 2300SOL     OW 7798   3.873   6.876   3.413
 2300SOL    HW1 7799   3.894   6.838   3.503
 2300SOL    HW2 7800   3.938   6.840   3.345
 2301SOL     OW 7801   3.284   3.304   4.137
 2301SOL    HW1 7802   3.204   3.363   4.133
 2301SOL    HW2 7803   3.255   3.208   4.134
 2302SOL     OW 7804   3.984   1.447   0.635
 2302SOL    HW1 7805   4.023   1.522   0.582
 2302SOL    HW2 7806   4.042   1.366   0.626
 2303SOL     OW 7807   2.549   2.717   1.029
 2303SOL    HW1 7808   2.632   2.759   1.067
 2303SOL    HW2 7809   2.552   2.723   0.929
 2304SOL     OW 7810   6.419   5.871   3.181
 2304SOL    HW1 7811   6.385   5.882   3.087
 2304SOL    HW2 7812   6.498   5.810   3.181
 2305SOL     OW 7813   1.399   1.254   4.215
 2305SOL    HW1 7814   1.444   1.294   4.294
 2305SOL    HW2 7815   1.340   1.323   4.172
 2306SOL     OW 7816   1.939   4.811   3.657
 2306SOL    HW1 7817   1.973   4.744   3.591
 2306SOL    HW2 7818   1.849   4.781   3.690
 2307SOL     OW 7819   1.259   3.028   5.724
 2307SOL    HW1 7820   1.269   3.050   5.821
 2307SOL    HW2 7821   1.161   3.020   5.702
 2308SOL     OW 7822   2.065   4.724   1.144
 2308SOL    HW1 7823   2.149   4.678   1.115
 2308SOL    HW2 7824   2.010   4.661   1.198
 2309SOL     OW 7825   1.158   0.292   4.223
 2309SOL    HW1 7826   1.059   0.281   4.236
 2309SOL    HW2 7827   1.177   0.316   4.128
 2310SOL     OW 7828   4.693   6.782   1.914
 2310SOL    HW1 7829   4.707   6.810   1.819
 2310SOL    HW2 7830   4.603   6.813   1.945
 2311SOL     OW 7831   2.664   6.071   0.370
 2311SOL    HW1 7832   2.637   6.103   0.279
 2311SOL    HW2 7833   2.614   5.986   0.390
 2312SOL     OW 7834   3.649   5.931   2.749
 2312SOL    HW1 7835   3.666   5.907   2.653
 2312SOL    HW2 7836   3.551   5.948   2.762
 2313SOL     OW 7837   4.986   5.044   3.028
 2313SOL    HW1 7838   4.969   4.945   3.034
 2313SOL    HW2 7839   5.071   5.060   2.978
 2314SOL     OW 7840   2.783   5.715   3.109
 2314SOL    HW1 7841   2.766   5.806   3.147
 2314SOL    HW2 7842   2.804   5.651   3.183
 2315SOL     OW 7843   4.720   3.084   6.176
 2315SOL    HW1 7844   4.658   3.162   6.166
 2315SOL    HW2 7845   4.667   3.001   6.190
 2316SOL     OW 7846   5.771   2.716   3.079
 2316SOL    HW1 7847   5.766   2.758   3.170
 2316SOL    HW2 7848   5.781   2.788   3.010
 2317SOL     OW 7849   1.272   4.594   2.462
 2317SOL    HW1 7850   1.184   4.564   2.425
 2317SOL    HW2 7851   1.273   4.579   2.561
 2318SOL     OW 7852   0.259   1.663   2.838
 2318SOL    HW1 7853   0.359   1.664   2.844
 2318SOL    HW2 7854   0.221   1.614   2.916
 2319SOL     OW 7855   2.026   4.175   4.447
 2319SOL    HW1 7856   2.058   4.151   4.355
 2319SOL    HW2 7857   2.047   4.271   4.466
 2320SOL     OW 7858   0.253   2.614   4.073
 2320SOL    HW1 7859   0.267   2.515   4.083
 2320SOL    HW2 7860   0.181   2.631   4.007
 2321SOL     OW 7861   3.005   6.930   4.960
 2321SOL    HW1 7862   2.944   6.888   4.893
 2321SOL    HW2 7863   3.099   6.902   4.942
 2322SOL     OW 7864   1.275   1.289   5.388
 2322SOL    HW1 7865   1.362   1.253   5.421
 2322SOL    HW2 7866   1.222   1.217   5.344
 2323SOL     OW 7867   4.254   5.677   3.074
 2323SOL    HW1 7868   4.299   5.747   3.130
 2323SOL    HW2 7869   4.287   5.587   3.101
 2324SOL     OW 7870   0.918   6.119   2.728
 2324SOL    HW1 7871   0.884   6.061   2.653
 2324SOL    HW2 7872   0.857   6.111   2.807
 2325SOL     OW 7873   1.075   4.070   0.992
 2325SOL    HW1 7874   0.999   4.085   0.929
 2325SOL    HW2 7875   1.051   3.996   1.055
 2326SOL     OW 7876   1.867   5.231   6.912
 2326SOL    HW1 7877   1.942   5.174   6.947
 2326SOL    HW2 7878   1.853   5.211   6.816
 2327SOL     OW 7879   4.924   2.583   4.249
 2327SOL    HW1 7880   4.936   2.571   4.347
 2327SOL    HW2 7881   4.978   2.660   4.218
 2328SOL     OW 7882   4.705   1.125   3.114
 2328SOL    HW1 7883   4.755   1.174   3.186
 2328SOL    HW2 7884   4.743   1.150   3.025
 2329SOL     OW 7885   0.927   5.747   4.049
 2329SOL    HW1 7886   0.999   5.743   4.118
 2329SOL    HW2 7887   0.882   5.836   4.053
 2330SOL     OW 7888   0.864   4.523   2.054
 2330SOL    HW1 7889   0.781   4.578   2.064
 2330SOL    HW2 7890   0.943   4.576   2.085
 2331SOL     OW 7891   0.308   3.931   5.357
 2331SOL    HW1 7892   0.341   3.881   5.277
 2331SOL    HW2 7893   0.375   3.925   5.431
 2332SOL     OW 7894   5.318   2.738   6.110
 2332SOL    HW1 7895   5.225   2.750   6.077
 2332SOL    HW2 7896   5.329   2.783   6.198
 2333SOL     OW 7897   1.358   5.150   3.328
 2333SOL    HW1 7898   1.361   5.089   3.407
 2333SOL    HW2 7899   1.265   5.187   3.318
 2334SOL     OW 7900   3.404   6.704   0.037
 2334SOL    HW1 7901   3.368   6.797   0.030
 2334SOL    HW2 7902   3.434   6.672   6.971
 2335SOL     OW 7903   5.031   6.677   3.243
 2335SOL    HW1 7904   5.002   6.771   3.223
 2335SOL    HW2 7905   5.112   6.655   3.190
 2336SOL     OW 7906   4.763   1.217   5.997
 2336SOL    HW1 7907   4.788   1.143   6.059
 2336SOL    HW2 7908   4.746   1.300   6.050
 2337SOL     OW 7909   5.390   0.155   3.355
 2337SOL    HW1 7910   5.293   0.180   3.346
 2337SOL    HW2 7911   5.426   0.193   3.440
 2338SOL     OW 7912   0.153   6.940   6.616
 2338SOL    HW1 7913   0.147   7.000   6.696
 2338SOL    HW2 7914   0.074   6.957   6.557
 2339SOL     OW 7915   3.650   4.534   6.768
 2339SOL    HW1 7916   3.616   4.612   6.820
 2339SOL    HW2 7917   3.627   4.450   6.815
 2340SOL     OW 7918   3.683   5.664   4.769
 2340SOL    HW1 7919   3.612   5.601   4.737
 2340SOL    HW2 7920   3.648   5.758   4.764
 2341SOL     OW 7921   5.684   5.039   0.931
 2341SOL    HW1 7922   5.635   4.953   0.924
 2341SOL    HW2 7923   5.656   5.100   0.857
 2342SOL     OW 7924   6.737   0.387   5.120
 2342SOL    HW1 7925   6.808   0.348   5.179
 2342SOL    HW2 7926   6.655   0.405   5.175
 2343SOL     OW 7927   1.079   5.927   0.780
 2343SOL    HW1 7928   1.176   5.918   0.805
 2343SOL    HW2 7929   1.045   6.016   0.811
 2344SOL     OW 7930   2.262   1.824   2.620
 2344SOL    HW1 7931   2.253   1.744   2.559
 2344SOL    HW2 7932   2.335   1.883   2.586
 2345SOL     OW 7933   1.575   0.961   4.545
 2345SOL    HW1 7934   1.672   0.952   4.568
 2345SOL    HW2 7935   1.564   0.950   4.446
 2346SOL     OW 7936   4.583   3.514   5.623
 2346SOL    HW1 7937   4.593   3.468   5.534
 2346SOL    HW2 7938   4.548   3.450   5.690
 2347SOL     OW 7939   1.637   3.382   2.000
 2347SOL    HW1 7940   1.551   3.370   1.950
 2347SOL    HW2 7941   1.685   3.462   1.964
 2348SOL     OW 7942   2.852   6.257   3.386
 2348SOL    HW1 7943   2.893   6.262   3.477
 2348SOL    HW2 7944   2.904   6.193   3.330
 2349SOL     OW 7945   7.008   6.929   5.854
 2349SOL    HW1 7946   0.034   6.845   5.876
 2349SOL    HW2 7947   6.993   6.982   5.937
 2350SOL     OW 7948   2.886   0.223   5.455
 2350SOL    HW1 7949   2.793   0.187   5.455
 2350SOL    HW2 7950   2.949   0.153   5.489
 2351SOL     OW 7951   2.660   4.827   3.745
 2351SOL    HW1 7952   2.751   4.787   3.735
 2351SOL    HW2 7953   2.660   4.920   3.710
 2352SOL     OW 7954   6.857   4.659   2.909
 2352SOL    HW1 7955   6.832   4.563   2.896
 2352SOL    HW2 7956   6.880   4.674   3.005
 2353SOL     OW 7957   2.686   4.353   6.106
 2353SOL    HW1 7958   2.777   4.354   6.148
 2353SOL    HW2 7959   2.619   4.323   6.174
 2354SOL     OW 7960   3.701   2.277   0.786
 2354SOL    HW1 7961   3.614   2.227   0.781
 2354SOL    HW2 7962   3.696   2.358   0.728
 2355SOL     OW 7963   0.496   6.346   0.314
 2355SOL    HW1 7964   0.555   6.320   0.238
 2355SOL    HW2 7965   0.474   6.265   0.369
 2356SOL     OW 7966   2.250   4.850   2.765
 2356SOL    HW1 7967   2.155   4.825   2.744
 2356SOL    HW2 7968   2.306   4.840   2.683
 2357SOL     OW 7969   5.523   4.296   2.424
 2357SOL    HW1 7970   5.448   4.233   2.403
 2357SOL    HW2 7971   5.487   4.387   2.441
 2358SOL     OW 7972   3.803   0.468   5.137
 2358SOL    HW1 7973   3.856   0.423   5.209
 2358SOL    HW2 7974   3.858   0.474   5.053
 2359SOL     OW 7975   2.873   1.702   5.408
 2359SOL    HW1 7976   2.823   1.788   5.394
 2359SOL    HW2 7977   2.810   1.632   5.443
 2360SOL     OW 7978   3.885   5.034   0.964
 2360SOL    HW1 7979   3.868   5.016   1.061
 2360SOL    HW2 7980   3.970   5.084   0.953
 2361SOL     OW 7981   3.382   6.670   2.871
 2361SOL    HW1 7982   3.411   6.589   2.820
 2361SOL    HW2 7983   3.404   6.752   2.818
 2362SOL     OW 7984   4.940   5.893   4.598
 2362SOL    HW1 7985   4.927   5.796   4.621
 2362SOL    HW2 7986   4.954   5.902   4.499
 2363SOL     OW 7987   3.200   3.314   6.900
 2363SOL    HW1 7988   3.132   3.259   6.851
 2363SOL    HW2 7989   3.261   3.253   6.950
 2364SOL     OW 7990   4.719   1.366   2.044
 2364SOL    HW1 7991   4.794   1.302   2.060
 2364SOL    HW2 7992   4.650   1.322   1.987
 2365SOL     OW 7993   5.380   3.345   4.180
 2365SOL    HW1 7994   5.445   3.299   4.119
 2365SOL    HW2 7995   5.411   3.337   4.274
 2366SOL     OW 7996   2.129   4.175   5.963
 2366SOL    HW1 7997   2.209   4.133   6.005
 2366SOL    HW2 7998   2.117   4.138   5.871
 2367SOL     OW 7999   0.786   3.489   6.297
 2367SOL    HW1 8000   0.782   3.401   6.249
 2367SOL    HW2 8001   0.856   3.547   6.255
 2368SOL     OW 8002   5.592   0.448   4.150
 2368SOL    HW1 8003   5.524   0.381   4.119
 2368SOL    HW2 8004   5.571   0.478   4.242
 2369SOL     OW 8005   3.296   1.665   3.489
 2369SOL    HW1 8006   3.295   1.606   3.570
 2369SOL    HW2 8007   3.362   1.738   3.502
 2370SOL     OW 8008   4.644   2.729   0.906
 2370SOL    HW1 8009   4.605   2.749   0.996
 2370SOL    HW2 8010   4.645   2.631   0.892
 2371SOL     OW 8011   0.748   6.516   2.784
 2371SOL    HW1 8012   0.725   6.444   2.849
 2371SOL    HW2 8013   0.847   6.518   2.769
 2372SOL     OW 8014   6.152   1.467   5.859
 2372SOL    HW1 8015   6.186   1.494   5.769
 2372SOL    HW2 8016   6.225   1.425   5.912
 2373SOL     OW 8017   6.554   0.903   6.420
 2373SOL    HW1 8018   6.512   0.813   6.428
 2373SOL    HW2 8019   6.654   0.894   6.424
 2374SOL     OW 8020   5.799   6.025   3.134
 2374SOL    HW1 8021   5.722   5.964   3.152
 2374SOL    HW2 8022   5.806   6.041   3.035
 2375SOL     OW 8023   0.973   0.496   3.842
 2375SOL    HW1 8024   0.878   0.486   3.812
 2375SOL    HW2 8025   1.028   0.424   3.801
 2376SOL     OW 8026   6.686   2.484   3.147
 2376SOL    HW1 8027   6.757   2.415   3.156
 2376SOL    HW2 8028   6.596   2.441   3.159
 2377SOL     OW 8029   4.062   4.836   6.607
 2377SOL    HW1 8030   4.013   4.916   6.572
 2377SOL    HW2 8031   4.028   4.814   6.698
 2378SOL     OW 8032   5.942   2.394   0.280
 2378SOL    HW1 8033   5.889   2.472   0.313
 2378SOL    HW2 8034   5.939   2.320   0.348
 2379SOL     OW 8035   0.035   5.370   0.337
 2379SOL    HW1 8036   0.103   5.299   0.354
 2379SOL    HW2 8037   0.064   5.455   0.382
 2380SOL     OW 8038   5.683   3.653   5.324
 2380SOL    HW1 8039   5.663   3.741   5.281
 2380SOL    HW2 8040   5.781   3.633   5.316
 2381SOL     OW 8041   2.397   4.755   5.307
 2381SOL    HW1 8042   2.413   4.852   5.292
 2381SOL    HW2 8043   2.302   4.740   5.332
 2382SOL     OW 8044   1.862   5.952   2.825
 2382SOL    HW1 8045   1.880   5.930   2.921
 2382SOL    HW2 8046   1.772   5.995   2.817
 2383SOL     OW 8047   5.306   6.036   5.792
 2383SOL    HW1 8048   5.237   6.029   5.865
 2383SOL    HW2 8049   5.261   6.045   5.704
 2384SOL     OW 8050   0.766   2.244   1.683
 2384SOL    HW1 8051   0.705   2.192   1.624
 2384SOL    HW2 8052   0.860   2.238   1.648
 2385SOL     OW 8053   0.789   1.939   0.465
 2385SOL    HW1 8054   0.816   1.904   0.375
 2385SOL    HW2 8055   0.690   1.934   0.474
 2386SOL     OW 8056   3.137   5.283   4.248
 2386SOL    HW1 8057   3.130   5.377   4.214
 2386SOL    HW2 8058   3.071   5.270   4.322
 2387SOL     OW 8059   0.684   2.499   3.271
 2387SOL    HW1 8060   0.622   2.561   3.319
 2387SOL    HW2 8061   0.739   2.550   3.205
 2388SOL     OW 8062   6.799   2.077   6.153
 2388SOL    HW1 8063   6.708   2.046   6.125
 2388SOL    HW2 8064   6.845   2.004   6.203
 2389SOL     OW 8065   5.650   4.764   4.608
 2389SOL    HW1 8066   5.636   4.705   4.528
 2389SOL    HW2 8067   5.687   4.710   4.684
 2390SOL     OW 8068   4.460   3.397   6.333
 2390SOL    HW1 8069   4.363   3.404   6.355
 2390SOL    HW2 8070   4.472   3.340   6.252
 2391SOL     OW 8071   3.515   3.666   6.285
 2391SOL    HW1 8072   3.523   3.569   6.310
 2391SOL    HW2 8073   3.481   3.673   6.191
 2392SOL     OW 8074   3.350   5.215   5.874
 2392SOL    HW1 8075   3.434   5.170   5.843
 2392SOL    HW2 8076   3.366   5.313   5.881
 2393SOL     OW 8077   3.782   5.475   1.620
 2393SOL    HW1 8078   3.858   5.440   1.566
 2393SOL    HW2 8079   3.796   5.573   1.638
 2394SOL     OW 8080   0.189   3.757   3.447
 2394SOL    HW1 8081   0.222   3.665   3.466
 2394SOL    HW2 8082   0.217   3.819   3.520
 2395SOL     OW 8083   0.247   3.441   6.512
 2395SOL    HW1 8084   0.339   3.403   6.512
 2395SOL    HW2 8085   0.228   3.484   6.424
 2396SOL     OW 8086   5.478   0.745   5.354
 2396SOL    HW1 8087   5.481   0.795   5.268
 2396SOL    HW2 8088   5.383   0.736   5.384
 2397SOL     OW 8089   0.873   5.321   5.703
 2397SOL    HW1 8090   0.892   5.224   5.696
 2397SOL    HW2 8091   0.906   5.356   5.791
 2398SOL     OW 8092   2.698   5.424   3.520
 2398SOL    HW1 8093   2.625   5.490   3.501
 2398SOL    HW2 8094   2.669   5.363   3.593
 2399SOL     OW 8095   2.543   2.472   3.673
 2399SOL    HW1 8096   2.455   2.501   3.637
 2399SOL    HW2 8097   2.552   2.501   3.768
 2400SOL     OW 8098   2.284   4.104   0.191
 2400SOL    HW1 8099   2.192   4.140   0.182
 2400SOL    HW2 8100   2.280   4.004   0.198
 2401SOL     OW 8101   3.570   0.110   4.386
 2401SOL    HW1 8102   3.649   0.109   4.447
 2401SOL    HW2 8103   3.508   0.184   4.412
 2402SOL     OW 8104   0.961   2.108   2.668
 2402SOL    HW1 8105   1.018   2.026   2.664
 2402SOL    HW2 8106   0.883   2.097   2.605
 2403SOL     OW 8107   3.851   3.238   1.219
 2403SOL    HW1 8108   3.847   3.139   1.204
 2403SOL    HW2 8109   3.788   3.283   1.155
 2404SOL     OW 8110   6.387   1.588   1.766
 2404SOL    HW1 8111   6.457   1.554   1.703
 2404SOL    HW2 8112   6.420   1.671   1.810
 2405SOL     OW 8113   2.710   4.918   6.781
 2405SOL    HW1 8114   2.798   4.941   6.740
 2405SOL    HW2 8115   2.694   4.820   6.774
 2406SOL     OW 8116   1.537   0.700   3.611
 2406SOL    HW1 8117   1.566   0.700   3.515
 2406SOL    HW2 8118   1.438   0.717   3.616
 2407SOL     OW 8119   4.328   2.064   3.505
 2407SOL    HW1 8120   4.415   2.113   3.504
 2407SOL    HW2 8121   4.319   2.010   3.421
 2408SOL     OW 8122   2.201   5.965   3.183
 2408SOL    HW1 8123   2.267   5.998   3.115
 2408SOL    HW2 8124   2.211   5.866   3.193
 2409SOL     OW 8125   2.338   2.814   1.218
 2409SOL    HW1 8126   2.285   2.883   1.169
 2409SOL    HW2 8127   2.408   2.777   1.158
 2410SOL     OW 8128   6.080   3.338   5.901
 2410SOL    HW1 8129   6.125   3.249   5.900
 2410SOL    HW2 8130   6.029   3.351   5.815
 2411SOL     OW 8131   3.002   4.305   6.594
 2411SOL    HW1 8132   3.089   4.290   6.548
 2411SOL    HW2 8133   3.005   4.265   6.686
 2412SOL     OW 8134   2.959   2.781   6.831
 2412SOL    HW1 8135   2.903   2.698   6.823
 2412SOL    HW2 8136   2.959   2.830   6.744
 2413SOL     OW 8137   6.984   3.372   5.910
 2413SOL    HW1 8138   6.927   3.346   5.987
 2413SOL    HW2 8139   0.048   3.408   5.943
 2414SOL     OW 8140   5.520   2.604   3.915
 2414SOL    HW1 8141   5.569   2.674   3.967
 2414SOL    HW2 8142   5.437   2.578   3.964
 2415SOL     OW 8143   2.392   6.673   0.422
 2415SOL    HW1 8144   2.395   6.771   0.444
 2415SOL    HW2 8145   2.485   6.637   0.416
 2416SOL     OW 8146   0.559   3.341   2.986
 2416SOL    HW1 8147   0.488   3.280   2.951
 2416SOL    HW2 8148   0.623   3.364   2.912
 2417SOL     OW 8149   4.867   2.598   6.883
 2417SOL    HW1 8150   4.902   2.633   6.970
 2417SOL    HW2 8151   4.769   2.617   6.877
 2418SOL     OW 8152   3.861   4.350   5.242
 2418SOL    HW1 8153   3.946   4.399   5.261
 2418SOL    HW2 8154   3.871   4.298   5.158
 2419SOL     OW 8155   1.668   6.772   4.347
 2419SOL    HW1 8156   1.649   6.851   4.406
 2419SOL    HW2 8157   1.718   6.703   4.399
 2420SOL     OW 8158   3.516   5.743   2.189
 2420SOL    HW1 8159   3.472   5.823   2.147
 2420SOL    HW2 8160   3.590   5.711   2.130
 2421SOL     OW 8161   3.548   6.233   3.813
 2421SOL    HW1 8162   3.565   6.299   3.886
 2421SOL    HW2 8163   3.619   6.242   3.742
 2422SOL     OW 8164   3.680   6.746   1.381
 2422SOL    HW1 8165   3.774   6.763   1.413
 2422SOL    HW2 8166   3.643   6.667   1.430
 2423SOL     OW 8167   2.169   5.249   1.647
 2423SOL    HW1 8168   2.261   5.251   1.609
 2423SOL    HW2 8169   2.108   5.202   1.584
 2424SOL     OW 8170   5.385   6.622   6.966
 2424SOL    HW1 8171   5.401   6.549   0.009
 2424SOL    HW2 8172   5.334   6.696   7.010
 2425SOL     OW 8173   5.035   5.537   5.638
 2425SOL    HW1 8174   5.026   5.558   5.735
 2425SOL    HW2 8175   5.127   5.563   5.607
 2426SOL     OW 8176   1.322   5.985   4.838
 2426SOL    HW1 8177   1.420   5.984   4.819
 2426SOL    HW2 8178   1.285   5.892   4.829
 2427SOL     OW 8179   4.710   6.318   6.370
 2427SOL    HW1 8180   4.737   6.267   6.288
 2427SOL    HW2 8181   4.624   6.366   6.352
 2428SOL     OW 8182   0.042   1.204   3.478
 2428SOL    HW1 8183   0.073   1.278   3.418
 2428SOL    HW2 8184   6.971   1.222   3.506
 2429SOL     OW 8185   5.394   5.172   2.352
 2429SOL    HW1 8186   5.449   5.104   2.401
 2429SOL    HW2 8187   5.338   5.126   2.283
 2430SOL     OW 8188   5.776   2.280   0.862
 2430SOL    HW1 8189   5.712   2.341   0.910
 2430SOL    HW2 8190   5.797   2.319   0.773
 2431SOL     OW 8191   6.033   1.721   2.176
 2431SOL    HW1 8192   6.091   1.750   2.252
 2431SOL    HW2 8193   6.083   1.656   2.119
 2432SOL     OW 8194   3.176   5.193   1.858
 2432SOL    HW1 8195   3.234   5.248   1.797
 2432SOL    HW2 8196   3.225   5.177   1.944
 2433SOL     OW 8197   0.620   5.548   6.904
 2433SOL    HW1 8198   0.616   5.635   6.952
 2433SOL    HW2 8199   0.715   5.527   6.881
 2434SOL     OW 8200   4.307   2.371   2.381
 2434SOL    HW1 8201   4.391   2.333   2.419
 2434SOL    HW2 8202   4.228   2.317   2.412
 2435SOL     OW 8203   5.585   6.269   0.025
 2435SOL    HW1 8204   5.584   6.201   0.099
 2435SOL    HW2 8205   5.644   6.237   6.975
 2436SOL     OW 8206   1.499   1.214   1.308
 2436SOL    HW1 8207   1.451   1.140   1.262
 2436SOL    HW2 8208   1.472   1.301   1.268
 2437SOL     OW 8209   5.750   5.654   2.249
 2437SOL    HW1 8210   5.697   5.610   2.177
 2437SOL    HW2 8211   5.732   5.609   2.336
 2438SOL     OW 8212   3.952   1.823   4.729
 2438SOL    HW1 8213   3.937   1.724   4.729
 2438SOL    HW2 8214   3.911   1.863   4.647
 2439SOL     OW 8215   0.238   6.003   6.840
 2439SOL    HW1 8216   0.228   5.925   6.902
 2439SOL    HW2 8217   0.194   5.981   6.753
 2440SOL     OW 8218   4.456   0.877   4.598
 2440SOL    HW1 8219   4.408   0.800   4.642
 2440SOL    HW2 8220   4.481   0.944   4.668
 2441SOL     OW 8221   5.425   0.562   6.945
 2441SOL    HW1 8222   5.423   0.602   0.013
 2441SOL    HW2 8223   5.426   0.462   6.953
 2442SOL     OW 8224   5.554   3.458   2.341
 2442SOL    HW1 8225   5.541   3.500   2.430
 2442SOL    HW2 8226   5.538   3.359   2.348
 2443SOL     OW 8227   2.217   1.115   6.438
 2443SOL    HW1 8228   2.305   1.144   6.476
 2443SOL    HW2 8229   2.148   1.111   6.510
 2444SOL     OW 8230   4.000   4.856   0.320
 2444SOL    HW1 8231   3.962   4.875   0.411
 2444SOL    HW2 8232   4.085   4.805   0.330
 2445SOL     OW 8233   6.207   1.580   2.011
 2445SOL    HW1 8234   6.259   1.626   1.939
 2445SOL    HW2 8235   6.217   1.481   2.001
 2446SOL     OW 8236   0.975   2.465   2.001
 2446SOL    HW1 8237   1.008   2.494   2.090
 2446SOL    HW2 8238   0.925   2.540   1.958
 2447SOL     OW 8239   2.111   0.471   0.645
 2447SOL    HW1 8240   2.203   0.499   0.673
 2447SOL    HW2 8241   2.107   0.371   0.639
 2448SOL     OW 8242   6.252   2.359   4.212
 2448SOL    HW1 8243   6.163   2.402   4.228
 2448SOL    HW2 8244   6.272   2.296   4.287
 2449SOL     OW 8245   1.079   4.069   1.912
 2449SOL    HW1 8246   1.017   4.115   1.849
 2449SOL    HW2 8247   1.172   4.105   1.901
 2450SOL     OW 8248   3.263   5.212   6.905
 2450SOL    HW1 8249   3.357   5.183   6.895
 2450SOL    HW2 8250   3.209   5.178   6.828
 2451SOL     OW 8251   0.746   6.970   4.098
 2451SOL    HW1 8252   0.710   6.885   4.135
 2451SOL    HW2 8253   0.843   6.978   4.119
 2452SOL     OW 8254   2.258   2.268   3.260
 2452SOL    HW1 8255   2.278   2.342   3.195
 2452SOL    HW2 8256   2.203   2.198   3.216
 2453SOL     OW 8257   6.810   2.702   0.530
 2453SOL    HW1 8258   6.775   2.780   0.478
 2453SOL    HW2 8259   6.814   2.726   0.627
 2454SOL     OW 8260   3.056   5.817   0.006
 2454SOL    HW1 8261   2.999   5.862   0.074
 2454SOL    HW2 8262   3.073   5.722   0.034
 2455SOL     OW 8263   3.708   1.056   0.488
 2455SOL    HW1 8264   3.643   1.079   0.561
 2455SOL    HW2 8265   3.668   1.079   0.400
 2456SOL     OW 8266   0.635   3.367   6.875
 2456SOL    HW1 8267   0.629   3.450   6.820
 2456SOL    HW2 8268   0.668   3.389   6.966
 2457SOL     OW 8269   5.841   1.031   5.618
 2457SOL    HW1 8270   5.776   0.956   5.605
 2457SOL    HW2 8271   5.795   1.107   5.664
 2458SOL     OW 8272   0.892   0.587   3.484
 2458SOL    HW1 8273   0.990   0.586   3.461
 2458SOL    HW2 8274   0.880   0.626   3.576
 2459SOL     OW 8275   3.112   6.301   5.462
 2459SOL    HW1 8276   3.133   6.212   5.421
 2459SOL    HW2 8277   3.023   6.333   5.429
 2460SOL     OW 8278   0.953   0.795   0.615
 2460SOL    HW1 8279   0.939   0.712   0.560
 2460SOL    HW2 8280   0.864   0.833   0.640
 2461SOL     OW 8281   4.804   6.937   4.237
 2461SOL    HW1 8282   4.884   6.948   4.177
 2461SOL    HW2 8283   4.830   6.883   4.317
 2462SOL     OW 8284   1.484   5.100   0.666
 2462SOL    HW1 8285   1.475   5.103   0.765
 2462SOL    HW2 8286   1.425   5.170   0.625
 2463SOL     OW 8287   6.580   1.867   0.363
 2463SOL    HW1 8288   6.647   1.833   0.297
 2463SOL    HW2 8289   6.490   1.827   0.343
 2464SOL     OW 8290   1.398   2.952   2.833
 2464SOL    HW1 8291   1.329   3.023   2.823
 2464SOL    HW2 8292   1.353   2.864   2.852
 2465SOL     OW 8293   6.854   6.241   6.151
 2465SOL    HW1 8294   6.874   6.332   6.114
 2465SOL    HW2 8295   6.799   6.190   6.085
 2466SOL     OW 8296   1.476   1.811   2.441
 2466SOL    HW1 8297   1.519   1.779   2.357
 2466SOL    HW2 8298   1.538   1.797   2.518
 2467SOL     OW 8299   4.975   2.184   5.772
 2467SOL    HW1 8300   4.878   2.207   5.781
 2467SOL    HW2 8301   4.987   2.125   5.692
 2468SOL     OW 8302   4.353   0.032   0.130
 2468SOL    HW1 8303   4.330   0.023   0.033
 2468SOL    HW2 8304   4.274   0.006   0.185
 2469SOL     OW 8305   3.639   3.301   5.433
 2469SOL    HW1 8306   3.718   3.362   5.436
 2469SOL    HW2 8307   3.618   3.278   5.338
 2470SOL     OW 8308   3.911   5.373   6.285
 2470SOL    HW1 8309   3.895   5.467   6.254
 2470SOL    HW2 8310   3.966   5.325   6.216
 2471SOL     OW 8311   2.988   0.082   0.239
 2471SOL    HW1 8312   3.023   0.170   0.207
 2471SOL    HW2 8313   2.907   0.097   0.297
 2472SOL     OW 8314   4.048   2.149   3.428
 2472SOL    HW1 8315   3.978   2.168   3.497
 2472SOL    HW2 8316   4.117   2.088   3.467
 2473SOL     OW 8317   1.269   4.289   5.640
 2473SOL    HW1 8318   1.288   4.277   5.737
 2473SOL    HW2 8319   1.318   4.370   5.606
 2474SOL     OW 8320   1.102   5.187   0.879
 2474SOL    HW1 8321   1.131   5.133   0.958
 2474SOL    HW2 8322   1.109   5.284   0.902
 2475SOL     OW 8323   4.818   0.531   2.061
 2475SOL    HW1 8324   4.734   0.503   2.015
 2475SOL    HW2 8325   4.824   0.487   2.150
 2476SOL     OW 8326   5.742   0.292   2.531
 2476SOL    HW1 8327   5.643   0.308   2.528
 2476SOL    HW2 8328   5.777   0.284   2.437
 2477SOL     OW 8329   4.176   0.971   3.058
 2477SOL    HW1 8330   4.082   0.996   3.082
 2477SOL    HW2 8331   4.196   0.878   3.091
 2478SOL     OW 8332   5.504   1.060   1.810
 2478SOL    HW1 8333   5.442   1.138   1.819
 2478SOL    HW2 8334   5.522   1.043   1.713
 2479SOL     OW 8335   1.219   3.268   1.991
 2479SOL    HW1 8336   1.316   3.244   1.999
 2479SOL    HW2 8337   1.203   3.316   1.905
 2480SOL     OW 8338   4.121   2.863   1.035
 2480SOL    HW1 8339   4.168   2.795   1.091
 2480SOL    HW2 8340   4.181   2.942   1.022
 2481SOL     OW 8341   3.148   6.687   1.317
 2481SOL    HW1 8342   3.193   6.648   1.398
 2481SOL    HW2 8343   3.050   6.668   1.321
 2482SOL     OW 8344   5.540   3.342   6.544
 2482SOL    HW1 8345   5.545   3.359   6.446
 2482SOL    HW2 8346   5.468   3.276   6.563
 2483SOL     OW 8347   1.892   1.413   6.620
 2483SOL    HW1 8348   1.886   1.502   6.573
 2483SOL    HW2 8349   1.801   1.375   6.631
 2484SOL     OW 8350   3.494   0.816   0.343
 2484SOL    HW1 8351   3.481   0.914   0.360
 2484SOL    HW2 8352   3.501   0.767   0.430
 2485SOL     OW 8353   5.198   3.191   0.767
 2485SOL    HW1 8354   5.191   3.284   0.803
 2485SOL    HW2 8355   5.265   3.139   0.820
 2486SOL     OW 8356   1.525   5.137   5.724
 2486SOL    HW1 8357   1.540   5.234   5.704
 2486SOL    HW2 8358   1.457   5.100   5.661
 2487SOL     OW 8359   4.538   6.627   0.267
 2487SOL    HW1 8360   4.495   6.702   0.317
 2487SOL    HW2 8361   4.467   6.566   0.231
 2488SOL     OW 8362   0.662   3.864   2.004
 2488SOL    HW1 8363   0.740   3.921   1.977
 2488SOL    HW2 8364   0.601   3.853   1.926
 2489SOL     OW 8365   0.917   6.144   3.898
 2489SOL    HW1 8366   0.962   6.093   3.826
 2489SOL    HW2 8367   0.966   6.230   3.915
 2490SOL     OW 8368   0.311   5.352   0.843
 2490SOL    HW1 8369   0.240   5.288   0.814
 2490SOL    HW2 8370   0.270   5.420   0.904
 2491SOL     OW 8371   3.129   4.224   0.269
 2491SOL    HW1 8372   3.115   4.323   0.265
 2491SOL    HW2 8373   3.069   4.184   0.338
 2492SOL     OW 8374   4.453   4.112   0.877
 2492SOL    HW1 8375   4.415   4.193   0.833
 2492SOL    HW2 8376   4.483   4.047   0.807
 2493SOL     OW 8377   6.357   0.130   1.868
 2493SOL    HW1 8378   6.347   0.031   1.859
 2493SOL    HW2 8379   6.404   0.151   1.954
 2494SOL     OW 8380   5.586   4.114   2.628
 2494SOL    HW1 8381   5.571   4.196   2.572
 2494SOL    HW2 8382   5.580   4.033   2.569
 2495SOL     OW 8383   5.126   5.964   3.771
 2495SOL    HW1 8384   5.032   5.951   3.803
 2495SOL    HW2 8385   5.137   6.058   3.740
 2496SOL     OW 8386   0.539   2.784   6.872
 2496SOL    HW1 8387   0.480   2.860   6.900
 2496SOL    HW2 8388   0.628   2.820   6.844
 2497SOL     OW 8389   0.605   0.358   0.725
 2497SOL    HW1 8390   0.555   0.275   0.751
 2497SOL    HW2 8391   0.691   0.333   0.681
 2498SOL     OW 8392   2.757   2.213   5.256
 2498SOL    HW1 8393   2.763   2.134   5.195
 2498SOL    HW2 8394   2.763   2.297   5.202
 2499SOL     OW 8395   6.021   3.385   2.206
 2499SOL    HW1 8396   6.078   3.330   2.267
 2499SOL    HW2 8397   6.066   3.473   2.190
 2500SOL     OW 8398   3.660   4.214   6.627
 2500SOL    HW1 8399   3.757   4.217   6.602
 2500SOL    HW2 8400   3.649   4.242   6.722
 2501SOL     OW 8401   5.168   5.220   0.446
 2501SOL    HW1 8402   5.220   5.250   0.367
 2501SOL    HW2 8403   5.081   5.181   0.416
 2502SOL     OW 8404   0.910   0.445   4.589
 2502SOL    HW1 8405   0.990   0.505   4.598
 2502SOL    HW2 8406   0.938   0.360   4.545
 2503SOL     OW 8407   2.242   6.860   4.300
 2503SOL    HW1 8408   2.327   6.855   4.353
 2503SOL    HW2 8409   2.164   6.864   4.362
 2504SOL     OW 8410   3.804   5.341   3.847
 2504SOL    HW1 8411   3.768   5.275   3.913
 2504SOL    HW2 8412   3.892   5.376   3.880
 2505SOL     OW 8413   0.066   6.958   2.767
 2505SOL    HW1 8414   0.141   6.892   2.767
 2505SOL    HW2 8415   0.101   0.023   2.796
 2506SOL     OW 8416   6.894   3.756   6.462
 2506SOL    HW1 8417   6.899   3.704   6.377
 2506SOL    HW2 8418   6.943   3.706   6.534
 2507SOL     OW 8419   6.408   3.009   0.122
 2507SOL    HW1 8420   6.398   2.940   0.050
 2507SOL    HW2 8421   6.395   3.100   0.082
 2508SOL     OW 8422   2.951   1.621   3.496
 2508SOL    HW1 8423   2.990   1.631   3.588
 2508SOL    HW2 8424   2.968   1.529   3.462
 2509SOL     OW 8425   0.055   4.256   0.609
 2509SOL    HW1 8426   0.146   4.213   0.607
 2509SOL    HW2 8427   0.045   4.317   0.531
 2510SOL     OW 8428   2.596   5.148   1.021
 2510SOL    HW1 8429   2.582   5.090   1.101
 2510SOL    HW2 8430   2.508   5.176   0.984
 2511SOL     OW 8431   3.658   2.037   3.917
 2511SOL    HW1 8432   3.752   2.051   3.948
 2511SOL    HW2 8433   3.595   2.050   3.995
 2512SOL     OW 8434   4.408   3.960   5.408
 2512SOL    HW1 8435   4.428   3.868   5.375
 2512SOL    HW2 8436   4.327   3.996   5.362
 2513SOL     OW 8437   2.110   4.764   4.941
 2513SOL    HW1 8438   2.127   4.857   4.973
 2513SOL    HW2 8439   2.194   4.710   4.948
 2514SOL     OW 8440   0.458   3.815   5.123
 2514SOL    HW1 8441   0.410   3.828   5.036
 2514SOL    HW2 8442   0.487   3.720   5.131
 2515SOL     OW 8443   1.217   6.782   0.519
 2515SOL    HW1 8444   1.188   6.711   0.583
 2515SOL    HW2 8445   1.303   6.754   0.476
 2516SOL     OW 8446   5.041   1.678   3.208
 2516SOL    HW1 8447   5.075   1.754   3.152
 2516SOL    HW2 8448   4.957   1.641   3.168
 2517SOL     OW 8449   0.905   0.148   6.502
 2517SOL    HW1 8450   0.949   0.218   6.558
 2517SOL    HW2 8451   0.858   0.082   6.561
 2518SOL     OW 8452   1.708   5.383   0.676
 2518SOL    HW1 8453   1.713   5.346   0.583
 2518SOL    HW2 8454   1.797   5.422   0.701
 2519SOL     OW 8455   3.497   6.503   1.945
 2519SOL    HW1 8456   3.528   6.420   1.899
 2519SOL    HW2 8457   3.513   6.494   2.044
 2520SOL     OW 8458   3.161   1.544   0.800
 2520SOL    HW1 8459   3.170   1.643   0.788
 2520SOL    HW2 8460   3.252   1.503   0.806
 2521SOL     OW 8461   2.891   0.473   5.304
 2521SOL    HW1 8462   2.807   0.475   5.250
 2521SOL    HW2 8463   2.894   0.389   5.358
 2522SOL     OW 8464   0.238   2.323   5.498
 2522SOL    HW1 8465   0.264   2.317   5.594
 2522SOL    HW2 8466   0.205   2.415   5.477
 2523SOL     OW 8467   0.894   2.655   0.903
 2523SOL    HW1 8468   0.821   2.605   0.949
 2523SOL    HW2 8469   0.970   2.669   0.967
 2524SOL     OW 8470   0.152   6.440   5.114
 2524SOL    HW1 8471   0.201   6.479   5.192
 2524SOL    HW2 8472   0.073   6.388   5.146
 2525SOL     OW 8473   0.847   2.124   5.205
 2525SOL    HW1 8474   0.857   2.145   5.302
 2525SOL    HW2 8475   0.925   2.161   5.154
 2526SOL     OW 8476   1.686   5.189   6.385
 2526SOL    HW1 8477   1.675   5.089   6.377
 2526SOL    HW2 8478   1.604   5.234   6.349
 2527SOL     OW 8479   5.829   6.538   6.076
 2527SOL    HW1 8480   5.911   6.595   6.087
 2527SOL    HW2 8481   5.855   6.450   6.035
 2528SOL     OW 8482   6.534   4.757   0.091
 2528SOL    HW1 8483   6.502   4.806   0.172
 2528SOL    HW2 8484   6.457   4.710   0.048
 2529SOL     OW 8485   6.469   6.302   6.405
 2529SOL    HW1 8486   6.490   6.251   6.322
 2529SOL    HW2 8487   6.403   6.251   6.460
 2530SOL     OW 8488   2.918   6.325   4.357
 2530SOL    HW1 8489   2.847   6.256   4.346
 2530SOL    HW2 8490   2.957   6.348   4.268
 2531SOL     OW 8491   5.463   5.877   4.859
 2531SOL    HW1 8492   5.409   5.809   4.909
 2531SOL    HW2 8493   5.456   5.859   4.760
 2532SOL     OW 8494   0.127   6.088   0.401
 2532SOL    HW1 8495   0.166   6.180   0.404
 2532SOL    HW2 8496   0.117   6.053   0.494
 2533SOL     OW 8497   4.000   6.636   4.147
 2533SOL    HW1 8498   3.946   6.716   4.169
 2533SOL    HW2 8499   4.093   6.664   4.122
 2534SOL     OW 8500   3.682   1.272   2.157
 2534SOL    HW1 8501   3.705   1.212   2.080
 2534SOL    HW2 8502   3.587   1.302   2.148
 2535SOL     OW 8503   3.022   2.955   5.723
 2535SOL    HW1 8504   3.120   2.952   5.741
 2535SOL    HW2 8505   2.992   2.866   5.688
 2536SOL     OW 8506   0.979   1.468   5.129
 2536SOL    HW1 8507   1.072   1.506   5.132
 2536SOL    HW2 8508   0.913   1.542   5.116
 2537SOL     OW 8509   3.577   0.378   6.449
 2537SOL    HW1 8510   3.480   0.398   6.461
 2537SOL    HW2 8511   3.589   0.321   6.367
 2538SOL     OW 8512   0.648   4.160   3.440
 2538SOL    HW1 8513   0.737   4.118   3.458
 2538SOL    HW2 8514   0.581   4.088   3.421
 2539SOL     OW 8515   5.915   0.992   4.493
 2539SOL    HW1 8516   5.925   1.033   4.583
 2539SOL    HW2 8517   5.988   1.025   4.433
 2540SOL     OW 8518   3.889   1.881   2.729
 2540SOL    HW1 8519   3.855   1.882   2.823
 2540SOL    HW2 8520   3.898   1.975   2.696
 2541SOL     OW 8521   2.541   0.459   4.921
 2541SOL    HW1 8522   2.495   0.543   4.893
 2541SOL    HW2 8523   2.640   0.473   4.919
 2542SOL     OW 8524   3.127   2.796   5.995
 2542SOL    HW1 8525   3.206   2.817   5.936
 2542SOL    HW2 8526   3.102   2.700   5.983
 2543SOL     OW 8527   1.116   0.675   3.143
 2543SOL    HW1 8528   1.045   0.743   3.127
 2543SOL    HW2 8529   1.097   0.627   3.229
 2544SOL     OW 8530   0.347   5.770   1.198
 2544SOL    HW1 8531   0.443   5.750   1.222
 2544SOL    HW2 8532   0.289   5.752   1.278
 2545SOL     OW 8533   0.770   6.898   2.330
 2545SOL    HW1 8534   0.675   6.877   2.356
 2545SOL    HW2 8535   0.803   6.975   2.386
 2546SOL     OW 8536   6.656   0.743   2.130
 2546SOL    HW1 8537   6.729   0.803   2.097
 2546SOL    HW2 8538   6.674   0.719   2.226
 2547SOL     OW 8539   6.758   4.485   0.295
 2547SOL    HW1 8540   6.816   4.553   0.340
 2547SOL    HW2 8541   6.706   4.435   0.364
 2548SOL     OW 8542   0.873   0.048   5.540
 2548SOL    HW1 8543   0.916   0.029   5.628
 2548SOL    HW2 8544   0.840   0.142   5.539
 2549SOL     OW 8545   1.685   0.219   1.340
 2549SOL    HW1 8546   1.657   0.288   1.274
 2549SOL    HW2 8547   1.739   0.149   1.294
 2550SOL     OW 8548   0.285   0.777   6.611
 2550SOL    HW1 8549   0.198   0.743   6.648
 2550SOL    HW2 8550   0.280   0.781   6.512
 2551SOL     OW 8551   3.230   5.203   0.196
 2551SOL    HW1 8552   3.301   5.164   0.137
 2551SOL    HW2 8553   3.140   5.179   0.160
 2552SOL     OW 8554   1.817   6.240   4.518
 2552SOL    HW1 8555   1.792   6.336   4.530
 2552SOL    HW2 8556   1.842   6.201   4.607
 2553SOL     OW 8557   4.793   3.321   5.965
 2553SOL    HW1 8558   4.700   3.296   5.993
 2553SOL    HW2 8559   4.789   3.403   5.908
 2554SOL     OW 8560   2.348   6.882   0.172
 2554SOL    HW1 8561   2.293   6.823   0.231
 2554SOL    HW2 8562   2.319   6.977   0.183
 2555SOL     OW 8563   5.408   6.917   4.959
 2555SOL    HW1 8564   5.324   6.969   4.969
 2555SOL    HW2 8565   5.451   6.939   4.872
 2556SOL     OW 8566   4.178   6.173   6.766
 2556SOL    HW1 8567   4.168   6.205   6.672
 2556SOL    HW2 8568   4.249   6.226   6.812
 2557SOL     OW 8569   2.434   4.781   6.619
 2557SOL    HW1 8570   2.417   4.830   6.705
 2557SOL    HW2 8571   2.410   4.684   6.631
 2558SOL     OW 8572   4.992   1.662   4.843
 2558SOL    HW1 8573   5.081   1.658   4.798
 2558SOL    HW2 8574   4.980   1.581   4.900
 2559SOL     OW 8575   0.656   3.994   4.893
 2559SOL    HW1 8576   0.563   4.016   4.924
 2559SOL    HW2 8577   0.707   4.079   4.879
 2560SOL     OW 8578   5.506   2.912   4.437
 2560SOL    HW1 8579   5.592   2.948   4.402
 2560SOL    HW2 8580   5.430   2.953   4.388
 2561SOL     OW 8581   3.179   6.012   4.986
 2561SOL    HW1 8582   3.112   5.945   5.020
 2561SOL    HW2 8583   3.149   6.048   4.898
 2562SOL     OW 8584   2.289   5.035   1.405
 2562SOL    HW1 8585   2.225   4.959   1.393
 2562SOL    HW2 8586   2.255   5.116   1.357
 2563SOL     OW 8587   3.740   2.145   0.517
 2563SOL    HW1 8588   3.739   2.200   0.601
 2563SOL    HW2 8589   3.647   2.140   0.480
 2564SOL     OW 8590   2.331   5.561   6.383
 2564SOL    HW1 8591   2.311   5.465   6.369
 2564SOL    HW2 8592   2.248   5.609   6.411
 2565SOL     OW 8593   1.485   6.948   6.962
 2565SOL    HW1 8594   1.397   6.920   6.924
 2565SOL    HW2 8595   1.482   0.022   6.981
 2566SOL     OW 8596   2.431   6.581   1.078
 2566SOL    HW1 8597   2.428   6.679   1.096
 2566SOL    HW2 8598   2.402   6.563   0.984
 2567SOL     OW 8599   0.986   0.435   0.804
 2567SOL    HW1 8600   0.923   0.390   0.741
 2567SOL    HW2 8601   0.977   0.395   0.895
 2568SOL     OW 8602   4.587   0.977   7.001
 2568SOL    HW1 8603   4.527   0.961   6.923
 2568SOL    HW2 8604   4.682   0.962   6.975
 2569SOL     OW 8605   3.045   0.928   2.344
 2569SOL    HW1 8606   3.014   0.974   2.261
 2569SOL    HW2 8607   2.988   0.957   2.421
 2570SOL     OW 8608   5.715   0.030   6.936
 2570SOL    HW1 8609   5.751   6.966   6.905
 2570SOL    HW2 8610   5.788   0.084   6.977
 2571SOL     OW 8611   2.480   4.510   5.259
 2571SOL    HW1 8612   2.418   4.449   5.210
 2571SOL    HW2 8613   2.447   4.604   5.251
 2572SOL     OW 8614   2.402   6.046   0.708
 2572SOL    HW1 8615   2.355   6.080   0.627
 2572SOL    HW2 8616   2.500   6.036   0.690
 2573SOL     OW 8617   7.018   1.623   1.724
 2573SOL    HW1 8618   0.045   1.709   1.721
 2573SOL    HW2 8619   7.017   1.581   1.633
 2574SOL     OW 8620   5.727   4.109   0.454
 2574SOL    HW1 8621   5.817   4.149   0.472
 2574SOL    HW2 8622   5.680   4.162   0.383
 2575SOL     OW 8623   5.044   5.425   0.989
 2575SOL    HW1 8624   4.975   5.423   1.061
 2575SOL    HW2 8625   5.036   5.512   0.938
 2576SOL     OW 8626   4.457   6.524   4.914
 2576SOL    HW1 8627   4.487   6.461   4.842
 2576SOL    HW2 8628   4.462   6.617   4.880
 2577SOL     OW 8629   4.029   6.223   2.318
 2577SOL    HW1 8630   4.028   6.322   2.302
 2577SOL    HW2 8631   3.953   6.199   2.378
 2578SOL     OW 8632   4.833   1.762   4.616
 2578SOL    HW1 8633   4.733   1.767   4.625
 2578SOL    HW2 8634   4.873   1.732   4.703
 2579SOL     OW 8635   1.550   6.824   3.180
 2579SOL    HW1 8636   1.546   6.736   3.134
 2579SOL    HW2 8637   1.481   6.827   3.253
 2580SOL     OW 8638   3.437   4.729   6.567
 2580SOL    HW1 8639   3.397   4.638   6.554
 2580SOL    HW2 8640   3.526   4.733   6.523
 2581SOL     OW 8641   2.256   4.961   1.852
 2581SOL    HW1 8642   2.354   4.982   1.859
 2581SOL    HW2 8643   2.206   5.043   1.824
 2582SOL     OW 8644   0.462   4.531   1.295
 2582SOL    HW1 8645   0.536   4.563   1.236
 2582SOL    HW2 8646   0.474   4.568   1.387
 2583SOL     OW 8647   1.422   1.979   6.078
 2583SOL    HW1 8648   1.367   1.911   6.126
 2583SOL    HW2 8649   1.516   1.947   6.068
 2584SOL     OW 8650   5.190   5.154   6.186
 2584SOL    HW1 8651   5.143   5.242   6.187
 2584SOL    HW2 8652   5.127   5.083   6.217
 2585SOL     OW 8653   3.641   3.217   0.774
 2585SOL    HW1 8654   3.632   3.310   0.737
 2585SOL    HW2 8655   3.738   3.192   0.777
 2586SOL     OW 8656   3.595   0.701   4.922
 2586SOL    HW1 8657   3.566   0.642   4.846
 2586SOL    HW2 8658   3.682   0.743   4.900
 2587SOL     OW 8659   6.244   0.891   3.582
 2587SOL    HW1 8660   6.177   0.915   3.513
 2587SOL    HW2 8661   6.233   0.794   3.607
 2588SOL     OW 8662   5.070   2.201   6.382
 2588SOL    HW1 8663   5.155   2.171   6.425
 2588SOL    HW2 8664   5.091   2.263   6.307
 2589SOL     OW 8665   1.419   6.653   5.503
 2589SOL    HW1 8666   1.402   6.640   5.406
 2589SOL    HW2 8667   1.517   6.648   5.522
 2590SOL     OW 8668   3.751   5.136   0.247
 2590SOL    HW1 8669   3.810   5.127   0.166
 2590SOL    HW2 8670   3.806   5.125   0.329
 2591SOL     OW 8671   6.573   4.749   2.914
 2591SOL    HW1 8672   6.515   4.670   2.892
 2591SOL    HW2 8673   6.667   4.719   2.925
 2592SOL     OW 8674   2.990   5.331   0.404
 2592SOL    HW1 8675   3.000   5.250   0.461
 2592SOL    HW2 8676   3.080   5.360   0.372
 2593SOL     OW 8677   4.457   6.061   6.938
 2593SOL    HW1 8678   4.506   6.057   0.001
 2593SOL    HW2 8679   4.442   5.969   6.904
 2594SOL     OW 8680   1.720   4.269   6.230
 2594SOL    HW1 8681   1.799   4.260   6.170
 2594SOL    HW2 8682   1.725   4.201   6.303
 2595SOL     OW 8683   0.152   0.810   4.039
 2595SOL    HW1 8684   0.230   0.753   4.066
 2595SOL    HW2 8685   0.077   0.795   4.103
 2596SOL     OW 8686   3.105   2.108   1.875
 2596SOL    HW1 8687   3.200   2.137   1.884
 2596SOL    HW2 8688   3.046   2.169   1.928
 2597SOL     OW 8689   0.621   5.722   6.293
 2597SOL    HW1 8690   0.710   5.762   6.318
 2597SOL    HW2 8691   0.560   5.726   6.372
 2598SOL     OW 8692   6.324   1.703   3.115
 2598SOL    HW1 8693   6.305   1.763   3.038
 2598SOL    HW2 8694   6.288   1.745   3.199
 2599SOL     OW 8695   1.364   5.889   0.784
 2599SOL    HW1 8696   1.429   5.964   0.769
 2599SOL    HW2 8697   1.367   5.826   0.705
 2600SOL     OW 8698   5.598   2.480   4.544
 2600SOL    HW1 8699   5.597   2.389   4.586
 2600SOL    HW2 8700   5.543   2.479   4.460
 2601SOL     OW 8701   1.455   1.479   1.569
 2601SOL    HW1 8702   1.373   1.464   1.514
 2601SOL    HW2 8703   1.429   1.490   1.665
 2602SOL     OW 8704   0.903   4.845   5.021
 2602SOL    HW1 8705   0.922   4.868   5.116
 2602SOL    HW2 8706   0.938   4.917   4.961
 2603SOL     OW 8707   3.153   1.171   3.023
 2603SOL    HW1 8708   3.101   1.147   3.106
 2603SOL    HW2 8709   3.201   1.090   2.990
 2604SOL     OW 8710   4.547   2.108   2.960
 2604SOL    HW1 8711   4.568   2.156   2.875
 2604SOL    HW2 8712   4.591   2.155   3.037
 2605SOL     OW 8713   1.712   3.168   2.518
 2605SOL    HW1 8714   1.708   3.173   2.617
 2605SOL    HW2 8715   1.638   3.224   2.479
 2606SOL     OW 8716   6.192   5.183   1.756
 2606SOL    HW1 8717   6.116   5.248   1.757
 2606SOL    HW2 8718   6.197   5.137   1.668
 2607SOL     OW 8719   0.666   1.461   1.345
 2607SOL    HW1 8720   0.764   1.463   1.364
 2607SOL    HW2 8721   0.631   1.368   1.358
 2608SOL     OW 8722   4.058   5.385   0.596
 2608SOL    HW1 8723   4.058   5.411   0.500
 2608SOL    HW2 8724   3.979   5.425   0.642
 2609SOL     OW 8725   6.096   1.422   2.311
 2609SOL    HW1 8726   6.061   1.482   2.240
 2609SOL    HW2 8727   6.074   1.460   2.401
 2610SOL     OW 8728   0.974   4.684   4.592
 2610SOL    HW1 8729   0.905   4.619   4.623
 2610SOL    HW2 8730   1.065   4.653   4.619
 2611SOL     OW 8731   4.711   6.033   0.526
 2611SOL    HW1 8732   4.696   6.056   0.622
 2611SOL    HW2 8733   4.637   5.973   0.494
 2612SOL     OW 8734   5.955   6.406   4.776
 2612SOL    HW1 8735   5.871   6.375   4.733
 2612SOL    HW2 8736   6.024   6.333   4.772
 2613SOL     OW 8737   2.592   5.172   5.974
 2613SOL    HW1 8738   2.510   5.200   6.025
 2613SOL    HW2 8739   2.662   5.243   5.982
 2614SOL     OW 8740   6.592   2.602   0.310
 2614SOL    HW1 8741   6.579   2.535   0.237
 2614SOL    HW2 8742   6.640   2.558   0.387
 2615SOL     OW 8743   0.799   3.395   1.897
 2615SOL    HW1 8744   0.801   3.295   1.890
 2615SOL    HW2 8745   0.735   3.422   1.969
 2616SOL     OW 8746   2.223   2.151   6.113
 2616SOL    HW1 8747   2.182   2.145   6.022
 2616SOL    HW2 8748   2.237   2.247   6.137
 2617SOL     OW 8749   4.579   1.405   0.571
 2617SOL    HW1 8750   4.607   1.320   0.616
 2617SOL    HW2 8751   4.494   1.437   0.613
 2618SOL     OW 8752   6.562   6.907   4.113
 2618SOL    HW1 8753   6.549   6.999   4.075
 2618SOL    HW2 8754   6.480   6.880   4.164
 2619SOL     OW 8755   4.559   1.893   1.852
 2619SOL    HW1 8756   4.656   1.894   1.876
 2619SOL    HW2 8757   4.543   1.823   1.782
 2620SOL     OW 8758   6.605   0.209   3.108
 2620SOL    HW1 8759   6.645   0.282   3.163
 2620SOL    HW2 8760   6.646   0.122   3.133
 2621SOL     OW 8761   1.285   5.268   2.542
 2621SOL    HW1 8762   1.360   5.324   2.508
 2621SOL    HW2 8763   1.309   5.231   2.632
 2622SOL     OW 8764   2.189   3.795   6.021
 2622SOL    HW1 8765   2.280   3.837   6.015
 2622SOL    HW2 8766   2.161   3.763   5.931
 2623SOL     OW 8767   1.007   0.893   5.118
 2623SOL    HW1 8768   1.082   0.857   5.173
 2623SOL    HW2 8769   1.043   0.948   5.043
 2624SOL     OW 8770   0.131   2.011   5.155
 2624SOL    HW1 8771   0.085   1.925   5.134
 2624SOL    HW2 8772   0.074   2.064   5.217
 2625SOL     OW 8773   2.432   3.889   5.765
 2625SOL    HW1 8774   2.484   3.804   5.762
 2625SOL    HW2 8775   2.423   3.926   5.672
 2626SOL     OW 8776   6.609   0.426   6.140
 2626SOL    HW1 8777   6.600   0.495   6.212
 2626SOL    HW2 8778   6.694   0.441   6.089
 2627SOL     OW 8779   2.192   1.058   5.747
 2627SOL    HW1 8780   2.214   1.006   5.830
 2627SOL    HW2 8781   2.256   1.031   5.674
 2628SOL     OW 8782   1.854   4.023   5.315
 2628SOL    HW1 8783   1.782   3.963   5.282
 2628SOL    HW2 8784   1.928   4.028   5.247
 2629SOL     OW 8785   3.834   3.717   2.724
 2629SOL    HW1 8786   3.839   3.785   2.651
 2629SOL    HW2 8787   3.844   3.626   2.684
 2630SOL     OW 8788   3.447   1.533   3.060
 2630SOL    HW1 8789   3.439   1.500   2.966
 2630SOL    HW2 8790   3.543   1.551   3.081
 2631SOL     OW 8791   5.128   0.915   6.485
 2631SOL    HW1 8792   5.178   0.968   6.554
 2631SOL    HW2 8793   5.153   0.947   6.394
 2632SOL     OW 8794   5.843   3.650   0.115
 2632SOL    HW1 8795   5.816   3.714   0.187
 2632SOL    HW2 8796   5.848   3.558   0.154
 2633SOL     OW 8797   6.549   2.241   4.852
 2633SOL    HW1 8798   6.550   2.143   4.835
 2633SOL    HW2 8799   6.553   2.258   4.951
 2634SOL     OW 8800   0.601   5.648   3.543
 2634SOL    HW1 8801   0.519   5.677   3.493
 2634SOL    HW2 8802   0.593   5.551   3.567
 2635SOL     OW 8803   6.685   5.402   4.138
 2635SOL    HW1 8804   6.659   5.476   4.200
 2635SOL    HW2 8805   6.617   5.394   4.065
 2636SOL     OW 8806   4.055   0.942   6.835
 2636SOL    HW1 8807   4.072   0.978   6.927
 2636SOL    HW2 8808   3.980   0.876   6.839
 2637SOL     OW 8809   6.494   1.589   4.042
 2637SOL    HW1 8810   6.430   1.642   3.985
 2637SOL    HW2 8811   6.495   1.494   4.011
 2638SOL     OW 8812   0.193   6.746   4.465
 2638SOL    HW1 8813   0.238   6.713   4.548
 2638SOL    HW2 8814   0.104   6.785   4.488
 2639SOL     OW 8815   6.626   5.872   6.317
 2639SOL    HW1 8816   6.680   5.788   6.324
 2639SOL    HW2 8817   6.557   5.874   6.390
 2640SOL     OW 8818   6.694   6.911   5.233
 2640SOL    HW1 8819   6.681   6.846   5.158
 2640SOL    HW2 8820   6.791   6.917   5.256
 2641SOL     OW 8821   5.001   1.865   1.402
 2641SOL    HW1 8822   5.042   1.793   1.346
 2641SOL    HW2 8823   5.052   1.950   1.389
 2642SOL     OW 8824   6.143   0.081   4.343
 2642SOL    HW1 8825   6.123   0.117   4.434
 2642SOL    HW2 8826   6.060   0.041   4.304
 2643SOL     OW 8827   1.163   3.228   3.614
 2643SOL    HW1 8828   1.119   3.316   3.632
 2643SOL    HW2 8829   1.130   3.160   3.679
 2644SOL     OW 8830   4.303   5.266   5.315
 2644SOL    HW1 8831   4.226   5.217   5.354
 2644SOL    HW2 8832   4.368   5.288   5.388
 2645SOL     OW 8833   5.152   5.058   3.961
 2645SOL    HW1 8834   5.086   5.067   3.887
 2645SOL    HW2 8835   5.169   5.148   4.002
 2646SOL     OW 8836   0.092   2.686   0.248
 2646SOL    HW1 8837   0.154   2.659   0.174
 2646SOL    HW2 8838   0.004   2.640   0.237
 2647SOL     OW 8839   5.705   0.139   1.723
 2647SOL    HW1 8840   5.702   0.239   1.730
 2647SOL    HW2 8841   5.792   0.106   1.759
 2648SOL     OW 8842   6.960   6.783   4.517
 2648SOL    HW1 8843   6.877   6.781   4.461
 2648SOL    HW2 8844   6.944   6.839   4.598
 2649SOL     OW 8845   6.316   3.287   1.521
 2649SOL    HW1 8846   6.229   3.273   1.568
 2649SOL    HW2 8847   6.384   3.320   1.586
 2650SOL     OW 8848   2.424   5.744   4.663
 2650SOL    HW1 8849   2.446   5.838   4.641
 2650SOL    HW2 8850   2.355   5.710   4.599
 2651SOL     OW 8851   3.009   0.939   0.262
 2651SOL    HW1 8852   3.006   1.007   0.188
 2651SOL    HW2 8853   2.916   0.909   0.283
 2652SOL     OW 8854   4.887   3.101   5.805
 2652SOL    HW1 8855   4.861   3.175   5.867
 2652SOL    HW2 8856   4.853   3.122   5.713
 2653SOL     OW 8857   4.755   5.943   5.959
 2653SOL    HW1 8858   4.825   6.011   5.939
 2653SOL    HW2 8859   4.747   5.879   5.882
 2654SOL     OW 8860   4.871   6.088   1.256
 2654SOL    HW1 8861   4.913   6.114   1.343
 2654SOL    HW2 8862   4.881   6.163   1.191
 2655SOL     OW 8863   4.740   5.351   3.920
 2655SOL    HW1 8864   4.668   5.347   3.990
 2655SOL    HW2 8865   4.698   5.346   3.830
 2656SOL     OW 8866   3.568   4.907   3.694
 2656SOL    HW1 8867   3.501   4.833   3.691
 2656SOL    HW2 8868   3.520   4.995   3.700
 2657SOL     OW 8869   1.894   3.405   0.784
 2657SOL    HW1 8870   1.854   3.399   0.692
 2657SOL    HW2 8871   1.823   3.385   0.852
 2658SOL     OW 8872   4.845   4.691   0.235
 2658SOL    HW1 8873   4.760   4.745   0.234
 2658SOL    HW2 8874   4.828   4.601   0.195
 2659SOL     OW 8875   4.580   3.147   5.379
 2659SOL    HW1 8876   4.500   3.126   5.435
 2659SOL    HW2 8877   4.581   3.245   5.358
 2660SOL     OW 8878   0.686   0.569   1.425
 2660SOL    HW1 8879   0.717   0.664   1.419
 2660SOL    HW2 8880   0.731   0.524   1.502
 2661SOL     OW 8881   1.917   6.707   1.489
 2661SOL    HW1 8882   1.868   6.638   1.543
 2661SOL    HW2 8883   1.924   6.791   1.543
 2662SOL     OW 8884   2.275   0.414   3.891
 2662SOL    HW1 8885   2.185   0.408   3.849
 2662SOL    HW2 8886   2.276   0.487   3.959
 2663SOL     OW 8887   4.645   5.482   6.493
 2663SOL    HW1 8888   4.607   5.427   6.567
 2663SOL    HW2 8889   4.665   5.574   6.527
 2664SOL     OW 8890   4.082   3.099   5.488
 2664SOL    HW1 8891   4.027   3.148   5.420
 2664SOL    HW2 8892   4.091   3.003   5.462
 2665SOL     OW 8893   2.235   3.232   5.234
 2665SOL    HW1 8894   2.263   3.326   5.255
 2665SOL    HW2 8895   2.280   3.170   5.298
 2666SOL     OW 8896   1.490   4.487   1.455
 2666SOL    HW1 8897   1.462   4.443   1.370
 2666SOL    HW2 8898   1.414   4.488   1.520
 2667SOL     OW 8899   1.032   5.582   3.861
 2667SOL    HW1 8900   1.002   5.641   3.936
 2667SOL    HW2 8901   1.093   5.634   3.801
 2668SOL     OW 8902   5.981   2.959   4.338
 2668SOL    HW1 8903   5.969   2.902   4.257
 2668SOL    HW2 8904   5.894   3.000   4.363
 2669SOL     OW 8905   3.593   5.496   6.862
 2669SOL    HW1 8906   3.683   5.466   6.895
 2669SOL    HW2 8907   3.601   5.587   6.822
 2670SOL     OW 8908   6.173   2.773   4.759
 2670SOL    HW1 8909   6.192   2.700   4.825
 2670SOL    HW2 8910   6.244   2.775   4.689
 2671SOL     OW 8911   5.035   5.382   6.197
 2671SOL    HW1 8912   5.028   5.380   6.097
 2671SOL    HW2 8913   4.956   5.335   6.236
 2672SOL     OW 8914   3.128   6.868   1.613
 2672SOL    HW1 8915   3.193   6.930   1.568
 2672SOL    HW2 8916   3.052   6.922   1.649
 2673SOL     OW 8917   5.726   1.746   2.173
 2673SOL    HW1 8918   5.810   1.728   2.224
 2673SOL    HW2 8919   5.746   1.749   2.075
 2674SOL     OW 8920   1.487   4.896   4.027
 2674SOL    HW1 8921   1.576   4.854   4.006
 2674SOL    HW2 8922   1.465   4.964   3.957
 2675SOL     OW 8923   0.154   6.697   4.192
 2675SOL    HW1 8924   0.123   6.602   4.196
 2675SOL    HW2 8925   0.172   6.730   4.285
 2676SOL     OW 8926   3.910   3.487   2.457
 2676SOL    HW1 8927   3.880   3.426   2.530
 2676SOL    HW2 8928   4.006   3.469   2.436
 2677SOL     OW 8929   2.864   4.826   1.338
 2677SOL    HW1 8930   2.880   4.758   1.267
 2677SOL    HW2 8931   2.786   4.798   1.394
 2678SOL     OW 8932   6.963   2.275   2.045
 2678SOL    HW1 8933   6.880   2.269   1.990
 2678SOL    HW2 8934   6.963   2.204   2.115
 2679SOL     OW 8935   1.988   4.694   2.734
 2679SOL    HW1 8936   1.964   4.693   2.637
 2679SOL    HW2 8937   1.919   4.745   2.785
 2680SOL     OW 8938   1.228   2.247   0.087
 2680SOL    HW1 8939   1.282   2.322   0.049
 2680SOL    HW2 8940   1.268   2.218   0.174
 2681SOL     OW 8941   1.264   2.854   5.015
 2681SOL    HW1 8942   1.165   2.849   5.004
 2681SOL    HW2 8943   1.286   2.896   5.103
 2682SOL     OW 8944   5.376   3.689   3.305
 2682SOL    HW1 8945   5.355   3.656   3.213
 2682SOL    HW2 8946   5.467   3.728   3.307
 2683SOL     OW 8947   2.181   4.470   2.414
 2683SOL    HW1 8948   2.138   4.415   2.342
 2683SOL    HW2 8949   2.273   4.436   2.431
 2684SOL     OW 8950   5.098   6.941   1.318
 2684SOL    HW1 8951   5.109   6.892   1.404
 2684SOL    HW2 8952   5.184   6.940   1.267
 2685SOL     OW 8953   6.440   4.915   5.217
 2685SOL    HW1 8954   6.484   4.828   5.238
 2685SOL    HW2 8955   6.343   4.899   5.196
 2686SOL     OW 8956   0.996   1.271   5.305
 2686SOL    HW1 8957   1.050   1.193   5.272
 2686SOL    HW2 8958   0.991   1.341   5.234
 2687SOL     OW 8959   3.479   6.321   0.700
 2687SOL    HW1 8960   3.401   6.309   0.760
 2687SOL    HW2 8961   3.494   6.418   0.682
 2688SOL     OW 8962   2.912   1.633   0.648
 2688SOL    HW1 8963   2.963   1.702   0.597
 2688SOL    HW2 8964   2.969   1.598   0.722
 2689SOL     OW 8965   0.378   4.083   2.595
 2689SOL    HW1 8966   0.476   4.102   2.604
 2689SOL    HW2 8967   0.357   4.056   2.501
 2690SOL     OW 8968   2.968   3.180   6.826
 2690SOL    HW1 8969   2.977   3.113   6.752
 2690SOL    HW2 8970   2.933   3.266   6.789
 2691SOL     OW 8971   0.130   4.454   3.635
 2691SOL    HW1 8972   0.095   4.480   3.725
 2691SOL    HW2 8973   0.057   4.410   3.583
 2692SOL     OW 8974   2.107   6.607   3.045
 2692SOL    HW1 8975   2.015   6.605   3.007
 2692SOL    HW2 8976   2.112   6.677   3.117
 2693SOL     OW 8977   2.085   4.620   4.098
 2693SOL    HW1 8978   2.053   4.588   4.187
 2693SOL    HW2 8979   2.122   4.543   4.047
 2694SOL     OW 8980   4.103   6.802   3.266
 2694SOL    HW1 8981   4.074   6.851   3.184
 2694SOL    HW2 8982   4.195   6.765   3.252
 2695SOL     OW 8983   5.972   6.829   2.970
 2695SOL    HW1 8984   5.993   6.854   3.065
 2695SOL    HW2 8985   5.980   6.910   2.912
 2696SOL     OW 8986   4.642   3.953   5.800
 2696SOL    HW1 8987   4.570   3.972   5.733
 2696SOL    HW2 8988   4.679   4.040   5.834
 2697SOL     OW 8989   4.493   1.786   2.501
 2697SOL    HW1 8990   4.593   1.784   2.508
 2697SOL    HW2 8991   4.457   1.693   2.511
 2698SOL     OW 8992   2.068   4.837   6.701
 2698SOL    HW1 8993   2.029   4.790   6.780
 2698SOL    HW2 8994   2.123   4.915   6.733
 2699SOL     OW 8995   2.770   5.900   1.038
 2699SOL    HW1 8996   2.799   5.944   1.122
 2699SOL    HW2 8997   2.674   5.923   1.019
 2700SOL     OW 8998   2.806   1.673   1.035
 2700SOL    HW1 8999   2.839   1.582   1.011
 2700SOL    HW2 9000   2.820   1.689   1.133
 2701SOL     OW 9001   5.250   2.283   5.519
 2701SOL    HW1 9002   5.178   2.347   5.546
 2701SOL    HW2 9003   5.269   2.220   5.595
 2702SOL     OW 9004   1.242   2.042   3.137
 2702SOL    HW1 9005   1.205   2.092   3.059
 2702SOL    HW2 9006   1.336   2.070   3.153
 2703SOL     OW 9007   1.661   5.385   1.433
 2703SOL    HW1 9008   1.742   5.428   1.474
 2703SOL    HW2 9009   1.580   5.438   1.457
 2704SOL     OW 9010   6.952   5.451   2.007
 2704SOL    HW1 9011   6.910   5.470   1.918
 2704SOL    HW2 9012   0.027   5.437   1.995
 2705SOL     OW 9013   6.553   0.946   5.098
 2705SOL    HW1 9014   6.623   0.875   5.108
 2705SOL    HW2 9015   6.558   0.984   5.006
 2706SOL     OW 9016   6.440   4.669   4.243
 2706SOL    HW1 9017   6.512   4.668   4.174
 2706SOL    HW2 9018   6.474   4.711   4.327
 2707SOL     OW 9019   4.253   0.143   4.303
 2707SOL    HW1 9020   4.290   0.100   4.220
 2707SOL    HW2 9021   4.324   0.145   4.373
 2708SOL     OW 9022   6.460   2.700   0.757
 2708SOL    HW1 9023   6.530   2.771   0.767
 2708SOL    HW2 9024   6.455   2.670   0.661
 2709SOL     OW 9025   4.593   0.192   6.548
 2709SOL    HW1 9026   4.615   0.155   6.457
 2709SOL    HW2 9027   4.643   0.278   6.562
 2710SOL     OW 9028   1.957   2.638   3.740
 2710SOL    HW1 9029   2.007   2.565   3.786
 2710SOL    HW2 9030   1.994   2.727   3.767
 2711SOL     OW 9031   3.090   1.173   3.689
 2711SOL    HW1 9032   3.085   1.209   3.596
 2711SOL    HW2 9033   3.185   1.150   3.711
 2712SOL     OW 9034   2.885   5.273   2.065
 2712SOL    HW1 9035   2.877   5.338   2.140
 2712SOL    HW2 9036   2.877   5.321   1.977
 2713SOL     OW 9037   4.051   3.997   6.487
 2713SOL    HW1 9038   4.087   4.025   6.398
 2713SOL    HW2 9039   3.968   3.942   6.474
 2714SOL     OW 9040   3.762   3.738   0.126
 2714SOL    HW1 9041   3.677   3.687   0.140
 2714SOL    HW2 9042   3.742   3.821   0.073
 2715SOL     OW 9043   5.493   2.367   0.699
 2715SOL    HW1 9044   5.513   2.387   0.795
 2715SOL    HW2 9045   5.402   2.401   0.676
 2716SOL     OW 9046   4.887   3.147   3.536
 2716SOL    HW1 9047   4.858   3.241   3.518
 2716SOL    HW2 9048   4.880   3.128   3.634
 2717SOL     OW 9049   0.652   6.683   1.892
 2717SOL    HW1 9050   0.684   6.778   1.898
 2717SOL    HW2 9051   0.561   6.677   1.934
 2718SOL     OW 9052   0.304   1.498   5.004
 2718SOL    HW1 9053   0.312   1.597   4.997
 2718SOL    HW2 9054   0.233   1.465   4.942
 2719SOL     OW 9055   1.200   4.543   2.065
 2719SOL    HW1 9056   1.167   4.562   1.973
 2719SOL    HW2 9057   1.260   4.463   2.063
 2720SOL     OW 9058   0.715   0.085   3.855
 2720SOL    HW1 9059   0.752   0.043   3.938
 2720SOL    HW2 9060   0.766   0.054   3.775
 2721SOL     OW 9061   3.408   6.640   3.159
 2721SOL    HW1 9062   3.501   6.617   3.187
 2721SOL    HW2 9063   3.410   6.675   3.065
 2722SOL     OW 9064   4.954   5.288   6.586
 2722SOL    HW1 9065   4.922   5.333   6.503
 2722SOL    HW2 9066   5.054   5.286   6.587
 2723SOL     OW 9067   2.402   6.406   6.632
 2723SOL    HW1 9068   2.424   6.461   6.552
 2723SOL    HW2 9069   2.338   6.456   6.691
 2724SOL     OW 9070   1.470   6.294   6.452
 2724SOL    HW1 9071   1.431   6.217   6.401
 2724SOL    HW2 9072   1.463   6.275   6.551
 2725SOL     OW 9073   5.453   3.664   4.719
 2725SOL    HW1 9074   5.512   3.591   4.754
 2725SOL    HW2 9075   5.402   3.630   4.640
 2726SOL     OW 9076   0.604   1.945   2.008
 2726SOL    HW1 9077   0.644   2.033   1.985
 2726SOL    HW2 9078   0.513   1.938   1.967
 2727SOL     OW 9079   1.579   3.790   4.394
 2727SOL    HW1 9080   1.596   3.858   4.465
 2727SOL    HW2 9081   1.507   3.728   4.424
 2728SOL     OW 9082   5.500   6.180   6.461
 2728SOL    HW1 9083   5.412   6.214   6.493
 2728SOL    HW2 9084   5.507   6.082   6.481
 2729SOL     OW 9085   6.459   6.554   6.981
 2729SOL    HW1 9086   6.505   6.629   6.933
 2729SOL    HW2 9087   6.524   6.479   6.995
 2730SOL     OW 9088   0.744   5.776   1.718
 2730SOL    HW1 9089   0.681   5.700   1.705
 2730SOL    HW2 9090   0.735   5.812   1.810
 2731SOL     OW 9091   3.194   3.653   3.344
 2731SOL    HW1 9092   3.134   3.719   3.299
 2731SOL    HW2 9093   3.139   3.579   3.381
 2732SOL     OW 9094   6.012   2.286   1.563
 2732SOL    HW1 9095   6.102   2.246   1.547
 2732SOL    HW2 9096   5.986   2.341   1.483
 2733SOL     OW 9097   0.153   1.826   4.794
 2733SOL    HW1 9098   0.124   1.916   4.825
 2733SOL    HW2 9099   0.074   1.773   4.765
 2734SOL     OW 9100   3.577   5.778   1.684
 2734SOL    HW1 9101   3.579   5.786   1.584
 2734SOL    HW2 9102   3.671   5.771   1.718
 2735SOL     OW 9103   1.501   2.140   1.326
 2735SOL    HW1 9104   1.560   2.063   1.305
 2735SOL    HW2 9105   1.546   2.226   1.300
 2736SOL     OW 9106   6.132   6.186   4.789
 2736SOL    HW1 9107   6.202   6.179   4.717
 2736SOL    HW2 9108   6.166   6.144   4.873
 2737SOL     OW 9109   2.730   3.392   5.918
 2737SOL    HW1 9110   2.739   3.294   5.900
 2737SOL    HW2 9111   2.816   3.439   5.898
 2738SOL     OW 9112   6.260   6.600   2.464
 2738SOL    HW1 9113   6.248   6.651   2.549
 2738SOL    HW2 9114   6.179   6.545   2.445
 2739SOL     OW 9115   0.582   5.303   0.823
 2739SOL    HW1 9116   0.638   5.258   0.892
 2739SOL    HW2 9117   0.487   5.308   0.855
 2740SOL     OW 9118   6.665   5.220   1.875
 2740SOL    HW1 9119   6.727   5.211   1.954
 2740SOL    HW2 9120   6.619   5.132   1.859
 2741SOL     OW 9121   0.142   2.103   4.882
 2741SOL    HW1 9122   0.236   2.137   4.879
 2741SOL    HW2 9123   0.116   2.083   4.976
 2742SOL     OW 9124   2.149   5.259   1.298
 2742SOL    HW1 9125   2.232   5.308   1.272
 2742SOL    HW2 9126   2.082   5.267   1.224
 2743SOL     OW 9127   6.533   4.490   2.322
 2743SOL    HW1 9128   6.532   4.529   2.414
 2743SOL    HW2 9129   6.501   4.558   2.256
 2744SOL     OW 9130   4.151   3.262   1.807
 2744SOL    HW1 9131   4.100   3.207   1.874
 2744SOL    HW2 9132   4.142   3.220   1.717
 2745SOL     OW 9133   6.828   1.453   5.462
 2745SOL    HW1 9134   6.782   1.542   5.466
 2745SOL    HW2 9135   6.776   1.387   5.516
 2746SOL     OW 9136   0.678   2.499   4.344
 2746SOL    HW1 9137   0.725   2.543   4.267
 2746SOL    HW2 9138   0.654   2.405   4.318
 2747SOL     OW 9139   4.731   5.713   6.738
 2747SOL    HW1 9140   4.760   5.618   6.749
 2747SOL    HW2 9141   4.755   5.745   6.646
 2748SOL     OW 9142   4.479   0.748   1.823
 2748SOL    HW1 9143   4.408   0.808   1.786
 2748SOL    HW2 9144   4.508   0.780   1.913
 2749SOL     OW 9145   0.300   4.980   0.708
 2749SOL    HW1 9146   0.310   5.041   0.787
 2749SOL    HW2 9147   0.386   4.977   0.658
 2750SOL     OW 9148   2.020   4.341   2.247
 2750SOL    HW1 9149   2.021   4.380   2.155
 2750SOL    HW2 9150   1.926   4.317   2.272
 2751SOL     OW 9151   1.507   2.457   1.695
 2751SOL    HW1 9152   1.448   2.382   1.723
 2751SOL    HW2 9153   1.459   2.513   1.627
 2752SOL     OW 9154   3.336   4.217   6.053
 2752SOL    HW1 9155   3.326   4.136   6.109
 2752SOL    HW2 9156   3.272   4.287   6.083
 2753SOL     OW 9157   0.014   6.111   4.948
 2753SOL    HW1 9158   0.065   6.110   4.863
 2753SOL    HW2 9159   7.013   6.017   4.974
 2754SOL     OW 9160   0.228   0.262   7.003
 2754SOL    HW1 9161   0.250   0.347   0.027
 2754SOL    HW2 9162   0.277   0.186   0.021
 2755SOL     OW 9163   4.007   0.168   3.209
 2755SOL    HW1 9164   3.915   0.204   3.194
 2755SOL    HW2 9165   4.013   0.128   3.300
 2756SOL     OW 9166   4.159   6.167   0.428
 2756SOL    HW1 9167   4.067   6.208   0.429
 2756SOL    HW2 9168   4.155   6.077   0.470
 2757SOL     OW 9169   1.822   6.822   0.787
 2757SOL    HW1 9170   1.731   6.849   0.819
 2757SOL    HW2 9171   1.884   6.813   0.865
 2758SOL     OW 9172   4.710   0.073   4.791
 2758SOL    HW1 9173   4.653   0.096   4.712
 2758SOL    HW2 9174   4.805   0.061   4.762
 2759SOL     OW 9175   5.465   6.638   5.674
 2759SOL    HW1 9176   5.475   6.684   5.586
 2759SOL    HW2 9177   5.392   6.570   5.669
 2760SOL     OW 9178   1.106   5.960   1.226
 2760SOL    HW1 9179   1.102   5.865   1.256
 2760SOL    HW2 9180   1.017   5.986   1.188
 2761SOL     OW 9181   2.230   4.478   4.332
 2761SOL    HW1 9182   2.270   4.446   4.247
 2761SOL    HW2 9183   2.224   4.402   4.397
 2762SOL     OW 9184   1.112   1.090   4.941
 2762SOL    HW1 9185   1.080   1.117   4.850
 2762SOL    HW2 9186   1.151   1.169   4.988
 2763SOL     OW 9187   5.638   1.515   3.720
 2763SOL    HW1 9188   5.728   1.472   3.728
 2763SOL    HW2 9189   5.602   1.502   3.628
 2764SOL     OW 9190   6.338   0.351   1.066
 2764SOL    HW1 9191   6.240   0.331   1.054
 2764SOL    HW2 9192   6.390   0.266   1.062
 2765SOL     OW 9193   5.616   0.143   0.671
 2765SOL    HW1 9194   5.619   0.241   0.653
 2765SOL    HW2 9195   5.575   0.127   0.761
 2766SOL     OW 9196   4.942   2.869   0.353
 2766SOL    HW1 9197   4.859   2.894   0.402
 2766SOL    HW2 9198   4.996   2.952   0.335
 2767SOL     OW 9199   6.902   4.808   6.743
 2767SOL    HW1 9200   6.885   4.863   6.661
 2767SOL    HW2 9201   6.876   4.713   6.726
 2768SOL     OW 9202   4.982   0.619   0.443
 2768SOL    HW1 9203   5.010   0.528   0.412
 2768SOL    HW2 9204   5.052   0.658   0.502
 2769SOL     OW 9205   0.463   4.085   3.959
 2769SOL    HW1 9206   0.364   4.079   3.962
 2769SOL    HW2 9207   0.493   4.103   3.865
 2770SOL     OW 9208   2.610   5.618   6.249
 2770SOL    HW1 9209   2.658   5.541   6.290
 2770SOL    HW2 9210   2.518   5.625   6.287
 2771SOL     OW 9211   5.704   1.331   2.013
 2771SOL    HW1 9212   5.665   1.251   2.058
 2771SOL    HW2 9213   5.804   1.324   2.015
 2772SOL     OW 9214   4.759   1.746   1.053
 2772SOL    HW1 9215   4.731   1.668   1.108
 2772SOL    HW2 9216   4.679   1.786   1.008
 2773SOL     OW 9217   5.721   3.193   5.640
 2773SOL    HW1 9218   5.650   3.207   5.708
 2773SOL    HW2 9219   5.744   3.095   5.636
 2774SOL     OW 9220   6.714   3.367   2.872
 2774SOL    HW1 9221   6.691   3.461   2.847
 2774SOL    HW2 9222   6.752   3.320   2.793
 2775SOL     OW 9223   0.181   5.286   6.838
 2775SOL    HW1 9224   0.173   5.386   6.838
 2775SOL    HW2 9225   0.278   5.261   6.839
 2776SOL     OW 9226   5.294   4.974   5.414
 2776SOL    HW1 9227   5.306   4.965   5.315
 2776SOL    HW2 9228   5.305   5.070   5.440
 2777SOL     OW 9229   2.673   0.965   1.954
 2777SOL    HW1 9230   2.674   0.868   1.929
 2777SOL    HW2 9231   2.660   1.020   1.872
 2778SOL     OW 9232   1.220   0.942   4.669
 2778SOL    HW1 9233   1.299   1.001   4.654
 2778SOL    HW2 9234   1.206   0.929   4.767
 2779SOL     OW 9235   4.865   6.507   0.799
 2779SOL    HW1 9236   4.855   6.477   0.704
 2779SOL    HW2 9237   4.939   6.574   0.804
 2780SOL     OW 9238   7.010   5.787   6.491
 2780SOL    HW1 9239   6.979   5.821   6.402
 2780SOL    HW2 9240   0.030   5.862   6.541
 2781SOL     OW 9241   5.950   5.743   1.667
 2781SOL    HW1 9242   6.024   5.777   1.725
 2781SOL    HW2 9243   5.862   5.763   1.709
 2782SOL     OW 9244   2.969   1.987   5.575
 2782SOL    HW1 9245   2.958   1.937   5.489
 2782SOL    HW2 9246   2.943   2.082   5.562
 2783SOL     OW 9247   6.091   3.208   4.920
 2783SOL    HW1 9248   6.046   3.123   4.891
 2783SOL    HW2 9249   6.022   3.274   4.949
 2784SOL     OW 9250   3.156   1.721   1.269
 2784SOL    HW1 9251   3.200   1.655   1.208
 2784SOL    HW2 9252   3.057   1.707   1.267
 2785SOL     OW 9253   5.999   1.390   0.739
 2785SOL    HW1 9254   6.002   1.372   0.640
 2785SOL    HW2 9255   6.003   1.303   0.789
 2786SOL     OW 9256   4.231   5.667   1.817
 2786SOL    HW1 9257   4.280   5.599   1.872
 2786SOL    HW2 9258   4.219   5.632   1.724
 2787SOL     OW 9259   2.859   2.723   6.532
 2787SOL    HW1 9260   2.815   2.636   6.555
 2787SOL    HW2 9261   2.811   2.765   6.455
 2788SOL     OW 9262   2.688   4.599   6.717
 2788SOL    HW1 9263   2.764   4.600   6.653
 2788SOL    HW2 9264   2.608   4.557   6.674
 2789SOL     OW 9265   2.139   3.083   3.253
 2789SOL    HW1 9266   2.143   3.174   3.295
 2789SOL    HW2 9267   2.102   3.017   3.318
 2790SOL     OW 9268   2.646   5.265   2.342
 2790SOL    HW1 9269   2.599   5.353   2.352
 2790SOL    HW2 9270   2.707   5.251   2.419
 2791SOL     OW 9271   1.230   3.877   4.438
 2791SOL    HW1 9272   1.227   3.830   4.350
 2791SOL    HW2 9273   1.231   3.809   4.512
 2792SOL     OW 9274   0.907   6.923   4.938
 2792SOL    HW1 9275   0.919   6.872   4.853
 2792SOL    HW2 9276   0.871   6.863   5.009
 2793SOL     OW 9277   4.806   2.942   2.800
 2793SOL    HW1 9278   4.811   2.969   2.896
 2793SOL    HW2 9279   4.891   2.971   2.754
 2794SOL     OW 9280   6.758   2.463   1.171
 2794SOL    HW1 9281   6.733   2.560   1.173
 2794SOL    HW2 9282   6.799   2.441   1.082
 2795SOL     OW 9283   2.272   3.289   0.616
 2795SOL    HW1 9284   2.256   3.190   0.617
 2795SOL    HW2 9285   2.238   3.330   0.700
 2796SOL     OW 9286   6.656   5.229   2.679
 2796SOL    HW1 9287   6.698   5.216   2.589
 2796SOL    HW2 9288   6.710   5.295   2.732
 2797SOL     OW 9289   4.877   5.115   4.287
 2797SOL    HW1 9290   4.817   5.047   4.244
 2797SOL    HW2 9291   4.927   5.072   4.362
 2798SOL     OW 9292   1.476   4.686   1.758
 2798SOL    HW1 9293   1.564   4.715   1.719
 2798SOL    HW2 9294   1.475   4.707   1.856
 2799SOL     OW 9295   0.181   6.260   6.867
 2799SOL    HW1 9296   0.177   6.165   6.834
 2799SOL    HW2 9297   0.089   6.299   6.866
 2800SOL     OW 9298   4.523   5.282   6.652
 2800SOL    HW1 9299   4.494   5.261   6.745
 2800SOL    HW2 9300   4.547   5.198   6.604
 2801SOL     OW 9301   4.972   5.602   4.625
 2801SOL    HW1 9302   5.061   5.613   4.580
 2801SOL    HW2 9303   4.956   5.505   4.644
 2802SOL     OW 9304   4.553   2.858   6.195
 2802SOL    HW1 9305   4.548   2.875   6.097
 2802SOL    HW2 9306   4.633   2.801   6.215
 2803SOL     OW 9307   3.617   6.143   6.156
 2803SOL    HW1 9308   3.649   6.187   6.239
 2803SOL    HW2 9309   3.562   6.063   6.180
 2804SOL     OW 9310   0.031   5.082   4.596
 2804SOL    HW1 9311   6.987   5.012   4.573
 2804SOL    HW2 9312   0.064   5.067   4.689
 2805SOL     OW 9313   5.097   2.624   1.821
 2805SOL    HW1 9314   5.108   2.531   1.856
 2805SOL    HW2 9315   5.159   2.685   1.870
 2806SOL     OW 9316   6.886   5.027   4.185
 2806SOL    HW1 9317   6.973   5.077   4.181
 2806SOL    HW2 9318   6.812   5.091   4.202
 2807SOL     OW 9319   5.996   5.490   3.794
 2807SOL    HW1 9320   6.042   5.570   3.756
 2807SOL    HW2 9321   6.005   5.490   3.894
 2808SOL     OW 9322   5.164   2.857   2.619
 2808SOL    HW1 9323   5.137   2.765   2.592
 2808SOL    HW2 9324   5.089   2.920   2.603
 2809SOL     OW 9325   5.757   2.580   1.895
 2809SOL    HW1 9326   5.777   2.482   1.908
 2809SOL    HW2 9327   5.811   2.615   1.818
 2810SOL     OW 9328   3.186   6.243   4.288
 2810SOL    HW1 9329   3.278   6.245   4.249
 2810SOL    HW2 9330   3.143   6.155   4.267
 2811SOL     OW 9331   0.673   0.841   3.332
 2811SOL    HW1 9332   0.579   0.864   3.356
 2811SOL    HW2 9333   0.677   0.750   3.293
 2812SOL     OW 9334   5.567   3.495   0.202
 2812SOL    HW1 9335   5.492   3.492   0.136
 2812SOL    HW2 9336   5.640   3.553   0.166
 2813SOL     OW 9337   6.640   0.489   5.781
 2813SOL    HW1 9338   6.563   0.547   5.808
 2813SOL    HW2 9339   6.612   0.393   5.786
 2814SOL     OW 9340   5.010   3.223   6.705
 2814SOL    HW1 9341   5.018   3.207   6.803
 2814SOL    HW2 9342   4.917   3.201   6.675
 2815SOL     OW 9343   0.051   1.508   5.637
 2815SOL    HW1 9344   7.000   1.461   5.590
 2815SOL    HW2 9345   0.022   1.532   5.730
 2816SOL     OW 9346   6.703   6.197   3.589
 2816SOL    HW1 9347   6.741   6.267   3.529
 2816SOL    HW2 9348   6.776   6.134   3.616
 2817SOL     OW 9349   2.168   6.882   1.287
 2817SOL    HW1 9350   2.154   6.787   1.314
 2817SOL    HW2 9351   2.246   6.887   1.225
 2818SOL     OW 9352   0.088   6.699   0.073
 2818SOL    HW1 9353   0.106   6.709   6.999
 2818SOL    HW2 9354   0.092   6.789   0.117
 2819SOL     OW 9355   0.305   1.102   1.279
 2819SOL    HW1 9356   0.335   1.192   1.310
 2819SOL    HW2 9357   0.377   1.035   1.297
 2820SOL     OW 9358   1.223   1.781   3.010
 2820SOL    HW1 9359   1.284   1.808   2.935
 2820SOL    HW2 9360   1.231   1.846   3.085
 2821SOL     OW 9361   4.067   3.680   0.111
 2821SOL    HW1 9362   4.056   3.589   0.070
 2821SOL    HW2 9363   3.977   3.722   0.123
 2822SOL     OW 9364   4.225   2.184   6.962
 2822SOL    HW1 9365   4.214   2.283   6.959
 2822SOL    HW2 9366   4.179   2.148   0.020
 2823SOL     OW 9367   3.301   6.918   0.384
 2823SOL    HW1 9368   3.373   6.981   0.413
 2823SOL    HW2 9369   3.213   6.950   0.419
 2824SOL     OW 9370   2.724   0.978   4.212
 2824SOL    HW1 9371   2.667   1.060   4.217
 2824SOL    HW2 9372   2.800   0.994   4.149
 2825SOL     OW 9373   6.758   0.574   6.910
 2825SOL    HW1 9374   6.735   0.642   6.840
 2825SOL    HW2 9375   6.855   0.551   6.903
 2826SOL     OW 9376   5.369   2.268   0.110
 2826SOL    HW1 9377   5.443   2.200   0.113
 2826SOL    HW2 9378   5.401   2.353   0.152
 2827SOL     OW 9379   5.927   1.084   4.967
 2827SOL    HW1 9380   5.913   0.986   4.955
 2827SOL    HW2 9381   6.023   1.101   4.991
 2828SOL     OW 9382   3.162   0.657   0.214
 2828SOL    HW1 9383   3.183   0.621   0.123
 2828SOL    HW2 9384   3.207   0.746   0.225
 2829SOL     OW 9385   3.495   3.944   5.920
 2829SOL    HW1 9386   3.513   4.001   6.000
 2829SOL    HW2 9387   3.507   3.999   5.837
 2830SOL     OW 9388   0.876   3.339   6.754
 2830SOL    HW1 9389   0.781   3.346   6.784
 2830SOL    HW2 9390   0.931   3.301   6.829
 2831SOL     OW 9391   0.643   6.041   3.579
 2831SOL    HW1 9392   0.642   5.965   3.644
 2831SOL    HW2 9393   0.730   6.090   3.588
 2832SOL     OW 9394   0.607   1.216   2.346
 2832SOL    HW1 9395   0.525   1.272   2.352
 2832SOL    HW2 9396   0.677   1.253   2.408
 2833SOL     OW 9397   4.581   2.643   2.543
 2833SOL    HW1 9398   4.494   2.693   2.545
 2833SOL    HW2 9399   4.571   2.562   2.485
 2834SOL     OW 9400   2.818   6.775   5.265
 2834SOL    HW1 9401   2.887   6.846   5.269
 2834SOL    HW2 9402   2.817   6.724   5.351
 2835SOL     OW 9403   6.915   0.494   2.157
 2835SOL    HW1 9404   6.856   0.560   2.205
 2835SOL    HW2 9405   7.011   0.517   2.173
 2836SOL     OW 9406   6.066   6.947   1.627
 2836SOL    HW1 9407   6.068   0.022   1.644
 2836SOL    HW2 9408   5.971   6.917   1.621
 2837SOL     OW 9409   5.707   3.488   3.020
 2837SOL    HW1 9410   5.727   3.515   2.927
 2837SOL    HW2 9411   5.611   3.509   3.042
 2838SOL     OW 9412   1.989   4.183   1.121
 2838SOL    HW1 9413   1.897   4.152   1.099
 2838SOL    HW2 9414   2.050   4.104   1.128
 2839SOL     OW 9415   5.793   1.817   1.918
 2839SOL    HW1 9416   5.885   1.788   1.892
 2839SOL    HW2 9417   5.781   1.914   1.895
 2840SOL     OW 9418   1.419   1.021   3.618
 2840SOL    HW1 9419   1.514   1.043   3.594
 2840SOL    HW2 9420   1.369   1.106   3.635
 2841SOL     OW 9421   0.508   1.149   5.813
 2841SOL    HW1 9422   0.533   1.061   5.772
 2841SOL    HW2 9423   0.542   1.224   5.755
 2842SOL     OW 9424   0.032   3.525   4.226
 2842SOL    HW1 9425   0.034   3.572   4.315
 2842SOL    HW2 9426   0.084   3.578   4.159
 2843SOL     OW 9427   2.715   1.649   2.977
 2843SOL    HW1 9428   2.632   1.634   2.924
 2843SOL    HW2 9429   2.793   1.606   2.932
 2844SOL     OW 9430   1.173   5.527   0.379
 2844SOL    HW1 9431   1.165   5.626   0.393
 2844SOL    HW2 9432   1.241   5.509   0.308
 2845SOL     OW 9433   0.633   2.999   1.077
 2845SOL    HW1 9434   0.711   3.045   1.035
 2845SOL    HW2 9435   0.594   2.935   1.011
 2846SOL     OW 9436   4.325   1.341   6.707
 2846SOL    HW1 9437   4.325   1.329   6.807
 2846SOL    HW2 9438   4.387   1.274   6.666
 2847SOL     OW 9439   5.068   3.227   3.291
 2847SOL    HW1 9440   5.066   3.186   3.382
 2847SOL    HW2 9441   4.986   3.201   3.241
 2848SOL     OW 9442   1.347   3.110   6.266
 2848SOL    HW1 9443   1.340   3.163   6.351
 2848SOL    HW2 9444   1.256   3.083   6.236
 2849SOL     OW 9445   3.460   6.782   0.983
 2849SOL    HW1 9446   3.367   6.815   0.967
 2849SOL    HW2 9447   3.524   6.859   0.983
 2850SOL     OW 9448   3.697   6.875   2.435
 2850SOL    HW1 9449   3.617   6.932   2.419
 2850SOL    HW2 9450   3.691   6.834   2.526
 2851SOL     OW 9451   0.331   2.726   5.724
 2851SOL    HW1 9452   0.266   2.683   5.787
 2851SOL    HW2 9453   0.379   2.799   5.771
 2852SOL     OW 9454   5.891   4.290   0.671
 2852SOL    HW1 9455   5.861   4.359   0.605
 2852SOL    HW2 9456   5.811   4.248   0.714
 2853SOL     OW 9457   2.172   2.483   0.408
 2853SOL    HW1 9458   2.173   2.393   0.452
 2853SOL    HW2 9459   2.077   2.514   0.398
 2854SOL     OW 9460   3.681   1.136   5.370
 2854SOL    HW1 9461   3.650   1.040   5.375
 2854SOL    HW2 9462   3.699   1.160   5.275
 2855SOL     OW 9463   2.529   1.071   6.072
 2855SOL    HW1 9464   2.473   1.064   6.154
 2855SOL    HW2 9465   2.471   1.069   5.990
 2856SOL     OW 9466   1.691   2.749   5.689
 2856SOL    HW1 9467   1.720   2.787   5.777
 2856SOL    HW2 9468   1.650   2.822   5.633
 2857SOL     OW 9469   3.093   1.619   2.310
 2857SOL    HW1 9470   3.026   1.692   2.303
 2857SOL    HW2 9471   3.172   1.650   2.364
 2858SOL     OW 9472   5.613   3.573   1.628
 2858SOL    HW1 9473   5.590   3.650   1.688
 2858SOL    HW2 9474   5.563   3.491   1.658
 2859SOL     OW 9475   5.116   2.436   0.237
 2859SOL    HW1 9476   5.047   2.385   0.187
 2859SOL    HW2 9477   5.169   2.492   0.173
 2860SOL     OW 9478   3.770   1.652   1.281
 2860SOL    HW1 9479   3.767   1.726   1.214
 2860SOL    HW2 9480   3.750   1.690   1.372
 2861SOL     OW 9481   4.446   4.895   6.117
 2861SOL    HW1 9482   4.515   4.856   6.179
 2861SOL    HW2 9483   4.488   4.966   6.061
 2862SOL     OW 9484   5.314   2.071   3.372
 2862SOL    HW1 9485   5.236   2.028   3.326
 2862SOL    HW2 9486   5.298   2.070   3.471
 2863SOL     OW 9487   4.976   1.443   0.044
 2863SOL    HW1 9488   4.920   1.492   7.001
 2863SOL    HW2 9489   5.020   1.509   0.105
 2864SOL     OW 9490   4.337   1.239   1.647
 2864SOL    HW1 9491   4.302   1.333   1.651
 2864SOL    HW2 9492   4.424   1.237   1.598
 2865SOL     OW 9493   5.515   4.489   5.465
 2865SOL    HW1 9494   5.467   4.576   5.454
 2865SOL    HW2 9495   5.497   4.454   5.557
 2866SOL     OW 9496   6.478   5.986   6.874
 2866SOL    HW1 9497   6.438   6.057   6.932
 2866SOL    HW2 9498   6.510   6.027   6.789
 2867SOL     OW 9499   5.551   3.903   2.055
 2867SOL    HW1 9500   5.508   3.989   2.082
 2867SOL    HW2 9501   5.625   3.881   2.119
 2868SOL     OW 9502   0.297   2.734   5.081
 2868SOL    HW1 9503   0.280   2.640   5.051
 2868SOL    HW2 9504   0.225   2.762   5.145
 2869SOL     OW 9505   6.030   0.975   3.945
 2869SOL    HW1 9506   6.028   1.075   3.932
 2869SOL    HW2 9507   5.960   0.949   4.011
 2870SOL     OW 9508   0.579   1.548   4.158
 2870SOL    HW1 9509   0.659   1.579   4.209
 2870SOL    HW2 9510   0.499   1.601   4.187
 2871SOL     OW 9511   0.932   2.243   0.203
 2871SOL    HW1 9512   0.936   2.148   0.171
 2871SOL    HW2 9513   1.010   2.294   0.167
 2872SOL     OW 9514   2.754   1.783   3.416
 2872SOL    HW1 9515   2.795   1.819   3.332
 2872SOL    HW2 9516   2.825   1.735   3.468
 2873SOL     OW 9517   0.039   4.780   2.812
 2873SOL    HW1 9518   6.972   4.741   2.830
 2873SOL    HW2 9519   0.107   4.707   2.814
 2874SOL     OW 9520   4.066   6.321   3.253
 2874SOL    HW1 9521   4.116   6.268   3.321
 2874SOL    HW2 9522   4.125   6.336   3.173
 2875SOL     OW 9523   5.080   6.321   0.479
 2875SOL    HW1 9524   5.073   6.306   0.577
 2875SOL    HW2 9525   5.007   6.384   0.450
 2876SOL     OW 9526   0.658   0.295   2.127
 2876SOL    HW1 9527   0.699   0.290   2.219
 2876SOL    HW2 9528   0.730   0.284   2.058
 2877SOL     OW 9529   3.758   2.821   5.277
 2877SOL    HW1 9530   3.742   2.870   5.363
 2877SOL    HW2 9531   3.852   2.785   5.277
 2878SOL     OW 9532   3.996   5.227   4.621
 2878SOL    HW1 9533   4.066   5.166   4.659
 2878SOL    HW2 9534   4.035   5.277   4.544
 2879SOL     OW 9535   5.098   4.475   1.008
 2879SOL    HW1 9536   5.184   4.526   1.002
 2879SOL    HW2 9537   5.076   4.458   1.104
 2880SOL     OW 9538   5.940   6.891   1.187
 2880SOL    HW1 9539   5.963   6.981   1.225
 2880SOL    HW2 9540   5.892   6.902   1.100
 2881SOL     OW 9541   5.756   6.416   0.684
 2881SOL    HW1 9542   5.790   6.462   0.602
 2881SOL    HW2 9543   5.831   6.367   0.729
 2882SOL     OW 9544   0.494   4.476   2.409
 2882SOL    HW1 9545   0.476   4.570   2.439
 2882SOL    HW2 9546   0.438   4.456   2.329
 2883SOL     OW 9547   5.419   6.270   3.856
 2883SOL    HW1 9548   5.442   6.310   3.945
 2883SOL    HW2 9549   5.502   6.235   3.813
 2884SOL     OW 9550   0.836   5.383   3.419
 2884SOL    HW1 9551   0.813   5.384   3.322
 2884SOL    HW2 9552   0.853   5.477   3.450
 2885SOL     OW 9553   0.755   3.213   2.265
 2885SOL    HW1 9554   0.825   3.250   2.326
 2885SOL    HW2 9555   0.788   3.129   2.223
 2886SOL     OW 9556   2.739   3.977   6.539
 2886SOL    HW1 9557   2.707   3.910   6.472
 2886SOL    HW2 9558   2.765   4.061   6.492
 2887SOL     OW 9559   1.507   0.202   4.677
 2887SOL    HW1 9560   1.412   0.191   4.647
 2887SOL    HW2 9561   1.529   0.299   4.686
 2888SOL     OW 9562   0.965   4.391   6.787
 2888SOL    HW1 9563   0.980   4.355   6.878
 2888SOL    HW2 9564   0.967   4.317   6.720
 2889SOL     OW 9565   2.067   6.928   2.655
 2889SOL    HW1 9566   1.978   6.884   2.646
 2889SOL    HW2 9567   2.055   0.004   2.659
 2890SOL     OW 9568   2.842   0.202   1.068
 2890SOL    HW1 9569   2.828   0.111   1.028
 2890SOL    HW2 9570   2.754   0.236   1.103
 2891SOL     OW 9571   2.162   3.683   3.725
 2891SOL    HW1 9572   2.063   3.678   3.742
 2891SOL    HW2 9573   2.193   3.777   3.740
 2892SOL     OW 9574   5.483   3.685   6.898
 2892SOL    HW1 9575   5.390   3.660   6.873
 2892SOL    HW2 9576   5.548   3.630   6.844
 2893SOL     OW 9577   6.905   6.495   4.796
 2893SOL    HW1 9578   6.947   6.578   4.834
 2893SOL    HW2 9579   6.947   6.475   4.708
 2894SOL     OW 9580   3.040   2.917   0.402
 2894SOL    HW1 9581   3.018   2.979   0.326
 2894SOL    HW2 9582   3.026   2.823   0.373
 2895SOL     OW 9583   3.927   2.783   6.689
 2895SOL    HW1 9584   3.861   2.853   6.716
 2895SOL    HW2 9585   4.015   2.801   6.733
 2896SOL     OW 9586   3.534   5.224   6.838
 2896SOL    HW1 9587   3.534   5.307   6.894
 2896SOL    HW2 9588   3.535   5.248   6.741
 2897SOL     OW 9589   3.265   5.902   3.222
 2897SOL    HW1 9590   3.296   5.997   3.212
 2897SOL    HW2 9591   3.202   5.895   3.299
 2898SOL     OW 9592   4.398   5.071   3.894
 2898SOL    HW1 9593   4.442   5.062   3.983
 2898SOL    HW2 9594   4.353   5.160   3.888
 2899SOL     OW 9595   0.526   1.911   6.892
 2899SOL    HW1 9596   0.569   1.860   6.967
 2899SOL    HW2 9597   0.597   1.960   6.841
 2900SOL     OW 9598   2.081   4.860   5.349
 2900SOL    HW1 9599   2.116   4.883   5.440
 2900SOL    HW2 9600   2.019   4.782   5.356
 2901SOL     OW 9601   2.002   0.237   3.351
 2901SOL    HW1 9602   1.984   0.334   3.368
 2901SOL    HW2 9603   2.063   0.229   3.272
 2902SOL     OW 9604   5.412   6.264   1.826
 2902SOL    HW1 9605   5.431   6.221   1.914
 2902SOL    HW2 9606   5.431   6.199   1.752
 2903SOL     OW 9607   3.007   0.325   0.847
 2903SOL    HW1 9608   3.048   0.412   0.876
 2903SOL    HW2 9609   2.955   0.286   0.923
 2904SOL     OW 9610   1.790   3.377   5.644
 2904SOL    HW1 9611   1.890   3.366   5.647
 2904SOL    HW2 9612   1.765   3.426   5.560
 2905SOL     OW 9613   1.750   2.382   3.457
 2905SOL    HW1 9614   1.696   2.375   3.373
 2905SOL    HW2 9615   1.844   2.407   3.434
 2906SOL     OW 9616   5.091   5.361   2.843
 2906SOL    HW1 9617   5.121   5.298   2.772
 2906SOL    HW2 9618   5.161   5.369   2.914
 2907SOL     OW 9619   0.486   1.068   4.015
 2907SOL    HW1 9620   0.498   1.164   3.990
 2907SOL    HW2 9621   0.469   1.060   4.113
 2908SOL     OW 9622   4.519   6.906   4.235
 2908SOL    HW1 9623   4.493   6.969   4.162
 2908SOL    HW2 9624   4.615   6.919   4.258
 2909SOL     OW 9625   0.559   6.261   3.785
 2909SOL    HW1 9626   0.563   6.176   3.733
 2909SOL    HW2 9627   0.516   6.332   3.729
 2910SOL     OW 9628   4.977   5.905   4.326
 2910SOL    HW1 9629   5.006   5.959   4.248
 2910SOL    HW2 9630   5.022   5.816   4.324
 2911SOL     OW 9631   1.666   5.577   3.879
 2911SOL    HW1 9632   1.570   5.592   3.905
 2911SOL    HW2 9633   1.682   5.480   3.867
 2912SOL     OW 9634   4.301   0.025   6.272
 2912SOL    HW1 9635   4.219   0.011   6.329
 2912SOL    HW2 9636   4.277   0.012   6.176
 2913SOL     OW 9637   2.237   4.760   2.250
 2913SOL    HW1 9638   2.151   4.799   2.283
 2913SOL    HW2 9639   2.218   4.679   2.195
 2914SOL     OW 9640   6.161   6.498   5.914
 2914SOL    HW1 9641   6.130   6.580   5.963
 2914SOL    HW2 9642   6.260   6.495   5.914
 2915SOL     OW 9643   5.276   1.441   5.013
 2915SOL    HW1 9644   5.349   1.505   5.036
 2915SOL    HW2 9645   5.270   1.370   5.083
 2916SOL     OW 9646   6.491   5.789   6.031
 2916SOL    HW1 9647   6.539   5.741   6.104
 2916SOL    HW2 9648   6.399   5.813   6.062
 2917SOL     OW 9649   4.171   6.773   2.037
 2917SOL    HW1 9650   4.166   6.815   2.128
 2917SOL    HW2 9651   4.079   6.756   2.003
 2918SOL     OW 9652   6.794   3.979   3.460
 2918SOL    HW1 9653   6.736   4.041   3.407
 2918SOL    HW2 9654   6.831   3.908   3.399
 2919SOL     OW 9655   6.652   0.879   0.799
 2919SOL    HW1 9656   6.627   0.958   0.744
 2919SOL    HW2 9657   6.740   0.844   0.769
 2920SOL     OW 9658   2.953   1.841   2.320
 2920SOL    HW1 9659   2.944   1.847   2.419
 2920SOL    HW2 9660   2.930   1.930   2.279
 2921SOL     OW 9661   0.887   6.928   2.824
 2921SOL    HW1 9662   0.814   6.872   2.863
 2921SOL    HW2 9663   0.970   6.873   2.814
 2922SOL     OW 9664   6.002   0.257   0.091
 2922SOL    HW1 9665   6.015   0.158   0.099
 2922SOL    HW2 9666   6.062   0.292   0.019
 2923SOL     OW 9667   0.104   4.626   1.865
 2923SOL    HW1 9668   0.139   4.579   1.784
 2923SOL    HW2 9669   0.021   4.579   1.896
 2924SOL     OW 9670   0.321   2.074   6.776
 2924SOL    HW1 9671   0.372   2.014   6.837
 2924SOL    HW2 9672   0.259   2.132   6.829
 2925SOL     OW 9673   5.007   1.039   3.476
 2925SOL    HW1 9674   5.049   0.966   3.421
 2925SOL    HW2 9675   4.973   1.000   3.562
 2926SOL     OW 9676   0.405   1.159   4.608
 2926SOL    HW1 9677   0.339   1.215   4.658
 2926SOL    HW2 9678   0.357   1.083   4.563
 2927SOL     OW 9679   1.685   1.713   2.239
 2927SOL    HW1 9680   1.763   1.677   2.291
 2927SOL    HW2 9681   1.718   1.759   2.157
 2928SOL     OW 9682   6.706   2.323   6.235
 2928SOL    HW1 9683   6.701   2.234   6.192
 2928SOL    HW2 9684   6.794   2.366   6.212
 2929SOL     OW 9685   0.662   0.797   6.342
 2929SOL    HW1 9686   0.691   0.874   6.400
 2929SOL    HW2 9687   0.731   0.781   6.272
 2930SOL     OW 9688   4.515   6.262   5.099
 2930SOL    HW1 9689   4.475   6.180   5.058
 2930SOL    HW2 9690   4.514   6.336   5.031
 2931SOL     OW 9691   5.679   5.791   0.209
 2931SOL    HW1 9692   5.731   5.732   0.148
 2931SOL    HW2 9693   5.699   5.768   0.304
 2932SOL     OW 9694   1.474   5.466   2.125
 2932SOL    HW1 9695   1.523   5.444   2.041
 2932SOL    HW2 9696   1.449   5.382   2.172
 2933SOL     OW 9697   6.210   3.364   3.174
 2933SOL    HW1 9698   6.282   3.400   3.114
 2933SOL    HW2 9699   6.222   3.402   3.266
 2934SOL     OW 9700   4.321   1.512   0.402
 2934SOL    HW1 9701   4.367   1.440   0.454
 2934SOL    HW2 9702   4.233   1.533   0.446
 2935SOL     OW 9703   6.294   3.650   1.581
 2935SOL    HW1 9704   6.349   3.733   1.587
 2935SOL    HW2 9705   6.247   3.647   1.492
 2936SOL     OW 9706   4.805   5.224   2.331
 2936SOL    HW1 9707   4.776   5.317   2.308
 2936SOL    HW2 9708   4.859   5.227   2.415
 2937SOL     OW 9709   4.477   5.105   0.285
 2937SOL    HW1 9710   4.467   5.204   0.275
 2937SOL    HW2 9711   4.415   5.059   0.220
 2938SOL     OW 9712   5.478   4.978   5.762
 2938SOL    HW1 9713   5.407   5.003   5.828
 2938SOL    HW2 9714   5.558   4.944   5.811
 2939SOL     OW 9715   0.688   0.005   4.504
 2939SOL    HW1 9716   0.703   0.067   4.582
 2939SOL    HW2 9717   0.729   0.044   4.422
 2940SOL     OW 9718   5.880   6.861   6.246
 2940SOL    HW1 9719   5.790   6.902   6.234
 2940SOL    HW2 9720   5.943   6.928   6.285
 2941SOL     OW 9721   2.282   2.254   4.685
 2941SOL    HW1 9722   2.297   2.228   4.590
 2941SOL    HW2 9723   2.358   2.221   4.741
 2942SOL     OW 9724   2.525   2.068   1.268
 2942SOL    HW1 9725   2.596   2.135   1.290
 2942SOL    HW2 9726   2.521   2.055   1.169
 2943SOL     OW 9727   5.856   3.851   2.826
 2943SOL    HW1 9728   5.948   3.811   2.825
 2943SOL    HW2 9729   5.850   3.919   2.899
 2944SOL     OW 9730   2.454   5.951   5.318
 2944SOL    HW1 9731   2.420   5.981   5.229
 2944SOL    HW2 9732   2.511   6.023   5.358
 2945SOL     OW 9733   3.756   4.160   4.209
 2945SOL    HW1 9734   3.815   4.080   4.202
 2945SOL    HW2 9735   3.743   4.184   4.306
 2946SOL     OW 9736   0.826   5.564   6.472
 2946SOL    HW1 9737   0.846   5.548   6.569
 2946SOL    HW2 9738   0.738   5.524   6.450
 2947SOL     OW 9739   1.038   4.026   6.961
 2947SOL    HW1 9740   0.977   4.036   6.883
 2947SOL    HW2 9741   1.022   3.938   7.006
 2948SOL     OW 9742   0.114   4.804   5.365
 2948SOL    HW1 9743   0.083   4.889   5.323
 2948SOL    HW2 9744   0.099   4.728   5.302
 2949SOL     OW 9745   1.748   6.118   0.988
 2949SOL    HW1 9746   1.776   6.058   1.063
 2949SOL    HW2 9747   1.648   6.117   0.981
 2950SOL     OW 9748   5.007   3.653   4.596
 2950SOL    HW1 9749   4.965   3.744   4.598
 2950SOL    HW2 9750   4.970   3.597   4.670
 2951SOL     OW 9751   6.838   2.304   1.581
 2951SOL    HW1 9752   6.771   2.314   1.655
 2951SOL    HW2 9753   6.802   2.241   1.512
 2952SOL     OW 9754   1.068   6.367   5.407
 2952SOL    HW1 9755   1.076   6.412   5.317
 2952SOL    HW2 9756   0.984   6.312   5.409
 2953SOL     OW 9757   4.852   3.024   3.072
 2953SOL    HW1 9758   4.942   2.981   3.077
 2953SOL    HW2 9759   4.800   3.002   3.155
 2954SOL     OW 9760   0.825   5.431   1.627
 2954SOL    HW1 9761   0.904   5.488   1.652
 2954SOL    HW2 9762   0.840   5.393   1.535
 2955SOL     OW 9763   1.117   3.789   1.113
 2955SOL    HW1 9764   1.133   3.803   1.016
 2955SOL    HW2 9765   1.181   3.845   1.166
 2956SOL     OW 9766   6.084   6.333   2.991
 2956SOL    HW1 9767   6.047   6.339   3.084
 2956SOL    HW2 9768   6.114   6.239   2.974
 2957SOL     OW 9769   6.723   3.047   1.559
 2957SOL    HW1 9770   6.800   2.991   1.588
 2957SOL    HW2 9771   6.641   3.021   1.610
 2958SOL     OW 9772   2.484   4.499   4.661
 2958SOL    HW1 9773   2.431   4.434   4.715
 2958SOL    HW2 9774   2.561   4.533   4.715
 2959SOL     OW 9775   4.330   4.564   0.705
 2959SOL    HW1 9776   4.251   4.585   0.762
 2959SOL    HW2 9777   4.412   4.558   0.762
 2960SOL     OW 9778   3.724   0.252   6.931
 2960SOL    HW1 9779   3.654   0.318   6.959
 2960SOL    HW2 9780   3.737   0.258   6.832
 2961SOL     OW 9781   5.336   2.816   4.645
 2961SOL    HW1 9782   5.383   2.744   4.695
 2961SOL    HW2 9783   5.386   2.837   4.561
 2962SOL     OW 9784   4.385   1.119   4.169
 2962SOL    HW1 9785   4.434   1.064   4.236
 2962SOL    HW2 9786   4.391   1.216   4.193
 2963SOL     OW 9787   2.336   1.422   5.643
 2963SOL    HW1 9788   2.425   1.464   5.656
 2963SOL    HW2 9789   2.322   1.350   5.711
 2964SOL     OW 9790   0.729   0.343   2.405
 2964SOL    HW1 9791   0.632   0.345   2.429
 2964SOL    HW2 9792   0.765   0.436   2.407
 2965SOL     OW 9793   0.007   0.927   4.609
 2965SOL    HW1 9794   7.017   0.828   4.611
 2965SOL    HW2 9795   6.944   0.974   4.627
 2966SOL     OW 9796   5.684   4.970   4.438
 2966SOL    HW1 9797   5.779   5.000   4.448
 2966SOL    HW2 9798   5.663   4.900   4.506
 2967SOL     OW 9799   6.469   2.114   4.459
 2967SOL    HW1 9800   6.481   2.080   4.552
 2967SOL    HW2 9801   6.373   2.107   4.433
 2968SOL     OW 9802   1.151   3.719   6.462
 2968SOL    HW1 9803   1.202   3.718   6.376
 2968SOL    HW2 9804   1.075   3.654   6.456
 2969SOL     OW 9805   5.783   1.353   4.297
 2969SOL    HW1 9806   5.859   1.330   4.357
 2969SOL    HW2 9807   5.788   1.450   4.273
 2970SOL     OW 9808   1.119   3.749   6.731
 2970SOL    HW1 9809   1.026   3.733   6.762
 2970SOL    HW2 9810   1.131   3.709   6.640
 2971SOL     OW 9811   5.342   3.513   5.817
 2971SOL    HW1 9812   5.395   3.588   5.778
 2971SOL    HW2 9813   5.252   3.510   5.774
 2972SOL     OW 9814   6.798   4.993   6.533
 2972SOL    HW1 9815   6.836   5.079   6.496
 2972SOL    HW2 9816   6.822   4.918   6.472
 2973SOL     OW 9817   5.538   1.229   4.422
 2973SOL    HW1 9818   5.601   1.278   4.361
 2973SOL    HW2 9819   5.476   1.173   4.368
 2974SOL     OW 9820   0.670   3.775   2.915
 2974SOL    HW1 9821   0.645   3.786   2.819
 2974SOL    HW2 9822   0.684   3.866   2.955
 2975SOL     OW 9823   0.586   2.371   5.177
 2975SOL    HW1 9824   0.590   2.309   5.255
 2975SOL    HW2 9825   0.679   2.393   5.147
 2976SOL     OW 9826   4.282   1.611   3.234
 2976SOL    HW1 9827   4.338   1.567   3.163
 2976SOL    HW2 9828   4.199   1.648   3.193
 2977SOL     OW 9829   1.585   6.401   4.070
 2977SOL    HW1 9830   1.651   6.411   3.996
 2977SOL    HW2 9831   1.529   6.320   4.054
 2978SOL     OW 9832   4.285   5.041   6.638
 2978SOL    HW1 9833   4.243   5.126   6.606
 2978SOL    HW2 9834   4.219   4.966   6.633
 2979SOL     OW 9835   4.925   6.693   4.125
 2979SOL    HW1 9836   4.920   6.731   4.217
 2979SOL    HW2 9837   5.005   6.730   4.078
 2980SOL     OW 9838   1.225   6.248   3.865
 2980SOL    HW1 9839   1.255   6.327   3.812
 2980SOL    HW2 9840   1.233   6.269   3.963
 2981SOL     OW 9841   0.810   1.151   5.619
 2981SOL    HW1 9842   0.728   1.209   5.621
 2981SOL    HW2 9843   0.797   1.078   5.552
 2982SOL     OW 9844   4.644   5.898   3.332
 2982SOL    HW1 9845   4.672   5.990   3.303
 2982SOL    HW2 9846   4.724   5.846   3.362
 2983SOL     OW 9847   0.824   1.246   4.144
 2983SOL    HW1 9848   0.797   1.341   4.154
 2983SOL    HW2 9849   0.755   1.196   4.091
 2984SOL     OW 9850   4.716   5.510   1.787
 2984SOL    HW1 9851   4.805   5.520   1.831
 2984SOL    HW2 9852   4.708   5.419   1.748
 2985SOL     OW 9853   0.788   2.893   5.052
 2985SOL    HW1 9854   0.746   2.979   5.022
 2985SOL    HW2 9855   0.841   2.909   5.136
 2986SOL     OW 9856   2.055   3.890   6.247
 2986SOL    HW1 9857   2.020   3.825   6.314
 2986SOL    HW2 9858   2.103   3.840   6.175
 2987SOL     OW 9859   5.572   0.483   3.766
 2987SOL    HW1 9860   5.651   0.545   3.767
 2987SOL    HW2 9861   5.602   0.390   3.785
 2988SOL     OW 9862   0.666   6.780   2.942
 2988SOL    HW1 9863   0.598   6.798   3.013
 2988SOL    HW2 9864   0.637   6.702   2.886
 2989SOL     OW 9865   6.330   6.276   0.544
 2989SOL    HW1 9866   6.421   6.259   0.506
 2989SOL    HW2 9867   6.337   6.289   0.643
 2990SOL     OW 9868   4.346   1.271   3.811
 2990SOL    HW1 9869   4.421   1.230   3.863
 2990SOL    HW2 9870   4.351   1.241   3.716
 2991SOL     OW 9871   6.794   3.873   6.830
 2991SOL    HW1 9872   6.885   3.853   6.793
 2991SOL    HW2 9873   6.778   3.817   6.911
 2992SOL     OW 9874   2.196   4.819   5.911
 2992SOL    HW1 9875   2.235   4.862   5.993
 2992SOL    HW2 9876   2.263   4.757   5.870
 2993SOL     OW 9877   1.135   4.888   1.708
 2993SOL    HW1 9878   1.097   4.931   1.626
 2993SOL    HW2 9879   1.235   4.881   1.700
 2994SOL     OW 9880   3.989   0.272   0.805
 2994SOL    HW1 9881   4.038   0.305   0.886
 2994SOL    HW2 9882   4.014   0.327   0.726
 2995SOL     OW 9883   1.929   3.425   6.666
 2995SOL    HW1 9884   1.989   3.428   6.586
 2995SOL    HW2 9885   1.985   3.417   6.749
 2996SOL     OW 9886   2.393   6.484   3.497
 2996SOL    HW1 9887   2.316   6.432   3.460
 2996SOL    HW2 9888   2.362   6.576   3.521
 2997SOL     OW 9889   5.006   0.250   1.730
 2997SOL    HW1 9890   5.099   0.232   1.700
 2997SOL    HW2 9891   4.963   0.164   1.759
 2998SOL     OW 9892   5.630   6.287   5.215
 2998SOL    HW1 9893   5.631   6.387   5.217
 2998SOL    HW2 9894   5.662   6.252   5.303
 2999SOL     OW 9895   3.321   5.018   3.585
 2999SOL    HW1 9896   3.257   4.972   3.646
 2999SOL    HW2 9897   3.271   5.059   3.509
 3000SOL     OW 9898   1.911   3.735   6.421
 3000SOL    HW1 9899   1.896   3.721   6.519
 3000SOL    HW2 9900   1.844   3.682   6.369
 3001SOL     OW 9901   5.785   6.213   6.801
 3001SOL    HW1 9902   5.840   6.274   6.858
 3001SOL    HW2 9903   5.820   6.214   6.707
 3002SOL     OW 9904   4.381   0.301   6.106
 3002SOL    HW1 9905   4.354   0.372   6.041
 3002SOL    HW2 9906   4.382   0.212   6.060
 3003SOL     OW 9907   2.451   0.001   6.443
 3003SOL    HW1 9908   2.497   6.937   6.440
 3003SOL    HW2 9909   2.352   7.012   6.431
 3004SOL     OW 9910   0.900   5.370   3.707
 3004SOL    HW1 9911   0.944   5.456   3.732
 3004SOL    HW2 9912   0.832   5.345   3.776
 3005SOL     OW 9913   3.145   2.599   0.068
 3005SOL    HW1 9914   3.104   2.676   0.019
 3005SOL    HW2 9915   3.244   2.612   0.074
 3006SOL     OW 9916   6.099   2.247   6.757
 3006SOL    HW1 9917   6.068   2.342   6.751
 3006SOL    HW2 9918   6.186   2.238   6.709
 3007SOL     OW 9919   5.934   5.003   2.288
 3007SOL    HW1 9920   5.949   4.911   2.323
 3007SOL    HW2 9921   6.021   5.043   2.259
 3008SOL     OW 9922   3.418   0.758   6.354
 3008SOL    HW1 9923   3.427   0.826   6.426
 3008SOL    HW2 9924   3.322   0.738   6.339
 3009SOL     OW 9925   0.252   6.654   3.060
 3009SOL    HW1 9926   0.238   6.601   3.144
 3009SOL    HW2 9927   0.334   6.622   3.013
 3010SOL     OW 9928   3.771   6.584   3.551
 3010SOL    HW1 9929   3.777   6.640   3.634
 3010SOL    HW2 9930   3.863   6.559   3.521
 3011SOL     OW 9931   5.557   1.633   6.994
 3011SOL    HW1 9932   5.562   1.722   6.949
 3011SOL    HW2 9933   5.555   1.646   0.070
 3012SOL     OW 9934   1.230   3.325   5.076
 3012SOL    HW1 9935   1.141   3.280   5.089
 3012SOL    HW2 9936   1.239   3.356   4.982
 3013SOL     OW 9937   5.407   5.459   4.939
 3013SOL    HW1 9938   5.447   5.418   5.021
 3013SOL    HW2 9939   5.475   5.457   4.865
 3014SOL     OW 9940   5.179   3.472   4.060
 3014SOL    HW1 9941   5.170   3.563   4.100
 3014SOL    HW2 9942   5.263   3.428   4.094
 3015SOL     OW 9943   2.874   2.493   0.567
 3015SOL    HW1 9944   2.890   2.449   0.479
 3015SOL    HW2 9945   2.777   2.517   0.574
 3016SOL     OW 9946   2.870   5.647   3.832
 3016SOL    HW1 9947   2.806   5.657   3.908
 3016SOL    HW2 9948   2.860   5.725   3.770
 3017SOL     OW 9949   0.817   5.125   1.896
 3017SOL    HW1 9950   0.862   5.050   1.944
 3017SOL    HW2 9951   0.886   5.183   1.853
 3018SOL     OW 9952   2.090   0.019   5.006
 3018SOL    HW1 9953   2.170   0.007   5.065
 3018SOL    HW2 9954   2.026   0.081   5.049
 3019SOL     OW 9955   2.382   6.933   0.494
 3019SOL    HW1 9956   2.331   7.005   0.446
 3019SOL    HW2 9957   2.338   6.912   0.581
 3020SOL     OW 9958   3.667   3.784   1.768
 3020SOL    HW1 9959   3.625   3.754   1.682
 3020SOL    HW2 9960   3.680   3.883   1.766
 3021SOL     OW 9961   3.496   0.738   0.075
 3021SOL    HW1 9962   3.481   0.759   0.172
 3021SOL    HW2 9963   3.557   0.807   0.036
 3022SOL     OW 9964   4.139   5.680   4.062
 3022SOL    HW1 9965   4.065   5.732   4.018
 3022SOL    HW2 9966   4.213   5.667   3.996
 3023SOL     OW 9967   4.760   7.021   2.413
 3023SOL    HW1 9968   4.791   6.943   2.359
 3023SOL    HW2 9969   4.837   0.058   2.431
 3024SOL     OW 9970   4.010   0.021   5.683
 3024SOL    HW1 9971   4.077   0.091   5.708
 3024SOL    HW2 9972   3.953   0.000   5.763
 3025SOL     OW 9973   3.899   1.913   0.410
 3025SOL    HW1 9974   3.964   1.933   0.484
 3025SOL    HW2 9975   3.826   1.981   0.411
 3026SOL     OW 9976   2.058   1.777   0.391
 3026SOL    HW1 9977   2.150   1.790   0.353
 3026SOL    HW2 9978   2.058   1.694   0.447
 3027SOL     OW 9979   4.256   0.447   1.909
 3027SOL    HW1 9980   4.232   0.460   2.005
 3027SOL    HW2 9981   4.235   0.530   1.858
 3028SOL     OW 9982   1.852   3.915   5.792
 3028SOL    HW1 9983   1.892   3.980   5.856
 3028SOL    HW2 9984   1.879   3.822   5.817
 3029SOL     OW 9985   0.374   5.110   5.253
 3029SOL    HW1 9986   0.417   5.116   5.343
 3029SOL    HW2 9987   0.350   5.202   5.222
 3030SOL     OW 9988   1.061   2.573   6.292
 3030SOL    HW1 9989   1.090   2.660   6.330
 3030SOL    HW2 9990   1.072   2.574   6.193
 3031SOL     OW 9991   0.087   3.710   1.014
 3031SOL    HW1 9992   7.019   3.682   1.039
 3031SOL    HW2 9993   0.112   3.669   0.926
 3032SOL     OW 9994   4.443   6.464   1.226
 3032SOL    HW1 9995   4.402   6.537   1.171
 3032SOL    HW2 9996   4.469   6.500   1.315
 3033SOL     OW 9997   0.494   2.755   1.405
 3033SOL    HW1 9998   0.394   2.744   1.404
 3033SOL    HW2 9999   0.536   2.672   1.442
 3034SOL     OW10000   1.735   5.791   3.475
 3034SOL    HW110001   1.801   5.717   3.488
 3034SOL    HW210002   1.771   5.875   3.516
 3035SOL     OW10003   6.713   3.191   0.151
 3035SOL    HW110004   6.746   3.209   0.243
 3035SOL    HW210005   6.616   3.166   0.154
 3036SOL     OW10006   1.597   2.877   6.054
 3036SOL    HW110007   1.625   2.784   6.077
 3036SOL    HW210008   1.669   2.921   5.999
 3037SOL     OW10009   0.040   5.660   4.328
 3037SOL    HW110010   0.008   5.601   4.254
 3037SOL    HW210011   0.024   5.756   4.303
 3038SOL     OW10012   5.904   6.682   6.471
 3038SOL    HW110013   5.897   6.735   6.387
 3038SOL    HW210014   5.966   6.605   6.456
 3039SOL     OW10015   6.572   3.588   1.811
 3039SOL    HW110016   6.621   3.504   1.836
 3039SOL    HW210017   6.475   3.567   1.799
 3040SOL     OW10018   4.835   3.288   6.347
 3040SOL    HW110019   4.822   3.236   6.263
 3040SOL    HW210020   4.827   3.386   6.327
 3041SOL     OW10021   2.149   2.999   5.112
 3041SOL    HW110022   2.180   3.092   5.135
 3041SOL    HW210023   2.229   2.940   5.100
 3042SOL     OW10024   5.433   0.044   1.277
 3042SOL    HW110025   5.411   6.986   1.330
 3042SOL    HW210026   5.530   0.067   1.290
 3043SOL     OW10027   0.724   5.483   1.151
 3043SOL    HW110028   0.819   5.511   1.148
 3043SOL    HW210029   0.700   5.435   1.067
 3044SOL     OW10030   3.113   4.694   6.224
 3044SOL    HW110031   3.024   4.659   6.253
 3044SOL    HW210032   3.116   4.793   6.238
 3045SOL     OW10033   4.920   0.813   3.133
 3045SOL    HW110034   4.831   0.771   3.150
 3045SOL    HW210035   4.908   0.894   3.076
 3046SOL     OW10036   2.713   2.037   6.994
 3046SOL    HW110037   2.709   2.049   6.895
 3046SOL    HW210038   2.722   1.939   7.015
 3047SOL     OW10039   5.506   6.551   2.319
 3047SOL    HW110040   5.478   6.597   2.403
 3047SOL    HW210041   5.606   6.550   2.313
 3048SOL     OW10042   3.964   2.885   1.779
 3048SOL    HW110043   3.868   2.856   1.776
 3048SOL    HW210044   3.974   2.958   1.847
 3049SOL     OW10045   1.312   6.266   1.949
 3049SOL    HW110046   1.253   6.328   1.898
 3049SOL    HW210047   1.264   6.180   1.966
 3050SOL     OW10048   3.598   0.923   2.972
 3050SOL    HW110049   3.502   0.899   2.964
 3050SOL    HW210050   3.640   0.921   2.881
 3051SOL     OW10051   2.162   3.851   6.955
 3051SOL    HW110052   2.133   3.927   6.897
 3051SOL    HW210053   2.144   3.765   6.908
 3052SOL     OW10054   4.493   0.865   2.103
 3052SOL    HW110055   4.507   0.955   2.145
 3052SOL    HW210056   4.423   0.815   2.155
 3053SOL     OW10057   6.997   1.351   6.668
 3053SOL    HW110058   6.907   1.368   6.627
 3053SOL    HW210059   0.044   1.369   6.600
 3054SOL     OW10060   6.935   2.552   1.507
 3054SOL    HW110061   0.002   2.557   1.465
 3054SOL    HW210062   6.909   2.456   1.520
 3055SOL     OW10063   5.058   6.981   4.143
 3055SOL    HW110064   5.084   6.980   4.046
 3055SOL    HW210065   5.122   6.925   4.195
 3056SOL     OW10066   6.649   1.396   5.797
 3056SOL    HW110067   6.713   1.464   5.831
 3056SOL    HW210068   6.699   1.322   5.752
 3057SOL     OW10069   3.946   6.075   3.386
 3057SOL    HW110070   3.949   5.989   3.437
 3057SOL    HW210071   3.984   6.061   3.294
 3058SOL     OW10072   6.870   5.719   1.163
 3058SOL    HW110073   6.776   5.751   1.158
 3058SOL    HW210074   6.931   5.787   1.122
 3059SOL     OW10075   2.431   2.316   4.421
 3059SOL    HW110076   2.502   2.348   4.484
 3059SOL    HW210077   2.416   2.385   4.350
 3060SOL     OW10078   0.795   6.309   0.573
 3060SOL    HW110079   0.701   6.297   0.604
 3060SOL    HW210080   0.822   6.231   0.518
 3061SOL     OW10081   6.024   0.954   5.410
 3061SOL    HW110082   5.963   0.986   5.483
 3061SOL    HW210083   6.112   0.927   5.449
 3062SOL     OW10084   1.106   6.863   0.164
 3062SOL    HW110085   1.022   6.899   0.125
 3062SOL    HW210086   1.167   6.938   0.188
 3063SOL     OW10087   2.720   5.597   1.646
 3063SOL    HW110088   2.645   5.653   1.681
 3063SOL    HW210089   2.792   5.657   1.609
 3064SOL     OW10090   5.384   3.531   3.845
 3064SOL    HW110091   5.290   3.496   3.845
 3064SOL    HW210092   5.399   3.586   3.927
 3065SOL     OW10093   2.011   1.055   6.655
 3065SOL    HW110094   2.038   0.996   6.731
 3065SOL    HW210095   1.912   1.050   6.644
 3066SOL     OW10096   4.956   4.815   0.755
 3066SOL    HW110097   4.914   4.777   0.672
 3066SOL    HW210098   5.039   4.865   0.730
 3067SOL     OW10099   3.997   2.110   4.823
 3067SOL    HW110100   4.045   2.140   4.740
 3067SOL    HW210101   3.938   2.032   4.800
 3068SOL     OW10102   5.453   5.853   1.053
 3068SOL    HW110103   5.356   5.867   1.077
 3068SOL    HW210104   5.488   5.774   1.103
 3069SOL     OW10105   6.725   6.281   1.874
 3069SOL    HW110106   6.782   6.246   1.949
 3069SOL    HW210107   6.665   6.353   1.909
 3070SOL     OW10108   1.486   0.844   2.465
 3070SOL    HW110109   1.521   0.937   2.463
 3070SOL    HW210110   1.387   0.845   2.455
 3071SOL     OW10111   5.733   5.785   3.775
 3071SOL    HW110112   5.833   5.786   3.783
 3071SOL    HW210113   5.694   5.855   3.835
 3072SOL     OW10114   1.187   6.475   0.342
 3072SOL    HW110115   1.175   6.377   0.357
 3072SOL    HW210116   1.104   6.524   0.372
 3073SOL     OW10117   0.561   3.313   5.331
 3073SOL    HW110118   0.553   3.241   5.400
 3073SOL    HW210119   0.606   3.393   5.372
 3074SOL     OW10120   5.559   2.824   0.910
 3074SOL    HW110121   5.649   2.832   0.953
 3074SOL    HW210122   5.506   2.754   0.958
 3075SOL     OW10123   1.853   6.366   1.214
 3075SOL    HW110124   1.909   6.286   1.235
 3075SOL    HW210125   1.771   6.364   1.271
 3076SOL     OW10126   6.815   1.626   4.506
 3076SOL    HW110127   6.731   1.650   4.457
 3076SOL    HW210128   6.894   1.653   4.452
 3077SOL     OW10129   5.446   5.222   2.817
 3077SOL    HW110130   5.372   5.181   2.764
 3077SOL    HW210131   5.484   5.155   2.880
 3078SOL     OW10132   1.073   3.373   1.203
 3078SOL    HW110133   1.093   3.277   1.187
 3078SOL    HW210134   0.980   3.394   1.172
 3079SOL     OW10135   2.370   2.037   4.349
 3079SOL    HW110136   2.401   2.132   4.342
 3079SOL    HW210137   2.433   1.978   4.299
 3080SOL     OW10138   5.066   4.379   3.410
 3080SOL    HW110139   5.023   4.437   3.479
 3080SOL    HW210140   4.997   4.320   3.367
 3081SOL     OW10141   0.506   2.766   6.197
 3081SOL    HW110142   0.501   2.764   6.297
 3081SOL    HW210143   0.460   2.686   6.160
 3082SOL     OW10144   3.482   6.982   3.750
 3082SOL    HW110145   3.554   0.012   3.792
 3082SOL    HW210146   3.510   6.954   3.658
 3083SOL     OW10147   4.218   6.115   3.550
 3083SOL    HW110148   4.241   6.194   3.608
 3083SOL    HW210149   4.192   6.038   3.608
 3084SOL     OW10150   4.875   3.904   4.636
 3084SOL    HW110151   4.855   3.951   4.550
 3084SOL    HW210152   4.817   3.940   4.709
 3085SOL     OW10153   0.734   4.820   1.928
 3085SOL    HW110154   0.715   4.830   1.830
 3085SOL    HW210155   0.833   4.821   1.944
 3086SOL     OW10156   3.970   1.884   2.175
 3086SOL    HW110157   3.975   1.979   2.206
 3086SOL    HW210158   3.877   1.850   2.188
 3087SOL     OW10159   1.069   5.336   4.006
 3087SOL    HW110160   1.013   5.269   4.055
 3087SOL    HW210161   1.009   5.401   3.959
 3088SOL     OW10162   2.133   5.086   5.827
 3088SOL    HW110163   2.209   5.142   5.859
 3088SOL    HW210164   2.156   4.989   5.839
 3089SOL     OW10165   1.076   3.269   0.603
 3089SOL    HW110166   1.059   3.206   0.678
 3089SOL    HW210167   1.028   3.355   0.621
 3090SOL     OW10168   2.088   2.281   1.892
 3090SOL    HW110169   2.107   2.222   1.813
 3090SOL    HW210170   1.999   2.258   1.930
 3091SOL     OW10171   1.729   6.805   0.332
 3091SOL    HW110172   1.806   6.852   0.375
 3091SOL    HW210173   1.753   6.783   0.237
 3092SOL     OW10174   5.082   6.923   0.297
 3092SOL    HW110175   5.116   6.995   0.236
 3092SOL    HW210176   5.058   6.964   0.385
 3093SOL     OW10177   5.334   5.610   5.776
 3093SOL    HW110178   5.423   5.645   5.805
 3093SOL    HW210179   5.325   5.622   5.677
 3094SOL     OW10180   3.031   6.650   4.155
 3094SOL    HW110181   3.061   6.653   4.059
 3094SOL    HW210182   2.941   6.691   4.162
 3095SOL     OW10183   2.801   5.756   4.556
 3095SOL    HW110184   2.771   5.675   4.506
 3095SOL    HW210185   2.774   5.749   4.652
 3096SOL     OW10186   0.778   0.373   4.803
 3096SOL    HW110187   0.836   0.394   4.724
 3096SOL    HW210188   0.701   0.437   4.806
 3097SOL     OW10189   0.409   2.251   1.255
 3097SOL    HW110190   0.334   2.264   1.320
 3097SOL    HW210191   0.408   2.156   1.222
 3098SOL     OW10192   2.290   3.626   1.040
 3098SOL    HW110193   2.242   3.669   1.116
 3098SOL    HW210194   2.330   3.540   1.070
 3099SOL     OW10195   0.092   5.777   4.633
 3099SOL    HW110196   7.019   5.791   4.651
 3099SOL    HW210197   0.104   5.721   4.551
 3100SOL     OW10198   6.353   0.002   4.763
 3100SOL    HW110199   6.432   0.050   4.801
 3100SOL    HW210200   6.328   0.043   4.675
 3101SOL     OW10201   5.433   5.928   6.163
 3101SOL    HW110202   5.475   5.938   6.073
 3101SOL    HW210203   5.340   5.892   6.153
 3102SOL     OW10204   0.364   5.128   3.109
 3102SOL    HW110205   0.420   5.068   3.167
 3102SOL    HW210206   0.406   5.136   3.019
 3103SOL     OW10207   3.246   1.161   1.924
 3103SOL    HW110208   3.300   1.084   1.890
 3103SOL    HW210209   3.274   1.244   1.876
 3104SOL     OW10210   5.163   6.654   5.351
 3104SOL    HW110211   5.258   6.678   5.330
 3104SOL    HW210212   5.102   6.697   5.284
 3105SOL     OW10213   6.152   4.639   2.000
 3105SOL    HW110214   6.145   4.562   1.937
 3105SOL    HW210215   6.133   4.724   1.951
 3106SOL     OW10216   6.002   0.819   3.086
 3106SOL    HW110217   5.980   0.909   3.123
 3106SOL    HW210218   5.919   0.763   3.083
 3107SOL     OW10219   4.440   0.643   3.766
 3107SOL    HW110220   4.424   0.615   3.860
 3107SOL    HW210221   4.391   0.728   3.747
 3108SOL     OW10222   1.335   0.467   4.618
 3108SOL    HW110223   1.297   0.443   4.707
 3108SOL    HW210224   1.380   0.557   4.624
 3109SOL     OW10225   5.680   5.821   2.529
 3109SOL    HW110226   5.770   5.828   2.573
 3109SOL    HW210227   5.652   5.912   2.498
 3110SOL     OW10228   1.406   1.646   3.411
 3110SOL    HW110229   1.497   1.668   3.376
 3110SOL    HW210230   1.360   1.730   3.439
 3111SOL     OW10231   6.682   5.756   3.683
 3111SOL    HW110232   6.602   5.722   3.733
 3111SOL    HW210233   6.664   5.849   3.651
 3112SOL     OW10234   5.130   2.429   6.227
 3112SOL    HW110235   5.228   2.451   6.221
 3112SOL    HW210236   5.089   2.481   6.302
 3113SOL     OW10237   1.723   6.497   4.446
 3113SOL    HW110238   1.668   6.429   4.397
 3113SOL    HW210239   1.682   6.513   4.536
 3114SOL     OW10240   4.433   2.441   6.904
 3114SOL    HW110241   4.335   2.448   6.926
 3114SOL    HW210242   4.471   2.533   6.894
 3115SOL     OW10243   4.533   3.504   6.572
 3115SOL    HW110244   4.615   3.560   6.576
 3115SOL    HW210245   4.522   3.467   6.479
 3116SOL     OW10246   6.765   3.666   0.028
 3116SOL    HW110247   6.743   3.732   0.100
 3116SOL    HW210248   6.692   3.599   0.021
 3117SOL     OW10249   4.403   3.707   5.301
 3117SOL    HW110250   4.357   3.650   5.369
 3117SOL    HW210251   4.485   3.659   5.269
 3118SOL     OW10252   0.421   4.544   6.934
 3118SOL    HW110253   0.385   4.624   6.981
 3118SOL    HW210254   0.521   4.549   6.928
 3119SOL     OW10255   1.371   3.296   5.635
 3119SOL    HW110256   1.417   3.342   5.712
 3119SOL    HW210257   1.328   3.212   5.668
 3120SOL     OW10258   2.768   6.789   4.105
 3120SOL    HW110259   2.709   6.867   4.083
 3120SOL    HW210260   2.747   6.713   4.043
 3121SOL     OW10261   0.457   1.724   2.487
 3121SOL    HW110262   0.379   1.678   2.530
 3121SOL    HW210263   0.537   1.663   2.489
 3122SOL     OW10264   2.732   6.104   5.673
 3122SOL    HW110265   2.802   6.037   5.696
 3122SOL    HW210266   2.744   6.186   5.729
 3123SOL     OW10267   3.295   0.500   4.082
 3123SOL    HW110268   3.318   0.587   4.038
 3123SOL    HW210269   3.288   0.513   4.181
 3124SOL     OW10270   4.434   6.928   4.617
 3124SOL    HW110271   4.372   6.927   4.538
 3124SOL    HW210272   4.469   7.021   4.630
 3125SOL     OW10273   6.324   1.938   5.541
 3125SOL    HW110274   6.363   1.871   5.478
 3125SOL    HW210275   6.308   1.894   5.630
 3126SOL     OW10276   5.040   4.949   6.292
 3126SOL    HW110277   5.009   4.914   6.380
 3126SOL    HW210278   4.982   4.913   6.219
 3127SOL     OW10279   1.377   2.363   3.164
 3127SOL    HW110280   1.400   2.275   3.123
 3127SOL    HW210281   1.282   2.361   3.195
 3128SOL     OW10282   1.961   0.165   6.438
 3128SOL    HW110283   1.953   0.253   6.392
 3128SOL    HW210284   2.050   0.125   6.417
 3129SOL     OW10285   1.011   4.148   6.645
 3129SOL    HW110286   1.092   4.097   6.675
 3129SOL    HW210287   1.039   4.218   6.579
 3130SOL     OW10288   1.837   4.182   1.719
 3130SOL    HW110289   1.807   4.246   1.648
 3130SOL    HW210290   1.908   4.122   1.681
 3131SOL     OW10291   0.737   2.388   1.420
 3131SOL    HW110292   0.690   2.308   1.384
 3131SOL    HW210293   0.705   2.406   1.513
 3132SOL     OW10294   5.105   5.128   5.767
 3132SOL    HW110295   5.170   5.078   5.824
 3132SOL    HW210296   5.056   5.063   5.708
 3133SOL     OW10297   3.191   2.082   3.411
 3133SOL    HW110298   3.232   2.099   3.321
 3133SOL    HW210299   3.155   1.989   3.414
 3134SOL     OW10300   4.717   4.944   1.718
 3134SOL    HW110301   4.762   4.953   1.806
 3134SOL    HW210302   4.760   4.870   1.666
 3135SOL     OW10303   4.810   1.165   5.015
 3135SOL    HW110304   4.779   1.101   5.085
 3135SOL    HW210305   4.910   1.170   5.017
 3136SOL     OW10306   5.516   0.452   6.645
 3136SOL    HW110307   5.490   0.435   6.740
 3136SOL    HW210308   5.515   0.550   6.627
 3137SOL     OW10309   5.988   0.302   3.319
 3137SOL    HW110310   5.891   0.280   3.326
 3137SOL    HW210311   6.002   0.376   3.253
 3138SOL     OW10312   6.704   2.122   3.907
 3138SOL    HW110313   6.604   2.120   3.907
 3138SOL    HW210314   6.736   2.197   3.965
 3139SOL     OW10315   4.622   0.050   0.163
 3139SOL    HW110316   4.679   7.012   0.108
 3139SOL    HW210317   4.526   0.040   0.136
 3140SOL     OW10318   6.020   0.039   6.615
 3140SOL    HW110319   6.026   7.015   6.702
 3140SOL    HW210320   5.925   0.069   6.600
 3141SOL     OW10321   0.790   6.365   6.133
 3141SOL    HW110322   0.711   6.414   6.170
 3141SOL    HW210323   0.868   6.428   6.126
 3142SOL     OW10324   4.772   5.994   1.568
 3142SOL    HW110325   4.768   6.057   1.646
 3142SOL    HW210326   4.697   6.015   1.505
 3143SOL     OW10327   0.470   2.639   6.676
 3143SOL    HW110328   0.488   2.691   6.760
 3143SOL    HW210329   0.554   2.596   6.644
 3144SOL     OW10330   3.001   4.123   1.474
 3144SOL    HW110331   2.976   4.169   1.560
 3144SOL    HW210332   2.938   4.046   1.459
 3145SOL     OW10333   1.775   4.889   2.676
 3145SOL    HW110334   1.758   4.911   2.580
 3145SOL    HW210335   1.711   4.938   2.734
 3146SOL     OW10336   1.077   6.836   3.242
 3146SOL    HW110337   1.096   6.754   3.189
 3146SOL    HW210338   1.139   6.909   3.214
 3147SOL     OW10339   4.401   5.173   6.886
 3147SOL    HW110340   4.476   5.182   6.952
 3147SOL    HW210341   4.356   5.084   6.898
 3148SOL     OW10342   5.476   5.819   4.570
 3148SOL    HW110343   5.413   5.866   4.509
 3148SOL    HW210344   5.551   5.780   4.517
 3149SOL     OW10345   3.535   0.497   5.102
 3149SOL    HW110346   3.623   0.474   5.143
 3149SOL    HW210347   3.544   0.579   5.046
 3150SOL     OW10348   6.445   5.697   3.844
 3150SOL    HW110349   6.413   5.754   3.920
 3150SOL    HW210350   6.388   5.714   3.764
 3151SOL     OW10351   3.837   0.762   6.763
 3151SOL    HW110352   3.799   0.736   6.673
 3151SOL    HW210353   3.796   0.704   6.833
 3152SOL     OW10354   1.499   5.018   1.995
 3152SOL    HW110355   1.595   5.043   1.984
 3152SOL    HW210356   1.492   4.920   2.015
 3153SOL     OW10357   6.854   3.958   1.544
 3153SOL    HW110358   6.830   3.947   1.640
 3153SOL    HW210359   6.889   4.050   1.528
 3154SOL     OW10360   6.056   1.622   0.355
 3154SOL    HW110361   5.976   1.579   0.396
 3154SOL    HW210362   6.063   1.717   0.386
 3155SOL     OW10363   6.921   5.171   1.530
 3155SOL    HW110364   6.853   5.101   1.509
 3155SOL    HW210365   7.011   5.128   1.541
 3156SOL     OW10366   4.070   3.375   3.520
 3156SOL    HW110367   4.041   3.362   3.615
 3156SOL    HW210368   4.104   3.469   3.509
 3157SOL     OW10369   1.813   3.399   4.878
 3157SOL    HW110370   1.877   3.425   4.950
 3157SOL    HW210371   1.804   3.299   4.876
 3158SOL     OW10372   4.644   0.173   1.736
 3158SOL    HW110373   4.647   0.255   1.678
 3158SOL    HW210374   4.717   0.110   1.710
 3159SOL     OW10375   5.695   0.608   0.291
 3159SOL    HW110376   5.769   0.673   0.308
 3159SOL    HW210377   5.734   0.523   0.256
 3160SOL     OW10378   6.554   5.625   5.682
 3160SOL    HW110379   6.587   5.586   5.596
 3160SOL    HW210380   6.491   5.561   5.726
 3161SOL     OW10381   0.947   1.280   2.765
 3161SOL    HW110382   0.882   1.275   2.841
 3161SOL    HW210383   1.024   1.339   2.791
 3162SOL     OW10384   0.582   5.354   0.306
 3162SOL    HW110385   0.612   5.449   0.296
 3162SOL    HW210386   0.628   5.313   0.384
 3163SOL     OW10387   3.306   2.331   0.021
 3163SOL    HW110388   3.347   2.422   0.023
 3163SOL    HW210389   3.230   2.326   0.086
 3164SOL     OW10390   4.476   4.257   1.340
 3164SOL    HW110391   4.432   4.330   1.288
 3164SOL    HW210392   4.483   4.284   1.436
 3165SOL     OW10393   0.622   6.765   1.607
 3165SOL    HW110394   0.536   6.814   1.591
 3165SOL    HW210395   0.622   6.728   1.700
 3166SOL     OW10396   5.000   2.377   6.636
 3166SOL    HW110397   5.028   2.289   6.599
 3166SOL    HW210398   4.982   2.369   6.734
 3167SOL     OW10399   0.391   4.708   1.704
 3167SOL    HW110400   0.434   4.689   1.793
 3167SOL    HW210401   0.327   4.634   1.682
 3168SOL     OW10402   5.339   2.942   0.343
 3168SOL    HW110403   5.364   2.983   0.431
 3168SOL    HW210404   5.248   2.976   0.316
 3169SOL     OW10405   0.938   2.801   5.896
 3169SOL    HW110406   0.947   2.706   5.866
 3169SOL    HW210407   0.877   2.805   5.976
 3170SOL     OW10408   3.988   0.463   0.322
 3170SOL    HW110409   3.998   0.466   0.421
 3170SOL    HW210410   3.891   0.472   0.299
 3171SOL     OW10411   6.791   6.878   1.086
 3171SOL    HW110412   6.779   6.895   0.988
 3171SOL    HW210413   6.764   6.959   1.137
 3172SOL     OW10414   0.555   5.877   5.438
 3172SOL    HW110415   0.599   5.948   5.384
 3172SOL    HW210416   0.562   5.899   5.535
 3173SOL     OW10417   2.874   1.628   1.334
 3173SOL    HW110418   2.850   1.536   1.365
 3173SOL    HW210419   2.879   1.689   1.413
 3174SOL     OW10420   2.368   2.534   6.781
 3174SOL    HW110421   2.358   2.545   6.880
 3174SOL    HW210422   2.444   2.591   6.748
 3175SOL     OW10423   6.848   6.495   0.328
 3175SOL    HW110424   6.842   6.582   0.378
 3175SOL    HW210425   6.860   6.420   0.393
 3176SOL     OW10426   2.190   5.226   4.974
 3176SOL    HW110427   2.180   5.201   5.071
 3176SOL    HW210428   2.284   5.208   4.945
 3177SOL     OW10429   5.276   5.643   5.510
 3177SOL    HW110430   5.256   5.729   5.462
 3177SOL    HW210431   5.349   5.594   5.462
 3178SOL     OW10432   6.740   3.209   1.112
 3178SOL    HW110433   6.792   3.285   1.152
 3178SOL    HW210434   6.793   3.124   1.120
 3179SOL     OW10435   2.024   2.847   1.540
 3179SOL    HW110436   1.965   2.855   1.460
 3179SOL    HW210437   2.015   2.928   1.597
 3180SOL     OW10438   4.430   0.943   6.779
 3180SOL    HW110439   4.331   0.945   6.775
 3180SOL    HW210440   4.462   0.848   6.779
 3181SOL     OW10441   0.522   0.177   2.844
 3181SOL    HW110442   0.456   0.194   2.772
 3181SOL    HW210443   0.476   0.181   2.933
 3182SOL     OW10444   1.080   1.089   5.668
 3182SOL    HW110445   0.992   1.136   5.662
 3182SOL    HW210446   1.083   1.013   5.603
 3183SOL     OW10447   4.735   3.981   1.688
 3183SOL    HW110448   4.756   4.039   1.609
 3183SOL    HW210449   4.654   3.926   1.668
 3184SOL     OW10450   2.466   1.999   2.558
 3184SOL    HW110451   2.545   1.988   2.497
 3184SOL    HW210452   2.420   2.085   2.538
 3185SOL     OW10453   5.983   0.708   6.558
 3185SOL    HW110454   5.924   0.646   6.612
 3185SOL    HW210455   6.077   0.700   6.590
 3186SOL     OW10456   3.304   0.927   2.946
 3186SOL    HW110457   3.248   0.852   2.981
 3186SOL    HW210458   3.317   0.915   2.848
 3187SOL     OW10459   4.145   4.235   6.949
 3187SOL    HW110460   4.223   4.221   7.009
 3187SOL    HW210461   4.062   4.242   7.004
 3188SOL     OW10462   3.626   5.858   3.155
 3188SOL    HW110463   3.614   5.952   3.121
 3188SOL    HW210464   3.666   5.802   3.083
 3189SOL     OW10465   2.292   1.407   3.223
 3189SOL    HW110466   2.204   1.398   3.270
 3189SOL    HW210467   2.294   1.493   3.173
 3190SOL     OW10468   0.726   6.531   1.436
 3190SOL    HW110469   0.691   6.573   1.352
 3190SOL    HW210470   0.695   6.585   1.515
 3191SOL     OW10471   3.187   6.702   0.648
 3191SOL    HW110472   3.267   6.692   0.589
 3191SOL    HW210473   3.118   6.759   0.602
 3192SOL     OW10474   0.654   2.196   1.138
 3192SOL    HW110475   0.612   2.112   1.103
 3192SOL    HW210476   0.584   2.251   1.184
 3193SOL     OW10477   4.538   2.156   6.738
 3193SOL    HW110478   4.513   2.114   6.651
 3193SOL    HW210479   4.468   2.222   6.765
 3194SOL     OW10480   1.397   2.491   6.557
 3194SOL    HW110481   1.367   2.445   6.474
 3194SOL    HW210482   1.317   2.515   6.613
 3195SOL     OW10483   2.053   2.658   2.664
 3195SOL    HW110484   2.116   2.733   2.645
 3195SOL    HW210485   1.959   2.692   2.661
 3196SOL     OW10486   6.156   0.587   5.123
 3196SOL    HW110487   6.251   0.614   5.137
 3196SOL    HW210488   6.151   0.524   5.045
 3197SOL     OW10489   1.501   5.746   3.607
 3197SOL    HW110490   1.597   5.749   3.578
 3197SOL    HW210491   1.444   5.715   3.531
 3198SOL     OW10492   6.443   2.339   6.943
 3198SOL    HW110493   6.420   2.408   6.874
 3198SOL    HW210494   6.363   2.283   6.963
 3199SOL     OW10495   4.836   2.656   1.878
 3199SOL    HW110496   4.928   2.664   1.840
 3199SOL    HW210497   4.815   2.737   1.932
 3200SOL     OW10498   6.805   1.652   1.278
 3200SOL    HW110499   6.837   1.691   1.192
 3200SOL    HW210500   6.715   1.688   1.301
 3201SOL     OW10501   5.213   4.069   3.984
 3201SOL    HW110502   5.140   4.138   3.978
 3201SOL    HW210503   5.180   3.983   3.945
 3202SOL     OW10504   1.563   4.307   2.153
 3202SOL    HW110505   1.474   4.352   2.165
 3202SOL    HW210506   1.609   4.345   2.073
 3203SOL     OW10507   5.710   1.038   0.878
 3203SOL    HW110508   5.783   1.007   0.816
 3203SOL    HW210509   5.748   1.055   0.969
 3204SOL     OW10510   5.705   6.045   1.845
 3204SOL    HW110511   5.627   6.025   1.904
 3204SOL    HW210512   5.673   6.081   1.757
 3205SOL     OW10513   0.315   4.049   6.839
 3205SOL    HW110514   0.247   3.993   6.888
 3205SOL    HW210515   0.331   4.133   6.890
 3206SOL     OW10516   6.983   0.108   6.034
 3206SOL    HW110517   0.021   0.171   6.081
 3206SOL    HW210518   6.889   0.131   6.056
 3207SOL     OW10519   0.386   1.417   6.273
 3207SOL    HW110520   0.414   1.436   6.179
 3207SOL    HW210521   0.296   1.458   6.289
 3208SOL     OW10522   4.108   5.953   5.308
 3208SOL    HW110523   4.181   5.986   5.248
 3208SOL    HW210524   4.065   5.873   5.267
 3209SOL     OW10525   2.685   6.478   3.686
 3209SOL    HW110526   2.709   6.514   3.595
 3209SOL    HW210527   2.590   6.447   3.685
 3210SOL     OW10528   0.626   3.666   2.200
 3210SOL    HW110529   0.571   3.588   2.169
 3210SOL    HW210530   0.637   3.731   2.125
 3211SOL     OW10531   2.223   4.903   0.105
 3211SOL    HW110532   2.319   4.874   0.109
 3211SOL    HW210533   2.203   4.943   0.016
 3212SOL     OW10534   4.379   1.637   6.964
 3212SOL    HW110535   4.311   1.598   0.002
 3212SOL    HW210536   4.440   1.697   7.016
 3213SOL     OW10537   5.909   4.825   2.886
 3213SOL    HW110538   5.988   4.772   2.854
 3213SOL    HW210539   5.825   4.773   2.870
 3214SOL     OW10540   4.583   6.086   0.203
 3214SOL    HW110541   4.516   6.160   0.208
 3214SOL    HW210542   4.610   6.059   0.295
 3215SOL     OW10543   6.174   3.205   0.629
 3215SOL    HW110544   6.270   3.214   0.600
 3215SOL    HW210545   6.162   3.251   0.717
 3216SOL     OW10546   5.686   5.498   2.475
 3216SOL    HW110547   5.588   5.498   2.496
 3216SOL    HW210548   5.738   5.509   2.560
 3217SOL     OW10549   1.376   4.256   3.367
 3217SOL    HW110550   1.325   4.237   3.284
 3217SOL    HW210551   1.327   4.323   3.422
 3218SOL     OW10552   4.472   6.537   3.445
 3218SOL    HW110553   4.512   6.477   3.514
 3218SOL    HW210554   4.382   6.568   3.476
 3219SOL     OW10555   6.798   0.396   3.636
 3219SOL    HW110556   6.894   0.372   3.645
 3219SOL    HW210557   6.785   0.456   3.558
 3220SOL     OW10558   6.401   4.757   5.724
 3220SOL    HW110559   6.370   4.792   5.812
 3220SOL    HW210560   6.411   4.657   5.730
 3221SOL     OW10561   2.851   6.206   2.317
 3221SOL    HW110562   2.873   6.111   2.295
 3221SOL    HW210563   2.789   6.242   2.246
 3222SOL     OW10564   4.830   2.051   3.689
 3222SOL    HW110565   4.850   1.979   3.622
 3222SOL    HW210566   4.916   2.088   3.725
 3223SOL     OW10567   2.601   5.452   6.800
 3223SOL    HW110568   2.553   5.397   6.732
 3223SOL    HW210569   2.563   5.434   6.891
 3224SOL     OW10570   4.592   5.052   5.949
 3224SOL    HW110571   4.671   5.113   5.941
 3224SOL    HW210572   4.588   4.992   5.869
 3225SOL     OW10573   4.440   2.280   5.984
 3225SOL    HW110574   4.508   2.325   6.042
 3225SOL    HW210575   4.361   2.339   5.974
 3226SOL     OW10576   2.333   1.463   4.041
 3226SOL    HW110577   2.239   1.496   4.046
 3226SOL    HW210578   2.363   1.464   3.945
 3227SOL     OW10579   3.403   2.306   6.583
 3227SOL    HW110580   3.394   2.209   6.564
 3227SOL    HW210581   3.328   2.336   6.642
 3228SOL     OW10582   5.614   2.930   4.049
 3228SOL    HW110583   5.648   2.859   4.111
 3228SOL    HW210584   5.691   2.973   4.002
 3229SOL     OW10585   3.203   1.795   5.523
 3229SOL    HW110586   3.103   1.806   5.527
 3229SOL    HW210587   3.236   1.830   5.436
 3230SOL     OW10588   0.471   2.183   3.078
 3230SOL    HW110589   0.372   2.194   3.088
 3230SOL    HW210590   0.490   2.100   3.026
 3231SOL     OW10591   4.552   5.520   1.544
 3231SOL    HW110592   4.553   5.618   1.522
 3231SOL    HW210593   4.643   5.492   1.575
 3232SOL     OW10594   4.625   5.095   4.712
 3232SOL    HW110595   4.590   5.049   4.630
 3232SOL    HW210596   4.634   5.029   4.786
 3233SOL     OW10597   0.979   4.181   0.709
 3233SOL    HW110598   0.901   4.185   0.772
 3233SOL    HW210599   1.011   4.273   0.689
 3234SOL     OW10600   6.959   2.511   0.414
 3234SOL    HW110601   0.021   2.490   0.460
 3234SOL    HW210602   6.905   2.573   0.472
 3235SOL     OW10603   5.893   5.887   2.232
 3235SOL    HW110604   5.984   5.855   2.206
 3235SOL    HW210605   5.826   5.814   2.219
 3236SOL     OW10606   1.476   3.575   1.512
 3236SOL    HW110607   1.384   3.537   1.528
 3236SOL    HW210608   1.536   3.548   1.587
 3237SOL     OW10609   4.964   0.398   3.715
 3237SOL    HW110610   5.042   0.343   3.745
 3237SOL    HW210611   4.912   0.428   3.795
 3238SOL     OW10612   0.550   5.853   6.571
 3238SOL    HW110613   0.636   5.902   6.557
 3238SOL    HW210614   0.540   5.831   6.668
 3239SOL     OW10615   5.843   1.501   0.449
 3239SOL    HW110616   5.899   1.421   0.425
 3239SOL    HW210617   5.763   1.471   0.500
 3240SOL     OW10618   0.345   6.869   4.878
 3240SOL    HW110619   0.247   6.881   4.861
 3240SOL    HW210620   0.358   6.806   4.955
 3241SOL     OW10621   4.966   1.413   4.248
 3241SOL    HW110622   4.967   1.471   4.329
 3241SOL    HW210623   5.054   1.420   4.201
 3242SOL     OW10624   3.388   5.087   0.792
 3242SOL    HW110625   3.443   5.170   0.782
 3242SOL    HW210626   3.308   5.106   0.849
 3243SOL     OW10627   5.625   5.170   0.398
 3243SOL    HW110628   5.564   5.133   0.468
 3243SOL    HW210629   5.708   5.115   0.395
 3244SOL     OW10630   5.236   5.472   6.368
 3244SOL    HW110631   5.331   5.488   6.343
 3244SOL    HW210632   5.179   5.468   6.285
 3245SOL     OW10633   4.260   2.679   6.501
 3245SOL    HW110634   4.283   2.776   6.494
 3245SOL    HW210635   4.164   2.665   6.476
 3246SOL     OW10636   5.645   0.278   3.212
 3246SOL    HW110637   5.582   0.217   3.259
 3246SOL    HW210638   5.614   0.373   3.221
 3247SOL     OW10639   0.143   4.197   2.375
 3247SOL    HW110640   0.208   4.140   2.325
 3247SOL    HW210641   0.183   4.226   2.462
 3248SOL     OW10642   5.836   3.639   2.078
 3248SOL    HW110643   5.753   3.597   2.042
 3248SOL    HW210644   5.909   3.632   2.010
 3249SOL     OW10645   3.820   4.735   5.260
 3249SOL    HW110646   3.755   4.669   5.298
 3249SOL    HW210647   3.913   4.701   5.270
 3250SOL     OW10648   5.472   6.602   3.081
 3250SOL    HW110649   5.393   6.637   3.031
 3250SOL    HW210650   5.525   6.541   3.022
 3251SOL     OW10651   3.509   1.412   2.823
 3251SOL    HW110652   3.500   1.450   2.731
 3251SOL    HW210653   3.606   1.403   2.846
 3252SOL     OW10654   3.421   0.793   2.429
 3252SOL    HW110655   3.469   0.866   2.381
 3252SOL    HW210656   3.323   0.812   2.429
 3253SOL     OW10657   4.957   2.321   2.112
 3253SOL    HW110658   5.009   2.399   2.147
 3253SOL    HW210659   4.862   2.348   2.098
 3254SOL     OW10660   3.590   5.143   4.052
 3254SOL    HW110661   3.654   5.074   4.017
 3254SOL    HW210662   3.642   5.222   4.085
 3255SOL     OW10663   4.543   5.124   0.834
 3255SOL    HW110664   4.530   5.030   0.803
 3255SOL    HW210665   4.456   5.160   0.867
 3256SOL     OW10666   5.568   0.209   6.809
 3256SOL    HW110667   5.496   0.178   6.746
 3256SOL    HW210668   5.608   0.130   6.855
 3257SOL     OW10669   1.601   2.341   0.913
 3257SOL    HW110670   1.626   2.428   0.956
 3257SOL    HW210671   1.557   2.358   0.825
 3258SOL     OW10672   4.816   6.733   1.526
 3258SOL    HW110673   4.900   6.694   1.563
 3258SOL    HW210674   4.813   6.721   1.427
 3259SOL     OW10675   4.288   5.819   4.301
 3259SOL    HW110676   4.310   5.724   4.283
 3259SOL    HW210677   4.195   5.839   4.268
 3260SOL     OW10678   2.050   1.875   0.732
 3260SOL    HW110679   2.147   1.878   0.756
 3260SOL    HW210680   2.038   1.900   0.636
 3261SOL     OW10681   3.925   6.328   0.418
 3261SOL    HW110682   3.918   6.372   0.329
 3261SOL    HW210683   3.833   6.303   0.450
 3262SOL     OW10684   3.947   1.627   3.276
 3262SOL    HW110685   3.862   1.586   3.241
 3262SOL    HW210686   4.003   1.659   3.200
 3263SOL     OW10687   4.936   6.914   3.151
 3263SOL    HW110688   4.873   6.898   3.075
 3263SOL    HW210689   5.009   6.976   3.121
 3264SOL     OW10690   0.363   5.225   0.083
 3264SOL    HW110691   0.315   5.159   0.026
 3264SOL    HW210692   0.461   5.208   0.079
 3265SOL     OW10693   4.097   2.313   6.704
 3265SOL    HW110694   4.191   2.348   6.697
 3265SOL    HW210695   4.098   2.226   6.753
 3266SOL     OW10696   0.259   2.248   0.305
 3266SOL    HW110697   0.219   2.198   0.382
 3266SOL    HW210698   0.199   2.239   0.226
 3267SOL     OW10699   3.205   2.664   1.501
 3267SOL    HW110700   3.187   2.616   1.586
 3267SOL    HW210701   3.289   2.717   1.509
 3268SOL     OW10702   1.314   3.885   0.029
 3268SOL    HW110703   1.310   3.788   0.007
 3268SOL    HW210704   1.247   3.935   6.997
 3269SOL     OW10705   4.575   4.680   1.865
 3269SOL    HW110706   4.515   4.638   1.797
 3269SOL    HW210707   4.581   4.778   1.848
 3270SOL     OW10708   0.577   5.403   3.698
 3270SOL    HW110709   0.657   5.446   3.741
 3270SOL    HW210710   0.505   5.392   3.766
 3271SOL     OW10711   5.669   2.096   2.659
 3271SOL    HW110712   5.585   2.140   2.626
 3271SOL    HW210713   5.744   2.115   2.595
 3272SOL     OW10714   3.563   6.395   0.297
 3272SOL    HW110715   3.638   6.358   0.243
 3272SOL    HW210716   3.477   6.384   0.246
 3273SOL     OW10717   0.832   6.444   1.950
 3273SOL    HW110718   0.855   6.457   2.046
 3273SOL    HW210719   0.815   6.533   1.908
 3274SOL     OW10720   3.637   2.084   0.217
 3274SOL    HW110721   3.537   2.088   0.207
 3274SOL    HW210722   3.669   1.991   0.203
 3275SOL     OW10723   1.661   0.347   0.056
 3275SOL    HW110724   1.676   0.443   0.032
 3275SOL    HW210725   1.578   0.314   0.012
 3276SOL     OW10726   3.732   5.009   6.809
 3276SOL    HW110727   3.784   5.044   6.887
 3276SOL    HW210728   3.636   5.033   6.819
 3277SOL     OW10729   6.055   0.036   6.330
 3277SOL    HW110730   6.043   0.047   6.429
 3277SOL    HW210731   6.063   0.126   6.288
 3278SOL     OW10732   6.966   1.504   4.958
 3278SOL    HW110733   7.020   1.421   4.941
 3278SOL    HW210734   6.916   1.494   5.044
 3279SOL     OW10735   0.053   0.238   0.676
 3279SOL    HW110736   0.058   0.205   0.771
 3279SOL    HW210737   0.127   0.196   0.623
 3280SOL     OW10738   2.515   5.110   6.402
 3280SOL    HW110739   2.529   5.075   6.310
 3280SOL    HW210740   2.500   5.209   6.398
 3281SOL     OW10741   1.512   5.822   1.013
 3281SOL    HW110742   1.422   5.839   0.973
 3281SOL    HW210743   1.581   5.823   0.941
 3282SOL     OW10744   3.203   6.497   4.302
 3282SOL    HW110745   3.193   6.397   4.305
 3282SOL    HW210746   3.130   6.536   4.247
 3283SOL     OW10747   3.031   1.577   3.168
 3283SOL    HW110748   3.090   1.519   3.225
 3283SOL    HW210749   3.078   1.664   3.151
 3284SOL     OW10750   6.760   6.817   0.086
 3284SOL    HW110751   6.821   6.738   0.075
 3284SOL    HW210752   6.702   6.825   0.005
 3285SOL     OW10753   0.156   2.871   3.138
 3285SOL    HW110754   0.192   2.789   3.182
 3285SOL    HW210755   0.154   2.946   3.204
 3286SOL     OW10756   4.031   3.594   3.715
 3286SOL    HW110757   3.945   3.554   3.683
 3286SOL    HW210758   4.087   3.621   3.636
 3287SOL     OW10759   1.054   5.823   0.097
 3287SOL    HW110760   1.133   5.869   0.138
 3287SOL    HW210761   1.085   5.740   0.050
 3288SOL     OW10762   0.463   6.305   6.949
 3288SOL    HW110763   0.499   6.390   6.987
 3288SOL    HW210764   0.365   6.316   6.929
 3289SOL     OW10765   1.370   6.617   5.238
 3289SOL    HW110766   1.329   6.531   5.206
 3289SOL    HW210767   1.301   6.688   5.239
 3290SOL     OW10768   0.679   5.902   1.968
 3290SOL    HW110769   0.649   5.960   1.891
 3290SOL    HW210770   0.613   5.911   2.043
 3291SOL     OW10771   1.700   6.319   6.287
 3291SOL    HW110772   1.670   6.352   6.197
 3291SOL    HW210773   1.622   6.317   6.349
 3292SOL     OW10774   0.375   1.357   6.803
 3292SOL    HW110775   0.414   1.268   6.825
 3292SOL    HW210776   0.341   1.400   6.886
 3293SOL     OW10777   6.831   1.560   3.429
 3293SOL    HW110778   6.864   1.572   3.523
 3293SOL    HW210779   6.845   1.644   3.377
 3294SOL     OW10780   6.721   0.526   6.425
 3294SOL    HW110781   6.730   0.450   6.490
 3294SOL    HW210782   6.812   0.555   6.394
 3295SOL     OW10783   2.855   1.845   0.834
 3295SOL    HW110784   2.807   1.809   0.753
 3295SOL    HW210785   2.854   1.777   0.906
 3296SOL     OW10786   2.394   6.812   1.749
 3296SOL    HW110787   2.431   6.725   1.782
 3296SOL    HW210788   2.384   6.876   1.826
 3297SOL     OW10789   3.077   2.113   5.226
 3297SOL    HW110790   3.141   2.172   5.177
 3297SOL    HW210791   3.089   2.125   5.325
 3298SOL     OW10792   6.398   3.209   2.867
 3298SOL    HW110793   6.352   3.176   2.950
 3298SOL    HW210794   6.495   3.226   2.888
 3299SOL     OW10795   1.809   0.344   3.704
 3299SOL    HW110796   1.890   0.295   3.670
 3299SOL    HW210797   1.814   0.440   3.677
 3300SOL     OW10798   6.940   0.828   6.079
 3300SOL    HW110799   6.974   0.734   6.075
 3300SOL    HW210800   7.014   0.891   6.052
 3301SOL     OW10801   1.574   3.826   3.984
 3301SOL    HW110802   1.590   3.736   4.026
 3301SOL    HW210803   1.554   3.893   4.054
 3302SOL     OW10804   1.386   5.004   4.572
 3302SOL    HW110805   1.455   4.969   4.509
 3302SOL    HW210806   1.429   5.026   4.660
 3303SOL     OW10807   3.788   3.337   2.640
 3303SOL    HW110808   3.698   3.323   2.600
 3303SOL    HW210809   3.785   3.317   2.738
 3304SOL     OW10810   1.193   4.923   3.841
 3304SOL    HW110811   1.093   4.924   3.849
 3304SOL    HW210812   1.230   5.009   3.877
 3305SOL     OW10813   2.136   1.346   1.959
 3305SOL    HW110814   2.180   1.256   1.956
 3305SOL    HW210815   2.101   1.363   2.051
 3306SOL     OW10816   2.040   3.811   2.881
 3306SOL    HW110817   2.007   3.849   2.967
 3306SOL    HW210818   2.065   3.885   2.819
 3307SOL     OW10819   0.060   5.756   0.220
 3307SOL    HW110820   0.014   5.845   0.220
 3307SOL    HW210821   0.152   5.767   0.256
 3308SOL     OW10822   4.892   5.766   0.075
 3308SOL    HW110823   4.945   5.708   0.013
 3308SOL    HW210824   4.829   5.710   0.129
 3309SOL     OW10825   0.757   5.229   2.609
 3309SOL    HW110826   0.764   5.203   2.512
 3309SOL    HW210827   0.786   5.324   2.620
 3310SOL     OW10828   0.331   3.560   2.958
 3310SOL    HW110829   0.366   3.654   2.959
 3310SOL    HW210830   0.405   3.497   2.980
 3311SOL     OW10831   2.531   5.756   0.528
 3311SOL    HW110832   2.480   5.679   0.566
 3311SOL    HW210833   2.570   5.811   0.603
 3312SOL     OW10834   3.210   4.315   6.396
 3312SOL    HW110835   3.190   4.356   6.307
 3312SOL    HW210836   3.243   4.222   6.383
 3313SOL     OW10837   1.230   5.193   3.811
 3313SOL    HW110838   1.178   5.231   3.888
 3313SOL    HW210839   1.167   5.162   3.740
 3314SOL     OW10840   1.674   2.914   4.702
 3314SOL    HW110841   1.712   2.821   4.706
 3314SOL    HW210842   1.748   2.980   4.687
 3315SOL     OW10843   6.532   3.095   4.007
 3315SOL    HW110844   6.587   3.012   4.002
 3315SOL    HW210845   6.592   3.174   4.020
 3316SOL     OW10846   4.219   2.077   6.011
 3316SOL    HW110847   4.270   1.995   6.038
 3316SOL    HW210848   4.269   2.158   6.039
 3317SOL     OW10849   4.609   2.516   1.730
 3317SOL    HW110850   4.650   2.607   1.735
 3317SOL    HW210851   4.681   2.447   1.724
 3318SOL     OW10852   2.652   6.293   6.079
 3318SOL    HW110853   2.601   6.368   6.121
 3318SOL    HW210854   2.749   6.301   6.103
 3319SOL     OW10855   6.997   6.464   3.945
 3319SOL    HW110856   0.011   6.552   3.915
 3319SOL    HW210857   6.998   6.400   3.868
 3320SOL     OW10858   5.674   1.474   5.325
 3320SOL    HW110859   5.702   1.543   5.392
 3320SOL    HW210860   5.648   1.390   5.372
 3321SOL     OW10861   3.762   2.979   2.769
 3321SOL    HW110862   3.859   2.996   2.753
 3321SOL    HW210863   3.746   2.969   2.868
 3322SOL     OW10864   4.941   1.985   1.097
 3322SOL    HW110865   4.886   1.992   1.180
 3322SOL    HW210866   4.906   1.911   1.040
 3323SOL     OW10867   2.437   4.498   6.650
 3323SOL    HW110868   2.352   4.458   6.685
 3323SOL    HW210869   2.478   4.437   6.583
 3324SOL     OW10870   1.606   4.062   0.384
 3324SOL    HW110871   1.586   4.155   0.353
 3324SOL    HW210872   1.520   4.014   0.403
 3325SOL     OW10873   2.482   3.170   0.285
 3325SOL    HW110874   2.451   3.259   0.318
 3325SOL    HW210875   2.463   3.101   0.355
 3326SOL     OW10876   5.678   2.143   2.159
 3326SOL    HW110877   5.591   2.095   2.173
 3326SOL    HW210878   5.716   2.117   2.070
 3327SOL     OW10879   2.542   6.586   1.786
 3327SOL    HW110880   2.512   6.493   1.765
 3327SOL    HW210881   2.588   6.586   1.875
 3328SOL     OW10882   4.498   1.275   1.908
 3328SOL    HW110883   4.413   1.222   1.914
 3328SOL    HW210884   4.483   1.355   1.851
 3329SOL     OW10885   4.147   0.549   5.212
 3329SOL    HW110886   4.234   0.598   5.205
 3329SOL    HW210887   4.082   0.603   5.265
 3330SOL     OW10888   5.991   6.928   1.952
 3330SOL    HW110889   5.952   7.019   1.944
 3330SOL    HW210890   5.925   6.860   1.918
 3331SOL     OW10891   1.458   3.602   3.028
 3331SOL    HW110892   1.550   3.639   3.045
 3331SOL    HW210893   1.427   3.554   3.109
 3332SOL     OW10894   5.279   4.579   0.662
 3332SOL    HW110895   5.333   4.659   0.686
 3332SOL    HW210896   5.332   4.518   0.604
 3333SOL     OW10897   3.257   3.662   1.028
 3333SOL    HW110898   3.222   3.607   0.952
 3333SOL    HW210899   3.182   3.687   1.089
 3334SOL     OW10900   1.565   2.673   2.301
 3334SOL    HW110901   1.549   2.575   2.291
 3334SOL    HW210902   1.657   2.688   2.339
 3335SOL     OW10903   3.778   4.559   5.880
 3335SOL    HW110904   3.697   4.617   5.886
 3335SOL    HW210905   3.768   4.481   5.942
 3336SOL     OW10906   2.246   0.212   4.077
 3336SOL    HW110907   2.244   0.289   4.013
 3336SOL    HW210908   2.338   0.172   4.078
 3337SOL     OW10909   4.146   3.273   2.445
 3337SOL    HW110910   4.117   3.204   2.511
 3337SOL    HW210911   4.123   3.243   2.353
 3338SOL     OW10912   0.944   1.863   1.681
 3338SOL    HW110913   1.011   1.799   1.643
 3338SOL    HW210914   0.975   1.956   1.666
 3339SOL     OW10915   1.792   0.195   5.656
 3339SOL    HW110916   1.713   0.223   5.711
 3339SOL    HW210917   1.873   0.193   5.714
 3340SOL     OW10918   4.944   0.535   4.449
 3340SOL    HW110919   4.903   0.625   4.432
 3340SOL    HW210920   4.989   0.503   4.365
 3341SOL     OW10921   2.282   4.542   2.750
 3341SOL    HW110922   2.311   4.606   2.679
 3341SOL    HW210923   2.200   4.578   2.796
 3342SOL     OW10924   6.236   0.532   3.017
 3342SOL    HW110925   6.305   0.487   2.961
 3342SOL    HW210926   6.253   0.631   3.017
 3343SOL     OW10927   5.230   5.285   6.555
 3343SOL    HW110928   5.202   5.349   6.484
 3343SOL    HW210929   5.296   5.329   6.616
 3344SOL     OW10930   6.394   2.875   2.408
 3344SOL    HW110931   6.374   2.887   2.506
 3344SOL    HW210932   6.316   2.908   2.354
 3345SOL     OW10933   0.676   3.446   0.101
 3345SOL    HW110934   0.772   3.453   0.126
 3345SOL    HW210935   0.626   3.399   0.174
 3346SOL     OW10936   2.265   1.052   0.416
 3346SOL    HW110937   2.202   1.043   0.494
 3346SOL    HW210938   2.239   1.131   0.361
 3347SOL     OW10939   1.190   2.846   6.415
 3347SOL    HW110940   1.133   2.917   6.373
 3347SOL    HW210941   1.269   2.827   6.356
 3348SOL     OW10942   3.798   4.303   6.261
 3348SOL    HW110943   3.822   4.275   6.354
 3348SOL    HW210944   3.834   4.235   6.196
 3349SOL     OW10945   2.207   3.977   3.743
 3349SOL    HW110946   2.124   3.980   3.799
 3349SOL    HW210947   2.257   4.062   3.754
 3350SOL     OW10948   0.743   4.344   5.620
 3350SOL    HW110949   0.788   4.270   5.670
 3350SOL    HW210950   0.797   4.367   5.539
 3351SOL     OW10951   5.459   0.698   1.332
 3351SOL    HW110952   5.403   0.770   1.373
 3351SOL    HW210953   5.423   0.609   1.358
 3352SOL     OW10954   5.396   3.016   0.846
 3352SOL    HW110955   5.427   3.080   0.917
 3352SOL    HW210956   5.451   2.933   0.850
 3353SOL     OW10957   1.745   0.175   1.608
 3353SOL    HW110958   1.781   0.258   1.650
 3353SOL    HW210959   1.721   0.192   1.513
 3354SOL     OW10960   3.966   3.405   5.730
 3354SOL    HW110961   4.011   3.371   5.813
 3354SOL    HW210962   3.906   3.481   5.755
 3355SOL     OW10963   1.834   1.390   5.186
 3355SOL    HW110964   1.862   1.383   5.091
 3355SOL    HW210965   1.743   1.430   5.191
 3356SOL     OW10966   1.124   0.093   6.290
 3356SOL    HW110967   1.094   0.166   6.351
 3356SOL    HW210968   1.114   0.123   6.195
 3357SOL     OW10969   3.102   3.657   1.652
 3357SOL    HW110970   3.105   3.744   1.702
 3357SOL    HW210971   3.150   3.587   1.704
 3358SOL     OW10972   5.555   1.413   3.444
 3358SOL    HW110973   5.474   1.383   3.494
 3358SOL    HW210974   5.611   1.334   3.421
 3359SOL     OW10975   0.756   5.405   3.963
 3359SOL    HW110976   0.773   5.418   4.060
 3359SOL    HW210977   0.749   5.494   3.918
 3360SOL     OW10978   0.560   2.322   6.360
 3360SOL    HW110979   0.651   2.341   6.396
 3360SOL    HW210980   0.513   2.255   6.418
 3361SOL     OW10981   0.876   0.375   4.288
 3361SOL    HW110982   0.816   0.368   4.208
 3361SOL    HW210983   0.887   0.471   4.313
 3362SOL     OW10984   3.946   1.851   3.919
 3362SOL    HW110985   4.004   1.884   3.993
 3362SOL    HW210986   4.001   1.838   3.837
 3363SOL     OW10987   6.969   2.934   1.686
 3363SOL    HW110988   6.906   2.943   1.763
 3363SOL    HW210989   7.003   2.840   1.682
 3364SOL     OW10990   1.178   4.024   2.855
 3364SOL    HW110991   1.126   4.030   2.939
 3364SOL    HW210992   1.218   3.933   2.847
 3365SOL     OW10993   2.053   3.058   4.455
 3365SOL    HW110994   2.071   3.146   4.411
 3365SOL    HW210995   2.140   3.017   4.483
 3366SOL     OW10996   0.066   3.812   4.582
 3366SOL    HW110997   7.022   3.875   4.620
 3366SOL    HW210998   0.156   3.836   4.618
 3367SOL     OW10999   3.785   3.608   4.178
 3367SOL    HW111000   3.716   3.595   4.106
 3367SOL    HW211001   3.859   3.665   4.142
 3368SOL     OW11002   1.398   6.585   6.484
 3368SOL    HW111003   1.386   6.575   6.385
 3368SOL    HW211004   1.459   6.514   6.518
 3369SOL     OW11005   4.399   2.001   1.497
 3369SOL    HW111006   4.393   2.099   1.477
 3369SOL    HW211007   4.310   1.968   1.529
 3370SOL     OW11008   6.353   6.251   1.686
 3370SOL    HW111009   6.274   6.190   1.678
 3370SOL    HW211010   6.436   6.196   1.695
 3371SOL     OW11011   2.090   3.635   2.185
 3371SOL    HW111012   2.145   3.714   2.210
 3371SOL    HW211013   2.136   3.584   2.112
 3372SOL     OW11014   6.689   2.834   1.357
 3372SOL    HW111015   6.658   2.766   1.423
 3372SOL    HW211016   6.709   2.920   1.404
 3373SOL     OW11017   0.580   1.176   1.848
 3373SOL    HW111018   0.560   1.089   1.894
 3373SOL    HW211019   0.494   1.221   1.823
 3374SOL     OW11020   0.297   6.945   4.054
 3374SOL    HW111021   0.256   6.859   4.085
 3374SOL    HW211022   0.375   6.926   3.995
 3375SOL     OW11023   0.052   4.939   0.004
 3375SOL    HW111024   0.035   4.840   7.022
 3375SOL    HW211025   0.034   4.970   0.097
 3376SOL     OW11026   2.453   3.397   5.631
 3376SOL    HW111027   2.526   3.332   5.652
 3376SOL    HW211028   2.370   3.347   5.606
 3377SOL     OW11029   6.395   5.299   4.382
 3377SOL    HW111030   6.373   5.270   4.289
 3377SOL    HW211031   6.467   5.368   4.379
 3378SOL     OW11032   0.850   6.505   6.748
 3378SOL    HW111033   0.758   6.509   6.711
 3378SOL    HW211034   0.862   6.577   6.816
 3379SOL     OW11035   1.050   3.200   4.773
 3379SOL    HW111036   0.978   3.148   4.728
 3379SOL    HW211037   1.133   3.145   4.776
 3380SOL     OW11038   3.816   4.841   5.626
 3380SOL    HW111039   3.802   4.833   5.725
 3380SOL    HW211040   3.793   4.933   5.596
 3381SOL     OW11041   0.690   2.494   1.725
 3381SOL    HW111042   0.595   2.520   1.710
 3381SOL    HW211043   0.698   2.394   1.725
 3382SOL     OW11044   6.668   2.704   1.109
 3382SOL    HW111045   6.678   2.783   1.170
 3382SOL    HW211046   6.575   2.670   1.113
 3383SOL     OW11047   3.547   4.952   0.543
 3383SOL    HW111048   3.611   4.980   0.614
 3383SOL    HW211049   3.506   5.034   0.502
 3384SOL     OW11050   2.649   5.048   0.682
 3384SOL    HW111051   2.588   5.009   0.613
 3384SOL    HW211052   2.665   4.981   0.754
 3385SOL     OW11053   6.968   2.770   3.659
 3385SOL    HW111054   7.016   2.845   3.612
 3385SOL    HW211055   0.008   2.723   3.719
 3386SOL     OW11056   6.804   4.531   7.007
 3386SOL    HW111057   6.807   4.631   6.996
 3386SOL    HW211058   6.812   4.508   0.080
 3387SOL     OW11059   5.274   0.883   3.503
 3387SOL    HW111060   5.227   0.851   3.586
 3387SOL    HW211061   5.236   0.836   3.423
 3388SOL     OW11062   4.788   4.208   1.508
 3388SOL    HW111063   4.844   4.146   1.452
 3388SOL    HW211064   4.781   4.296   1.462
 3389SOL     OW11065   6.309   6.145   7.018
 3389SOL    HW111066   6.268   6.232   6.991
 3389SOL    HW211067   6.261   6.109   0.074
 3390SOL     OW11068   4.103   6.525   5.797
 3390SOL    HW111069   4.092   6.472   5.713
 3390SOL    HW211070   4.114   6.621   5.775
 3391SOL     OW11071   5.475   2.404   3.683
 3391SOL    HW111072   5.537   2.338   3.641
 3391SOL    HW211073   5.515   2.439   3.768
 3392SOL     OW11074   4.032   6.816   4.841
 3392SOL    HW111075   4.126   6.809   4.807
 3392SOL    HW211076   3.988   6.896   4.802
 3393SOL     OW11077   5.222   6.873   0.607
 3393SOL    HW111078   5.301   6.910   0.557
 3393SOL    HW211079   5.152   6.943   0.615
 3394SOL     OW11080   3.376   5.022   1.385
 3394SOL    HW111081   3.384   5.104   1.328
 3394SOL    HW211082   3.295   4.970   1.358
 3395SOL     OW11083   4.371   1.129   2.971
 3395SOL    HW111084   4.401   1.198   3.036
 3395SOL    HW211085   4.288   1.084   3.006
 3396SOL     OW11086   5.356   0.653   3.843
 3396SOL    HW111087   5.396   0.569   3.806
 3396SOL    HW211088   5.396   0.672   3.933
 3397SOL     OW11089   2.766   5.828   6.157
 3397SOL    HW111090   2.718   5.744   6.184
 3397SOL    HW211091   2.783   5.885   6.238
 3398SOL     OW11092   0.832   1.406   5.438
 3398SOL    HW111093   0.756   1.355   5.479
 3398SOL    HW211094   0.889   1.343   5.385
 3399SOL     OW11095   6.914   4.964   2.949
 3399SOL    HW111096   6.849   4.968   2.874
 3399SOL    HW211097   6.965   4.878   2.945
 3400SOL     OW11098   5.628   3.278   5.955
 3400SOL    HW111099   5.551   3.277   5.892
 3400SOL    HW211100   5.648   3.373   5.982
 3401SOL     OW11101   6.806   3.786   6.094
 3401SOL    HW111102   6.867   3.849   6.141
 3401SOL    HW211103   6.780   3.824   6.006
 3402SOL     OW11104   6.839   5.152   1.019
 3402SOL    HW111105   6.911   5.131   0.954
 3402SOL    HW211106   6.831   5.251   1.031
 3403SOL     OW11107   4.766   6.087   6.209
 3403SOL    HW111108   4.731   6.088   6.115
 3403SOL    HW211109   4.858   6.050   6.210
 3404SOL     OW11110   5.245   3.250   5.959
 3404SOL    HW111111   5.219   3.226   5.865
 3404SOL    HW211112   5.197   3.333   5.987
 3405SOL     OW11113   5.737   5.821   6.095
 3405SOL    HW111114   5.756   5.727   6.124
 3405SOL    HW211115   5.671   5.819   6.020
 3406SOL     OW11116   2.111   3.510   2.443
 3406SOL    HW111117   2.091   3.585   2.506
 3406SOL    HW211118   2.093   3.539   2.350
 3407SOL     OW11119   2.526   4.493   1.111
 3407SOL    HW111120   2.595   4.458   1.047
 3407SOL    HW211121   2.555   4.582   1.145
 3408SOL     OW11122   4.308   2.393   3.985
 3408SOL    HW111123   4.334   2.404   3.889
 3408SOL    HW211124   4.389   2.405   4.043
 3409SOL     OW11125   4.201   6.463   0.420
 3409SOL    HW111126   4.224   6.471   0.323
 3409SOL    HW211127   4.186   6.366   0.443
 3410SOL     OW11128   5.759   6.686   2.913
 3410SOL    HW111129   5.840   6.741   2.936
 3410SOL    HW211130   5.739   6.623   2.988
 3411SOL     OW11131   6.777   2.239   0.736
 3411SOL    HW111132   6.712   2.190   0.679
 3411SOL    HW211133   6.760   2.338   0.728
 3412SOL     OW11134   4.936   3.185   1.638
 3412SOL    HW111135   4.890   3.097   1.654
 3412SOL    HW211136   5.021   3.170   1.588
 3413SOL     OW11137   6.190   1.610   6.531
 3413SOL    HW111138   6.204   1.608   6.432
 3413SOL    HW211139   6.093   1.622   6.551
 3414SOL     OW11140   3.605   2.838   0.003
 3414SOL    HW111141   3.614   2.738   7.022
 3414SOL    HW211142   3.696   2.880   0.001
 3415SOL     OW11143   2.041   2.255   4.269
 3415SOL    HW111144   2.072   2.222   4.358
 3415SOL    HW211145   2.080   2.346   4.252
 3416SOL     OW11146   6.026   6.978   0.380
 3416SOL    HW111147   6.110   7.019   0.416
 3416SOL    HW211148   5.990   6.912   0.446
 3417SOL     OW11149   0.244   6.962   3.116
 3417SOL    HW111150   0.167   6.925   3.063
 3417SOL    HW211151   0.304   6.886   3.144
 3418SOL     OW11152   3.995   5.404   3.103
 3418SOL    HW111153   4.045   5.474   3.152
 3418SOL    HW211154   3.904   5.439   3.077
 3419SOL     OW11155   3.770   5.506   5.425
 3419SOL    HW111156   3.805   5.596   5.452
 3419SOL    HW211157   3.752   5.452   5.507
 3420SOL     OW11158   4.767   2.980   3.997
 3420SOL    HW111159   4.745   2.893   4.040
 3420SOL    HW211160   4.780   3.050   4.067
 3421SOL     OW11161   5.153   1.505   3.778
 3421SOL    HW111162   5.093   1.575   3.816
 3421SOL    HW211163   5.099   1.425   3.753
 3422SOL     OW11164   2.254   0.092   6.919
 3422SOL    HW111165   2.321   0.056   6.854
 3422SOL    HW211166   2.171   0.035   6.917
 3423SOL     OW11167   0.754   4.504   6.016
 3423SOL    HW111168   0.674   4.516   5.957
 3423SOL    HW211169   0.837   4.501   5.960
 3424SOL     OW11170   4.203   6.673   1.694
 3424SOL    HW111171   4.220   6.760   1.649
 3424SOL    HW211172   4.219   6.598   1.629
 3425SOL     OW11173   4.947   4.528   2.186
 3425SOL    HW111174   4.950   4.484   2.276
 3425SOL    HW211175   4.911   4.463   2.119
 3426SOL     OW11176   5.274   3.492   0.609
 3426SOL    HW111177   5.196   3.491   0.672
 3426SOL    HW211178   5.358   3.514   0.660
 3427SOL     OW11179   1.406   2.584   1.411
 3427SOL    HW111180   1.435   2.675   1.440
 3427SOL    HW211181   1.456   2.559   1.328
 3428SOL     OW11182   5.002   4.989   5.334
 3428SOL    HW111183   5.034   4.964   5.426
 3428SOL    HW211184   4.910   4.952   5.319
 3429SOL     OW11185   0.302   0.804   0.996
 3429SOL    HW111186   0.342   0.740   1.063
 3429SOL    HW211187   0.332   0.779   0.904
 3430SOL     OW11188   2.153   4.622   5.574
 3430SOL    HW111189   2.230   4.561   5.561
 3430SOL    HW211190   2.175   4.690   5.644
 3431SOL     OW11191   2.133   6.564   2.243
 3431SOL    HW111192   2.226   6.593   2.264
 3431SOL    HW211193   2.135   6.471   2.206
 3432SOL     OW11194   2.206   5.035   6.819
 3432SOL    HW111195   2.295   5.008   6.858
 3432SOL    HW211196   2.215   5.125   6.775
 3433SOL     OW11197   2.385   0.832   6.712
 3433SOL    HW111198   2.327   0.786   6.645
 3433SOL    HW211199   2.443   0.764   6.758
 3434SOL     OW11200   2.785   2.130   1.872
 3434SOL    HW111201   2.825   2.205   1.925
 3434SOL    HW211202   2.834   2.120   1.785
 3435SOL     OW11203   2.347   0.593   0.369
 3435SOL    HW111204   2.396   0.673   0.335
 3435SOL    HW211205   2.265   0.578   0.314
 3436SOL     OW11206   4.252   5.388   6.879
 3436SOL    HW111207   4.311   5.454   6.925
 3436SOL    HW211208   4.300   5.300   6.870
 3437SOL     OW11209   1.695   6.644   5.782
 3437SOL    HW111210   1.619   6.580   5.789
 3437SOL    HW211211   1.660   6.734   5.754
 3438SOL     OW11212   0.402   3.531   1.525
 3438SOL    HW111213   0.462   3.488   1.592
 3438SOL    HW211214   0.347   3.602   1.571
 3439SOL     OW11215   2.371   5.750   2.866
 3439SOL    HW111216   2.379   5.771   2.769
 3439SOL    HW211217   2.361   5.835   2.918
 3440SOL     OW11218   3.582   3.019   4.846
 3440SOL    HW111219   3.483   3.031   4.833
 3440SOL    HW211220   3.598   2.945   4.911
 3441SOL     OW11221   6.841   6.026   6.397
 3441SOL    HW111222   6.752   5.981   6.394
 3441SOL    HW211223   6.847   6.094   6.325
 3442SOL     OW11224   3.493   4.030   1.461
 3442SOL    HW111225   3.442   3.986   1.534
 3442SOL    HW211226   3.474   4.129   1.462
 3443SOL     OW11227   3.294   6.088   2.518
 3443SOL    HW111228   3.323   6.008   2.466
 3443SOL    HW211229   3.211   6.066   2.569
 3444SOL     OW11230   5.036   4.528   1.543
 3444SOL    HW111231   5.128   4.517   1.580
 3444SOL    HW211232   4.973   4.467   1.590
 3445SOL     OW11233   6.732   4.892   3.949
 3445SOL    HW111234   6.693   4.934   3.867
 3445SOL    HW211235   6.751   4.963   4.017
 3446SOL     OW11236   5.365   0.285   1.906
 3446SOL    HW111237   5.347   0.373   1.862
 3446SOL    HW211238   5.278   0.237   1.923
 3447SOL     OW11239   5.431   0.209   0.259
 3447SOL    HW111240   5.395   0.294   0.297
 3447SOL    HW211241   5.439   0.218   0.159
 3448SOL     OW11242   1.711   6.659   5.477
 3448SOL    HW111243   1.719   6.579   5.537
 3448SOL    HW211244   1.792   6.666   5.419
 3449SOL     OW11245   5.896   5.434   4.999
 3449SOL    HW111246   5.870   5.530   5.006
 3449SOL    HW211247   5.889   5.391   5.089
 3450SOL     OW11248   1.332   0.218   6.681
 3450SOL    HW111249   1.270   0.292   6.657
 3450SOL    HW211250   1.403   0.210   6.611
 3451SOL     OW11251   1.599   5.737   0.305
 3451SOL    HW111252   1.695   5.766   0.302
 3451SOL    HW211253   1.594   5.640   0.328
 3452SOL     OW11254   5.578   0.580   5.750
 3452SOL    HW111255   5.645   0.617   5.815
 3452SOL    HW211256   5.609   0.596   5.657
 3453SOL     OW11257   5.374   6.710   6.078
 3453SOL    HW111258   5.465   6.711   6.036
 3453SOL    HW211259   5.328   6.624   6.055
 3454SOL     OW11260   1.682   2.627   2.683
 3454SOL    HW111261   1.587   2.620   2.653
 3454SOL    HW211262   1.714   2.721   2.670
 3455SOL     OW11263   1.564   2.544   4.722
 3455SOL    HW111264   1.495   2.604   4.760
 3455SOL    HW211265   1.590   2.475   4.790
 3456SOL     OW11266   4.436   4.521   2.058
 3456SOL    HW111267   4.503   4.585   2.020
 3456SOL    HW211268   4.438   4.436   2.004
 3457SOL     OW11269   3.960   5.243   4.896
 3457SOL    HW111270   3.947   5.332   4.940
 3457SOL    HW211271   3.957   5.254   4.797
 3458SOL     OW11272   4.515   2.003   2.665
 3458SOL    HW111273   4.488   1.921   2.614
 3458SOL    HW211274   4.439   2.067   2.670
 3459SOL     OW11275   4.459   1.328   3.129
 3459SOL    HW111276   4.554   1.298   3.138
 3459SOL    HW211277   4.456   1.410   3.071
 3460SOL     OW11278   3.605   1.950   5.706
 3460SOL    HW111279   3.544   1.887   5.755
 3460SOL    HW211280   3.550   2.019   5.659
 3461SOL     OW11281   5.440   4.844   0.056
 3461SOL    HW111282   5.424   4.770   7.014
 3461SOL    HW211283   5.357   4.898   0.066
 3462SOL     OW11284   2.124   3.513   6.420
 3462SOL    HW111285   2.069   3.596   6.410
 3462SOL    HW211286   2.220   3.538   6.426
 3463SOL     OW11287   6.992   4.001   0.853
 3463SOL    HW111288   7.012   4.093   0.887
 3463SOL    HW211289   0.045   3.940   0.872
 3464SOL     OW11290   0.306   4.760   6.581
 3464SOL    HW111291   0.293   4.728   6.487
 3464SOL    HW211292   0.404   4.759   6.603
 3465SOL     OW11293   2.298   1.523   1.459
 3465SOL    HW111294   2.307   1.622   1.447
 3465SOL    HW211295   2.240   1.485   1.387
 3466SOL     OW11296   6.992   5.139   5.960
 3466SOL    HW111297   0.002   5.147   6.054
 3466SOL    HW211298   7.007   5.046   5.927
 3467SOL     OW11299   2.112   2.121   6.487
 3467SOL    HW111300   2.178   2.072   6.430
 3467SOL    HW211301   2.028   2.068   6.493
 3468SOL     OW11302   2.711   5.770   3.604
 3468SOL    HW111303   2.777   5.808   3.539
 3468SOL    HW211304   2.639   5.722   3.553
 3469SOL     OW11305   6.986   2.279   4.041
 3469SOL    HW111306   6.890   2.295   4.065
 3469SOL    HW211307   0.018   2.279   4.125
 3470SOL     OW11308   0.855   5.320   1.376
 3470SOL    HW111309   0.794   5.377   1.320
 3470SOL    HW211310   0.907   5.258   1.316
 3471SOL     OW11311   4.547   5.648   5.306
 3471SOL    HW111312   4.460   5.619   5.346
 3471SOL    HW211313   4.554   5.615   5.212
 3472SOL     OW11314   2.183   1.285   4.268
 3472SOL    HW111315   2.139   1.205   4.309
 3472SOL    HW211316   2.160   1.290   4.171
 3473SOL     OW11317   5.391   1.726   5.579
 3473SOL    HW111318   5.356   1.655   5.518
 3473SOL    HW211319   5.396   1.690   5.673
 3474SOL     OW11320   3.341   4.858   2.303
 3474SOL    HW111321   3.432   4.829   2.333
 3474SOL    HW211322   3.273   4.821   2.366
 3475SOL     OW11323   1.011   6.706   4.182
 3475SOL    HW111324   0.994   6.802   4.163
 3475SOL    HW211325   0.973   6.650   4.108
 3476SOL     OW11326   4.354   0.784   4.947
 3476SOL    HW111327   4.436   0.770   5.003
 3476SOL    HW211328   4.276   0.803   5.007
 3477SOL     OW11329   3.747   5.774   0.656
 3477SOL    HW111330   3.768   5.767   0.753
 3477SOL    HW211331   3.650   5.793   0.643
 3478SOL     OW11332   3.030   6.348   5.715
 3478SOL    HW111333   3.087   6.312   5.642
 3478SOL    HW211334   3.026   6.282   5.790
 3479SOL     OW11335   0.507   0.520   2.701
 3479SOL    HW111336   0.454   0.498   2.783
 3479SOL    HW211337   0.488   0.615   2.674
 3480SOL     OW11338   6.928   1.382   4.049
 3480SOL    HW111339   6.876   1.413   4.128
 3480SOL    HW211340   7.014   1.433   4.044
 3481SOL     OW11341   3.195   6.797   6.586
 3481SOL    HW111342   3.163   6.758   6.672
 3481SOL    HW211343   3.154   6.748   6.509
 3482SOL     OW11344   6.059   1.751   1.716
 3482SOL    HW111345   6.128   1.820   1.737
 3482SOL    HW211346   6.104   1.665   1.692
 3483SOL     OW11347   2.473   0.246   1.466
 3483SOL    HW111348   2.479   0.149   1.486
 3483SOL    HW211349   2.391   0.264   1.411
 3484SOL     OW11350   3.058   3.124   3.387
 3484SOL    HW111351   3.056   3.106   3.288
 3484SOL    HW211352   3.108   3.051   3.433
 3485SOL     OW11353   2.006   1.673   5.024
 3485SOL    HW111354   2.008   1.628   4.935
 3485SOL    HW211355   1.918   1.720   5.036
 3486SOL     OW11356   4.222   1.494   1.631
 3486SOL    HW111357   4.230   1.549   1.714
 3486SOL    HW211358   4.233   1.553   1.551
 3487SOL     OW11359   5.613   1.642   6.601
 3487SOL    HW111360   5.644   1.578   6.672
 3487SOL    HW211361   5.566   1.719   6.644
 3488SOL     OW11362   6.392   3.540   4.452
 3488SOL    HW111363   6.441   3.537   4.365
 3488SOL    HW211364   6.360   3.448   4.476
 3489SOL     OW11365   3.066   6.984   0.505
 3489SOL    HW111366   3.088   0.045   0.552
 3489SOL    HW211367   2.979   6.994   0.457
 3490SOL     OW11368   5.069   4.187   0.184
 3490SOL    HW111369   5.015   4.105   0.204
 3490SOL    HW211370   5.106   4.224   0.269
 3491SOL     OW11371   0.173   2.812   5.532
 3491SOL    HW111372   0.119   2.872   5.591
 3491SOL    HW211373   0.245   2.768   5.586
 3492SOL     OW11374   0.796   5.840   6.791
 3492SOL    HW111375   0.783   5.913   6.724
 3492SOL    HW211376   0.835   5.879   6.875
 3493SOL     OW11377   6.093   4.913   1.189
 3493SOL    HW111378   6.050   4.988   1.139
 3493SOL    HW211379   6.068   4.918   1.285
 3494SOL     OW11380   4.010   6.948   1.197
 3494SOL    HW111381   3.958   7.007   1.258
 3494SOL    HW211382   3.973   6.855   1.201
 3495SOL     OW11383   4.237   5.296   2.112
 3495SOL    HW111384   4.139   5.313   2.103
 3495SOL    HW211385   4.252   5.213   2.166
 3496SOL     OW11386   1.508   3.405   1.288
 3496SOL    HW111387   1.495   3.467   1.366
 3496SOL    HW211388   1.452   3.436   1.212
 3497SOL     OW11389   4.669   0.732   3.114
 3497SOL    HW111390   4.611   0.761   3.190
 3497SOL    HW211391   4.659   0.797   3.038
 3498SOL     OW11392   2.828   1.294   1.131
 3498SOL    HW111393   2.887   1.359   1.083
 3498SOL    HW211394   2.806   1.330   1.221
 3499SOL     OW11395   0.162   3.634   3.986
 3499SOL    HW111396   0.171   3.721   4.036
 3499SOL    HW211397   0.205   3.643   3.897
 3500SOL     OW11398   6.565   3.862   6.263
 3500SOL    HW111399   6.486   3.862   6.202
 3500SOL    HW211400   6.649   3.851   6.210
 3501SOL     OW11401   1.109   4.842   5.252
 3501SOL    HW111402   1.134   4.755   5.293
 3501SOL    HW211403   1.170   4.861   5.175
 3502SOL     OW11404   0.544   1.848   1.421
 3502SOL    HW111405   0.617   1.834   1.489
 3502SOL    HW211406   0.569   1.804   1.335
 3503SOL     OW11407   4.748   5.536   5.820
 3503SOL    HW111408   4.818   5.588   5.869
 3503SOL    HW211409   4.693   5.484   5.886
 3504SOL     OW11410   2.881   3.860   1.379
 3504SOL    HW111411   2.880   3.767   1.414
 3504SOL    HW211412   2.789   3.885   1.348
 3505SOL     OW11413   5.321   6.147   5.382
 3505SOL    HW111414   5.335   6.129   5.479
 3505SOL    HW211415   5.409   6.142   5.334
 3506SOL     OW11416   4.366   5.528   4.333
 3506SOL    HW111417   4.432   5.551   4.404
 3506SOL    HW211418   4.303   5.459   4.368
 3507SOL     OW11419   1.047   0.384   6.338
 3507SOL    HW111420   0.994   0.430   6.409
 3507SOL    HW211421   1.130   0.436   6.319
 3508SOL     OW11422   5.423   2.700   0.457
 3508SOL    HW111423   5.376   2.777   0.413
 3508SOL    HW211424   5.507   2.733   0.500
 3509SOL     OW11425   6.144   6.321   6.716
 3509SOL    HW111426   6.120   6.396   6.655
 3509SOL    HW211427   6.098   6.333   6.804
 3510SOL     OW11428   1.827   2.137   1.649
 3510SOL    HW111429   1.742   2.084   1.649
 3510SOL    HW211430   1.805   2.234   1.639
 3511SOL     OW11431   1.199   3.095   6.643
 3511SOL    HW111432   1.112   3.050   6.625
 3511SOL    HW211433   1.272   3.027   6.643
 3512SOL     OW11434   1.590   3.425   0.587
 3512SOL    HW111435   1.681   3.401   0.553
 3512SOL    HW211436   1.580   3.525   0.589
 3513SOL     OW11437   6.289   4.330   0.873
 3513SOL    HW111438   6.266   4.239   0.840
 3513SOL    HW211439   6.384   4.352   0.851
 3514SOL     OW11440   0.408   6.812   1.153
 3514SOL    HW111441   0.369   6.731   1.109
 3514SOL    HW211442   0.493   6.788   1.199
 3515SOL     OW11443   3.067   6.039   2.631
 3515SOL    HW111444   2.997   6.097   2.671
 3515SOL    HW211445   3.025   5.961   2.585
 3516SOL     OW11446   3.567   0.911   0.873
 3516SOL    HW111447   3.535   0.817   0.863
 3516SOL    HW211448   3.591   0.927   0.969
 3517SOL     OW11449   0.998   1.573   0.271
 3517SOL    HW111450   0.938   1.503   0.234
 3517SOL    HW211451   1.049   1.535   0.349
 3518SOL     OW11452   4.750   3.719   6.630
 3518SOL    HW111453   4.697   3.804   6.635
 3518SOL    HW211454   4.848   3.741   6.634
 3519SOL     OW11455   0.870   6.670   6.989
 3519SOL    HW111456   0.920   6.752   6.964
 3519SOL    HW211457   0.832   6.681   0.057
 3520SOL     OW11458   3.866   4.519   0.966
 3520SOL    HW111459   3.775   4.479   0.958
 3520SOL    HW211460   3.869   4.579   1.045
 3521SOL     OW11461   5.448   2.657   1.717
 3521SOL    HW111462   5.426   2.566   1.751
 3521SOL    HW211463   5.365   2.703   1.686
 3522SOL     OW11464   2.660   4.823   1.521
 3522SOL    HW111465   2.579   4.768   1.539
 3522SOL    HW211466   2.669   4.893   1.592
 3523SOL     OW11467   3.155   4.814   5.288
 3523SOL    HW111468   3.195   4.873   5.218
 3523SOL    HW211469   3.114   4.734   5.244
 3524SOL     OW11470   2.416   0.185   1.066
 3524SOL    HW111471   2.330   0.234   1.067
 3524SOL    HW211472   2.479   0.225   1.132
 3525SOL     OW11473   0.288   2.690   1.782
 3525SOL    HW111474   0.293   2.785   1.752
 3525SOL    HW211475   0.327   2.631   1.711
 3526SOL     OW11476   0.504   0.681   3.054
 3526SOL    HW111477   0.588   0.710   3.008
 3526SOL    HW211478   0.425   0.722   3.008
 3527SOL     OW11479   5.628   2.927   6.374
 3527SOL    HW111480   5.625   2.899   6.278
 3527SOL    HW211481   5.691   3.004   6.385
 3528SOL     OW11482   0.866   5.671   3.407
 3528SOL    HW111483   0.861   5.664   3.307
 3528SOL    HW211484   0.775   5.654   3.446
 3529SOL     OW11485   4.832   0.154   5.687
 3529SOL    HW111486   4.761   0.148   5.616
 3529SOL    HW211487   4.799   0.110   5.771
 3530SOL     OW11488   2.591   5.535   2.435
 3530SOL    HW111489   2.564   5.614   2.381
 3530SOL    HW211490   2.624   5.565   2.525
 3531SOL     OW11491   5.391   4.362   0.487
 3531SOL    HW111492   5.302   4.333   0.452
 3531SOL    HW211493   5.457   4.366   0.412
 3532SOL     OW11494   2.553   0.633   6.828
 3532SOL    HW111495   2.617   0.708   6.846
 3532SOL    HW211496   2.540   0.580   6.912
 3533SOL     OW11497   0.848   1.802   3.296
 3533SOL    HW111498   0.801   1.782   3.382
 3533SOL    HW211499   0.913   1.877   3.310
 3534SOL     OW11500   5.519   1.545   5.114
 3534SOL    HW111501   5.577   1.580   5.040
 3534SOL    HW211502   5.577   1.519   5.191
 3535SOL     OW11503   6.373   5.363   6.409
 3535SOL    HW111504   6.384   5.377   6.508
 3535SOL    HW211505   6.457   5.392   6.363
 3536SOL     OW11506   2.093   3.209   2.987
 3536SOL    HW111507   2.108   3.192   3.084
 3536SOL    HW211508   2.110   3.305   2.966
 3537SOL     OW11509   2.270   5.794   0.423
 3537SOL    HW111510   2.362   5.823   0.396
 3537SOL    HW211511   2.275   5.712   0.479
 3538SOL     OW11512   3.135   6.587   2.996
 3538SOL    HW111513   3.078   6.667   3.018
 3538SOL    HW211514   3.226   6.618   2.969
 3539SOL     OW11515   5.702   4.880   5.867
 3539SOL    HW111516   5.783   4.895   5.923
 3539SOL    HW211517   5.694   4.783   5.844
 3540SOL     OW11518   2.348   2.910   6.756
 3540SOL    HW111519   2.384   2.935   6.846
 3540SOL    HW211520   2.419   2.919   6.687
 3541SOL     OW11521   2.498   3.121   0.940
 3541SOL    HW111522   2.522   3.098   1.034
 3541SOL    HW211523   2.581   3.132   0.886
 3542SOL     OW11524   5.553   2.787   6.958
 3542SOL    HW111525   5.503   2.763   6.875
 3542SOL    HW211526   5.638   2.835   6.933
 3543SOL     OW11527   1.680   3.337   3.167
 3543SOL    HW111528   1.633   3.385   3.092
 3543SOL    HW211529   1.722   3.254   3.131
 3544SOL     OW11530   3.084   3.916   6.477
 3544SOL    HW111531   3.005   3.916   6.416
 3544SOL    HW211532   3.053   3.904   6.572
 3545SOL     OW11533   3.483   5.737   0.690
 3545SOL    HW111534   3.431   5.794   0.626
 3545SOL    HW211535   3.421   5.703   0.761
 3546SOL     OW11536   6.429   3.464   3.074
 3546SOL    HW111537   6.488   3.495   3.000
 3546SOL    HW211538   6.482   3.458   3.159
 3547SOL     OW11539   0.075   3.170   5.214
 3547SOL    HW111540   0.044   3.094   5.272
 3547SOL    HW211541   0.140   3.136   5.146
 3548SOL     OW11542   5.048   2.023   6.012
 3548SOL    HW111543   4.985   2.100   6.024
 3548SOL    HW211544   4.998   1.943   5.979
 3549SOL     OW11545   2.187   5.922   6.633
 3549SOL    HW111546   2.267   5.872   6.600
 3549SOL    HW211547   2.130   5.860   6.687
 3550SOL     OW11548   5.093   2.105   4.854
 3550SOL    HW111549   5.056   2.063   4.771
 3550SOL    HW211550   5.185   2.139   4.836
 3551SOL     OW11551   3.716   2.644   5.710
 3551SOL    HW111552   3.740   2.631   5.613
 3551SOL    HW211553   3.700   2.555   5.752
 3552SOL     OW11554   6.573   5.714   1.822
 3552SOL    HW111555   6.520   5.630   1.808
 3552SOL    HW211556   6.670   5.694   1.812
 3553SOL     OW11557   3.975   6.083   5.734
 3553SOL    HW111558   4.056   6.106   5.789
 3553SOL    HW211559   3.990   6.113   5.639
 3554SOL     OW11560   4.200   3.740   0.861
 3554SOL    HW111561   4.247   3.818   0.903
 3554SOL    HW211562   4.266   3.667   0.843
 3555SOL     OW11563   1.835   2.370   3.982
 3555SOL    HW111564   1.778   2.381   3.901
 3555SOL    HW211565   1.814   2.283   4.026
 3556SOL     OW11566   3.615   1.089   5.071
 3556SOL    HW111567   3.518   1.093   5.049
 3556SOL    HW211568   3.663   1.164   5.026
 3557SOL     OW11569   0.303   0.369   2.884
 3557SOL    HW111570   0.310   0.333   2.792
 3557SOL    HW211571   0.207   0.381   2.908
 3558SOL     OW11572   3.061   6.215   0.180
 3558SOL    HW111573   3.076   6.173   0.269
 3558SOL    HW211574   2.964   6.211   0.156
 3559SOL     OW11575   3.743   6.528   4.499
 3559SOL    HW111576   3.785   6.498   4.584
 3559SOL    HW211577   3.680   6.457   4.467
 3560SOL     OW11578   2.047   5.500   4.928
 3560SOL    HW111579   1.958   5.502   4.973
 3560SOL    HW211580   2.079   5.406   4.921
 3561SOL     OW11581   5.242   4.475   4.974
 3561SOL    HW111582   5.197   4.387   4.958
 3561SOL    HW211583   5.281   4.509   4.889
 3562SOL     OW11584   2.575   1.714   4.476
 3562SOL    HW111585   2.638   1.653   4.523
 3562SOL    HW211586   2.579   1.696   4.377
 3563SOL     OW11587   5.861   2.081   5.810
 3563SOL    HW111588   5.780   2.104   5.756
 3563SOL    HW211589   5.872   1.982   5.813
 3564SOL     OW11590   0.169   4.468   2.610
 3564SOL    HW111591   0.073   4.457   2.581
 3564SOL    HW211592   0.172   4.493   2.706
 3565SOL     OW11593   3.359   5.002   3.190
 3565SOL    HW111594   3.441   4.945   3.185
 3565SOL    HW211595   3.279   4.947   3.164
 3566SOL     OW11596   6.831   1.420   5.176
 3566SOL    HW111597   6.860   1.406   5.271
 3566SOL    HW211598   6.744   1.374   5.160
 3567SOL     OW11599   0.690   3.586   6.712
 3567SOL    HW111600   0.600   3.623   6.691
 3567SOL    HW211601   0.757   3.626   6.649
 3568SOL     OW11602   6.948   3.976   5.609
 3568SOL    HW111603   6.902   3.924   5.537
 3568SOL    HW211604   0.023   3.958   5.605
 3569SOL     OW11605   2.666   1.628   5.831
 3569SOL    HW111606   2.652   1.711   5.777
 3569SOL    HW211607   2.605   1.629   5.911
 3570SOL     OW11608   5.589   0.660   4.596
 3570SOL    HW111609   5.674   0.678   4.545
 3570SOL    HW211610   5.529   0.739   4.588
 3571SOL     OW11611   6.834   5.988   6.684
 3571SOL    HW111612   6.851   5.985   6.586
 3571SOL    HW211613   6.735   5.994   6.701
 3572SOL     OW11614   5.632   3.787   3.784
 3572SOL    HW111615   5.603   3.723   3.713
 3572SOL    HW211616   5.570   3.866   3.786
 3573SOL     OW11617   0.784   4.476   4.578
 3573SOL    HW111618   0.686   4.494   4.572
 3573SOL    HW211619   0.822   4.461   4.487
 3574SOL     OW11620   0.555   5.029   0.315
 3574SOL    HW111621   0.462   5.065   0.317
 3574SOL    HW211622   0.553   4.933   0.287
 3575SOL     OW11623   6.219   5.212   3.096
 3575SOL    HW111624   6.181   5.154   3.024
 3575SOL    HW211625   6.156   5.215   3.173
 3576SOL     OW11626   1.498   1.226   5.946
 3576SOL    HW111627   1.438   1.233   5.866
 3576SOL    HW211628   1.577   1.170   5.923
 3577SOL     OW11629   1.053   2.531   6.602
 3577SOL    HW111630   1.042   2.507   6.506
 3577SOL    HW211631   1.020   2.456   6.659
 3578SOL     OW11632   3.665   3.867   6.719
 3578SOL    HW111633   3.724   3.879   6.639
 3578SOL    HW211634   3.679   3.776   6.757
 3579SOL     OW11635   6.770   3.839   5.011
 3579SOL    HW111636   6.699   3.895   4.968
 3579SOL    HW211637   6.734   3.747   5.029
 3580SOL     OW11638   5.621   2.163   1.559
 3580SOL    HW111639   5.688   2.090   1.573
 3580SOL    HW211640   5.668   2.244   1.523
 3581SOL     OW11641   6.736   0.413   3.355
 3581SOL    HW111642   6.829   0.416   3.318
 3581SOL    HW211643   6.728   0.338   3.420
 3582SOL     OW11644   1.032   1.819   5.623
 3582SOL    HW111645   1.074   1.741   5.669
 3582SOL    HW211646   0.999   1.884   5.691
 3583SOL     OW11647   0.979   4.304   0.019
 3583SOL    HW111648   0.995   4.205   0.016
 3583SOL    HW211649   0.997   4.337   0.112
 3584SOL     OW11650   6.180   6.375   6.215
 3584SOL    HW111651   6.128   6.301   6.173
 3584SOL    HW211652   6.246   6.412   6.149
 3585SOL     OW11653   3.869   4.985   4.938
 3585SOL    HW111654   3.771   4.998   4.956
 3585SOL    HW211655   3.911   5.072   4.912
 3586SOL     OW11656   6.082   3.045   5.508
 3586SOL    HW111657   6.155   3.083   5.565
 3586SOL    HW211658   6.019   2.992   5.566
 3587SOL     OW11659   2.863   6.598   1.304
 3587SOL    HW111660   2.813   6.580   1.220
 3587SOL    HW211661   2.798   6.605   1.380
 3588SOL     OW11662   1.257   2.156   5.337
 3588SOL    HW111663   1.233   2.066   5.375
 3588SOL    HW211664   1.196   2.176   5.261
 3589SOL     OW11665   3.391   0.793   4.294
 3589SOL    HW111666   3.336   0.861   4.345
 3589SOL    HW211667   3.453   0.841   4.232
 3590SOL     OW11668   0.650   4.771   6.351
 3590SOL    HW111669   0.627   4.803   6.259
 3590SOL    HW211670   0.734   4.716   6.347
 3591SOL     OW11671   5.772   3.168   6.329
 3591SOL    HW111672   5.754   3.265   6.313
 3591SOL    HW211673   5.850   3.158   6.390
 3592SOL     OW11674   5.125   2.888   3.320
 3592SOL    HW111675   5.132   2.907   3.222
 3592SOL    HW211676   5.176   2.804   3.341
 3593SOL     OW11677   2.417   6.550   4.462
 3593SOL    HW111678   2.388   6.645   4.474
 3593SOL    HW211679   2.497   6.547   4.402
 3594SOL     OW11680   3.054   1.060   3.241
 3594SOL    HW111681   3.133   0.999   3.244
 3594SOL    HW211682   2.976   1.016   3.286
 3595SOL     OW11683   2.694   6.395   5.015
 3595SOL    HW111684   2.663   6.489   5.007
 3595SOL    HW211685   2.617   6.335   5.037
 3596SOL     OW11686   6.205   1.268   2.698
 3596SOL    HW111687   6.261   1.206   2.643
 3596SOL    HW211688   6.157   1.332   2.638
 3597SOL     OW11689   3.460   6.210   4.588
 3597SOL    HW111690   3.425   6.117   4.595
 3597SOL    HW211691   3.486   6.228   4.493
 3598SOL     OW11692   0.843   0.660   5.434
 3598SOL    HW111693   0.900   0.615   5.502
 3598SOL    HW211694   0.773   0.597   5.401
 3599SOL     OW11695   0.938   1.747   5.935
 3599SOL    HW111696   1.028   1.731   5.894
 3599SOL    HW211697   0.906   1.839   5.912
 3600SOL     OW11698   6.882   3.192   0.403
 3600SOL    HW111699   6.823   3.237   0.470
 3600SOL    HW211700   6.924   3.111   0.444
 3601SOL     OW11701   6.844   4.312   0.752
 3601SOL    HW111702   6.925   4.276   0.706
 3601SOL    HW211703   6.762   4.276   0.706
 3602SOL     OW11704   2.113   1.092   0.626
 3602SOL    HW111705   2.136   1.134   0.714
 3602SOL    HW211706   2.047   1.019   0.639
 3603SOL     OW11707   4.020   5.628   4.296
 3603SOL    HW111708   4.057   5.637   4.204
 3603SOL    HW211709   4.034   5.713   4.347
 3604SOL     OW11710   0.042   3.184   2.719
 3604SOL    HW111711   0.045   3.282   2.736
 3604SOL    HW211712   0.110   3.160   2.650
 3605SOL     OW11713   6.390   4.508   5.868
 3605SOL    HW111714   6.448   4.455   5.806
 3605SOL    HW211715   6.444   4.538   5.947
 3606SOL     OW11716   0.462   5.071   6.063
 3606SOL    HW111717   0.550   5.119   6.067
 3606SOL    HW211718   0.478   4.976   6.036
 3607SOL     OW11719   5.252   0.179   0.501
 3607SOL    HW111720   5.276   0.175   0.598
 3607SOL    HW211721   5.331   0.149   0.446
 3608SOL     OW11722   6.782   1.650   1.895
 3608SOL    HW111723   6.866   1.639   1.842
 3608SOL    HW211724   6.758   1.563   1.939
 3609SOL     OW11725   6.324   0.963   4.228
 3609SOL    HW111726   6.422   0.950   4.245
 3609SOL    HW211727   6.310   1.053   4.186
 3610SOL     OW11728   0.816   0.715   4.970
 3610SOL    HW111729   0.871   0.796   4.990
 3610SOL    HW211730   0.822   0.694   4.873
 3611SOL     OW11731   3.609   4.925   5.185
 3611SOL    HW111732   3.606   4.915   5.086
 3611SOL    HW211733   3.678   4.865   5.224
 3612SOL     OW11734   0.531   6.544   6.157
 3612SOL    HW111735   0.593   6.580   6.087
 3612SOL    HW211736   0.450   6.506   6.113
 3613SOL     OW11737   5.228   4.873   0.990
 3613SOL    HW111738   5.158   4.938   1.018
 3613SOL    HW211739   5.239   4.803   1.061
 3614SOL     OW11740   3.655   3.577   3.918
 3614SOL    HW111741   3.568   3.564   3.966
 3614SOL    HW211742   3.657   3.668   3.876
 3615SOL     OW11743   5.990   6.180   6.168
 3615SOL    HW111744   5.975   6.230   6.083
 3615SOL    HW211745   5.925   6.213   6.237
 3616SOL     OW11746   6.339   2.174   6.555
 3616SOL    HW111747   6.374   2.152   6.464
 3616SOL    HW211748   6.344   2.092   6.613
 3617SOL     OW11749   5.360   1.698   6.119
 3617SOL    HW111750   5.418   1.708   6.199
 3617SOL    HW211751   5.392   1.621   6.064
 3618SOL     OW11752   1.437   1.973   5.228
 3618SOL    HW111753   1.375   2.031   5.280
 3618SOL    HW211754   1.460   1.892   5.282
 3619SOL     OW11755   6.475   1.789   3.829
 3619SOL    HW111756   6.543   1.754   3.765
 3619SOL    HW211757   6.500   1.881   3.859
 3620SOL     OW11758   5.965   5.925   6.032
 3620SOL    HW111759   5.964   6.007   6.090
 3620SOL    HW211760   5.887   5.867   6.054
 3621SOL     OW11761   2.803   2.202   6.323
 3621SOL    HW111762   2.849   2.273   6.270
 3621SOL    HW211763   2.847   2.194   6.413
 3622SOL     OW11764   1.667   1.716   3.353
 3622SOL    HW111765   1.702   1.623   3.364
 3622SOL    HW211766   1.683   1.747   3.260
 3623SOL     OW11767   6.106   5.237   3.773
 3623SOL    HW111768   6.178   5.269   3.835
 3623SOL    HW211769   6.051   5.314   3.742
 3624SOL     OW11770   2.066   5.641   2.456
 3624SOL    HW111771   1.985   5.674   2.503
 3624SOL    HW211772   2.094   5.708   2.387
 3625SOL     OW11773   6.329   3.228   6.464
 3625SOL    HW111774   6.310   3.184   6.552
 3625SOL    HW211775   6.252   3.287   6.440
 3626SOL     OW11776   2.172   3.785   5.743
 3626SOL    HW111777   2.156   3.716   5.673
 3626SOL    HW211778   2.268   3.813   5.741
 3627SOL     OW11779   4.143   3.625   3.465
 3627SOL    HW111780   4.179   3.568   3.391
 3627SOL    HW211781   4.117   3.714   3.428
 3628SOL     OW11782   1.807   6.516   1.974
 3628SOL    HW111783   1.711   6.498   1.992
 3628SOL    HW211784   1.842   6.583   2.041
 3629SOL     OW11785   6.506   2.481   4.742
 3629SOL    HW111786   6.420   2.506   4.786
 3629SOL    HW211787   6.538   2.393   4.777
 3630SOL     OW11788   5.813   3.092   3.923
 3630SOL    HW111789   5.908   3.064   3.912
 3630SOL    HW211790   5.771   3.102   3.832
 3631SOL     OW11791   1.551   0.280   4.152
 3631SOL    HW111792   1.503   0.279   4.240
 3631SOL    HW211793   1.500   0.225   4.085
 3632SOL     OW11794   5.396   0.507   0.772
 3632SOL    HW111795   5.439   0.525   0.860
 3632SOL    HW211796   5.368   0.593   0.730
 3633SOL     OW11797   2.969   2.109   6.034
 3633SOL    HW111798   2.940   2.202   6.056
 3633SOL    HW211799   2.910   2.072   5.962
 3634SOL     OW11800   0.672   5.445   5.197
 3634SOL    HW111801   0.645   5.522   5.255
 3634SOL    HW211802   0.717   5.479   5.115
 3635SOL     OW11803   3.661   0.203   5.042
 3635SOL    HW111804   3.737   0.147   5.074
 3635SOL    HW211805   3.683   0.300   5.054
 3636SOL     OW11806   0.870   6.456   5.631
 3636SOL    HW111807   0.816   6.430   5.711
 3636SOL    HW211808   0.886   6.375   5.574
 3637SOL     OW11809   6.405   1.944   1.147
 3637SOL    HW111810   6.341   1.994   1.206
 3637SOL    HW211811   6.381   1.959   1.051
 3638SOL     OW11812   6.636   4.657   4.047
 3638SOL    HW111813   6.687   4.743   4.038
 3638SOL    HW211814   6.700   4.583   4.066
 3639SOL     OW11815   4.362   3.900   1.019
 3639SOL    HW111816   4.372   3.990   0.978
 3639SOL    HW211817   4.452   3.866   1.049
 3640SOL     OW11818   3.507   6.547   6.574
 3640SOL    HW111819   3.468   6.635   6.602
 3640SOL    HW211820   3.569   6.561   6.497
 3641SOL     OW11821   4.510   2.494   4.938
 3641SOL    HW111822   4.541   2.402   4.914
 3641SOL    HW211823   4.439   2.489   5.007
 3642SOL     OW11824   5.108   1.809   5.746
 3642SOL    HW111825   5.188   1.840   5.797
 3642SOL    HW211826   5.093   1.870   5.668
 3643SOL     OW11827   2.677   6.038   4.878
 3643SOL    HW111828   2.600   6.069   4.822
 3643SOL    HW211829   2.680   5.939   4.879
 3644SOL     OW11830   0.015   1.291   1.634
 3644SOL    HW111831   6.995   1.202   1.625
 3644SOL    HW211832   7.014   1.332   1.722
 3645SOL     OW11833   5.220   0.913   4.094
 3645SOL    HW111834   5.177   0.997   4.128
 3645SOL    HW211835   5.245   0.926   3.998
 3646SOL     OW11836   0.113   5.116   6.201
 3646SOL    HW111837   0.090   5.167   6.285
 3646SOL    HW211838   0.209   5.130   6.179
 3647SOL     OW11839   1.899   4.162   0.745
 3647SOL    HW111840   1.966   4.182   0.673
 3647SOL    HW211841   1.899   4.064   0.765
 3648SOL     OW11842   3.395   6.061   2.782
 3648SOL    HW111843   3.332   6.002   2.833
 3648SOL    HW211844   3.358   6.077   2.690
 3649SOL     OW11845   4.563   2.999   1.450
 3649SOL    HW111846   4.536   2.903   1.455
 3649SOL    HW211847   4.530   3.047   1.530
 3650SOL     OW11848   6.963   5.573   0.922
 3650SOL    HW111849   6.922   5.663   0.935
 3650SOL    HW211850   6.950   5.544   0.827
 3651SOL     OW11851   0.527   5.781   2.912
 3651SOL    HW111852   0.596   5.713   2.887
 3651SOL    HW211853   0.461   5.740   2.975
 3652SOL     OW11854   5.092   5.933   3.462
 3652SOL    HW111855   5.088   5.833   3.470
 3652SOL    HW211856   5.038   5.974   3.536
 3653SOL     OW11857   6.667   0.839   3.616
 3653SOL    HW111858   6.696   0.763   3.674
 3653SOL    HW211859   6.744   0.870   3.560
 3654SOL     OW11860   2.018   6.960   6.933
 3654SOL    HW111861   1.962   7.014   6.996
 3654SOL    HW211862   1.972   6.874   6.913
 3655SOL     OW11863   1.129   0.056   3.902
 3655SOL    HW111864   1.157   7.014   3.832
 3655SOL    HW211865   1.133   0.149   3.865
 3656SOL     OW11866   1.488   3.302   1.639
 3656SOL    HW111867   1.466   3.338   1.730
 3656SOL    HW211868   1.421   3.232   1.614
 3657SOL     OW11869   4.954   5.696   5.912
 3657SOL    HW111870   4.992   5.786   5.892
 3657SOL    HW211871   4.989   5.665   6.001
 3658SOL     OW11872   1.424   5.621   3.961
 3658SOL    HW111873   1.407   5.562   3.882
 3658SOL    HW211874   1.341   5.627   4.016
 3659SOL     OW11875   3.242   3.586   5.716
 3659SOL    HW111876   3.228   3.569   5.618
 3659SOL    HW211877   3.312   3.523   5.751
 3660SOL     OW11878   4.988   6.238   1.937
 3660SOL    HW111879   4.967   6.306   2.007
 3660SOL    HW211880   5.032   6.159   1.979
 3661SOL     OW11881   4.796   2.129   6.421
 3661SOL    HW111882   4.802   2.146   6.519
 3661SOL    HW211883   4.885   2.148   6.379
 3662SOL     OW11884   3.692   0.702   3.914
 3662SOL    HW111885   3.596   0.708   3.942
 3662SOL    HW211886   3.699   0.643   3.833
 3663SOL     OW11887   1.562   1.372   0.223
 3663SOL    HW111888   1.557   1.447   0.289
 3663SOL    HW211889   1.566   1.284   0.272
 3664SOL     OW11890   4.981   2.366   1.443
 3664SOL    HW111891   5.036   2.441   1.480
 3664SOL    HW211892   5.041   2.294   1.407
 3665SOL     OW11893   0.597   6.289   5.623
 3665SOL    HW111894   0.608   6.337   5.710
 3665SOL    HW211895   0.686   6.254   5.593
 3666SOL     OW11896   1.965   3.927   3.117
 3666SOL    HW111897   1.913   4.012   3.103
 3666SOL    HW211898   1.940   3.887   3.205
 3667SOL     OW11899   6.560   0.213   0.257
 3667SOL    HW111900   6.514   0.275   0.321
 3667SOL    HW211901   6.638   0.260   0.216
 3668SOL     OW11902   1.440   0.216   1.770
 3668SOL    HW111903   1.366   0.283   1.782
 3668SOL    HW211904   1.455   0.200   1.673
 3669SOL     OW11905   6.296   1.285   4.769
 3669SOL    HW111906   6.287   1.193   4.808
 3669SOL    HW211907   6.210   1.335   4.784
 3670SOL     OW11908   2.060   4.925   0.671
 3670SOL    HW111909   2.057   4.994   0.598
 3670SOL    HW211910   1.978   4.868   0.666
 3671SOL     OW11911   6.132   0.413   3.506
 3671SOL    HW111912   6.076   0.380   3.430
 3671SOL    HW211913   6.110   0.362   3.589
 3672SOL     OW11914   5.565   1.671   1.096
 3672SOL    HW111915   5.524   1.591   1.140
 3672SOL    HW211916   5.608   1.729   1.166
 3673SOL     OW11917   3.400   0.689   5.955
 3673SOL    HW111918   3.345   0.770   5.932
 3673SOL    HW211919   3.362   0.610   5.907
 3674SOL     OW11920   0.454   0.628   5.617
 3674SOL    HW111921   0.446   0.696   5.544
 3674SOL    HW211922   0.393   0.552   5.599
 3675SOL     OW11923   1.836   3.184   5.096
 3675SOL    HW111924   1.792   3.142   5.176
 3675SOL    HW211925   1.929   3.213   5.120
 3676SOL     OW11926   4.296   4.870   4.344
 3676SOL    HW111927   4.286   4.807   4.267
 3676SOL    HW211928   4.225   4.851   4.412
 3677SOL     OW11929   1.310   6.313   2.985
 3677SOL    HW111930   1.250   6.265   2.921
 3677SOL    HW211931   1.327   6.406   2.952
 3678SOL     OW11932   0.963   3.225   3.987
 3678SOL    HW111933   0.865   3.229   4.008
 3678SOL    HW211934   1.015   3.232   4.071
 3679SOL     OW11935   0.972   0.916   3.068
 3679SOL    HW111936   1.063   0.945   3.097
 3679SOL    HW211937   0.903   0.965   3.121
 3680SOL     OW11938   5.984   2.640   3.239
 3680SOL    HW111939   5.918   2.682   3.176
 3680SOL    HW211940   5.935   2.591   3.311
 3681SOL     OW11941   0.370   0.445   5.217
 3681SOL    HW111942   0.422   0.524   5.249
 3681SOL    HW211943   0.414   0.408   5.135
 3682SOL     OW11944   6.665   2.583   6.053
 3682SOL    HW111945   6.579   2.620   6.017
 3682SOL    HW211946   6.671   2.603   6.151
 3683SOL     OW11947   0.132   0.470   4.446
 3683SOL    HW111948   0.185   0.387   4.464
 3683SOL    HW211949   0.094   0.503   4.532
 3684SOL     OW11950   1.848   3.912   0.370
 3684SOL    HW111951   1.765   3.962   0.348
 3684SOL    HW211952   1.902   3.965   0.436
 3685SOL     OW11953   6.476   6.213   6.152
 3685SOL    HW111954   6.554   6.172   6.105
 3685SOL    HW211955   6.391   6.179   6.112
 3686SOL     OW11956   6.315   5.352   3.516
 3686SOL    HW111957   6.222   5.317   3.518
 3686SOL    HW211958   6.366   5.306   3.443
 3687SOL     OW11959   3.138   6.023   5.361
 3687SOL    HW111960   3.052   5.974   5.348
 3687SOL    HW211961   3.208   5.984   5.301
 3688SOL     OW11962   1.645   3.699   6.851
 3688SOL    HW111963   1.555   3.670   6.881
 3688SOL    HW211964   1.710   3.690   6.926
 3689SOL     OW11965   1.334   0.546   6.102
 3689SOL    HW111966   1.281   0.482   6.047
 3689SOL    HW211967   1.338   0.514   6.197
 3690SOL     OW11968   3.681   0.069   6.319
 3690SOL    HW111969   3.615   0.113   6.257
 3690SOL    HW211970   3.774   0.082   6.284
 3691SOL     OW11971   2.355   2.750   0.355
 3691SOL    HW111972   2.305   2.670   0.386
 3691SOL    HW211973   2.310   2.789   0.274
 3692SOL     OW11974   1.177   5.972   5.203
 3692SOL    HW111975   1.123   5.888   5.208
 3692SOL    HW211976   1.213   5.995   5.293
 3693SOL     OW11977   2.071   2.774   2.377
 3693SOL    HW111978   2.080   2.833   2.458
 3693SOL    HW211979   2.161   2.754   2.339
 3694SOL     OW11980   1.150   5.812   2.459
 3694SOL    HW111981   1.099   5.774   2.536
 3694SOL    HW211982   1.216   5.745   2.426
 3695SOL     OW11983   0.263   2.755   2.469
 3695SOL    HW111984   0.255   2.713   2.379
 3695SOL    HW211985   0.345   2.811   2.472
 3696SOL     OW11986   4.281   5.559   5.292
 3696SOL    HW111987   4.236   5.581   5.379
 3696SOL    HW211988   4.266   5.463   5.270
 3697SOL     OW11989   0.226   5.471   3.472
 3697SOL    HW111990   0.247   5.415   3.552
 3697SOL    HW211991   0.233   5.416   3.389
 3698SOL     OW11992   3.580   6.333   4.791
 3698SOL    HW111993   3.565   6.431   4.773
 3698SOL    HW211994   3.550   6.280   4.713
 3699SOL     OW11995   6.557   3.649   2.769
 3699SOL    HW111996   6.506   3.601   2.697
 3699SOL    HW211997   6.598   3.732   2.731
 3700SOL     OW11998   6.563   0.845   4.311
 3700SOL    HW111999   6.624   0.921   4.287
 3700SOL    HW212000   6.589   0.764   4.259
 3701SOL     OW12001   0.797   1.005   3.529
 3701SOL    HW112002   0.758   0.932   3.473
 3701SOL    HW212003   0.827   1.080   3.469
 3702SOL     OW12004   4.061   0.449   2.293
 3702SOL    HW112005   4.132   0.492   2.349
 3702SOL    HW212006   4.019   0.375   2.344
 3703SOL     OW12007   4.691   2.693   6.503
 3703SOL    HW112008   4.622   2.675   6.574
 3703SOL    HW212009   4.741   2.608   6.484
 3704SOL     OW12010   3.111   0.196   1.262
 3704SOL    HW112011   3.063   0.109   1.249
 3704SOL    HW212012   3.180   0.186   1.334
 3705SOL     OW12013   4.919   6.272   4.015
 3705SOL    HW112014   4.984   6.291   3.941
 3705SOL    HW212015   4.862   6.353   4.031
 3706SOL     OW12016   0.747   3.541   4.709
 3706SOL    HW112017   0.793   3.609   4.652
 3706SOL    HW212018   0.662   3.513   4.666
 3707SOL     OW12019   5.691   3.907   5.196
 3707SOL    HW112020   5.685   3.858   5.109
 3707SOL    HW212021   5.720   4.001   5.179
 3708SOL     OW12022   5.934   0.963   6.511
 3708SOL    HW112023   5.854   0.972   6.569
 3708SOL    HW212024   5.971   0.871   6.519
 3709SOL     OW12025   3.749   0.598   0.289
 3709SOL    HW112026   3.663   0.645   0.270
 3709SOL    HW212027   3.817   0.664   0.319
 3710SOL     OW12028   6.598   5.870   0.335
 3710SOL    HW112029   6.665   5.798   0.357
 3710SOL    HW212030   6.642   5.940   0.279
 3711SOL     OW12031   6.958   6.184   2.037
 3711SOL    HW112032   6.979   6.130   1.956
 3711SOL    HW212033   7.021   6.160   2.110
 3712SOL     OW12034   6.698   6.369   6.746
 3712SOL    HW112035   6.767   6.331   6.808
 3712SOL    HW212036   6.738   6.379   6.655
 3713SOL     OW12037   1.409   6.323   4.477
 3713SOL    HW112038   1.425   6.302   4.380
 3713SOL    HW212039   1.345   6.257   4.515
 3714SOL     OW12040   4.608   6.053   4.807
 3714SOL    HW112041   4.634   6.061   4.711
 3714SOL    HW212042   4.583   5.959   4.828
 3715SOL     OW12043   6.187   4.198   4.424
 3715SOL    HW112044   6.193   4.183   4.325
 3715SOL    HW212045   6.168   4.111   4.469
 3716SOL     OW12046   6.260   0.226   5.164
 3716SOL    HW112047   6.214   0.264   5.084
 3716SOL    HW212048   6.307   0.141   5.137
 3717SOL     OW12049   6.251   4.987   6.433
 3717SOL    HW112050   6.162   5.019   6.467
 3717SOL    HW212051   6.312   5.066   6.421
 3718SOL     OW12052   2.622   7.005   5.287
 3718SOL    HW112053   2.662   0.031   5.210
 3718SOL    HW212054   2.661   6.913   5.290
 3719SOL     OW12055   4.957   4.337   0.805
 3719SOL    HW112056   5.012   4.371   0.882
 3719SOL    HW212057   4.986   4.382   0.721
 3720SOL     OW12058   5.538   2.143   5.993
 3720SOL    HW112059   5.448   2.117   6.028
 3720SOL    HW212060   5.586   2.062   5.959
 3721SOL     OW12061   5.069   4.453   0.579
 3721SOL    HW112062   5.139   4.505   0.627
 3721SOL    HW212063   4.989   4.511   0.565
 3722SOL     OW12064   0.114   0.142   2.530
 3722SOL    HW112065   0.108   0.075   2.456
 3722SOL    HW212066   0.024   0.183   2.546
 3723SOL     OW12067   6.572   6.110   1.727
 3723SOL    HW112068   6.619   6.163   1.798
 3723SOL    HW212069   6.636   6.046   1.685
 3724SOL     OW12070   2.510   5.202   6.681
 3724SOL    HW112071   2.411   5.203   6.692
 3724SOL    HW212072   2.534   5.139   6.606
 3725SOL     OW12073   5.069   6.242   0.143
 3725SOL    HW112074   5.075   6.320   0.080
 3725SOL    HW212075   5.112   6.267   0.230
 3726SOL     OW12076   6.431   4.999   0.997
 3726SOL    HW112077   6.418   4.924   1.062
 3726SOL    HW212078   6.367   5.073   1.018
 3727SOL     OW12079   6.991   3.285   5.654
 3727SOL    HW112080   6.903   3.248   5.623
 3727SOL    HW212081   6.994   3.284   5.754
 3728SOL     OW12082   1.864   4.077   7.003
 3728SOL    HW112083   1.924   4.112   6.932
 3728SOL    HW212084   1.776   4.050   6.963
 3729SOL     OW12085   1.382   2.761   3.634
 3729SOL    HW112086   1.426   2.727   3.717
 3729SOL    HW212087   1.404   2.702   3.557
 3730SOL     OW12088   3.002   5.940   6.609
 3730SOL    HW112089   3.086   5.969   6.655
 3730SOL    HW212090   3.001   5.841   6.600
 3731SOL     OW12091   4.709   0.118   0.413
 3731SOL    HW112092   4.644   0.099   0.340
 3731SOL    HW212093   4.724   0.035   0.467
 3732SOL     OW12094   1.728   3.014   0.040
 3732SOL    HW112095   1.637   3.055   0.045
 3732SOL    HW212096   1.738   2.964   6.978
 3733SOL     OW12097   1.443   3.771   1.073
 3733SOL    HW112098   1.451   3.857   1.022
 3733SOL    HW212099   1.403   3.789   1.163
 3734SOL     OW12100   4.315   1.649   1.948
 3734SOL    HW112101   4.275   1.740   1.963
 3734SOL    HW212102   4.241   1.582   1.936
 3735SOL     OW12103   1.695   1.882   3.560
 3735SOL    HW112104   1.748   1.958   3.524
 3735SOL    HW212105   1.668   1.820   3.486
 3736SOL     OW12106   6.978   3.360   0.700
 3736SOL    HW112107   7.020   3.274   0.670
 3736SOL    HW212108   6.880   3.358   0.678
 3737SOL     OW12109   5.644   6.952   2.833
 3737SOL    HW112110   5.736   6.926   2.804
 3737SOL    HW212111   5.584   6.872   2.832
 3738SOL     OW12112   6.560   6.426   3.441
 3738SOL    HW112113   6.558   6.525   3.424
 3738SOL    HW212114   6.466   6.393   3.456
 3739SOL     OW12115   1.825   4.580   1.998
 3739SOL    HW112116   1.789   4.487   2.002
 3739SOL    HW212117   1.829   4.611   1.903
 3740SOL     OW12118   4.763   0.292   0.133
 3740SOL    HW112119   4.691   0.224   0.144
 3740SOL    HW212120   4.776   0.341   0.220
 3741SOL     OW12121   4.487   3.134   1.648
 3741SOL    HW112122   4.436   3.220   1.655
 3741SOL    HW212123   4.521   3.108   1.739
 3742SOL     OW12124   2.756   1.953   5.345
 3742SOL    HW112125   2.755   2.050   5.368
 3742SOL    HW212126   2.680   1.931   5.284
 3743SOL     OW12127   5.331   4.314   1.282
 3743SOL    HW112128   5.273   4.242   1.243
 3743SOL    HW212129   5.427   4.288   1.273
 3744SOL     OW12130   0.758   5.659   3.129
 3744SOL    HW112131   0.694   5.583   3.131
 3744SOL    HW212132   0.710   5.744   3.150
 3745SOL     OW12133   3.318   5.563   2.200
 3745SOL    HW112134   3.315   5.519   2.289
 3745SOL    HW212135   3.390   5.633   2.200
 3746SOL     OW12136   4.346   1.531   2.493
 3746SOL    HW112137   4.349   1.564   2.398
 3746SOL    HW212138   4.257   1.553   2.532
 3747SOL     OW12139   3.397   0.313   5.926
 3747SOL    HW112140   3.470   0.272   5.870
 3747SOL    HW212141   3.350   0.383   5.873
 3748SOL     OW12142   5.197   0.585   1.942
 3748SOL    HW112143   5.267   0.597   1.871
 3748SOL    HW212144   5.111   0.556   1.899
 3749SOL     OW12145   1.137   6.622   3.838
 3749SOL    HW112146   1.182   6.647   3.924
 3749SOL    HW212147   1.175   6.536   3.805
 3750SOL     OW12148   2.323   4.539   0.106
 3750SOL    HW112149   2.387   4.567   0.035
 3750SOL    HW212150   2.374   4.518   0.190
 3751SOL     OW12151   6.357   3.818   2.443
 3751SOL    HW112152   6.319   3.743   2.388
 3751SOL    HW212153   6.339   3.905   2.397
 3752SOL     OW12154   5.191   0.793   5.325
 3752SOL    HW112155   5.160   0.798   5.230
 3752SOL    HW212156   5.172   0.702   5.361
 3753SOL     OW12157   6.121   0.336   4.952
 3753SOL    HW112158   6.049   0.278   4.915
 3753SOL    HW212159   6.192   0.349   4.883
 3754SOL     OW12160   2.187   0.572   1.999
 3754SOL    HW112161   2.166   0.653   1.944
 3754SOL    HW212162   2.162   0.589   2.094
 3755SOL     OW12163   3.500   5.640   5.086
 3755SOL    HW112164   3.555   5.568   5.045
 3755SOL    HW212165   3.414   5.602   5.119
 3756SOL     OW12166   3.124   5.412   6.524
 3756SOL    HW112167   3.050   5.356   6.562
 3756SOL    HW212168   3.206   5.400   6.579
 3757SOL     OW12169   6.379   5.320   1.880
 3757SOL    HW112170   6.467   5.273   1.870
 3757SOL    HW212171   6.304   5.257   1.860
 3758SOL     OW12172   2.105   1.223   4.675
 3758SOL    HW112173   2.174   1.184   4.615
 3758SOL    HW212174   2.147   1.294   4.732
 3759SOL     OW12175   4.119   0.914   5.436
 3759SOL    HW112176   4.170   0.835   5.472
 3759SOL    HW212177   4.027   0.885   5.410
 3760SOL     OW12178   0.051   0.119   3.240
 3760SOL    HW112179   0.115   0.043   3.222
 3760SOL    HW212180   6.993   0.083   3.285
 3761SOL     OW12181   6.524   1.086   4.558
 3761SOL    HW112182   6.432   1.061   4.589
 3761SOL    HW212183   6.521   1.111   4.462
 3762SOL     OW12184   1.485   4.142   2.584
 3762SOL    HW112185   1.476   4.114   2.489
 3762SOL    HW212186   1.395   4.171   2.619
 3763SOL     OW12187   6.270   3.780   0.440
 3763SOL    HW112188   6.177   3.746   0.454
 3763SOL    HW212189   6.267   3.879   0.426
 3764SOL     OW12190   1.699   0.705   2.948
 3764SOL    HW112191   1.644   0.715   2.865
 3764SOL    HW212192   1.661   0.632   3.004
 3765SOL     OW12193   5.918   1.741   1.436
 3765SOL    HW112194   5.972   1.745   1.520
 3765SOL    HW212195   5.978   1.728   1.358
 3766SOL     OW12196   1.774   2.086   4.319
 3766SOL    HW112197   1.867   2.117   4.302
 3766SOL    HW212198   1.752   2.098   4.416
 3767SOL     OW12199   3.626   4.344   6.068
 3767SOL    HW112200   3.679   4.330   6.152
 3767SOL    HW212201   3.535   4.303   6.079
 3768SOL     OW12202   1.323   0.741   4.263
 3768SOL    HW112203   1.369   0.668   4.214
 3768SOL    HW212204   1.235   0.709   4.296
 3769SOL     OW12205   5.758   5.745   5.535
 3769SOL    HW112206   5.826   5.816   5.519
 3769SOL    HW212207   5.692   5.744   5.459
 3770SOL     OW12208   1.078   1.146   6.832
 3770SOL    HW112209   1.147   1.216   6.848
 3770SOL    HW212210   1.058   1.141   6.734
 3771SOL     OW12211   5.795   4.212   0.124
 3771SOL    HW112212   5.883   4.200   0.170
 3771SOL    HW212213   5.790   4.304   0.085
 3772SOL     OW12214   1.321   0.075   0.223
 3772SOL    HW112215   1.300   0.134   0.145
 3772SOL    HW212216   1.420   0.063   0.230
 3773SOL     OW12217   5.383   3.853   5.502
 3773SOL    HW112218   5.346   3.945   5.487
 3773SOL    HW212219   5.308   3.788   5.509
 3774SOL     OW12220   5.731   4.853   1.645
 3774SOL    HW112221   5.724   4.764   1.599
 3774SOL    HW212222   5.740   4.839   1.744
 3775SOL     OW12223   3.914   4.992   3.430
 3775SOL    HW112224   3.827   4.943   3.424
 3775SOL    HW212225   3.935   5.010   3.526
 3776SOL     OW12226   3.765   2.873   6.391
 3776SOL    HW112227   3.825   2.948   6.420
 3776SOL    HW212228   3.727   2.829   6.472
 3777SOL     OW12229   2.528   6.034   3.621
 3777SOL    HW112230   2.576   5.947   3.637
 3777SOL    HW212231   2.463   6.050   3.694
 3778SOL     OW12232   1.816   6.348   3.885
 3778SOL    HW112233   1.762   6.321   3.805
 3778SOL    HW212234   1.829   6.269   3.945
 3779SOL     OW12235   0.078   5.035   0.539
 3779SOL    HW112236   0.150   5.007   0.602
 3779SOL    HW212237   0.002   5.074   0.591
 3780SOL     OW12238   0.529   3.151   3.241
 3780SOL    HW112239   0.567   3.059   3.254
 3780SOL    HW212240   0.595   3.219   3.272
 3781SOL     OW12241   0.657   6.620   4.806
 3781SOL    HW112242   0.567   6.647   4.840
 3781SOL    HW212243   0.675   6.667   4.720
 3782SOL     OW12244   3.765   6.312   2.398
 3782SOL    HW112245   3.780   6.411   2.397
 3782SOL    HW212246   3.696   6.289   2.466
 3783SOL     OW12247   5.746   5.053   5.069
 3783SOL    HW112248   5.791   4.971   5.103
 3783SOL    HW212249   5.766   5.065   4.972
 3784SOL     OW12250   5.355   2.585   2.165
 3784SOL    HW112251   5.443   2.629   2.183
 3784SOL    HW212252   5.359   2.489   2.191
 3785SOL     OW12253   0.755   3.044   5.379
 3785SOL    HW112254   0.759   3.085   5.470
 3785SOL    HW212255   0.719   3.110   5.314
 3786SOL     OW12256   1.903   3.027   2.842
 3786SOL    HW112257   1.853   3.113   2.834
 3786SOL    HW212258   2.001   3.044   2.837
 3787SOL     OW12259   5.117   0.087   3.040
 3787SOL    HW112260   5.144   0.129   3.127
 3787SOL    HW212261   5.038   0.136   3.004
 3788SOL     OW12262   6.046   4.633   5.348
 3788SOL    HW112263   6.061   4.732   5.338
 3788SOL    HW212264   6.086   4.602   5.434
 3789SOL     OW12265   6.943   3.796   2.758
 3789SOL    HW112266   6.901   3.885   2.737
 3789SOL    HW212267   6.923   3.732   2.684
 3790SOL     OW12268   1.071   5.789   6.453
 3790SOL    HW112269   1.137   5.850   6.495
 3790SOL    HW212270   1.025   5.735   6.524
 3791SOL     OW12271   5.274   1.940   0.166
 3791SOL    HW112272   5.292   1.998   0.246
 3791SOL    HW212273   5.179   1.953   0.137
 3792SOL     OW12274   1.178   1.547   4.339
 3792SOL    HW112275   1.250   1.576   4.403
 3792SOL    HW212276   1.123   1.475   4.381
 3793SOL     OW12277   5.621   6.201   1.299
 3793SOL    HW112278   5.617   6.275   1.232
 3793SOL    HW212279   5.703   6.211   1.355
 3794SOL     OW12280   1.942   3.120   1.647
 3794SOL    HW112281   2.037   3.143   1.669
 3794SOL    HW212282   1.922   3.148   1.553
 3795SOL     OW12283   3.106   5.441   1.114
 3795SOL    HW112284   3.153   5.452   1.202
 3795SOL    HW212285   3.076   5.531   1.081
 3796SOL     OW12286   4.198   2.185   1.355
 3796SOL    HW112287   4.253   2.249   1.408
 3796SOL    HW212288   4.254   2.142   1.284
 3797SOL     OW12289   0.912   4.053   3.480
 3797SOL    HW112290   1.004   4.093   3.476
 3797SOL    HW212291   0.903   3.998   3.563
 3798SOL     OW12292   3.307   6.407   2.701
 3798SOL    HW112293   3.228   6.434   2.646
 3798SOL    HW212294   3.275   6.366   2.786
 3799SOL     OW12295   0.052   2.521   3.845
 3799SOL    HW112296   0.101   2.450   3.895
 3799SOL    HW212297   6.985   2.532   3.884
 3800SOL     OW12298   5.341   1.967   3.645
 3800SOL    HW112299   5.363   1.877   3.607
 3800SOL    HW212300   5.265   1.959   3.709
 3801SOL     OW12301   5.271   0.111   1.612
 3801SOL    HW112302   5.220   0.027   1.590
 3801SOL    HW212303   5.359   0.086   1.652
 3802SOL     OW12304   6.998   1.613   2.471
 3802SOL    HW112305   6.908   1.569   2.467
 3802SOL    HW212306   6.991   1.699   2.521
 3803SOL     OW12307   4.062   3.575   4.008
 3803SOL    HW112308   4.071   3.577   3.909
 3803SOL    HW212309   3.990   3.510   4.034
 3804SOL     OW12310   3.357   1.770   3.873
 3804SOL    HW112311   3.399   1.740   3.958
 3804SOL    HW212312   3.271   1.818   3.893
 3805SOL     OW12313   1.954   2.584   1.703
 3805SOL    HW112314   1.961   2.664   1.643
 3805SOL    HW212315   2.039   2.575   1.756
 3806SOL     OW12316   3.887   3.528   6.436
 3806SOL    HW112317   3.900   3.595   6.363
 3806SOL    HW212318   3.917   3.568   6.523
 3807SOL     OW12319   1.838   4.402   4.261
 3807SOL    HW112320   1.904   4.392   4.187
 3807SOL    HW212321   1.845   4.322   4.322
 3808SOL     OW12322   4.846   0.489   6.093
 3808SOL    HW112323   4.819   0.550   6.168
 3808SOL    HW212324   4.945   0.478   6.093
 3809SOL     OW12325   5.946   2.058   2.230
 3809SOL    HW112326   5.971   1.961   2.242
 3809SOL    HW212327   5.848   2.069   2.244
 3810SOL     OW12328   6.886   2.393   3.620
 3810SOL    HW112329   6.889   2.493   3.612
 3810SOL    HW212330   6.943   2.365   3.697
 3811SOL     OW12331   0.134   6.080   4.049
 3811SOL    HW112332   0.084   6.045   3.971
 3811SOL    HW212333   0.224   6.114   4.020
 3812SOL     OW12334   3.554   4.948   6.048
 3812SOL    HW112335   3.489   4.994   6.108
 3812SOL    HW212336   3.585   4.862   6.091
 3813SOL     OW12337   5.702   3.974   0.719
 3813SOL    HW112338   5.731   3.881   0.695
 3813SOL    HW212339   5.690   4.028   0.636
 3814SOL     OW12340   6.829   0.083   3.794
 3814SOL    HW112341   6.927   0.085   3.813
 3814SOL    HW212342   6.778   0.087   3.880
 3815SOL     OW12343   4.309   2.319   1.037
 3815SOL    HW112344   4.288   2.381   1.112
 3815SOL    HW212345   4.333   2.229   1.073
 3816SOL     OW12346   1.088   5.284   5.126
 3816SOL    HW112347   1.111   5.321   5.216
 3816SOL    HW212348   1.014   5.217   5.136
 3817SOL     OW12349   4.812   3.301   1.832
 3817SOL    HW112350   4.851   3.268   1.746
 3817SOL    HW212351   4.802   3.224   1.896
 3818SOL     OW12352   0.261   0.393   0.788
 3818SOL    HW112353   0.168   0.367   0.763
 3818SOL    HW212354   0.265   0.491   0.807
 3819SOL     OW12355   6.215   4.424   2.407
 3819SOL    HW112356   6.220   4.493   2.335
 3819SOL    HW212357   6.211   4.469   2.496
 3820SOL     OW12358   5.903   6.407   3.716
 3820SOL    HW112359   5.927   6.405   3.618
 3820SOL    HW212360   5.886   6.501   3.744
 3821SOL     OW12361   0.951   0.892   1.056
 3821SOL    HW112362   0.871   0.943   1.090
 3821SOL    HW212363   0.999   0.851   1.134
 3822SOL     OW12364   2.459   0.293   6.326
 3822SOL    HW112365   2.408   0.346   6.394
 3822SOL    HW212366   2.443   0.196   6.340
 3823SOL     OW12367   4.367   4.336   6.115
 3823SOL    HW112368   4.438   4.269   6.137
 3823SOL    HW212369   4.331   4.375   6.200
 3824SOL     OW12370   0.460   2.473   1.098
 3824SOL    HW112371   0.388   2.539   1.075
 3824SOL    HW212372   0.420   2.399   1.153
 3825SOL     OW12373   0.819   4.132   0.939
 3825SOL    HW112374   0.810   4.132   1.039
 3825SOL    HW212375   0.737   4.091   0.899
 3826SOL     OW12376   6.718   3.345   1.595
 3826SOL    HW112377   6.745   3.253   1.565
 3826SOL    HW212378   6.740   3.356   1.692
 3827SOL     OW12379   0.332   0.472   1.228
 3827SOL    HW112380   0.366   0.440   1.140
 3827SOL    HW212381   0.365   0.565   1.245
 3828SOL     OW12382   3.855   3.598   4.547
 3828SOL    HW112383   3.786   3.607   4.620
 3828SOL    HW212384   3.930   3.540   4.579
 3829SOL     OW12385   0.552   5.160   1.977
 3829SOL    HW112386   0.634   5.166   1.920
 3829SOL    HW212387   0.543   5.244   2.031
 3830SOL     OW12388   0.494   1.666   5.525
 3830SOL    HW112389   0.531   1.687   5.435
 3830SOL    HW212390   0.427   1.592   5.517
 3831SOL     OW12391   4.539   2.391   2.738
 3831SOL    HW112392   4.591   2.475   2.752
 3831SOL    HW212393   4.574   2.343   2.657
 3832SOL     OW12394   6.769   0.650   2.635
 3832SOL    HW112395   6.715   0.566   2.628
 3832SOL    HW212396   6.711   0.724   2.669
 3833SOL     OW12397   1.161   6.706   6.073
 3833SOL    HW112398   1.069   6.690   6.110
 3833SOL    HW212399   1.215   6.756   6.140
 3834SOL     OW12400   3.766   4.238   1.199
 3834SOL    HW112401   3.841   4.252   1.263
 3834SOL    HW212402   3.697   4.309   1.213
 3835SOL     OW12403   3.947   5.714   5.231
 3835SOL    HW112404   3.971   5.620   5.206
 3835SOL    HW212405   3.900   5.758   5.154
 3836SOL     OW12406   0.196   5.340   5.845
 3836SOL    HW112407   0.118   5.278   5.854
 3836SOL    HW212408   0.206   5.394   5.928
 3837SOL     OW12409   4.911   5.383   5.401
 3837SOL    HW112410   4.923   5.286   5.380
 3837SOL    HW212411   4.984   5.413   5.462
 3838SOL     OW12412   1.293   2.331   3.442
 3838SOL    HW112413   1.326   2.423   3.419
 3838SOL    HW212414   1.197   2.336   3.468
 3839SOL     OW12415   4.836   1.504   2.800
 3839SOL    HW112416   4.808   1.464   2.713
 3839SOL    HW212417   4.902   1.443   2.845
 3840SOL     OW12418   3.378   2.023   6.545
 3840SOL    HW112419   3.446   1.971   6.493
 3840SOL    HW212420   3.299   1.965   6.564
 3841SOL     OW12421   0.934   4.085   4.788
 3841SOL    HW112422   0.921   3.987   4.803
 3841SOL    HW212423   0.959   4.101   4.693
 3842SOL     OW12424   2.462   2.543   3.935
 3842SOL    HW112425   2.444   2.586   4.023
 3842SOL    HW212426   2.440   2.446   3.940
 3843SOL     OW12427   5.179   3.254   1.859
 3843SOL    HW112428   5.103   3.225   1.801
 3843SOL    HW212429   5.222   3.174   1.901
 3844SOL     OW12430   1.493   3.369   6.465
 3844SOL    HW112431   1.393   3.362   6.472
 3844SOL    HW212432   1.527   3.430   6.536
 3845SOL     OW12433   2.774   5.375   5.988
 3845SOL    HW112434   2.823   5.403   5.905
 3845SOL    HW212435   2.799   5.436   6.063
 3846SOL     OW12436   0.870   3.890   3.995
 3846SOL    HW112437   0.837   3.983   4.009
 3846SOL    HW212438   0.969   3.891   3.986
 3847SOL     OW12439   5.278   2.979   4.272
 3847SOL    HW112440   5.322   2.954   4.186
 3847SOL    HW212441   5.188   3.017   4.254
 3848SOL     OW12442   5.071   3.829   2.468
 3848SOL    HW112443   5.040   3.865   2.381
 3848SOL    HW212444   5.152   3.879   2.498
 3849SOL     OW12445   1.118   0.964   5.901
 3849SOL    HW112446   1.076   0.877   5.877
 3849SOL    HW212447   1.123   1.023   5.820
 3850SOL     OW12448   2.902   3.479   1.917
 3850SOL    HW112449   2.901   3.464   1.818
 3850SOL    HW212450   2.893   3.391   1.964
 3851SOL     OW12451   6.910   4.694   3.165
 3851SOL    HW112452   6.954   4.737   3.244
 3851SOL    HW212453   6.946   4.601   3.153
 3852SOL     OW12454   3.185   5.914   3.661
 3852SOL    HW112455   3.248   5.976   3.708
 3852SOL    HW212456   3.138   5.857   3.729
 3853SOL     OW12457   1.039   3.143   3.355
 3853SOL    HW112458   0.987   3.126   3.439
 3853SOL    HW212459   1.134   3.117   3.369
 3854SOL     OW12460   1.274   2.256   2.415
 3854SOL    HW112461   1.321   2.296   2.336
 3854SOL    HW212462   1.322   2.283   2.499
 3855SOL     OW12463   4.654   6.174   6.740
 3855SOL    HW112464   4.663   6.123   6.655
 3855SOL    HW212465   4.578   6.137   6.793
 3856SOL     OW12466   0.618   1.089   6.181
 3856SOL    HW112467   0.699   1.059   6.232
 3856SOL    HW212468   0.594   1.020   6.113
 3857SOL     OW12469   0.731   6.316   0.108
 3857SOL    HW112470   0.699   6.410   0.119
 3857SOL    HW212471   0.769   6.305   0.016
 3858SOL     OW12472   3.503   1.493   6.170
 3858SOL    HW112473   3.433   1.437   6.124
 3858SOL    HW212474   3.513   1.462   6.264
 3859SOL     OW12475   6.151   1.135   1.614
 3859SOL    HW112476   6.192   1.044   1.614
 3859SOL    HW212477   6.198   1.194   1.679
 3860SOL     OW12478   1.901   1.229   4.504
 3860SOL    HW112479   1.855   1.313   4.531
 3860SOL    HW212480   1.984   1.218   4.557
 3861SOL     OW12481   4.291   5.276   4.046
 3861SOL    HW112482   4.374   5.319   4.080
 3861SOL    HW212483   4.257   5.210   4.113
 3862SOL     OW12484   0.686   0.963   4.776
 3862SOL    HW112485   0.690   1.040   4.712
 3862SOL    HW212486   0.659   0.996   4.867
 3863SOL     OW12487   6.239   2.130   0.070
 3863SOL    HW112488   6.287   2.095   0.150
 3863SOL    HW212489   6.225   2.055   0.004
 3864SOL     OW12490   2.325   0.622   5.378
 3864SOL    HW112491   2.328   0.673   5.292
 3864SOL    HW212492   2.296   0.528   5.361
 3865SOL     OW12493   4.152   1.006   1.143
 3865SOL    HW112494   4.162   1.076   1.213
 3865SOL    HW212495   4.187   0.919   1.178
 3866SOL     OW12496   4.062   0.479   0.581
 3866SOL    HW112497   4.157   0.455   0.600
 3866SOL    HW212498   4.035   0.558   0.636
 3867SOL     OW12499   0.852   4.722   3.671
 3867SOL    HW112500   0.761   4.712   3.709
 3867SOL    HW212501   0.886   4.814   3.690
 3868SOL     OW12502   3.458   0.459   0.403
 3868SOL    HW112503   3.529   0.397   0.436
 3868SOL    HW212504   3.415   0.421   0.322
 3869SOL     OW12505   6.331   2.831   4.560
 3869SOL    HW112506   6.288   2.846   4.470
 3869SOL    HW212507   6.385   2.911   4.585
 3870SOL     OW12508   6.915   6.646   0.781
 3870SOL    HW112509   6.845   6.603   0.723
 3870SOL    HW212510   6.933   6.738   0.748
 3871SOL     OW12511   3.318   0.613   3.257
 3871SOL    HW112512   3.342   0.566   3.342
 3871SOL    HW212513   3.293   0.545   3.187
 3872SOL     OW12514   3.195   3.419   4.653
 3872SOL    HW112515   3.277   3.387   4.607
 3872SOL    HW212516   3.139   3.340   4.680
 3873SOL     OW12517   5.733   3.724   1.216
 3873SOL    HW112518   5.804   3.788   1.187
 3873SOL    HW212519   5.729   3.646   1.153
 3874SOL     OW12520   4.459   6.243   0.595
 3874SOL    HW112521   4.461   6.333   0.551
 3874SOL    HW212522   4.553   6.211   0.608
 3875SOL     OW12523   2.167   3.258   2.473
 3875SOL    HW112524   2.258   3.239   2.437
 3875SOL    HW212525   2.143   3.354   2.454
 3876SOL     OW12526   3.649   4.979   0.814
 3876SOL    HW112527   3.566   5.030   0.835
 3876SOL    HW212528   3.726   5.020   0.864
 3877SOL     OW12529   5.985   2.437   1.315
 3877SOL    HW112530   6.067   2.394   1.278
 3877SOL    HW212531   5.945   2.498   1.246
 3878SOL     OW12532   4.177   6.516   4.953
 3878SOL    HW112533   4.265   6.480   4.986
 3878SOL    HW212534   4.103   6.474   5.005
 3879SOL     OW12535   6.082   5.530   1.072
 3879SOL    HW112536   6.143   5.453   1.056
 3879SOL    HW212537   6.018   5.538   0.996
 3880SOL     OW12538   5.168   4.215   4.271
 3880SOL    HW112539   5.237   4.286   4.284
 3880SOL    HW212540   5.086   4.256   4.231
 3881SOL     OW12541   0.765   3.421   1.643
 3881SOL    HW112542   0.800   3.411   1.736
 3881SOL    HW212543   0.665   3.412   1.643
 3882SOL     OW12544   1.114   1.429   5.836
 3882SOL    HW112545   1.096   1.440   5.739
 3882SOL    HW212546   1.057   1.355   5.873
 3883SOL     OW12547   3.950   1.336   2.271
 3883SOL    HW112548   3.964   1.336   2.370
 3883SOL    HW212549   3.853   1.323   2.251
 3884SOL     OW12550   0.923   5.794   2.081
 3884SOL    HW112551   0.877   5.805   2.169
 3884SOL    HW212552   0.855   5.789   2.008
 3885SOL     OW12553   5.997   6.021   2.635
 3885SOL    HW112554   6.005   6.097   2.570
 3885SOL    HW212555   6.088   5.983   2.653
 3886SOL     OW12556   5.261   5.680   4.975
 3886SOL    HW112557   5.167   5.646   4.967
 3886SOL    HW212558   5.324   5.607   4.949
 3887SOL     OW12559   1.201   0.613   6.882
 3887SOL    HW112560   1.118   0.614   6.937
 3887SOL    HW212561   1.194   0.543   6.811
 3888SOL     OW12562   6.740   0.743   5.107
 3888SOL    HW112563   6.814   0.725   5.042
 3888SOL    HW212564   6.743   0.676   5.181
 3889SOL     OW12565   0.150   4.178   0.105
 3889SOL    HW112566   0.081   4.153   0.037
 3889SOL    HW212567   0.233   4.209   0.058
 3890SOL     OW12568   6.522   4.945   3.106
 3890SOL    HW112569   6.564   4.873   3.050
 3890SOL    HW212570   6.428   4.919   3.127
 3891SOL     OW12571   5.423   3.785   4.059
 3891SOL    HW112572   5.417   3.770   4.157
 3891SOL    HW212573   5.494   3.852   4.039
 3892SOL     OW12574   6.935   1.526   1.473
 3892SOL    HW112575   6.888   1.565   1.394
 3892SOL    HW212576   6.950   1.428   1.458
 3893SOL     OW12577   4.122   3.939   0.181
 3893SOL    HW112578   4.218   3.968   0.173
 3893SOL    HW212579   4.116   3.840   0.167
 3894SOL     OW12580   4.419   1.168   0.698
 3894SOL    HW112581   4.436   1.076   0.664
 3894SOL    HW212582   4.370   1.162   0.785
 3895SOL     OW12583   1.743   0.788   5.127
 3895SOL    HW112584   1.836   0.779   5.162
 3895SOL    HW212585   1.710   0.699   5.096
 3896SOL     OW12586   0.287   1.327   5.219
 3896SOL    HW112587   0.276   1.395   5.147
 3896SOL    HW212588   0.266   1.236   5.183
 3897SOL     OW12589   3.365   5.711   2.642
 3897SOL    HW112590   3.321   5.763   2.569
 3897SOL    HW212591   3.335   5.747   2.731
 3898SOL     OW12592   2.175   3.429   5.891
 3898SOL    HW112593   2.123   3.476   5.962
 3898SOL    HW212594   2.273   3.439   5.908
 3899SOL     OW12595   4.449   6.452   5.613
 3899SOL    HW112596   4.454   6.523   5.544
 3899SOL    HW212597   4.541   6.416   5.630
 3900SOL     OW12598   4.832   2.785   3.640
 3900SOL    HW112599   4.917   2.756   3.596
 3900SOL    HW212600   4.756   2.776   3.576
 3901SOL     OW12601   2.710   0.165   5.105
 3901SOL    HW112602   2.751   0.198   5.019
 3901SOL    HW212603   2.782   0.153   5.174
 3902SOL     OW12604   5.580   3.342   1.386
 3902SOL    HW112605   5.659   3.390   1.424
 3902SOL    HW212606   5.514   3.323   1.458
 3903SOL     OW12607   3.918   6.132   6.114
 3903SOL    HW112608   3.915   6.199   6.188
 3903SOL    HW212609   3.845   6.152   6.049
 3904SOL     OW12610   3.040   1.621   5.223
 3904SOL    HW112611   2.965   1.666   5.271
 3904SOL    HW212612   3.039   1.524   5.244
 3905SOL     OW12613   0.666   0.028   6.652
 3905SOL    HW112614   0.583   6.996   6.656
 3905SOL    HW212615   0.642   0.121   6.622
 3906SOL     OW12616   5.470   5.556   6.170
 3906SOL    HW112617   5.489   5.621   6.243
 3906SOL    HW212618   5.380   5.575   6.131
 3907SOL     OW12619   5.852   0.631   3.588
 3907SOL    HW112620   5.877   0.542   3.627
 3907SOL    HW212621   5.872   0.703   3.655
 3908SOL     OW12622   1.341   2.411   0.414
 3908SOL    HW112623   1.358   2.319   0.377
 3908SOL    HW212624   1.407   2.475   0.376
 3909SOL     OW12625   6.610   5.987   5.316
 3909SOL    HW112626   6.587   5.936   5.399
 3909SOL    HW212627   6.707   5.972   5.294
 3910SOL     OW12628   3.369   2.891   2.395
 3910SOL    HW112629   3.427   2.879   2.476
 3910SOL    HW212630   3.400   2.971   2.344
 3911SOL     OW12631   5.033   1.887   6.403
 3911SOL    HW112632   5.067   1.827   6.330
 3911SOL    HW212633   4.992   1.969   6.361
 3912SOL     OW12634   4.137   0.755   5.723
 3912SOL    HW112635   4.176   0.796   5.806
 3912SOL    HW212636   4.208   0.748   5.653
 3913SOL     OW12637   1.701   0.133   6.328
 3913SOL    HW112638   1.786   0.153   6.376
 3913SOL    HW212639   1.720   0.115   6.231
 3914SOL     OW12640   3.623   1.014   1.135
 3914SOL    HW112641   3.574   1.079   1.192
 3914SOL    HW212642   3.707   1.056   1.101
 3915SOL     OW12643   3.904   5.170   2.349
 3915SOL    HW112644   3.965   5.116   2.291
 3915SOL    HW212645   3.927   5.267   2.341
 3916SOL     OW12646   1.314   6.624   4.035
 3916SOL    HW112647   1.382   6.660   3.972
 3916SOL    HW212648   1.345   6.638   4.129
 3917SOL     OW12649   6.295   5.520   0.164
 3917SOL    HW112650   6.197   5.505   0.151
 3917SOL    HW212651   6.309   5.590   0.234
 3918SOL     OW12652   4.724   6.478   1.701
 3918SOL    HW112653   4.739   6.573   1.675
 3918SOL    HW212654   4.632   6.467   1.739
 3919SOL     OW12655   2.341   6.621   6.476
 3919SOL    HW112656   2.312   6.685   6.548
 3919SOL    HW212657   2.268   6.609   6.409
 3920SOL     OW12658   3.573   2.777   0.781
 3920SOL    HW112659   3.504   2.705   0.785
 3920SOL    HW212660   3.664   2.737   0.791
 3921SOL     OW12661   0.160   2.931   1.467
 3921SOL    HW112662   0.081   2.990   1.451
 3921SOL    HW212663   0.233   2.983   1.510
 3922SOL     OW12664   5.799   4.011   1.952
 3922SOL    HW112665   5.712   3.962   1.960
 3922SOL    HW212666   5.806   4.078   2.026
 3923SOL     OW12667   6.707   1.665   6.604
 3923SOL    HW112668   6.738   1.572   6.626
 3923SOL    HW212669   6.780   1.730   6.625
 3924SOL     OW12670   0.504   4.843   3.643
 3924SOL    HW112671   0.570   4.810   3.711
 3924SOL    HW212672   0.433   4.774   3.629
 3925SOL     OW12673   3.117   5.185   0.974
 3925SOL    HW112674   3.120   5.275   1.017
 3925SOL    HW212675   3.022   5.158   0.959
 3926SOL     OW12676   6.839   5.782   2.980
 3926SOL    HW112677   6.826   5.704   3.041
 3926SOL    HW212678   6.836   5.867   3.034
 3927SOL     OW12679   6.328   3.076   3.766
 3927SOL    HW112680   6.312   3.147   3.697
 3927SOL    HW212681   6.375   3.116   3.844
 3928SOL     OW12682   3.669   6.284   5.564
 3928SOL    HW112683   3.693   6.220   5.638
 3928SOL    HW212684   3.576   6.317   5.579
 3929SOL     OW12685   0.031   1.241   5.525
 3929SOL    HW112686   0.082   1.293   5.595
 3929SOL    HW212687   0.085   1.162   5.497
 3930SOL     OW12688   2.450   1.884   3.810
 3930SOL    HW112689   2.496   1.871   3.898
 3930SOL    HW212690   2.519   1.896   3.738
 3931SOL     OW12691   1.607   1.256   1.957
 3931SOL    HW112692   1.551   1.296   2.030
 3931SOL    HW212693   1.694   1.304   1.952
 3932SOL     OW12694   1.524   4.084   2.887
 3932SOL    HW112695   1.492   4.097   2.793
 3932SOL    HW212696   1.583   4.003   2.891
 3933SOL     OW12697   1.921   6.309   0.063
 3933SOL    HW112698   1.983   6.294   0.140
 3933SOL    HW212699   1.840   6.252   0.075
 3934SOL     OW12700   0.005   1.070   0.794
 3934SOL    HW112701   7.023   1.135   0.719
 3934SOL    HW212702   0.101   1.060   0.822
 3935SOL     OW12703   2.914   6.935   6.557
 3935SOL    HW112704   2.984   6.994   6.598
 3935SOL    HW212705   2.867   6.985   6.484
 3936SOL     OW12706   6.992   5.048   5.575
 3936SOL    HW112707   0.060   5.064   5.540
 3936SOL    HW212708   6.988   4.958   5.619
 3937SOL     OW12709   6.602   0.832   2.751
 3937SOL    HW112710   6.623   0.908   2.691
 3937SOL    HW212711   6.510   0.798   2.731
 3938SOL     OW12712   0.366   1.355   4.187
 3938SOL    HW112713   0.407   1.392   4.270
 3938SOL    HW212714   0.366   1.255   4.191
 3939SOL     OW12715   2.332   1.709   2.335
 3939SOL    HW112716   2.393   1.758   2.273
 3939SOL    HW212717   2.241   1.751   2.332
 3940SOL     OW12718   4.518   5.057   1.985
 3940SOL    HW112719   4.572   5.032   2.066
 3940SOL    HW212720   4.515   5.156   1.977
 3941SOL     OW12721   4.766   2.424   6.479
 3941SOL    HW112722   4.713   2.341   6.461
 3941SOL    HW212723   4.851   2.400   6.527
 3942SOL     OW12724   6.996   0.473   6.901
 3942SOL    HW112725   6.956   0.390   6.862
 3942SOL    HW212726   0.070   0.458   6.919
 3943SOL     OW12727   0.042   4.021   3.027
 3943SOL    HW112728   0.098   3.958   3.081
 3943SOL    HW212729   6.971   3.988   3.025
 3944SOL     OW12730   5.312   3.083   5.072
 3944SOL    HW112731   5.246   3.135   5.127
 3944SOL    HW212732   5.297   2.985   5.086
 3945SOL     OW12733   0.749   1.786   1.235
 3945SOL    HW112734   0.728   1.701   1.186
 3945SOL    HW212735   0.797   1.764   1.320
 3946SOL     OW12736   5.868   5.974   6.486
 3946SOL    HW112737   5.853   5.886   6.532
 3946SOL    HW212738   5.810   5.979   6.405
 3947SOL     OW12739   5.882   5.525   0.858
 3947SOL    HW112740   5.913   5.618   0.840
 3947SOL    HW212741   5.816   5.525   0.932
 3948SOL     OW12742   1.239   5.928   1.570
 3948SOL    HW112743   1.290   5.851   1.530
 3948SOL    HW212744   1.146   5.898   1.591
 3949SOL     OW12745   5.438   0.101   2.881
 3949SOL    HW112746   5.511   0.041   2.847
 3949SOL    HW212747   5.459   0.128   2.975
 3950SOL     OW12748   1.738   4.114   1.342
 3950SOL    HW112749   1.740   4.057   1.260
 3950SOL    HW212750   1.770   4.061   1.421
 3951SOL     OW12751   6.215   6.736   0.382
 3951SOL    HW112752   6.158   6.775   0.454
 3951SOL    HW212753   6.170   6.748   0.293
 3952SOL     OW12754   6.366   3.290   2.632
 3952SOL    HW112755   6.370   3.248   2.723
 3952SOL    HW212756   6.450   3.340   2.615
 3953SOL     OW12757   3.866   4.688   1.599
 3953SOL    HW112758   3.939   4.629   1.564
 3953SOL    HW212759   3.779   4.639   1.596
 3954SOL     OW12760   4.661   4.954   4.952
 3954SOL    HW112761   4.590   5.004   5.001
 3954SOL    HW212762   4.716   4.901   5.016
 3955SOL     OW12763   3.072   5.286   6.132
 3955SOL    HW112764   3.098   5.194   6.161
 3955SOL    HW212765   2.999   5.280   6.064
 3956SOL     OW12766   6.920   0.909   3.556
 3956SOL    HW112767   6.932   1.009   3.558
 3956SOL    HW212768   6.948   0.871   3.644
 3957SOL     OW12769   4.494   6.032   3.713
 3957SOL    HW112770   4.395   6.020   3.705
 3957SOL    HW212771   4.524   5.995   3.801
 3958SOL     OW12772   5.759   0.320   5.293
 3958SOL    HW112773   5.712   0.385   5.353
 3958SOL    HW212774   5.730   0.335   5.199
 3959SOL     OW12775   4.104   6.229   0.928
 3959SOL    HW112776   4.192   6.217   0.883
 3959SOL    HW212777   4.033   6.181   0.876
 3960SOL     OW12778   4.592   1.431   6.877
 3960SOL    HW112779   4.529   1.504   6.852
 3960SOL    HW212780   4.542   1.361   6.929
 3961SOL     OW12781   4.889   2.273   2.808
 3961SOL    HW112782   4.891   2.370   2.785
 3961SOL    HW212783   4.807   2.231   2.768
 3962SOL     OW12784   2.523   4.600   6.964
 3962SOL    HW112785   2.528   4.598   6.865
 3962SOL    HW212786   2.596   4.543   7.003
 3963SOL     OW12787   4.511   5.026   4.132
 3963SOL    HW112788   4.545   5.082   4.207
 3963SOL    HW212789   4.529   4.930   4.150
 3964SOL     OW12790   4.081   5.307   3.629
 3964SOL    HW112791   4.001   5.367   3.623
 3964SOL    HW212792   4.050   5.212   3.639
 3965SOL     OW12793   5.012   3.054   6.174
 3965SOL    HW112794   4.916   3.073   6.193
 3965SOL    HW212795   5.052   3.131   6.125
 3966SOL     OW12796   5.223   5.817   0.241
 3966SOL    HW112797   5.223   5.897   0.301
 3966SOL    HW212798   5.192   5.736   0.292
 3967SOL     OW12799   1.553   3.797   2.124
 3967SOL    HW112800   1.648   3.780   2.097
 3967SOL    HW212801   1.549   3.809   2.223
 3968SOL     OW12802   4.903   0.587   1.282
 3968SOL    HW112803   4.909   0.537   1.196
 3968SOL    HW212804   4.910   0.523   1.358
 3969SOL     OW12805   1.279   3.814   2.320
 3969SOL    HW112806   1.244   3.765   2.240
 3969SOL    HW212807   1.348   3.759   2.367
 3970SOL     OW12808   6.248   6.170   3.630
 3970SOL    HW112809   6.239   6.085   3.579
 3970SOL    HW212810   6.325   6.164   3.692
 3971SOL     OW12811   2.474   4.862   2.246
 3971SOL    HW112812   2.474   4.961   2.234
 3971SOL    HW212813   2.379   4.830   2.256
 3972SOL     OW12814   1.258   4.940   0.565
 3972SOL    HW112815   1.286   4.852   0.527
 3972SOL    HW212816   1.338   4.998   0.580
 3973SOL     OW12817   1.907   5.105   6.645
 3973SOL    HW112818   1.909   5.007   6.662
 3973SOL    HW212819   1.903   5.123   6.547
 3974SOL     OW12820   2.071   1.201   3.978
 3974SOL    HW112821   2.013   1.215   4.058
 3974SOL    HW212822   2.068   1.282   3.919
 3975SOL     OW12823   5.761   0.937   5.113
 3975SOL    HW112824   5.801   0.863   5.166
 3975SOL    HW212825   5.821   1.017   5.116
 3976SOL     OW12826   1.750   6.505   1.630
 3976SOL    HW112827   1.788   6.419   1.596
 3976SOL    HW212828   1.731   6.496   1.727
 3977SOL     OW12829   2.584   3.984   5.541
 3977SOL    HW112830   2.519   4.044   5.494
 3977SOL    HW212831   2.648   3.946   5.474
 3978SOL     OW12832   5.635   5.303   5.043
 3978SOL    HW112833   5.665   5.208   5.056
 3978SOL    HW212834   5.650   5.329   4.948
 3979SOL     OW12835   3.266   6.314   0.889
 3979SOL    HW112836   3.232   6.378   0.958
 3979SOL    HW212837   3.315   6.239   0.934
 3980SOL     OW12838   6.791   5.421   0.259
 3980SOL    HW112839   6.890   5.418   0.245
 3980SOL    HW212840   6.762   5.339   0.308
 3981SOL     OW12841   2.158   0.579   0.176
 3981SOL    HW112842   2.204   0.593   0.089
 3981SOL    HW212843   2.076   0.637   0.180
 3982SOL     OW12844   2.048   0.304   4.235
 3982SOL    HW112845   2.051   0.263   4.327
 3982SOL    HW212846   2.099   0.389   4.236
 3983SOL     OW12847   5.463   4.657   4.023
 3983SOL    HW112848   5.412   4.659   4.108
 3983SOL    HW212849   5.467   4.562   3.989
 3984SOL     OW12850   6.537   1.448   2.919
 3984SOL    HW112851   6.462   1.456   2.984
 3984SOL    HW212852   6.542   1.354   2.884
 3985SOL     OW12853   3.377   4.474   6.566
 3985SOL    HW112854   3.319   4.430   6.498
 3985SOL    HW212855   3.370   4.425   6.653
 3986SOL     OW12856   6.426   2.376   3.159
 3986SOL    HW112857   6.387   2.450   3.104
 3986SOL    HW212858   6.352   2.323   3.201
 3987SOL     OW12859   3.243   5.443   3.856
 3987SOL    HW112860   3.162   5.421   3.800
 3987SOL    HW212861   3.312   5.372   3.844
 3988SOL     OW12862   3.936   4.105   0.077
 3988SOL    HW112863   3.870   4.043   0.035
 3988SOL    HW212864   4.011   4.052   0.118
 3989SOL     OW12865   6.698   2.666   6.860
 3989SOL    HW112866   6.705   2.576   6.903
 3989SOL    HW212867   6.603   2.682   6.834
 3990SOL     OW12868   5.158   2.256   2.766
 3990SOL    HW112869   5.213   2.213   2.836
 3990SOL    HW212870   5.067   2.276   2.802
 3991SOL     OW12871   5.667   1.126   2.461
 3991SOL    HW112872   5.740   1.174   2.509
 3991SOL    HW212873   5.686   1.028   2.459
 3992SOL     OW12874   4.047   2.555   0.388
 3992SOL    HW112875   4.100   2.476   0.359
 3992SOL    HW212876   3.949   2.533   0.385
 3993SOL     OW12877   1.216   1.693   2.474
 3993SOL    HW112878   1.314   1.709   2.463
 3993SOL    HW212879   1.200   1.640   2.557
 3994SOL     OW12880   1.127   0.644   5.729
 3994SOL    HW112881   1.046   0.700   5.747
 3994SOL    HW212882   1.141   0.580   5.805
 3995SOL     OW12883   2.116   3.625   5.508
 3995SOL    HW112884   2.039   3.687   5.524
 3995SOL    HW212885   2.096   3.536   5.548
 3996SOL     OW12886   1.180   0.509   4.401
 3996SOL    HW112887   1.177   0.438   4.330
 3996SOL    HW212888   1.250   0.487   4.468
 3997SOL     OW12889   5.198   1.215   4.416
 3997SOL    HW112890   5.194   1.147   4.490
 3997SOL    HW212891   5.183   1.170   4.328
 3998SOL     OW12892   4.369   1.177   4.534
 3998SOL    HW112893   4.462   1.207   4.518
 3998SOL    HW212894   4.306   1.229   4.476
 3999SOL     OW12895   5.912   3.357   3.950
 3999SOL    HW112896   5.848   3.388   3.880
 3999SOL    HW212897   5.876   3.276   3.995
 4000SOL     OW12898   3.132   5.787   3.436
 4000SOL    HW112899   3.142   5.825   3.528
 4000SOL    HW212900   3.193   5.709   3.426
 4001SOL     OW12901   2.780   2.353   3.784
 4001SOL    HW112902   2.745   2.428   3.728
 4001SOL    HW212903   2.741   2.267   3.753
 4002SOL     OW12904   2.914   3.496   0.684
 4002SOL    HW112905   2.958   3.428   0.626
 4002SOL    HW212906   2.816   3.476   0.691
 4003SOL     OW12907   3.037   6.543   3.858
 4003SOL    HW112908   3.116   6.482   3.853
 4003SOL    HW212909   3.039   6.605   3.779
 4004SOL     OW12910   4.969   1.636   4.418
 4004SOL    HW112911   4.895   1.647   4.484
 4004SOL    HW212912   4.995   1.726   4.382
 4005SOL     OW12913   4.814   5.204   0.449
 4005SOL    HW112914   4.801   5.230   0.545
 4005SOL    HW212915   4.769   5.116   0.432
 4006SOL     OW12916   3.977   5.039   2.853
 4006SOL    HW112917   3.940   5.040   2.946
 4006SOL    HW212918   4.071   5.005   2.855
 4007SOL     OW12919   0.412   2.021   1.068
 4007SOL    HW112920   0.439   2.031   0.972
 4007SOL    HW212921   0.426   1.926   1.096
 4008SOL     OW12922   3.385   2.103   3.968
 4008SOL    HW112923   3.429   2.016   3.948
 4008SOL    HW212924   3.341   2.138   3.885
 4009SOL     OW12925   5.174   3.490   1.152
 4009SOL    HW112926   5.273   3.502   1.147
 4009SOL    HW212927   5.148   3.459   1.243
 4010SOL     OW12928   2.782   3.364   1.413
 4010SOL    HW112929   2.719   3.320   1.477
 4010SOL    HW212930   2.807   3.454   1.447
 4011SOL     OW12931   0.571   0.724   2.387
 4011SOL    HW112932   0.650   0.686   2.435
 4011SOL    HW212933   0.596   0.812   2.346
 4012SOL     OW12934   5.212   5.296   1.446
 4012SOL    HW112935   5.237   5.358   1.520
 4012SOL    HW212936   5.255   5.207   1.460
 4013SOL     OW12937   2.398   0.667   5.124
 4013SOL    HW112938   2.336   0.607   5.073
 4013SOL    HW212939   2.419   0.747   5.068
 4014SOL     OW12940   4.752   6.505   2.274
 4014SOL    HW112941   4.670   6.519   2.218
 4014SOL    HW212942   4.807   6.432   2.233
 4015SOL     OW12943   5.256   4.968   5.963
 4015SOL    HW112944   5.280   5.004   6.053
 4015SOL    HW212945   5.201   4.885   5.974
 4016SOL     OW12946   2.440   6.158   6.510
 4016SOL    HW112947   2.361   6.148   6.450
 4016SOL    HW212948   2.429   6.241   6.566
 4017SOL     OW12949   0.313   5.785   0.325
 4017SOL    HW112950   0.357   5.818   0.409
 4017SOL    HW212951   0.345   5.840   0.248
 4018SOL     OW12952   4.746   6.278   2.984
 4018SOL    HW112953   4.793   6.191   2.977
 4018SOL    HW212954   4.804   6.351   2.947
 4019SOL     OW12955   5.654   3.277   2.752
 4019SOL    HW112956   5.737   3.332   2.748
 4019SOL    HW212957   5.642   3.241   2.845
 4020SOL     OW12958   4.633   2.225   5.498
 4020SOL    HW112959   4.689   2.297   5.539
 4020SOL    HW212960   4.692   2.152   5.463
 4021SOL     OW12961   3.904   4.682   6.416
 4021SOL    HW112962   3.819   4.647   6.456
 4021SOL    HW212963   3.965   4.711   6.490
 4022SOL     OW12964   4.911   0.606   0.041
 4022SOL    HW112965   4.959   0.528   0.080
 4022SOL    HW212966   4.845   0.641   0.108
 4023SOL     OW12967   6.058   1.884   4.527
 4023SOL    HW112968   6.015   1.883   4.436
 4023SOL    HW212969   5.989   1.869   4.597
 4024SOL     OW12970   3.597   6.379   3.475
 4024SOL    HW112971   3.646   6.465   3.491
 4024SOL    HW212972   3.563   6.378   3.380
 4025SOL     OW12973   0.676   6.051   4.215
 4025SOL    HW112974   0.699   5.954   4.204
 4025SOL    HW212975   0.706   6.083   4.305
 4026SOL     OW12976   5.991   5.365   4.309
 4026SOL    HW112977   5.900   5.385   4.346
 4026SOL    HW212978   6.060   5.393   4.375
 4027SOL     OW12979   3.806   4.302   1.742
 4027SOL    HW112980   3.875   4.348   1.687
 4027SOL    HW212981   3.734   4.368   1.766
 4028SOL     OW12982   1.350   2.379   4.055
 4028SOL    HW112983   1.301   2.298   4.023
 4028SOL    HW212984   1.436   2.351   4.098
 4029SOL     OW12985   2.523   4.340   6.409
 4029SOL    HW112986   2.457   4.287   6.355
 4029SOL    HW212987   2.611   4.294   6.410
 4030SOL     OW12988   0.956   2.013   5.815
 4030SOL    HW112989   0.974   2.054   5.905
 4030SOL    HW212990   0.985   2.077   5.743
 4031SOL     OW12991   4.849   5.487   3.566
 4031SOL    HW112992   4.912   5.418   3.531
 4031SOL    HW212993   4.828   5.553   3.493
 4032SOL     OW12994   6.525   6.996   3.391
 4032SOL    HW112995   6.474   0.005   3.312
 4032SOL    HW212996   6.599   0.036   3.412
 4033SOL     OW12997   3.380   3.229   3.510
 4033SOL    HW112998   3.293   3.205   3.467
 4033SOL    HW212999   3.391   3.176   3.594
 4034SOL     OW13000   5.919   1.437   5.198
 4034SOL    HW113001   5.939   1.451   5.101
 4034SOL    HW213002   5.821   1.426   5.211
 4035SOL     OW13003   0.012   3.622   0.739
 4035SOL    HW113004   0.036   3.684   0.664
 4035SOL    HW213005   7.008   3.534   0.701
 4036SOL     OW13006   5.804   6.615   2.282
 4036SOL    HW113007   5.782   6.712   2.297
 4036SOL    HW213008   5.902   6.605   2.265
 4037SOL     OW13009   2.125   2.851   6.912
 4037SOL    HW113010   2.195   2.857   6.841
 4037SOL    HW213011   2.055   2.786   6.884
 4038SOL     OW13012   4.838   4.785   2.149
 4038SOL    HW113013   4.831   4.790   2.049
 4038SOL    HW213014   4.893   4.706   2.174
 4039SOL     OW13015   5.128   5.457   0.594
 4039SOL    HW113016   5.150   5.379   0.535
 4039SOL    HW213017   5.157   5.438   0.687
 4040SOL     OW13018   2.855   6.736   0.371
 4040SOL    HW113019   2.782   6.793   0.334
 4040SOL    HW213020   2.931   6.734   0.306
 4041SOL     OW13021   1.466   5.880   2.469
 4041SOL    HW113022   1.407   5.809   2.431
 4041SOL    HW213023   1.556   5.877   2.424
 4042SOL     OW13024   6.328   5.335   2.432
 4042SOL    HW113025   6.401   5.293   2.379
 4042SOL    HW213026   6.322   5.291   2.522
 4043SOL     OW13027   5.380   1.730   3.447
 4043SOL    HW113028   5.446   1.778   3.389
 4043SOL    HW213029   5.427   1.660   3.500
 4044SOL     OW13030   6.233   0.526   4.525
 4044SOL    HW113031   6.145   0.546   4.568
 4044SOL    HW213032   6.236   0.569   4.435
 4045SOL     OW13033   2.946   4.161   6.191
 4045SOL    HW113034   2.960   4.160   6.092
 4045SOL    HW213035   2.942   4.067   6.225
 4046SOL     OW13036   0.831   1.715   2.469
 4046SOL    HW113037   0.844   1.758   2.379
 4046SOL    HW213038   0.756   1.650   2.464
 4047SOL     OW13039   2.984   3.780   0.804
 4047SOL    HW113040   3.045   3.704   0.827
 4047SOL    HW213041   2.929   3.756   0.724
 4048SOL     OW13042   5.498   0.741   1.650
 4048SOL    HW113043   5.591   0.768   1.676
 4048SOL    HW213044   5.463   0.805   1.581
 4049SOL     OW13045   6.535   6.573   6.428
 4049SOL    HW113046   6.486   6.486   6.436
 4049SOL    HW213047   6.558   6.607   6.520
 4050SOL     OW13048   1.641   6.552   6.705
 4050SOL    HW113049   1.712   6.545   6.636
 4050SOL    HW213050   1.640   6.645   6.743
 4051SOL     OW13051   2.764   4.204   0.201
 4051SOL    HW113052   2.815   4.172   0.281
 4051SOL    HW213053   2.672   4.231   0.228
 4052SOL     OW13054   0.909   0.333   1.306
 4052SOL    HW113055   0.836   0.378   1.357
 4052SOL    HW213056   0.887   0.236   1.295
 4053SOL     OW13057   2.938   4.757   3.715
 4053SOL    HW113058   3.013   4.821   3.730
 4053SOL    HW213059   2.937   4.688   3.788
 4054SOL     OW13060   2.594   2.836   0.766
 4054SOL    HW113061   2.501   2.866   0.747
 4054SOL    HW213062   2.657   2.914   0.758
 4055SOL     OW13063   2.452   2.903   5.895
 4055SOL    HW113064   2.396   2.981   5.869
 4055SOL    HW213065   2.398   2.819   5.890
 4056SOL     OW13066   3.888   3.337   6.708
 4056SOL    HW113067   3.794   3.369   6.719
 4056SOL    HW213068   3.942   3.407   6.661
 4057SOL     OW13069   5.496   3.554   0.455
 4057SOL    HW113070   5.404   3.525   0.482
 4057SOL    HW213071   5.510   3.533   0.358
 4058SOL     OW13072   2.423   1.363   4.354
 4058SOL    HW113073   2.410   1.380   4.451
 4058SOL    HW213074   2.339   1.326   4.314
 4059SOL     OW13075   1.868   2.068   3.467
 4059SOL    HW113076   1.809   2.126   3.523
 4059SOL    HW213077   1.949   2.043   3.520
 4060SOL     OW13078   3.740   5.195   4.360
 4060SOL    HW113079   3.727   5.105   4.404
 4060SOL    HW213080   3.654   5.246   4.365
 4061SOL     OW13081   3.283   4.567   1.712
 4061SOL    HW113082   3.295   4.478   1.757
 4061SOL    HW213083   3.348   4.633   1.750
 4062SOL     OW13084   4.121   1.438   2.885
 4062SOL    HW113085   4.038   1.402   2.843
 4062SOL    HW213086   4.188   1.364   2.896
 4063SOL     OW13087   4.061   6.856   6.053
 4063SOL    HW113088   3.985   6.796   6.027
 4063SOL    HW213089   4.108   6.817   6.132
 4064SOL     OW13090   1.755   0.510   2.624
 4064SOL    HW113091   1.753   0.604   2.657
 4064SOL    HW213092   1.830   0.499   2.559
 4065SOL     OW13093   0.261   0.005   1.069
 4065SOL    HW113094   0.307   6.949   1.107
 4065SOL    HW213095   0.224   0.061   1.143
 4066SOL     OW13096   5.437   4.419   1.535
 4066SOL    HW113097   5.426   4.371   1.449
 4066SOL    HW213098   5.493   4.365   1.597
 4067SOL     OW13099   5.122   1.691   3.472
 4067SOL    HW113100   5.221   1.686   3.461
 4067SOL    HW213101   5.078   1.691   3.382
 4068SOL     OW13102   4.843   0.356   5.110
 4068SOL    HW113103   4.756   0.372   5.063
 4068SOL    HW213104   4.828   0.301   5.192
 4069SOL     OW13105   4.715   4.474   1.138
 4069SOL    HW113106   4.731   4.528   1.055
 4069SOL    HW213107   4.678   4.384   1.113
 4070SOL     OW13108   1.824   3.545   2.644
 4070SOL    HW113109   1.876   3.630   2.641
 4070SOL    HW213110   1.791   3.523   2.552
 4071SOL     OW13111   1.324   0.765   4.968
 4071SOL    HW113112   1.286   0.778   5.059
 4071SOL    HW213113   1.251   0.737   4.905
 4072SOL     OW13114   1.956   6.443   4.268
 4072SOL    HW113115   1.873   6.472   4.315
 4072SOL    HW213116   2.034   6.453   4.330
 4073SOL     OW13117   1.904   5.765   6.204
 4073SOL    HW113118   1.804   5.765   6.215
 4073SOL    HW213119   1.942   5.848   6.246
 4074SOL     OW13120   0.377   1.907   1.674
 4074SOL    HW113121   0.425   1.859   1.600
 4074SOL    HW213122   0.279   1.886   1.670
 4075SOL     OW13123   4.360   1.963   2.353
 4075SOL    HW113124   4.398   1.892   2.411
 4075SOL    HW213125   4.401   1.957   2.262
 4076SOL     OW13126   2.244   3.821   5.254
 4076SOL    HW113127   2.186   3.793   5.177
 4076SOL    HW213128   2.295   3.903   5.229
 4077SOL     OW13129   2.877   6.632   0.620
 4077SOL    HW113130   2.939   6.556   0.637
 4077SOL    HW213131   2.894   6.669   0.529
 4078SOL     OW13132   6.437   4.534   1.999
 4078SOL    HW113133   6.350   4.582   2.001
 4078SOL    HW213134   6.509   4.590   2.041
 4079SOL     OW13135   0.875   1.219   3.371
 4079SOL    HW113136   0.843   1.172   3.288
 4079SOL    HW213137   0.900   1.313   3.348
 4080SOL     OW13138   2.927   4.095   0.397
 4080SOL    HW113139   2.964   4.132   0.482
 4080SOL    HW213140   2.943   3.996   0.395
 4081SOL     OW13141   2.374   1.410   4.885
 4081SOL    HW113142   2.332   1.425   4.974
 4081SOL    HW213143   2.453   1.470   4.874
 4082SOL     OW13144   1.046   2.215   6.003
 4082SOL    HW113145   1.145   2.222   5.993
 4082SOL    HW213146   1.008   2.304   6.029
 4083SOL     OW13147   6.328   4.610   3.201
 4083SOL    HW113148   6.415   4.562   3.217
 4083SOL    HW213149   6.252   4.548   3.219
 4084SOL     OW13150   4.635   2.622   2.871
 4084SOL    HW113151   4.653   2.720   2.883
 4084SOL    HW213152   4.599   2.584   2.957
 4085SOL     OW13153   2.493   5.495   1.360
 4085SOL    HW113154   2.568   5.448   1.314
 4085SOL    HW213155   2.461   5.439   1.437
 4086SOL     OW13156   6.887   5.585   6.803
 4086SOL    HW113157   6.808   5.646   6.799
 4086SOL    HW213158   6.858   5.494   6.831
 4087SOL     OW13159   2.805   0.018   2.644
 4087SOL    HW113160   2.893   0.066   2.648
 4087SOL    HW213161   2.746   0.063   2.577
 4088SOL     OW13162   6.678   0.867   5.384
 4088SOL    HW113163   6.696   0.771   5.367
 4088SOL    HW213164   6.627   0.877   5.469
 4089SOL     OW13165   0.043   5.940   4.281
 4089SOL    HW113166   0.077   5.982   4.197
 4089SOL    HW213167   0.117   5.932   4.347
 4090SOL     OW13168   2.139   6.671   4.644
 4090SOL    HW113169   2.064   6.645   4.705
 4090SOL    HW213170   2.199   6.737   4.690
 4091SOL     OW13171   1.268   4.897   0.865
 4091SOL    HW113172   1.311   4.980   0.900
 4091SOL    HW213173   1.221   4.917   0.779
 4092SOL     OW13174   4.847   2.920   4.826
 4092SOL    HW113175   4.838   2.993   4.758
 4092SOL    HW213176   4.787   2.844   4.800
 4093SOL     OW13177   6.117   5.271   2.249
 4093SOL    HW113178   6.200   5.279   2.303
 4093SOL    HW213179   6.040   5.309   2.300
 4094SOL     OW13180   0.342   5.014   6.917
 4094SOL    HW113181   0.372   4.921   6.935
 4094SOL    HW213182   0.243   5.020   6.930
 4095SOL     OW13183   0.325   3.728   7.017
 4095SOL    HW113184   0.302   3.643   6.968
 4095SOL    HW213185   0.248   3.791   7.011
 4096SOL     OW13186   2.175   1.366   6.582
 4096SOL    HW113187   2.183   1.283   6.527
 4096SOL    HW213188   2.079   1.386   6.599
 4097SOL     OW13189   6.885   4.406   5.290
 4097SOL    HW113190   6.866   4.328   5.351
 4097SOL    HW213191   6.831   4.396   5.207
 4098SOL     OW13192   1.880   3.860   1.870
 4098SOL    HW113193   1.934   3.824   1.794
 4098SOL    HW213194   1.783   3.843   1.853
 4099SOL     OW13195   4.529   4.880   6.598
 4099SOL    HW113196   4.456   4.947   6.610
 4099SOL    HW213197   4.607   4.905   6.655
 4100SOL     OW13198   1.162   1.537   3.556
 4100SOL    HW113199   1.242   1.584   3.518
 4100SOL    HW213200   1.179   1.438   3.556
 4101SOL     OW13201   6.695   0.750   6.699
 4101SOL    HW113202   6.595   0.742   6.703
 4101SOL    HW213203   6.727   0.715   6.611
 4102SOL     OW13204   1.954   0.746   0.201
 4102SOL    HW113205   1.941   0.843   0.221
 4102SOL    HW213206   1.870   0.709   0.161
 4103SOL     OW13207   0.274   6.459   2.390
 4103SOL    HW113208   0.195   6.405   2.363
 4103SOL    HW213209   0.344   6.453   2.319
 4104SOL     OW13210   0.368   5.614   3.092
 4104SOL    HW113211   0.359   5.517   3.114
 4104SOL    HW213212   0.278   5.652   3.071
 4105SOL     OW13213   4.623   1.240   1.592
 4105SOL    HW113214   4.643   1.251   1.690
 4105SOL    HW213215   4.651   1.322   1.543
 4106SOL     OW13216   0.279   2.173   3.792
 4106SOL    HW113217   0.306   2.080   3.815
 4106SOL    HW213218   0.181   2.174   3.771
 4107SOL     OW13219   0.506   6.188   6.307
 4107SOL    HW113220   0.448   6.263   6.341
 4107SOL    HW213221   0.547   6.215   6.220
 4108SOL     OW13222   0.510   4.972   4.237
 4108SOL    HW113223   0.414   4.998   4.226
 4108SOL    HW213224   0.567   5.030   4.178
 4109SOL     OW13225   5.990   5.875   3.278
 4109SOL    HW113226   6.004   5.782   3.244
 4109SOL    HW213227   5.921   5.921   3.222
 4110SOL     OW13228   4.504   2.971   6.783
 4110SOL    HW113229   4.585   2.952   6.727
 4110SOL    HW213230   4.533   3.006   6.872
 4111SOL     OW13231   6.705   5.388   6.477
 4111SOL    HW113232   6.649   5.355   6.553
 4111SOL    HW213233   6.794   5.343   6.480
 4112SOL     OW13234   4.864   6.407   5.058
 4112SOL    HW113235   4.834   6.314   5.081
 4112SOL    HW213236   4.787   6.470   5.068
 4113SOL     OW13237   4.388   4.709   4.819
 4113SOL    HW113238   4.459   4.773   4.847
 4113SOL    HW213239   4.389   4.629   4.880
 4114SOL     OW13240   6.103   1.663   3.518
 4114SOL    HW113241   6.169   1.716   3.466
 4114SOL    HW213242   6.074   1.583   3.465
 4115SOL     OW13243   2.750   5.095   3.278
 4115SOL    HW113244   2.763   5.101   3.179
 4115SOL    HW213245   2.676   5.156   3.306
 4116SOL     OW13246   5.557   2.234   3.394
 4116SOL    HW113247   5.642   2.181   3.396
 4116SOL    HW213248   5.479   2.171   3.387
 4117SOL     OW13249   1.454   2.067   2.339
 4117SOL    HW113250   1.363   2.104   2.359
 4117SOL    HW213251   1.455   1.969   2.362
 4118SOL     OW13252   6.528   6.620   6.721
 4118SOL    HW113253   6.430   6.622   6.740
 4118SOL    HW213254   6.564   6.530   6.745
 4119SOL     OW13255   2.889   0.910   3.354
 4119SOL    HW113256   2.880   0.812   3.333
 4119SOL    HW213257   2.826   0.934   3.428
 4120SOL     OW13258   3.268   1.259   6.573
 4120SOL    HW113259   3.304   1.228   6.485
 4120SOL    HW213260   3.287   1.357   6.585
 4121SOL     OW13261   6.805   6.552   2.582
 4121SOL    HW113262   6.783   6.649   2.572
 4121SOL    HW213263   6.757   6.516   2.663
 4122SOL     OW13264   0.310   5.557   4.351
 4122SOL    HW113265   0.211   5.566   4.358
 4122SOL    HW213266   0.349   5.644   4.321
 4123SOL     OW13267   4.014   4.880   4.201
 4123SOL    HW113268   4.052   4.906   4.112
 4123SOL    HW213269   4.033   4.951   4.268
 4124SOL     OW13270   6.869   6.257   0.873
 4124SOL    HW113271   6.798   6.325   0.888
 4124SOL    HW213272   6.926   6.250   0.956
 4125SOL     OW13273   5.064   2.580   2.563
 4125SOL    HW113274   5.068   2.559   2.465
 4125SOL    HW213275   4.968   2.580   2.592
 4126SOL     OW13276   1.196   2.905   1.978
 4126SOL    HW113277   1.266   2.921   2.048
 4126SOL    HW213278   1.225   2.830   1.919
 4127SOL     OW13279   3.879   2.120   4.060
 4127SOL    HW113280   3.969   2.143   4.022
 4127SOL    HW213281   3.879   2.142   4.158
 4128SOL     OW13282   0.417   2.942   1.734
 4128SOL    HW113283   0.369   3.027   1.759
 4128SOL    HW213284   0.481   2.918   1.806
 4129SOL     OW13285   3.642   2.504   0.640
 4129SOL    HW113286   3.554   2.530   0.680
 4129SOL    HW213287   3.714   2.561   0.680
 4130SOL     OW13288   6.410   2.617   1.175
 4130SOL    HW113289   6.413   2.700   1.230
 4130SOL    HW213290   6.383   2.639   1.081
 4131SOL     OW13291   5.805   0.573   2.473
 4131SOL    HW113292   5.862   0.565   2.391
 4131SOL    HW213293   5.823   0.495   2.534
 4132SOL     OW13294   6.509   4.239   4.640
 4132SOL    HW113295   6.421   4.192   4.640
 4132SOL    HW213296   6.547   4.240   4.547
 4133SOL     OW13297   5.302   6.381   1.377
 4133SOL    HW113298   5.241   6.319   1.426
 4133SOL    HW213299   5.321   6.344   1.286
 4134SOL     OW13300   2.372   3.872   1.410
 4134SOL    HW113301   2.296   3.807   1.422
 4134SOL    HW213302   2.429   3.843   1.333
 4135SOL     OW13303   0.551   2.149   2.300
 4135SOL    HW113304   0.542   2.248   2.288
 4135SOL    HW213305   0.544   2.103   2.211
 4136SOL     OW13306   0.423   4.012   1.100
 4136SOL    HW113307   0.406   4.111   1.105
 4136SOL    HW213308   0.516   3.993   1.131
 4137SOL     OW13309   1.888   2.589   0.370
 4137SOL    HW113310   1.888   2.661   0.301
 4137SOL    HW213311   1.796   2.576   0.406
 4138SOL     OW13312   4.261   5.384   0.792
 4138SOL    HW113313   4.353   5.374   0.755
 4138SOL    HW213314   4.197   5.406   0.718
 4139SOL     OW13315   1.490   2.134   3.077
 4139SOL    HW113316   1.573   2.129   3.131
 4139SOL    HW213317   1.513   2.142   2.980
 4140SOL     OW13318   2.776   2.283   4.045
 4140SOL    HW113319   2.796   2.306   3.950
 4140SOL    HW213320   2.708   2.210   4.048
 4141SOL     OW13321   4.323   6.888   6.515
 4141SOL    HW113322   4.339   6.985   6.532
 4141SOL    HW213323   4.372   6.860   6.432
 4142SOL     OW13324   6.323   3.808   1.907
 4142SOL    HW113325   6.397   3.873   1.922
 4142SOL    HW213326   6.236   3.851   1.932
 4143SOL     OW13327   5.978   3.517   0.670
 4143SOL    HW113328   5.957   3.575   0.749
 4143SOL    HW213329   6.047   3.449   0.695
 4144SOL     OW13330   5.287   1.608   0.824
 4144SOL    HW113331   5.190   1.622   0.805
 4144SOL    HW213332   5.340   1.683   0.784
 4145SOL     OW13333   0.991   6.142   0.963
 4145SOL    HW113334   0.980   6.235   0.928
 4145SOL    HW213335   0.931   6.129   1.042
 4146SOL     OW13336   5.913   6.734   4.090
 4146SOL    HW113337   5.998   6.686   4.067
 4146SOL    HW213338   5.863   6.755   4.006
 4147SOL     OW13339   5.446   4.617   5.915
 4147SOL    HW113340   5.462   4.678   5.992
 4147SOL    HW213341   5.527   4.614   5.857
 4148SOL     OW13342   3.302   6.929   5.665
 4148SOL    HW113343   3.295   6.932   5.765
 4148SOL    HW213344   3.310   6.834   5.635
 4149SOL     OW13345   1.632   2.873   1.146
 4149SOL    HW113346   1.646   2.838   1.053
 4149SOL    HW213347   1.609   2.970   1.142
 4150SOL     OW13348   6.464   2.980   5.665
 4150SOL    HW113349   6.418   2.903   5.709
 4150SOL    HW213350   6.549   3.000   5.714
 4151SOL     OW13351   2.386   0.019   4.669
 4151SOL    HW113352   2.326   0.062   4.601
 4151SOL    HW213353   2.466   0.077   4.685
 4152SOL     OW13354   3.707   5.427   2.092
 4152SOL    HW113355   3.673   5.491   2.023
 4152SOL    HW213356   3.635   5.360   2.113
 4153SOL     OW13357   6.441   4.688   1.390
 4153SOL    HW113358   6.431   4.744   1.307
 4153SOL    HW213359   6.526   4.636   1.385
 4154SOL     OW13360   0.035   5.794   3.618
 4154SOL    HW113361   6.977   5.752   3.580
 4154SOL    HW213362   0.100   5.812   3.545
 4155SOL     OW13363   6.847   1.925   1.628
 4155SOL    HW113364   6.907   1.903   1.551
 4155SOL    HW213365   6.752   1.914   1.600
 4156SOL     OW13366   6.756   5.011   5.093
 4156SOL    HW113367   6.811   5.034   5.014
 4156SOL    HW213368   6.800   5.044   5.177
 4157SOL     OW13369   6.473   6.481   2.316
 4157SOL    HW113370   6.512   6.430   2.392
 4157SOL    HW213371   6.386   6.522   2.344
 4158SOL     OW13372   2.133   2.260   1.368
 4158SOL    HW113373   2.178   2.349   1.357
 4158SOL    HW213374   2.110   2.245   1.464
 4159SOL     OW13375   2.904   2.147   2.855
 4159SOL    HW113376   2.874   2.137   2.950
 4159SOL    HW213377   2.839   2.205   2.805
 4160SOL     OW13378   6.473   0.221   6.731
 4160SOL    HW113379   6.375   0.221   6.710
 4160SOL    HW213380   6.492   0.291   6.800
 4161SOL     OW13381   1.820   2.154   1.131
 4161SOL    HW113382   1.775   2.108   1.054
 4161SOL    HW213383   1.907   2.192   1.100
 4162SOL     OW13384   6.669   5.760   0.838
 4162SOL    HW113385   6.666   5.809   0.925
 4162SOL    HW213386   6.656   5.662   0.855
 4163SOL     OW13387   5.394   0.971   2.587
 4163SOL    HW113388   5.396   0.930   2.495
 4163SOL    HW213389   5.488   0.980   2.621
 4164SOL     OW13390   0.076   6.890   5.490
 4164SOL    HW113391   0.136   6.814   5.512
 4164SOL    HW213392   0.003   6.895   5.558
 4165SOL     OW13393   4.228   0.166   5.773
 4165SOL    HW113394   4.213   0.263   5.756
 4165SOL    HW213395   4.259   0.121   5.688
 4166SOL     OW13396   6.310   1.103   1.869
 4166SOL    HW113397   6.357   1.074   1.786
 4166SOL    HW213398   6.356   1.064   1.949
 4167SOL     OW13399   2.358   4.636   5.782
 4167SOL    HW113400   2.414   4.602   5.857
 4167SOL    HW213401   2.415   4.646   5.700
 4168SOL     OW13402   0.084   4.333   0.332
 4168SOL    HW113403   0.069   4.421   0.287
 4168SOL    HW213404   0.085   4.260   0.263
 4169SOL     OW13405   5.881   4.282   5.297
 4169SOL    HW113406   5.846   4.254   5.387
 4169SOL    HW213407   5.867   4.381   5.286
 4170SOL     OW13408   4.814   3.105   4.629
 4170SOL    HW113409   4.848   3.023   4.584
 4170SOL    HW213410   4.842   3.186   4.577
 4171SOL     OW13411   1.112   4.874   1.410
 4171SOL    HW113412   1.109   4.900   1.314
 4171SOL    HW213413   1.207   4.867   1.441
 4172SOL     OW13414   2.689   3.360   0.566
 4172SOL    HW113415   2.658   3.422   0.493
 4172SOL    HW213416   2.734   3.281   0.525
 4173SOL     OW13417   4.337   2.812   5.682
 4173SOL    HW113418   4.321   2.726   5.634
 4173SOL    HW213419   4.297   2.807   5.773
 4174SOL     OW13420   4.597   0.470   3.082
 4174SOL    HW113421   4.519   0.472   3.145
 4174SOL    HW213422   4.640   0.560   3.080
 4175SOL     OW13423   1.515   4.723   5.730
 4175SOL    HW113424   1.571   4.773   5.663
 4175SOL    HW213425   1.576   4.675   5.794
 4176SOL     OW13426   4.706   6.161   0.775
 4176SOL    HW113427   4.659   6.242   0.811
 4176SOL    HW213428   4.805   6.172   0.789
 4177SOL     OW13429   5.445   4.829   4.858
 4177SOL    HW113430   5.430   4.928   4.864
 4177SOL    HW213431   5.543   4.810   4.853
 4178SOL     OW13432   4.698   6.750   2.657
 4178SOL    HW113433   4.607   6.777   2.689
 4178SOL    HW213434   4.688   6.670   2.597
 4179SOL     OW13435   5.438   3.989   3.695
 4179SOL    HW113436   5.359   4.037   3.732
 4179SOL    HW213437   5.408   3.930   3.619
 4180SOL     OW13438   5.487   3.518   0.820
 4180SOL    HW113439   5.499   3.617   0.818
 4180SOL    HW213440   5.563   3.474   0.773
 4181SOL     OW13441   5.239   0.738   6.253
 4181SOL    HW113442   5.308   0.808   6.272
 4181SOL    HW213443   5.208   0.697   6.338
 4182SOL     OW13444   0.283   5.113   3.756
 4182SOL    HW113445   0.343   5.088   3.680
 4182SOL    HW213446   0.273   5.212   3.759
 4183SOL     OW13447   2.390   0.619   0.918
 4183SOL    HW113448   2.395   0.625   0.819
 4183SOL    HW213449   2.475   0.652   0.959
 4184SOL     OW13450   3.786   6.908   1.999
 4184SOL    HW113451   3.878   6.944   1.980
 4184SOL    HW213452   3.721   6.984   2.002
 4185SOL     OW13453   0.514   4.268   3.054
 4185SOL    HW113454   0.451   4.282   2.978
 4185SOL    HW213455   0.563   4.353   3.073
 4186SOL     OW13456   2.391   5.748   6.568
 4186SOL    HW113457   2.487   5.758   6.596
 4186SOL    HW213458   2.387   5.690   6.486
 4187SOL     OW13459   2.810   3.348   0.166
 4187SOL    HW113460   2.855   3.381   0.083
 4187SOL    HW213461   2.765   3.424   0.213
 4188SOL     OW13462   5.407   0.237   5.235
 4188SOL    HW113463   5.474   0.248   5.308
 4188SOL    HW213464   5.381   0.327   5.200
 4189SOL     OW13465   3.620   5.213   3.678
 4189SOL    HW113466   3.693   5.248   3.737
 4189SOL    HW213467   3.659   5.175   3.594
 4190SOL     OW13468   0.499   6.590   0.909
 4190SOL    HW113469   0.449   6.563   0.826
 4190SOL    HW213470   0.439   6.583   0.988
 4191SOL     OW13471   5.466   4.215   5.859
 4191SOL    HW113472   5.531   4.266   5.917
 4191SOL    HW213473   5.517   4.165   5.789
 4192SOL     OW13474   1.338   1.003   1.565
 4192SOL    HW113475   1.423   1.054   1.580
 4192SOL    HW213476   1.297   1.031   1.478
 4193SOL     OW13477   5.439   0.472   0.397
 4193SOL    HW113478   5.364   0.536   0.413
 4193SOL    HW213479   5.520   0.523   0.368
 4194SOL     OW13480   4.897   6.754   4.411
 4194SOL    HW113481   4.844   6.706   4.481
 4194SOL    HW213482   4.992   6.762   4.441
 4195SOL     OW13483   4.274   5.881   1.642
 4195SOL    HW113484   4.226   5.845   1.561
 4195SOL    HW213485   4.297   5.805   1.702
 4196SOL     OW13486   0.299   2.669   3.260
 4196SOL    HW113487   0.315   2.686   3.357
 4196SOL    HW213488   0.362   2.599   3.228
 4197SOL     OW13489   4.312   5.640   5.602
 4197SOL    HW113490   4.304   5.725   5.549
 4197SOL    HW213491   4.375   5.655   5.678
 4198SOL     OW13492   6.753   1.506   2.413
 4198SOL    HW113493   6.678   1.457   2.455
 4198SOL    HW213494   6.798   1.448   2.345
 4199SOL     OW13495   1.021   2.513   5.502
 4199SOL    HW113496   1.057   2.602   5.530
 4199SOL    HW213497   0.930   2.526   5.461
 4200SOL     OW13498   3.148   0.262   5.706
 4200SOL    HW113499   3.056   0.288   5.676
 4200SOL    HW213500   3.212   0.273   5.630
 4201SOL     OW13501   6.352   6.766   2.974
 4201SOL    HW113502   6.330   6.845   3.032
 4201SOL    HW213503   6.297   6.688   3.003
 4202SOL     OW13504   3.017   5.673   6.642
 4202SOL    HW113505   2.943   5.622   6.598
 4202SOL    HW213506   3.090   5.609   6.667
 4203SOL     OW13507   5.003   4.429   0.039
 4203SOL    HW113508   5.066   4.359   0.073
 4203SOL    HW213509   4.935   4.449   0.109
 4204SOL     OW13510   3.915   3.376   5.452
 4204SOL    HW113511   3.931   3.464   5.410
 4204SOL    HW213512   3.917   3.385   5.552
 4205SOL     OW13513   3.941   5.649   4.730
 4205SOL    HW113514   3.842   5.646   4.738
 4205SOL    HW213515   3.971   5.744   4.722
 4206SOL     OW13516   6.633   1.711   4.729
 4206SOL    HW113517   6.665   1.630   4.679
 4206SOL    HW213518   6.585   1.681   4.811
 4207SOL     OW13519   2.287   2.690   1.549
 4207SOL    HW113520   2.264   2.661   1.641
 4207SOL    HW213521   2.240   2.776   1.528
 4208SOL     OW13522   0.583   3.967   5.981
 4208SOL    HW113523   0.582   3.869   5.962
 4208SOL    HW213524   0.656   4.011   5.929
 4209SOL     OW13525   6.731   6.198   2.815
 4209SOL    HW113526   6.657   6.194   2.882
 4209SOL    HW213527   6.764   6.292   2.805
 4210SOL     OW13528   3.965   3.471   3.123
 4210SOL    HW113529   4.018   3.393   3.157
 4210SOL    HW213530   4.006   3.556   3.155
 4211SOL     OW13531   3.637   1.730   5.474
 4211SOL    HW113532   3.651   1.719   5.572
 4211SOL    HW213533   3.563   1.795   5.457
 4212SOL     OW13534   6.705   1.743   3.682
 4212SOL    HW113535   6.753   1.830   3.670
 4212SOL    HW213536   6.754   1.687   3.749
 4213SOL     OW13537   2.609   6.881   2.955
 4213SOL    HW113538   2.548   6.834   3.019
 4213SOL    HW213539   2.555   6.923   2.882
 4214SOL     OW13540   0.329   5.923   4.731
 4214SOL    HW113541   0.242   5.880   4.705
 4214SOL    HW213542   0.369   5.873   4.809
 4215SOL     OW13543   4.857   6.894   5.278
 4215SOL    HW113544   4.772   6.851   5.308
 4215SOL    HW213545   4.870   6.876   5.180
 4216SOL     OW13546   1.604   0.767   2.204
 4216SOL    HW113547   1.628   0.815   2.288
 4216SOL    HW213548   1.688   0.739   2.157
 4217SOL     OW13549   1.329   0.889   2.112
 4217SOL    HW113550   1.361   0.956   2.045
 4217SOL    HW213551   1.406   0.833   2.143
 4218SOL     OW13552   3.571   0.392   1.340
 4218SOL    HW113553   3.622   0.308   1.359
 4218SOL    HW213554   3.527   0.384   1.250
 4219SOL     OW13555   4.810   6.263   4.437
 4219SOL    HW113556   4.846   6.220   4.520
 4219SOL    HW213557   4.881   6.320   4.396
 4220SOL     OW13558   5.826   3.476   2.409
 4220SOL    HW113559   5.743   3.488   2.355
 4220SOL    HW213560   5.898   3.439   2.350
 4221SOL     OW13561   6.255   4.392   6.096
 4221SOL    HW113562   6.316   4.421   6.022
 4221SOL    HW213563   6.164   4.432   6.082
 4222SOL     OW13564   6.620   0.904   3.206
 4222SOL    HW113565   6.638   0.815   3.249
 4222SOL    HW213566   6.658   0.904   3.114
 4223SOL     OW13567   4.425   3.578   0.836
 4223SOL    HW113568   4.396   3.494   0.789
 4223SOL    HW213569   4.524   3.576   0.850
 4224SOL     OW13570   5.378   5.095   4.929
 4224SOL    HW113571   5.335   5.069   5.015
 4224SOL    HW213572   5.455   5.156   4.947
 4225SOL     OW13573   1.832   2.317   5.171
 4225SOL    HW113574   1.914   2.337   5.118
 4225SOL    HW213575   1.832   2.373   5.254
 4226SOL     OW13576   1.225   5.754   3.706
 4226SOL    HW113577   1.204   5.830   3.768
 4226SOL    HW213578   1.318   5.766   3.671
 4227SOL     OW13579   4.781   6.204   1.739
 4227SOL    HW113580   4.776   6.296   1.699
 4227SOL    HW213581   4.858   6.201   1.804
 4228SOL     OW13582   0.094   6.425   5.676
 4228SOL    HW113583   0.019   6.491   5.678
 4228SOL    HW213584   0.078   6.359   5.603
 4229SOL     OW13585   4.427   5.385   5.517
 4229SOL    HW113586   4.523   5.408   5.532
 4229SOL    HW213587   4.372   5.469   5.518
 4230SOL     OW13588   1.682   6.472   3.447
 4230SOL    HW113589   1.727   6.561   3.449
 4230SOL    HW213590   1.708   6.423   3.363
 4231SOL     OW13591   5.141   0.457   5.807
 4231SOL    HW113592   5.148   0.469   5.906
 4231SOL    HW213593   5.136   0.360   5.785
 4232SOL     OW13594   1.719   4.489   3.782
 4232SOL    HW113595   1.685   4.574   3.742
 4232SOL    HW213596   1.806   4.465   3.739
 4233SOL     OW13597   0.040   1.261   4.901
 4233SOL    HW113598   0.049   1.196   4.825
 4233SOL    HW213599   6.998   1.225   4.967
 4234SOL     OW13600   2.408   5.396   5.240
 4234SOL    HW113601   2.340   5.455   5.196
 4234SOL    HW213602   2.435   5.324   5.176
 4235SOL     OW13603   0.057   4.612   5.953
 4235SOL    HW113604   0.085   4.530   6.001
 4235SOL    HW213605   0.050   4.688   6.018
 4236SOL     OW13606   6.464   4.258   1.993
 4236SOL    HW113607   6.473   4.358   2.004
 4236SOL    HW213608   6.368   4.232   2.005
 4237SOL     OW13609   6.808   4.313   3.753
 4237SOL    HW113610   6.874   4.380   3.787
 4237SOL    HW213611   6.827   4.292   3.657
 4238SOL     OW13612   1.423   6.773   2.741
 4238SOL    HW113613   1.443   6.777   2.643
 4238SOL    HW213614   1.465   6.850   2.788
 4239SOL     OW13615   4.455   1.558   2.977
 4239SOL    HW113616   4.453   1.653   3.008
 4239SOL    HW213617   4.496   1.553   2.886
 4240SOL     OW13618   2.002   5.698   0.517
 4240SOL    HW113619   2.067   5.774   0.514
 4240SOL    HW213620   2.005   5.656   0.608
 4241SOL     OW13621   5.367   0.758   0.397
 4241SOL    HW113622   5.451   0.796   0.358
 4241SOL    HW213623   5.374   0.758   0.497
 4242SOL     OW13624   3.256   2.106   4.190
 4242SOL    HW113625   3.164   2.135   4.164
 4242SOL    HW213626   3.318   2.119   4.112
 4243SOL     OW13627   5.557   1.880   2.822
 4243SOL    HW113628   5.520   1.828   2.745
 4243SOL    HW213629   5.581   1.972   2.791
 4244SOL     OW13630   3.968   4.310   1.369
 4244SOL    HW113631   4.004   4.358   1.449
 4244SOL    HW213632   4.007   4.219   1.363
 4245SOL     OW13633   6.345   2.170   6.263
 4245SOL    HW113634   6.301   2.115   6.192
 4245SOL    HW213635   6.290   2.251   6.280
 4246SOL     OW13636   6.229   4.092   3.244
 4246SOL    HW113637   6.144   4.084   3.296
 4246SOL    HW213638   6.253   4.188   3.234
 4247SOL     OW13639   1.783   6.651   3.737
 4247SOL    HW113640   1.827   6.739   3.755
 4247SOL    HW213641   1.841   6.577   3.774
 4248SOL     OW13642   2.854   1.777   4.250
 4248SOL    HW113643   2.934   1.838   4.255
 4248SOL    HW213644   2.815   1.767   4.342
 4249SOL     OW13645   6.306   2.829   5.148
 4249SOL    HW113646   6.305   2.884   5.064
 4249SOL    HW213647   6.401   2.817   5.178
 4250SOL     OW13648   0.020   4.467   3.139
 4250SOL    HW113649   0.113   4.460   3.175
 4250SOL    HW213650   7.018   4.381   3.095
 4251SOL     OW13651   5.324   4.560   1.139
 4251SOL    HW113652   5.394   4.616   1.184
 4251SOL    HW213653   5.335   4.464   1.166
 4252SOL     OW13654   6.328   6.675   5.614
 4252SOL    HW113655   6.323   6.734   5.695
 4252SOL    HW213656   6.249   6.693   5.555
 4253SOL     OW13657   2.752   0.010   1.325
 4253SOL    HW113658   2.722   6.972   1.252
 4253SOL    HW213659   2.778   0.098   1.285
 4254SOL     OW13660   1.095   2.516   2.578
 4254SOL    HW113661   1.040   2.437   2.552
 4254SOL    HW213662   1.169   2.487   2.638
 4255SOL     OW13663   5.518   3.138   3.425
 4255SOL    HW113664   5.437   3.100   3.470
 4255SOL    HW213665   5.534   3.090   3.339
 4256SOL     OW13666   1.511   6.703   0.836
 4256SOL    HW113667   1.430   6.647   0.853
 4256SOL    HW213668   1.551   6.678   0.748
 4257SOL     OW13669   3.519   0.381   4.648
 4257SOL    HW113670   3.507   0.479   4.634
 4257SOL    HW213671   3.525   0.335   4.559
 4258SOL     OW13672   5.831   6.329   1.400
 4258SOL    HW113673   5.907   6.325   1.465
 4258SOL    HW213674   5.812   6.424   1.377
 4259SOL     OW13675   2.849   0.450   6.616
 4259SOL    HW113676   2.886   0.383   6.681
 4259SOL    HW213677   2.750   0.442   6.612
 4260SOL     OW13678   5.070   6.843   5.568
 4260SOL    HW113679   4.999   6.810   5.629
 4260SOL    HW213680   5.109   6.766   5.517
 4261SOL     OW13681   1.929   0.809   1.695
 4261SOL    HW113682   2.007   0.796   1.756
 4261SOL    HW213683   1.847   0.769   1.737
 4262SOL     OW13684   0.691   4.849   6.086
 4262SOL    HW113685   0.637   4.796   6.020
 4262SOL    HW213686   0.787   4.821   6.080
 4263SOL     OW13687   2.878   6.378   3.141
 4263SOL    HW113688   2.871   6.342   3.235
 4263SOL    HW213689   2.966   6.423   3.129
 4264SOL     OW13690   0.151   2.338   2.503
 4264SOL    HW113691   0.071   2.378   2.548
 4264SOL    HW213692   0.154   2.239   2.521
 4265SOL     OW13693   5.613   1.454   0.596
 4265SOL    HW113694   5.615   1.359   0.629
 4265SOL    HW213695   5.580   1.513   0.669
 4266SOL     OW13696   1.960   5.509   0.732
 4266SOL    HW113697   1.994   5.580   0.793
 4266SOL    HW213698   2.024   5.432   0.731
 4267SOL     OW13699   1.830   3.562   5.396
 4267SOL    HW113700   1.845   3.660   5.408
 4267SOL    HW213701   1.732   3.544   5.387
 4268SOL     OW13702   1.472   6.495   5.746
 4268SOL    HW113703   1.441   6.448   5.664
 4268SOL    HW213704   1.397   6.548   5.785
 4269SOL     OW13705   2.277   1.131   1.154
 4269SOL    HW113706   2.246   1.036   1.146
 4269SOL    HW213707   2.322   1.159   1.069
 4270SOL     OW13708   3.155   3.014   4.353
 4270SOL    HW113709   3.131   3.111   4.353
 4270SOL    HW213710   3.075   2.959   4.379
 4271SOL     OW13711   0.584   1.338   6.419
 4271SOL    HW113712   0.623   1.406   6.481
 4271SOL    HW213713   0.520   1.383   6.357
 4272SOL     OW13714   0.785   4.626   4.906
 4272SOL    HW113715   0.856   4.560   4.879
 4272SOL    HW213716   0.824   4.691   4.972
 4273SOL     OW13717   4.875   6.075   4.991
 4273SOL    HW113718   4.970   6.049   4.978
 4273SOL    HW213719   4.826   6.068   4.904
 4274SOL     OW13720   1.685   6.693   2.338
 4274SOL    HW113721   1.776   6.702   2.378
 4274SOL    HW213722   1.652   6.599   2.351
 4275SOL     OW13723   6.602   1.880   5.025
 4275SOL    HW113724   6.687   1.879   4.972
 4275SOL    HW213725   6.608   1.951   5.095
 4276SOL     OW13726   1.157   4.575   4.066
 4276SOL    HW113727   1.223   4.630   4.014
 4276SOL    HW213728   1.150   4.484   4.026
 4277SOL     OW13729   6.141   4.582   4.197
 4277SOL    HW113730   6.238   4.604   4.192
 4277SOL    HW213731   6.116   4.562   4.292
 4278SOL     OW13732   6.818   0.744   4.487
 4278SOL    HW113733   6.751   0.794   4.433
 4278SOL    HW213734   6.773   0.670   4.536
 4279SOL     OW13735   3.608   6.963   5.732
 4279SOL    HW113736   3.536   6.924   5.674
 4279SOL    HW213737   3.595   0.038   5.738
 4280SOL     OW13738   5.071   1.154   5.137
 4280SOL    HW113739   5.042   1.159   5.233
 4280SOL    HW213740   5.076   1.058   5.109
 4281SOL     OW13741   2.463   4.724   4.517
 4281SOL    HW113742   2.481   4.638   4.564
 4281SOL    HW213743   2.460   4.799   4.583
 4282SOL     OW13744   3.164   2.552   0.574
 4282SOL    HW113745   3.192   2.500   0.494
 4282SOL    HW213746   3.069   2.530   0.596
 4283SOL     OW13747   1.939   0.989   3.686
 4283SOL    HW113748   1.855   0.957   3.729
 4283SOL    HW213749   2.017   0.962   3.741
 4284SOL     OW13750   4.972   5.867   1.733
 4284SOL    HW113751   5.041   5.939   1.725
 4284SOL    HW213752   4.947   5.834   1.642
 4285SOL     OW13753   0.718   0.595   5.767
 4285SOL    HW113754   0.630   0.614   5.724
 4285SOL    HW213755   0.760   0.681   5.797
 4286SOL     OW13756   5.263   5.834   6.720
 4286SOL    HW113757   5.308   5.921   6.698
 4286SOL    HW213758   5.234   5.835   6.815
 4287SOL     OW13759   5.506   1.194   6.174
 4287SOL    HW113760   5.476   1.150   6.089
 4287SOL    HW213761   5.590   1.150   6.207
 4288SOL     OW13762   1.092   5.898   3.483
 4288SOL    HW113763   1.020   5.832   3.461
 4288SOL    HW213764   1.140   5.868   3.565
 4289SOL     OW13765   6.124   3.369   0.855
 4289SOL    HW113766   6.097   3.286   0.903
 4289SOL    HW213767   6.165   3.434   0.920
 4290SOL     OW13768   3.091   6.559   2.294
 4290SOL    HW113769   3.177   6.593   2.256
 4290SOL    HW213770   3.073   6.467   2.261
 4291SOL     OW13771   4.426   3.676   1.694
 4291SOL    HW113772   4.393   3.769   1.680
 4291SOL    HW213773   4.366   3.629   1.759
 4292SOL     OW13774   6.538   4.534   6.099
 4292SOL    HW113775   6.469   4.560   6.166
 4292SOL    HW213776   6.628   4.565   6.130
 4293SOL     OW13777   0.282   2.967   0.546
 4293SOL    HW113778   0.333   3.051   0.568
 4293SOL    HW213779   0.287   2.950   0.448
 4294SOL     OW13780   3.452   2.942   0.219
 4294SOL    HW113781   3.507   3.000   0.279
 4294SOL    HW213782   3.512   2.894   0.155
 4295SOL     OW13783   3.974   6.043   4.970
 4295SOL    HW113784   4.073   6.038   4.965
 4295SOL    HW213785   3.936   5.950   4.979
 4296SOL     OW13786   3.581   1.129   0.249
 4296SOL    HW113787   3.499   1.074   0.233
 4296SOL    HW213788   3.652   1.104   0.183
 4297SOL     OW13789   5.480   0.776   6.033
 4297SOL    HW113790   5.445   0.708   6.097
 4297SOL    HW213791   5.426   0.774   5.949
 4298SOL     OW13792   2.833   5.091   6.378
 4298SOL    HW113793   2.836   5.085   6.278
 4298SOL    HW213794   2.740   5.073   6.410
 4299SOL     OW13795   0.327   2.946   0.248
 4299SOL    HW113796   0.249   2.976   0.193
 4299SOL    HW213797   0.357   2.856   0.217
 4300SOL     OW13798   3.911   1.345   6.909
 4300SOL    HW113799   3.950   1.348   6.817
 4300SOL    HW213800   3.817   1.311   6.904
 4301SOL     OW13801   3.000   1.301   0.683
 4301SOL    HW113802   3.053   1.339   0.607
 4301SOL    HW213803   2.905   1.332   0.676
 4302SOL     OW13804   0.779   6.752   5.402
 4302SOL    HW113805   0.715   6.817   5.363
 4302SOL    HW213806   0.738   6.661   5.404
 4303SOL     OW13807   6.006   5.001   3.902
 4303SOL    HW113808   5.971   5.013   3.995
 4303SOL    HW213809   6.054   5.084   3.873
 4304SOL     OW13810   3.031   3.446   4.141
 4304SOL    HW113811   2.999   3.513   4.074
 4304SOL    HW213812   3.021   3.485   4.233
 4305SOL     OW13813   5.849   1.190   4.032
 4305SOL    HW113814   5.778   1.120   4.019
 4305SOL    HW213815   5.826   1.246   4.112
 4306SOL     OW13816   6.577   3.604   6.636
 4306SOL    HW113817   6.523   3.687   6.645
 4306SOL    HW213818   6.566   3.565   6.545
 4307SOL     OW13819   5.108   3.900   6.443
 4307SOL    HW113820   5.199   3.898   6.400
 4307SOL    HW213821   5.038   3.908   6.373
 4308SOL     OW13822   5.659   5.254   6.318
 4308SOL    HW113823   5.739   5.313   6.320
 4308SOL    HW213824   5.593   5.289   6.252
 4309SOL     OW13825   1.195   0.883   0.529
 4309SOL    HW113826   1.258   0.897   0.605
 4309SOL    HW213827   1.104   0.863   0.564
 4310SOL     OW13828   2.222   2.485   3.091
 4310SOL    HW113829   2.155   2.552   3.123
 4310SOL    HW213830   2.218   2.479   2.991
 4311SOL     OW13831   1.362   5.721   3.232
 4311SOL    HW113832   1.332   5.665   3.309
 4311SOL    HW213833   1.453   5.760   3.252
 4312SOL     OW13834   1.428   5.454   1.135
 4312SOL    HW113835   1.386   5.513   1.066
 4312SOL    HW213836   1.510   5.411   1.097
 4313SOL     OW13837   4.989   1.337   1.603
 4313SOL    HW113838   4.983   1.257   1.662
 4313SOL    HW213839   5.041   1.409   1.649
 4314SOL     OW13840   6.043   1.894   4.173
 4314SOL    HW113841   6.051   1.947   4.089
 4314SOL    HW213842   5.956   1.915   4.218
 4315SOL     OW13843   2.578   0.530   1.950
 4315SOL    HW113844   2.508   0.461   1.966
 4315SOL    HW213845   2.645   0.528   2.024
 4316SOL     OW13846   5.091   7.014   1.021
 4316SOL    HW113847   5.131   6.927   0.991
 4316SOL    HW213848   4.996   6.999   1.046
 4317SOL     OW13849   4.025   1.185   4.588
 4317SOL    HW113850   4.063   1.234   4.510
 4317SOL    HW213851   4.071   1.097   4.597
 4318SOL     OW13852   1.351   3.119   3.471
 4318SOL    HW113853   1.279   3.161   3.526
 4318SOL    HW213854   1.436   3.171   3.482
 4319SOL     OW13855   2.102   3.062   0.704
 4319SOL    HW113856   2.050   3.052   0.789
 4319SOL    HW213857   2.039   3.083   0.629
 4320SOL     OW13858   0.329   5.844   1.793
 4320SOL    HW113859   0.348   5.896   1.710
 4320SOL    HW213860   0.327   5.906   1.871
 4321SOL     OW13861   6.805   0.261   4.047
 4321SOL    HW113862   6.820   0.359   4.063
 4321SOL    HW213863   6.892   0.212   4.053
 4322SOL     OW13864   6.044   2.000   6.406
 4322SOL    HW113865   6.134   2.031   6.376
 4322SOL    HW213866   6.042   1.992   6.506
 4323SOL     OW13867   5.180   4.056   1.543
 4323SOL    HW113868   5.147   4.124   1.478
 4323SOL    HW213869   5.267   4.018   1.511
 4324SOL     OW13870   6.083   4.286   6.519
 4324SOL    HW113871   6.049   4.226   6.592
 4324SOL    HW213872   6.005   4.326   6.470
 4325SOL     OW13873   1.825   0.692   0.441
 4325SOL    HW113874   1.841   0.594   0.432
 4325SOL    HW213875   1.862   0.739   0.360
 4326SOL     OW13876   5.666   2.824   4.665
 4326SOL    HW113877   5.622   2.853   4.580
 4326SOL    HW213878   5.760   2.796   4.645
 4327SOL     OW13879   5.743   5.286   2.336
 4327SOL    HW113880   5.744   5.221   2.412
 4327SOL    HW213881   5.711   5.375   2.369
 4328SOL     OW13882   4.302   3.925   5.755
 4328SOL    HW113883   4.318   4.013   5.709
 4328SOL    HW213884   4.212   3.928   5.801
 4329SOL     OW13885   3.884   1.757   6.387
 4329SOL    HW113886   3.910   1.852   6.406
 4329SOL    HW213887   3.941   1.722   6.312
 4330SOL     OW13888   2.821   0.448   4.929
 4330SOL    HW113889   2.885   0.373   4.911
 4330SOL    HW213890   2.865   0.516   4.987
 4331SOL     OW13891   4.394   3.143   0.771
 4331SOL    HW113892   4.397   3.048   0.738
 4331SOL    HW213893   4.341   3.148   0.855
 4332SOL     OW13894   5.340   4.642   2.187
 4332SOL    HW113895   5.330   4.543   2.182
 4332SOL    HW213896   5.288   4.677   2.265
 4333SOL     OW13897   4.548   0.874   5.632
 4333SOL    HW113898   4.624   0.829   5.679
 4333SOL    HW213899   4.582   0.955   5.584
 4334SOL     OW13900   1.949   2.230   2.498
 4334SOL    HW113901   1.852   2.248   2.477
 4334SOL    HW213902   2.001   2.314   2.486
 4335SOL     OW13903   3.149   4.008   3.500
 4335SOL    HW113904   3.200   3.922   3.492
 4335SOL    HW213905   3.114   4.017   3.593
 4336SOL     OW13906   1.208   6.844   5.595
 4336SOL    HW113907   1.115   6.809   5.599
 4336SOL    HW213908   1.272   6.770   5.574
 4337SOL     OW13909   1.212   4.439   0.437
 4337SOL    HW113910   1.205   4.471   0.532
 4337SOL    HW213911   1.194   4.515   0.375
 4338SOL     OW13912   5.147   5.639   4.087
 4338SOL    HW113913   5.091   5.710   4.044
 4338SOL    HW213914   5.207   5.680   4.156
 4339SOL     OW13915   6.170   4.057   5.120
 4339SOL    HW113916   6.168   4.135   5.057
 4339SOL    HW213917   6.108   3.986   5.086
 4340SOL     OW13918   5.938   4.395   2.567
 4340SOL    HW113919   5.943   4.298   2.591
 4340SOL    HW213920   6.025   4.439   2.589
 4341SOL     OW13921   0.894   5.449   2.150
 4341SOL    HW113922   0.878   5.484   2.057
 4341SOL    HW213923   0.916   5.352   2.144
 4342SOL     OW13924   6.903   3.857   3.905
 4342SOL    HW113925   6.836   3.922   3.867
 4342SOL    HW213926   6.917   3.783   3.840
 4343SOL     OW13927   2.460   6.581   5.959
 4343SOL    HW113928   2.541   6.563   6.015
 4343SOL    HW213929   2.385   6.523   5.990
 4344SOL     OW13930   1.867   5.111   2.909
 4344SOL    HW113931   1.824   5.051   2.977
 4344SOL    HW213932   1.964   5.086   2.900
 4345SOL     OW13933   1.949   2.777   5.546
 4345SOL    HW113934   1.887   2.720   5.599
 4345SOL    HW213935   1.935   2.760   5.448
 4346SOL     OW13936   1.840   3.047   1.891
 4346SOL    HW113937   1.854   3.137   1.933
 4346SOL    HW213938   1.851   3.055   1.792
 4347SOL     OW13939   5.935   7.021   2.776
 4347SOL    HW113940   5.955   7.002   2.680
 4347SOL    HW213941   5.924   0.096   2.788
 4348SOL     OW13942   0.413   3.456   2.392
 4348SOL    HW113943   0.449   3.365   2.373
 4348SOL    HW213944   0.325   3.467   2.346
 4349SOL     OW13945   6.765   1.869   2.788
 4349SOL    HW113946   6.693   1.931   2.817
 4349SOL    HW213947   6.729   1.776   2.782
 4350SOL     OW13948   4.865   2.337   4.171
 4350SOL    HW113949   4.881   2.291   4.258
 4350SOL    HW213950   4.883   2.435   4.181
 4351SOL     OW13951   1.757   6.502   0.954
 4351SOL    HW113952   1.760   6.602   0.961
 4351SOL    HW213953   1.835   6.463   1.003
 4352SOL     OW13954   1.183   2.112   2.148
 4352SOL    HW113955   1.155   2.055   2.225
 4352SOL    HW213956   1.233   2.192   2.183
 4353SOL     OW13957   3.452   4.442   0.210
 4353SOL    HW113958   3.520   4.460   0.282
 4353SOL    HW213959   3.486   4.369   0.151
 4354SOL     OW13960   2.600   6.755   5.101
 4354SOL    HW113961   2.690   6.751   5.144
 4354SOL    HW213962   2.534   6.704   5.156
 4355SOL     OW13963   3.229   0.613   2.325
 4355SOL    HW113964   3.153   0.623   2.261
 4355SOL    HW213965   3.316   0.626   2.277
 4356SOL     OW13966   4.517   4.339   1.623
 4356SOL    HW113967   4.460   4.293   1.691
 4356SOL    HW213968   4.606   4.294   1.619
 4357SOL     OW13969   6.094   0.641   6.873
 4357SOL    HW113970   6.144   0.560   6.905
 4357SOL    HW213971   6.012   0.612   6.823
 4358SOL     OW13972   6.815   5.701   0.395
 4358SOL    HW113973   6.905   5.729   0.427
 4358SOL    HW213974   6.823   5.616   0.343
 4359SOL     OW13975   1.473   1.917   5.607
 4359SOL    HW113976   1.374   1.901   5.608
 4359SOL    HW213977   1.512   1.880   5.523
 4360SOL     OW13978   1.574   2.729   2.948
 4360SOL    HW113979   1.609   2.820   2.972
 4360SOL    HW213980   1.596   2.710   2.852
 4361SOL     OW13981   2.879   2.950   1.697
 4361SOL    HW113982   2.875   3.048   1.679
 4361SOL    HW213983   2.930   2.933   1.781
 4362SOL     OW13984   6.187   4.095   3.820
 4362SOL    HW113985   6.095   4.106   3.783
 4362SOL    HW213986   6.253   4.086   3.746
 4363SOL     OW13987   5.727   2.604   6.759
 4363SOL    HW113988   5.777   2.690   6.770
 4363SOL    HW213989   5.634   2.624   6.728
 4364SOL     OW13990   3.308   3.904   5.313
 4364SOL    HW113991   3.220   3.908   5.361
 4364SOL    HW213992   3.331   3.994   5.277
 4365SOL     OW13993   2.043   2.520   2.029
 4365SOL    HW113994   2.059   2.444   1.966
 4365SOL    HW213995   1.947   2.548   2.023
 4366SOL     OW13996   5.749   6.438   0.226
 4366SOL    HW113997   5.749   6.441   0.126
 4366SOL    HW213998   5.683   6.371   0.257
 4367SOL     OW13999   2.185   5.114   5.226
 4367SOL    HW114000   2.209   5.185   5.292
 4367SOL    HW214001   2.151   5.034   5.275
 4368SOL     OW14002   3.717   5.243   1.415
 4368SOL    HW114003   3.731   5.148   1.444
 4368SOL    HW214004   3.679   5.295   1.491
 4369SOL     OW14005   4.098   5.709   3.304
 4369SOL    HW114006   4.107   5.763   3.220
 4369SOL    HW214007   4.041   5.759   3.369
 4370SOL     OW14008   4.818   4.489   2.967
 4370SOL    HW114009   4.785   4.446   2.883
 4370SOL    HW214010   4.800   4.430   3.045
 4371SOL     OW14011   6.703   1.047   1.149
 4371SOL    HW114012   6.677   0.977   1.082
 4371SOL    HW214013   6.736   1.128   1.101
 4372SOL     OW14014   4.264   1.214   3.256
 4372SOL    HW114015   4.342   1.263   3.218
 4372SOL    HW214016   4.277   1.115   3.244
 4373SOL     OW14017   0.093   2.479   6.388
 4373SOL    HW114018   0.177   2.531   6.404
 4373SOL    HW214019   0.092   2.398   6.446
 4374SOL     OW14020   0.818   1.818   1.916
 4374SOL    HW114021   0.727   1.857   1.928
 4374SOL    HW214022   0.846   1.828   1.821
 4375SOL     OW14023   3.159   0.288   3.977
 4375SOL    HW114024   3.211   0.361   4.022
 4375SOL    HW214025   3.194   0.199   4.008
 4376SOL     OW14026   6.762   6.696   3.151
 4376SOL    HW114027   6.711   6.775   3.117
 4376SOL    HW214028   6.810   6.721   3.235
 4377SOL     OW14029   5.655   3.989   0.161
 4377SOL    HW114030   5.689   4.083   0.160
 4377SOL    HW214031   5.686   3.942   0.078
 4378SOL     OW14032   1.854   1.519   2.699
 4378SOL    HW114033   1.884   1.613   2.685
 4378SOL    HW214034   1.929   1.457   2.679
 4379SOL     OW14035   2.153   1.231   3.050
 4379SOL    HW114036   2.223   1.159   3.059
 4379SOL    HW214037   2.191   1.318   3.081
 4380SOL     OW14038   1.361   0.190   2.114
 4380SOL    HW114039   1.411   0.219   2.033
 4380SOL    HW214040   1.298   0.116   2.090
 4381SOL     OW14041   0.505   6.125   5.019
 4381SOL    HW114042   0.474   6.196   4.954
 4381SOL    HW214043   0.440   6.050   5.020
 4382SOL     OW14044   0.630   3.433   5.669
 4382SOL    HW114045   0.688   3.420   5.750
 4382SOL    HW214046   0.538   3.401   5.689
 4383SOL     OW14047   0.083   3.755   6.161
 4383SOL    HW114048   0.071   3.774   6.064
 4383SOL    HW214049   0.151   3.817   6.199
 4384SOL     OW14050   6.112   0.509   4.126
 4384SOL    HW114051   6.206   0.533   4.151
 4384SOL    HW214052   6.108   0.491   4.028
 4385SOL     OW14053   4.700   2.502   5.181
 4385SOL    HW114054   4.745   2.427   5.133
 4385SOL    HW214055   4.769   2.565   5.217
 4386SOL     OW14056   1.634   3.892   5.246
 4386SOL    HW114057   1.551   3.939   5.217
 4386SOL    HW214058   1.646   3.808   5.194
 4387SOL     OW14059   6.729   1.909   1.885
 4387SOL    HW114060   6.768   1.820   1.911
 4387SOL    HW214061   6.737   1.921   1.786
 4388SOL     OW14062   3.892   2.330   6.110
 4388SOL    HW114063   3.958   2.346   6.184
 4388SOL    HW214064   3.900   2.235   6.079
 4389SOL     OW14065   6.852   3.886   0.623
 4389SOL    HW114066   6.906   3.917   0.701
 4389SOL    HW214067   6.901   3.908   0.538
 4390SOL     OW14068   4.370   0.053   1.691
 4390SOL    HW114069   4.292   0.116   1.686
 4390SOL    HW214070   4.452   0.104   1.715
 4391SOL     OW14071   3.040   5.076   0.056
 4391SOL    HW114072   3.093   5.130   7.014
 4391SOL    HW214073   3.024   4.985   0.018
 4392SOL     OW14074   1.067   2.273   5.111
 4392SOL    HW114075   0.980   2.322   5.109
 4392SOL    HW214076   1.138   2.328   5.068
 4393SOL     OW14077   6.283   0.705   1.684
 4393SOL    HW114078   6.189   0.731   1.702
 4393SOL    HW214079   6.337   0.714   1.768
 4394SOL     OW14080   0.338   5.875   2.412
 4394SOL    HW114081   0.354   5.815   2.491
 4394SOL    HW214082   0.245   5.862   2.378
 4395SOL     OW14083   1.810   0.639   2.054
 4395SOL    HW114084   1.804   0.684   1.965
 4395SOL    HW214085   1.746   0.562   2.058
 4396SOL     OW14086   1.647   1.489   3.868
 4396SOL    HW114087   1.636   1.578   3.826
 4396SOL    HW214088   1.661   1.419   3.797
 4397SOL     OW14089   1.797   2.664   4.651
 4397SOL    HW114090   1.726   2.600   4.682
 4397SOL    HW214091   1.878   2.655   4.709
 4398SOL     OW14092   1.662   3.289   6.238
 4398SOL    HW114093   1.596   3.317   6.309
 4398SOL    HW214094   1.613   3.259   6.157
 4399SOL     OW14095   3.400   6.500   2.404
 4399SOL    HW114096   3.369   6.594   2.419
 4399SOL    HW214097   3.362   6.441   2.475
 4400SOL     OW14098   1.884   6.896   3.828
 4400SOL    HW114099   1.947   6.973   3.833
 4400SOL    HW214100   1.800   6.918   3.878
 4401SOL     OW14101   3.694   6.654   5.296
 4401SOL    HW114102   3.735   6.637   5.385
 4401SOL    HW214103   3.602   6.614   5.293
 4402SOL     OW14104   1.105   6.762   2.759
 4402SOL    HW114105   1.063   6.709   2.685
 4402SOL    HW214106   1.177   6.820   2.721
 4403SOL     OW14107   1.180   0.031   0.453
 4403SOL    HW114108   1.193   6.958   0.476
 4403SOL    HW214109   1.225   0.051   0.366
 4404SOL     OW14110   0.786   6.291   5.402
 4404SOL    HW114111   0.811   6.277   5.306
 4404SOL    HW214112   0.734   6.376   5.411
 4405SOL     OW14113   2.049   4.972   2.549
 4405SOL    HW114114   2.024   4.882   2.512
 4405SOL    HW214115   1.973   5.008   2.603
 4406SOL     OW14116   6.712   2.972   0.525
 4406SOL    HW114117   6.722   2.991   0.623
 4406SOL    HW214118   6.621   2.933   0.508
 4407SOL     OW14119   0.195   5.080   1.563
 4407SOL    HW114120   0.130   5.009   1.589
 4407SOL    HW214121   0.267   5.087   1.632
 4408SOL     OW14122   1.871   6.752   6.868
 4408SOL    HW114123   1.891   6.654   6.876
 4408SOL    HW214124   1.799   6.765   6.800
 4409SOL     OW14125   4.240   1.480   1.307
 4409SOL    HW114126   4.298   1.464   1.227
 4409SOL    HW214127   4.211   1.393   1.346
 4410SOL     OW14128   0.202   5.708   6.995
 4410SOL    HW114129   0.265   5.631   7.003
 4410SOL    HW214130   0.184   5.745   0.063
 4411SOL     OW14131   3.388   4.712   5.451
 4411SOL    HW114132   3.412   4.804   5.480
 4411SOL    HW214133   3.300   4.713   5.404
 4412SOL     OW14134   4.614   6.414   4.281
 4412SOL    HW114135   4.677   6.369   4.344
 4412SOL    HW214136   4.665   6.450   4.203
 4413SOL     OW14137   5.544   5.500   3.505
 4413SOL    HW114138   5.456   5.488   3.460
 4413SOL    HW214139   5.532   5.494   3.604
 4414SOL     OW14140   3.837   5.998   0.973
 4414SOL    HW114141   3.804   5.905   0.955
 4414SOL    HW214142   3.819   6.056   0.894
 4415SOL     OW14143   4.226   3.087   0.069
 4415SOL    HW114144   4.241   3.183   0.044
 4415SOL    HW214145   4.145   3.079   0.126
 4416SOL     OW14146   4.231   1.533   3.668
 4416SOL    HW114147   4.248   1.471   3.745
 4416SOL    HW214148   4.259   1.488   3.583
 4417SOL     OW14149   5.500   3.608   3.619
 4417SOL    HW114150   5.455   3.572   3.700
 4417SOL    HW214151   5.434   3.615   3.544
 4418SOL     OW14152   6.423   2.236   2.732
 4418SOL    HW114153   6.345   2.292   2.704
 4418SOL    HW214154   6.505   2.267   2.684
 4419SOL     OW14155   6.537   0.234   5.817
 4419SOL    HW114156   6.449   0.230   5.866
 4419SOL    HW214157   6.597   0.162   5.851
 4420SOL     OW14158   3.999   1.538   1.191
 4420SOL    HW114159   3.912   1.566   1.231
 4420SOL    HW214160   4.066   1.523   1.264
 4421SOL     OW14161   2.522   1.913   5.234
 4421SOL    HW114162   2.475   1.921   5.146
 4421SOL    HW214163   2.468   1.854   5.295
 4422SOL     OW14164   1.336   4.422   7.016
 4422SOL    HW114165   1.257   4.483   7.017
 4422SOL    HW214166   1.336   4.369   6.931
 4423SOL     OW14167   0.182   4.391   6.092
 4423SOL    HW114168   0.208   4.302   6.130
 4423SOL    HW214169   0.263   4.449   6.083
 4424SOL     OW14170   5.440   6.339   4.566
 4424SOL    HW114171   5.524   6.380   4.602
 4424SOL    HW214172   5.411   6.263   4.625
 4425SOL     OW14173   1.606   5.340   0.932
 4425SOL    HW114174   1.669   5.317   1.006
 4425SOL    HW214175   1.651   5.324   0.844
 4426SOL     OW14176   0.568   1.314   3.932
 4426SOL    HW114177   0.634   1.376   3.891
 4426SOL    HW214178   0.524   1.359   4.010
 4427SOL     OW14179   4.593   5.969   2.651
 4427SOL    HW114180   4.524   6.027   2.607
 4427SOL    HW214181   4.612   5.890   2.593
 4428SOL     OW14182   4.170   0.555   4.404
 4428SOL    HW114183   4.080   0.570   4.363
 4428SOL    HW214184   4.221   0.641   4.402
 4429SOL     OW14185   2.806   6.262   2.586
 4429SOL    HW114186   2.779   6.358   2.596
 4429SOL    HW214187   2.824   6.242   2.490
 4430SOL     OW14188   4.859   4.774   5.047
 4430SOL    HW114189   4.878   4.729   5.135
 4430SOL    HW214190   4.939   4.765   4.987
 4431SOL     OW14191   2.778   1.189   3.028
 4431SOL    HW114192   2.707   1.160   3.092
 4431SOL    HW214193   2.827   1.268   3.065
 4432SOL     OW14194   2.342   3.633   6.471
 4432SOL    HW114195   2.382   3.709   6.419
 4432SOL    HW214196   2.386   3.628   6.560
 4433SOL     OW14197   6.941   2.925   4.387
 4433SOL    HW114198   6.960   2.827   4.380
 4433SOL    HW214199   6.975   2.960   4.475
 4434SOL     OW14200   5.521   1.914   3.322
 4434SOL    HW114201   5.550   1.934   3.229
 4434SOL    HW214202   5.434   1.959   3.340
 4435SOL     OW14203   4.183   3.651   1.426
 4435SOL    HW114204   4.134   3.688   1.347
 4435SOL    HW214205   4.123   3.650   1.505
 4436SOL     OW14206   4.132   1.202   1.332
 4436SOL    HW114207   4.150   1.167   1.424
 4436SOL    HW214208   4.033   1.200   1.314
 4437SOL     OW14209   0.821   3.166   2.708
 4437SOL    HW114210   0.832   3.232   2.634
 4437SOL    HW214211   0.737   3.113   2.694
 4438SOL     OW14212   5.085   6.874   5.851
 4438SOL    HW114213   5.000   6.834   5.816
 4438SOL    HW214214   5.078   6.883   5.951
 4439SOL     OW14215   0.450   4.910   2.362
 4439SOL    HW114216   0.543   4.925   2.329
 4439SOL    HW214217   0.453   4.858   2.448
 4440SOL     OW14218   2.350   5.362   0.261
 4440SOL    HW114219   2.292   5.440   0.285
 4440SOL    HW214220   2.361   5.303   0.341
 4441SOL     OW14221   6.814   1.216   0.959
 4441SOL    HW114222   6.882   1.168   0.903
 4441SOL    HW214223   6.856   1.296   1.001
 4442SOL     OW14224   1.503   5.725   4.913
 4442SOL    HW114225   1.518   5.652   4.980
 4442SOL    HW214226   1.454   5.801   4.956
 4443SOL     OW14227   0.810   4.062   5.842
 4443SOL    HW114228   0.825   3.980   5.786
 4443SOL    HW214229   0.894   4.116   5.844
 4444SOL     OW14230   4.313   3.383   0.017
 4444SOL    HW114231   4.388   3.413   6.982
 4444SOL    HW214232   4.227   3.424   7.010
 4445SOL     OW14233   1.297   6.235   6.980
 4445SOL    HW114234   1.202   6.265   6.981
 4445SOL    HW214235   1.357   6.313   6.962
 4446SOL     OW14236   5.763   1.815   0.098
 4446SOL    HW114237   5.671   1.797   0.134
 4446SOL    HW214238   5.757   1.841   0.002
 4447SOL     OW14239   5.991   4.144   4.787
 4447SOL    HW114240   5.997   4.045   4.797
 4447SOL    HW214241   5.907   4.167   4.738
 4448SOL     OW14242   2.755   6.303   0.974
 4448SOL    HW114243   2.840   6.345   1.006
 4448SOL    HW214244   2.743   6.214   1.018
 4449SOL     OW14245   4.936   0.929   5.593
 4449SOL    HW114246   5.035   0.914   5.598
 4449SOL    HW214247   4.891   0.844   5.567
 4450SOL     OW14248   3.011   1.586   0.148
 4450SOL    HW114249   2.966   1.673   0.128
 4450SOL    HW214250   3.108   1.593   0.128
 4451SOL     OW14251   4.879   5.150   4.908
 4451SOL    HW114252   4.849   5.241   4.933
 4451SOL    HW214253   4.810   5.083   4.935
 4452SOL     OW14254   6.213   5.099   4.486
 4452SOL    HW114255   6.220   5.004   4.456
 4452SOL    HW214256   6.289   5.152   4.449
 4453SOL     OW14257   0.916   2.871   1.784
 4453SOL    HW114258   0.975   2.892   1.862
 4453SOL    HW214259   0.910   2.951   1.724
 4454SOL     OW14260   1.284   1.695   0.009
 4454SOL    HW114261   1.367   1.645   0.037
 4454SOL    HW214262   1.244   1.740   0.089
 4455SOL     OW14263   5.538   5.937   5.912
 4455SOL    HW114264   5.462   5.979   5.862
 4455SOL    HW214265   5.572   5.859   5.860
 4456SOL     OW14266   2.206   5.696   3.181
 4456SOL    HW114267   2.266   5.657   3.111
 4456SOL    HW214268   2.111   5.694   3.148
 4457SOL     OW14269   2.592   2.055   4.011
 4457SOL    HW114270   2.592   1.971   4.064
 4457SOL    HW214271   2.640   2.041   3.925
 4458SOL     OW14272   2.674   3.715   1.693
 4458SOL    HW114273   2.605   3.785   1.679
 4458SOL    HW214274   2.739   3.745   1.763
 4459SOL     OW14275   3.652   1.917   4.181
 4459SOL    HW114276   3.741   1.930   4.138
 4459SOL    HW214277   3.652   1.959   4.272
 4460SOL     OW14278   1.450   2.938   6.649
 4460SOL    HW114279   1.515   2.879   6.698
 4460SOL    HW214280   1.425   2.895   6.562
 4461SOL     OW14281   1.938   0.855   0.666
 4461SOL    HW114282   1.921   0.814   0.756
 4461SOL    HW214283   1.913   0.790   0.595
 4462SOL     OW14284   5.857   4.516   1.810
 4462SOL    HW114285   5.821   4.555   1.725
 4462SOL    HW214286   5.937   4.459   1.788
 4463SOL     OW14287   4.982   0.870   1.268
 4463SOL    HW114288   4.954   0.922   1.348
 4463SOL    HW214289   4.955   0.774   1.279
 4464SOL     OW14290   0.217   6.359   0.382
 4464SOL    HW114291   0.163   6.386   0.303
 4464SOL    HW214292   0.314   6.360   0.358
 4465SOL     OW14293   2.542   5.215   6.956
 4465SOL    HW114294   2.536   5.203   6.857
 4465SOL    HW214295   2.637   5.210   6.984
 4466SOL     OW14296   1.097   1.869   2.652
 4466SOL    HW114297   1.111   1.820   2.566
 4466SOL    HW214298   1.096   1.804   2.728
 4467SOL     OW14299   2.558   5.225   3.678
 4467SOL    HW114300   2.473   5.175   3.661
 4467SOL    HW214301   2.635   5.161   3.679
 4468SOL     OW14302   1.043   4.639   1.238
 4468SOL    HW114303   1.100   4.662   1.317
 4468SOL    HW214304   0.971   4.576   1.267
 4469SOL     OW14305   3.281   0.891   1.424
 4469SOL    HW114306   3.339   0.906   1.343
 4469SOL    HW214307   3.217   0.967   1.433
 4470SOL     OW14308   0.909   1.530   2.137
 4470SOL    HW114309   0.935   1.546   2.042
 4470SOL    HW214310   0.827   1.582   2.158
 4471SOL     OW14311   1.597   2.565   6.897
 4471SOL    HW114312   1.566   2.623   6.822
 4471SOL    HW214313   1.676   2.511   6.867
 4472SOL     OW14314   0.749   1.677   0.694
 4472SOL    HW114315   0.751   1.715   0.786
 4472SOL    HW214316   0.820   1.721   0.638
 4473SOL     OW14317   5.121   2.759   4.062
 4473SOL    HW114318   5.203   2.814   4.046
 4473SOL    HW214319   5.059   2.770   3.984
 4474SOL     OW14320   3.192   6.710   1.930
 4474SOL    HW114321   3.177   6.784   1.865
 4474SOL    HW214322   3.107   6.657   1.941
 4475SOL     OW14323   1.100   3.788   1.553
 4475SOL    HW114324   1.048   3.756   1.631
 4475SOL    HW214325   1.076   3.736   1.472
 4476SOL     OW14326   6.309   0.641   4.269
 4476SOL    HW114327   6.406   0.625   4.255
 4476SOL    HW214328   6.292   0.738   4.281
 4477SOL     OW14329   1.766   0.506   5.067
 4477SOL    HW114330   1.859   0.510   5.104
 4477SOL    HW214331   1.708   0.452   5.127
 4478SOL     OW14332   1.656   0.409   2.256
 4478SOL    HW114333   1.661   0.309   2.258
 4478SOL    HW214334   1.560   0.437   2.251
 4479SOL     OW14335   1.079   1.967   1.334
 4479SOL    HW114336   1.066   2.065   1.322
 4479SOL    HW214337   1.167   1.950   1.378
 4480SOL     OW14338   0.490   4.770   5.340
 4480SOL    HW114339   0.420   4.792   5.408
 4480SOL    HW214340   0.539   4.853   5.314
 4481SOL     OW14341   2.469   5.221   5.000
 4481SOL    HW114342   2.502   5.130   5.022
 4481SOL    HW214343   2.493   5.244   4.905
 4482SOL     OW14344   2.209   2.866   5.626
 4482SOL    HW114345   2.289   2.834   5.576
 4482SOL    HW214346   2.126   2.834   5.581
 4483SOL     OW14347   0.419   2.622   2.024
 4483SOL    HW114348   0.374   2.667   1.947
 4483SOL    HW214349   0.411   2.523   2.014
 4484SOL     OW14350   2.558   2.509   0.322
 4484SOL    HW114351   2.636   2.512   0.259
 4484SOL    HW214352   2.527   2.602   0.341
 4485SOL     OW14353   4.987   2.639   5.082
 4485SOL    HW114354   5.048   2.583   5.139
 4485SOL    HW214355   4.967   2.590   4.997
 4486SOL     OW14356   6.016   5.129   4.985
 4486SOL    HW114357   5.981   5.203   5.042
 4486SOL    HW214358   6.033   5.163   4.892
 4487SOL     OW14359   2.784   3.078   0.466
 4487SOL    HW114360   2.839   3.074   0.382
 4487SOL    HW214361   2.691   3.046   0.445
 4488SOL     OW14362   0.885   3.834   4.886
 4488SOL    HW114363   0.921   3.748   4.851
 4488SOL    HW214364   0.786   3.836   4.876
 4489SOL     OW14365   4.449   5.504   4.994
 4489SOL    HW114366   4.395   5.422   4.974
 4489SOL    HW214367   4.443   5.567   4.916
 4490SOL     OW14368   5.164   1.558   1.658
 4490SOL    HW114369   5.221   1.590   1.733
 4490SOL    HW214370   5.212   1.571   1.571
 4491SOL     OW14371   0.528   3.464   3.656
 4491SOL    HW114372   0.615   3.451   3.609
 4491SOL    HW214373   0.516   3.393   3.725
 4492SOL     OW14374   6.115   3.296   1.692
 4492SOL    HW114375   6.176   3.298   1.771
 4492SOL    HW214376   6.031   3.347   1.713
 4493SOL     OW14377   5.147   6.301   5.245
 4493SOL    HW114378   5.223   6.247   5.282
 4493SOL    HW214379   5.060   6.263   5.279
 4494SOL     OW14380   1.172   0.768   6.112
 4494SOL    HW114381   1.245   0.702   6.094
 4494SOL    HW214382   1.183   0.848   6.052
 4495SOL     OW14383   4.476   0.059   3.136
 4495SOL    HW114384   4.413   0.022   3.205
 4495SOL    HW214385   4.428   0.128   3.082
 4496SOL     OW14386   5.369   5.942   0.628
 4496SOL    HW114387   5.423   6.014   0.671
 4496SOL    HW214388   5.325   5.887   0.699
 4497SOL     OW14389   4.362   2.430   6.610
 4497SOL    HW114390   4.313   2.505   6.566
 4497SOL    HW214391   4.393   2.365   6.541
 4498SOL     OW14392   6.854   4.819   6.318
 4498SOL    HW114393   6.794   4.756   6.269
 4498SOL    HW214394   6.921   4.766   6.370
 4499SOL     OW14395   6.371   2.315   3.491
 4499SOL    HW114396   6.308   2.265   3.551
 4499SOL    HW214397   6.341   2.410   3.483
 4500SOL     OW14398   3.931   4.250   6.489
 4500SOL    HW114399   3.982   4.336   6.480
 4500SOL    HW214400   3.994   4.175   6.507
 4501SOL     OW14401   6.584   2.956   3.012
 4501SOL    HW114402   6.632   2.890   3.069
 4501SOL    HW214403   6.558   2.914   2.925
 4502SOL     OW14404   1.354   3.580   6.982
 4502SOL    HW114405   1.342   3.513   6.908
 4502SOL    HW214406   1.365   3.532   0.045
 4503SOL     OW14407   3.169   0.040   2.217
 4503SOL    HW114408   3.249   0.055   2.160
 4503SOL    HW214409   3.195   7.012   2.298
 4504SOL     OW14410   6.207   2.085   4.398
 4504SOL    HW114411   6.169   2.006   4.447
 4504SOL    HW214412   6.172   2.169   4.438
 4505SOL     OW14413   6.467   4.763   1.728
 4505SOL    HW114414   6.465   4.666   1.703
 4505SOL    HW214415   6.405   4.814   1.668
 4506SOL     OW14416   5.094   2.501   3.135
 4506SOL    HW114417   5.124   2.582   3.084
 4506SOL    HW214418   5.170   2.466   3.190
 4507SOL     OW14419   0.127   3.286   3.483
 4507SOL    HW114420   0.167   3.246   3.565
 4507SOL    HW214421   0.181   3.366   3.456
 4508SOL     OW14422   1.306   4.929   6.996
 4508SOL    HW114423   1.346   4.855   6.942
 4508SOL    HW214424   1.353   4.935   0.060
 4509SOL     OW14425   4.590   1.722   3.176
 4509SOL    HW114426   4.669   1.684   3.128
 4509SOL    HW214427   4.542   1.785   3.115
 4510SOL     OW14428   4.513   0.979   4.853
 4510SOL    HW114429   4.449   0.907   4.879
 4510SOL    HW214430   4.500   1.059   4.911
 4511SOL     OW14431   5.888   3.408   0.216
 4511SOL    HW114432   5.974   3.357   0.211
 4511SOL    HW214433   5.835   3.376   0.294
 4512SOL     OW14434   3.664   1.993   6.119
 4512SOL    HW114435   3.662   1.901   6.158
 4512SOL    HW214436   3.752   2.008   6.075
 4513SOL     OW14437   1.028   6.130   6.334
 4513SOL    HW114438   1.037   6.106   6.430
 4513SOL    HW214439   1.083   6.211   6.315
 4514SOL     OW14440   3.668   2.689   6.558
 4514SOL    HW114441   3.572   2.679   6.584
 4514SOL    HW214442   3.704   2.599   6.532
 4515SOL     OW14443   5.540   2.029   5.251
 4515SOL    HW114444   5.466   2.011   5.316
 4515SOL    HW214445   5.628   2.025   5.297
 4516SOL     OW14446   2.465   0.331   5.577
 4516SOL    HW114447   2.512   0.416   5.551
 4516SOL    HW214448   2.385   0.353   5.632
 4517SOL     OW14449   4.739   6.912   6.592
 4517SOL    HW114450   4.690   6.971   6.657
 4517SOL    HW214451   4.681   6.894   6.513
 4518SOL     OW14452   0.337   6.793   1.594
 4518SOL    HW114453   0.295   6.883   1.603
 4518SOL    HW214454   0.325   6.742   1.679
 4519SOL     OW14455   5.059   6.537   0.148
 4519SOL    HW114456   5.064   6.567   0.052
 4519SOL    HW214457   4.975   6.573   0.189
 4520SOL     OW14458   4.488   5.679   5.826
 4520SOL    HW114459   4.450   5.672   5.918
 4520SOL    HW214460   4.576   5.631   5.822
 4521SOL     OW14461   4.685   2.112   4.541
 4521SOL    HW114462   4.606   2.052   4.536
 4521SOL    HW214463   4.658   2.200   4.580
 4522SOL     OW14464   5.798   4.302   2.335
 4522SOL    HW114465   5.703   4.303   2.366
 4522SOL    HW214466   5.856   4.342   2.405
 4523SOL     OW14467   1.599   3.974   6.842
 4523SOL    HW114468   1.621   3.876   6.837
 4523SOL    HW214469   1.540   3.990   6.921
 4524SOL     OW14470   6.171   3.283   2.403
 4524SOL    HW114471   6.249   3.281   2.465
 4524SOL    HW214472   6.089   3.253   2.452
 4525SOL     OW14473   3.328   2.022   5.826
 4525SOL    HW114474   3.345   2.001   5.922
 4525SOL    HW214475   3.331   1.937   5.773
 4526SOL     OW14476   0.019   0.568   6.606
 4526SOL    HW114477   0.017   0.480   6.653
 4526SOL    HW214478   7.008   0.639   6.667
 4527SOL     OW14479   6.604   6.852   3.000
 4527SOL    HW114480   6.624   6.887   2.909
 4527SOL    HW214481   6.515   6.806   3.001
 4528SOL     OW14482   4.501   1.141   6.611
 4528SOL    HW114483   4.472   1.069   6.673
 4528SOL    HW214484   4.592   1.172   6.636
 4529SOL     OW14485   2.917   1.235   5.837
 4529SOL    HW114486   3.003   1.286   5.830
 4529SOL    HW214487   2.884   1.241   5.931
 4530SOL     OW14488   2.165   5.656   3.724
 4530SOL    HW114489   2.212   5.574   3.758
 4530SOL    HW214490   2.072   5.632   3.696
 4531SOL     OW14491   0.968   3.640   6.164
 4531SOL    HW114492   0.998   3.726   6.124
 4531SOL    HW214493   1.034   3.568   6.142
 4532SOL     OW14494   5.829   0.302   3.014
 4532SOL    HW114495   5.872   0.383   3.054
 4532SOL    HW214496   5.754   0.271   3.073
 4533SOL     OW14497   1.586   1.432   2.682
 4533SOL    HW114498   1.685   1.451   2.680
 4533SOL    HW214499   1.572   1.335   2.704
 4534SOL     OW14500   4.473   2.160   5.284
 4534SOL    HW114501   4.544   2.118   5.228
 4534SOL    HW214502   4.515   2.211   5.359
 4535SOL     OW14503   3.634   1.043   1.483
 4535SOL    HW114504   3.643   0.970   1.551
 4535SOL    HW214505   3.573   1.114   1.518
 4536SOL     OW14506   3.282   1.510   4.718
 4536SOL    HW114507   3.206   1.566   4.685
 4536SOL    HW214508   3.289   1.518   4.817
 4537SOL     OW14509   4.099   3.483   2.085
 4537SOL    HW114510   4.171   3.508   2.020
 4537SOL    HW214511   4.010   3.495   2.041
 4538SOL     OW14512   2.395   1.070   2.174
 4538SOL    HW114513   2.427   0.976   2.161
 4538SOL    HW214514   2.323   1.072   2.243
 4539SOL     OW14515   2.370   5.541   4.087
 4539SOL    HW114516   2.280   5.565   4.124
 4539SOL    HW214517   2.359   5.500   3.997
 4540SOL     OW14518   2.246   1.446   0.706
 4540SOL    HW114519   2.303   1.371   0.739
 4540SOL    HW214520   2.199   1.489   0.783
 4541SOL     OW14521   5.060   0.961   6.835
 4541SOL    HW114522   5.114   0.984   6.755
 4541SOL    HW214523   5.117   0.965   6.917
 4542SOL     OW14524   6.697   1.606   1.605
 4542SOL    HW114525   6.770   1.610   1.537
 4542SOL    HW214526   6.728   1.646   1.691
 4543SOL     OW14527   4.761   2.109   0.723
 4543SOL    HW114528   4.792   2.024   0.765
 4543SOL    HW214529   4.773   2.184   0.788
 4544SOL     OW14530   4.148   4.844   0.733
 4544SOL    HW114531   4.122   4.937   0.708
 4544SOL    HW214532   4.187   4.844   0.825
 4545SOL     OW14533   0.306   3.596   5.347
 4545SOL    HW114534   0.238   3.531   5.315
 4545SOL    HW214535   0.380   3.603   5.280
 4546SOL     OW14536   2.912   0.196   4.875
 4546SOL    HW114537   2.952   0.194   4.784
 4546SOL    HW214538   2.965   0.137   4.936
 4547SOL     OW14539   6.213   1.045   0.145
 4547SOL    HW114540   6.205   1.142   0.170
 4547SOL    HW214541   6.199   1.035   0.046
 4548SOL     OW14542   2.852   2.333   3.253
 4548SOL    HW114543   2.829   2.413   3.198
 4548SOL    HW214544   2.769   2.299   3.298
 4549SOL     OW14545   5.101   4.117   2.280
 4549SOL    HW114546   5.150   4.038   2.244
 4549SOL    HW214547   5.011   4.123   2.235
 4550SOL     OW14548   1.375   4.054   3.607
 4550SOL    HW114549   1.419   4.143   3.621
 4550SOL    HW214550   1.441   3.981   3.624
 4551SOL     OW14551   0.624   4.033   5.221
 4551SOL    HW114552   0.685   3.994   5.290
 4551SOL    HW214553   0.575   3.959   5.174
 4552SOL     OW14554   5.772   2.100   1.339
 4552SOL    HW114555   5.830   2.087   1.258
 4552SOL    HW214556   5.684   2.054   1.325
 4553SOL     OW14557   5.187   4.603   6.532
 4553SOL    HW114558   5.180   4.700   6.556
 4553SOL    HW214559   5.274   4.567   6.567
 4554SOL     OW14560   0.200   7.005   1.679
 4554SOL    HW114561   0.129   6.969   1.739
 4554SOL    HW214562   0.216   0.077   1.699
 4555SOL     OW14563   1.615   1.191   6.453
 4555SOL    HW114564   1.627   1.104   6.405
 4555SOL    HW214565   1.585   1.261   6.388
 4556SOL     OW14566   5.843   3.256   5.185
 4556SOL    HW114567   5.853   3.315   5.104
 4556SOL    HW214568   5.918   3.275   5.248
 4557SOL     OW14569   5.928   4.755   4.515
 4557SOL    HW114570   5.946   4.804   4.600
 4557SOL    HW214571   5.839   4.783   4.479
 4558SOL     OW14572   6.844   3.204   5.093
 4558SOL    HW114573   6.815   3.152   5.013
 4558SOL    HW214574   6.930   3.167   5.127
 4559SOL     OW14575   0.286   3.633   2.582
 4559SOL    HW114576   0.339   3.593   2.508
 4559SOL    HW214577   0.242   3.561   2.636
 4560SOL     OW14578   6.178   4.579   2.634
 4560SOL    HW114579   6.254   4.642   2.622
 4560SOL    HW214580   6.178   4.544   2.728
 4561SOL     OW14581   3.593   1.373   3.715
 4561SOL    HW114582   3.498   1.390   3.689
 4561SOL    HW214583   3.653   1.429   3.658
 4562SOL     OW14584   1.639   0.292   0.331
 4562SOL    HW114585   1.722   0.247   0.365
 4562SOL    HW214586   1.652   0.316   0.235
 4563SOL     OW14587   6.444   3.537   1.162
 4563SOL    HW114588   6.398   3.454   1.194
 4563SOL    HW214589   6.535   3.513   1.128
 4564SOL     OW14590   0.204   4.989   2.287
 4564SOL    HW114591   0.295   4.963   2.321
 4564SOL    HW214592   0.136   4.927   2.325
 4565SOL     OW14593   1.463   1.391   4.447
 4565SOL    HW114594   1.489   1.487   4.456
 4565SOL    HW214595   1.376   1.375   4.493
 4566SOL     OW14596   0.425   3.111   1.208
 4566SOL    HW114597   0.510   3.064   1.184
 4566SOL    HW214598   0.353   3.082   1.146
 4567SOL     OW14599   0.057   0.820   6.771
 4567SOL    HW114600   0.114   0.821   6.853
 4567SOL    HW214601   0.008   0.906   6.762
 4568SOL     OW14602   1.027   4.301   5.343
 4568SOL    HW114603   1.120   4.275   5.369
 4568SOL    HW214604   1.017   4.296   5.244
 4569SOL     OW14605   2.902   0.322   2.925
 4569SOL    HW114606   2.884   0.224   2.933
 4569SOL    HW214607   2.843   0.361   2.854
 4570SOL     OW14608   6.035   6.498   1.720
 4570SOL    HW114609   6.133   6.507   1.703
 4570SOL    HW214610   6.005   6.406   1.694
 4571SOL     OW14611   4.250   3.004   6.749
 4571SOL    HW114612   4.196   2.929   6.788
 4571SOL    HW214613   4.347   2.988   6.765
 4572SOL     OW14614   1.883   1.263   6.243
 4572SOL    HW114615   1.910   1.347   6.290
 4572SOL    HW214616   1.784   1.262   6.230
 4573SOL     OW14617   0.636   6.978   0.525
 4573SOL    HW114618   0.600   6.904   0.469
 4573SOL    HW214619   0.706   0.003   0.473
 4574SOL     OW14620   5.731   4.216   6.829
 4574SOL    HW114621   5.666   4.153   6.788
 4574SOL    HW214622   5.736   4.199   6.928
 4575SOL     OW14623   5.815   0.572   4.837
 4575SOL    HW114624   5.726   0.588   4.793
 4575SOL    HW214625   5.809   0.492   4.896
 4576SOL     OW14626   2.507   4.586   5.565
 4576SOL    HW114627   2.486   4.621   5.474
 4576SOL    HW214628   2.485   4.489   5.569
 4577SOL     OW14629   2.055   2.678   3.198
 4577SOL    HW114630   2.146   2.720   3.197
 4577SOL    HW214631   2.026   2.662   3.292
 4578SOL     OW14632   1.065   1.291   4.390
 4578SOL    HW114633   0.965   1.302   4.395
 4578SOL    HW214634   1.086   1.206   4.343
 4579SOL     OW14635   4.218   1.150   1.964
 4579SOL    HW114636   4.217   1.141   2.063
 4579SOL    HW214637   4.154   1.222   1.936
 4580SOL     OW14638   5.631   4.038   0.955
 4580SOL    HW114639   5.666   4.003   0.868
 4580SOL    HW214640   5.570   4.115   0.938
 4581SOL     OW14641   2.552   5.992   2.379
 4581SOL    HW114642   2.515   6.064   2.438
 4581SOL    HW214643   2.560   6.027   2.285
 4582SOL     OW14644   4.845   1.232   3.343
 4582SOL    HW114645   4.764   1.264   3.393
 4582SOL    HW214646   4.885   1.153   3.390
 4583SOL     OW14647   3.132   1.105   6.755
 4583SOL    HW114648   3.040   1.067   6.744
 4583SOL    HW214649   3.150   1.170   6.682
 4584SOL     OW14650   2.029   6.421   5.473
 4584SOL    HW114651   2.070   6.342   5.517
 4584SOL    HW214652   2.001   6.488   5.542
 4585SOL     OW14653   1.775   4.251   3.373
 4585SOL    HW114654   1.768   4.306   3.291
 4585SOL    HW214655   1.712   4.173   3.368
 4586SOL     OW14656   4.913   4.271   6.852
 4586SOL    HW114657   4.850   4.195   6.868
 4586SOL    HW214658   4.937   4.314   6.939
 4587SOL     OW14659   3.867   3.305   4.452
 4587SOL    HW114660   3.957   3.333   4.419
 4587SOL    HW214661   3.855   3.207   4.437
 4588SOL     OW14662   3.309   3.023   6.270
 4588SOL    HW114663   3.282   2.930   6.246
 4588SOL    HW214664   3.228   3.078   6.290
 4589SOL     OW14665   5.302   6.677   1.793
 4589SOL    HW114666   5.267   6.584   1.802
 4589SOL    HW214667   5.330   6.711   1.883
 4590SOL     OW14668   3.887   5.722   1.686
 4590SOL    HW114669   3.966   5.721   1.625
 4590SOL    HW214670   3.915   5.747   1.778
 4591SOL     OW14671   1.461   0.528   5.019
 4591SOL    HW114672   1.409   0.612   5.007
 4591SOL    HW214673   1.548   0.535   4.970
 4592SOL     OW14674   3.026   1.683   3.762
 4592SOL    HW114675   3.068   1.593   3.761
 4592SOL    HW214676   3.073   1.741   3.828
 4593SOL     OW14677   6.185   6.293   2.131
 4593SOL    HW114678   6.279   6.318   2.107
 4593SOL    HW214679   6.187   6.223   2.203
 4594SOL     OW14680   3.515   0.382   3.124
 4594SOL    HW114681   3.456   0.312   3.165
 4594SOL    HW214682   3.464   0.430   3.053
 4595SOL     OW14683   4.595   2.750   5.802
 4595SOL    HW114684   4.501   2.773   5.777
 4595SOL    HW214685   4.620   2.663   5.761
 4596SOL     OW14686   6.550   0.460   2.658
 4596SOL    HW114687   6.480   0.498   2.719
 4596SOL    HW214688   6.519   0.469   2.563
 4597SOL     OW14689   2.781   5.392   6.361
 4597SOL    HW114690   2.823   5.301   6.365
 4597SOL    HW214691   2.792   5.438   6.449
 4598SOL     OW14692   1.859   5.686   1.296
 4598SOL    HW114693   1.779   5.677   1.237
 4598SOL    HW214694   1.841   5.644   1.385
 4599SOL     OW14695   1.307   4.302   2.018
 4599SOL    HW114696   1.307   4.218   2.072
 4599SOL    HW214697   1.326   4.279   1.922
 4600SOL     OW14698   0.503   0.314   5.006
 4600SOL    HW114699   0.479   0.253   4.931
 4600SOL    HW214700   0.602   0.324   5.011
 4601SOL     OW14701   0.974   1.795   5.211
 4601SOL    HW114702   0.925   1.763   5.292
 4601SOL    HW214703   1.064   1.753   5.208
 4602SOL     OW14704   3.016   6.971   6.271
 4602SOL    HW114705   2.916   6.965   6.276
 4602SOL    HW214706   3.050   6.897   6.213
 4603SOL     OW14707   3.164   5.957   0.827
 4603SOL    HW114708   3.236   5.975   0.893
 4603SOL    HW214709   3.204   5.934   0.739
 4604SOL     OW14710   5.096   7.000   6.349
 4604SOL    HW114711   5.048   0.044   6.293
 4604SOL    HW214712   5.041   6.976   6.428
 4605SOL     OW14713   2.547   0.219   1.994
 4605SOL    HW114714   2.576   0.193   1.902
 4605SOL    HW214715   2.464   0.274   1.989
 4606SOL     OW14716   6.294   0.100   2.646
 4606SOL    HW114717   6.388   0.126   2.664
 4606SOL    HW214718   6.293   0.014   2.595
 4607SOL     OW14719   2.046   3.494   2.926
 4607SOL    HW114720   1.954   3.463   2.900
 4607SOL    HW214721   2.058   3.589   2.896
 4608SOL     OW14722   0.345   3.886   3.255
 4608SOL    HW114723   0.337   3.873   3.156
 4608SOL    HW214724   0.295   3.813   3.303
 4609SOL     OW14725   4.863   5.021   6.998
 4609SOL    HW114726   4.916   5.089   0.025
 4609SOL    HW214727   4.903   4.931   7.010
 4610SOL     OW14728   4.771   1.861   0.049
 4610SOL    HW114729   4.730   1.937   7.023
 4610SOL    HW214730   4.819   1.801   7.008
 4611SOL     OW14731   0.911   0.740   5.897
 4611SOL    HW114732   0.925   0.643   5.918
 4611SOL    HW214733   0.883   0.788   5.980
 4612SOL     OW14734   2.914   6.940   1.859
 4612SOL    HW114735   2.862   7.005   1.915
 4612SOL    HW214736   3.010   6.940   1.888
 4613SOL     OW14737   1.216   5.619   2.995
 4613SOL    HW114738   1.273   5.664   3.064
 4613SOL    HW214739   1.270   5.605   2.912
 4614SOL     OW14740   6.147   3.361   3.815
 4614SOL    HW114741   6.183   3.449   3.785
 4614SOL    HW214742   6.065   3.374   3.870
 4615SOL     OW14743   1.383   0.636   1.171
 4615SOL    HW114744   1.352   0.541   1.163
 4615SOL    HW214745   1.410   0.655   1.265
 4616SOL     OW14746   5.982   2.571   3.963
 4616SOL    HW114747   5.900   2.546   3.910
 4616SOL    HW214748   6.056   2.592   3.900
 4617SOL     OW14749   1.866   2.238   2.051
 4617SOL    HW114750   1.782   2.237   1.996
 4617SOL    HW214751   1.858   2.308   2.122
 4618SOL     OW14752   2.305   3.159   5.889
 4618SOL    HW114753   2.260   3.186   5.803
 4618SOL    HW214754   2.362   3.234   5.921
 4619SOL     OW14755   3.451   6.576   4.243
 4619SOL    HW114756   3.498   6.657   4.278
 4619SOL    HW214757   3.354   6.582   4.266
 4620SOL     OW14758   0.700   4.834   1.283
 4620SOL    HW114759   0.609   4.868   1.307
 4620SOL    HW214760   0.757   4.829   1.365
 4621SOL     OW14761   5.062   1.098   2.564
 4621SOL    HW114762   5.125   1.086   2.487
 4621SOL    HW214763   5.004   1.017   2.573
 4622SOL     OW14764   3.724   4.934   1.187
 4622SOL    HW114765   3.691   5.014   1.136
 4622SOL    HW214766   3.712   4.950   1.285
 4623SOL     OW14767   3.521   5.328   0.791
 4623SOL    HW114768   3.567   5.313   0.704
 4623SOL    HW214769   3.538   5.422   0.822
 4624SOL     OW14770   3.128   1.301   3.418
 4624SOL    HW114771   3.186   1.361   3.364
 4624SOL    HW214772   3.071   1.245   3.358
 4625SOL     OW14773   2.149   5.466   2.028
 4625SOL    HW114774   2.194   5.387   2.071
 4625SOL    HW214775   2.214   5.511   1.967
 4626SOL     OW14776   4.117   4.597   1.811
 4626SOL    HW114777   4.146   4.600   1.907
 4626SOL    HW214778   4.152   4.677   1.764
 4627SOL     OW14779   0.699   5.924   4.964
 4627SOL    HW114780   0.646   6.005   4.991
 4627SOL    HW214781   0.796   5.946   4.965
 4628SOL     OW14782   4.880   4.531   4.503
 4628SOL    HW114783   4.933   4.447   4.518
 4628SOL    HW214784   4.782   4.510   4.505
 4629SOL     OW14785   2.319   4.948   6.100
 4629SOL    HW114786   2.378   4.897   6.163
 4629SOL    HW214787   2.326   5.046   6.119
 4630SOL     OW14788   2.556   5.009   2.522
 4630SOL    HW114789   2.467   5.042   2.489
 4630SOL    HW214790   2.548   4.913   2.547
 4631SOL     OW14791   0.772   6.717   3.664
 4631SOL    HW114792   0.871   6.721   3.654
 4631SOL    HW214793   0.748   6.654   3.738
 4632SOL     OW14794   2.255   4.899   3.291
 4632SOL    HW114795   2.258   4.859   3.199
 4632SOL    HW214796   2.178   4.963   3.297
 4633SOL     OW14797   5.273   1.205   4.794
 4633SOL    HW114798   5.253   1.299   4.821
 4633SOL    HW214799   5.311   1.156   4.872
 4634SOL     OW14800   2.567   3.857   5.292
 4634SOL    HW114801   2.515   3.788   5.342
 4634SOL    HW214802   2.504   3.919   5.246
 4635SOL     OW14803   4.373   4.548   1.711
 4635SOL    HW114804   4.315   4.495   1.773
 4635SOL    HW214805   4.425   4.486   1.652
 4636SOL     OW14806   1.802   4.773   0.718
 4636SOL    HW114807   1.829   4.694   0.771
 4636SOL    HW214808   1.732   4.746   0.650
 4637SOL     OW14809   0.977   6.774   0.422
 4637SOL    HW114810   1.074   6.780   0.446
 4637SOL    HW214811   0.955   6.680   0.398
 4638SOL     OW14812   3.660   5.800   6.511
 4638SOL    HW114813   3.754   5.806   6.478
 4638SOL    HW214814   3.619   5.714   6.480
 4639SOL     OW14815   2.595   2.551   6.310
 4639SOL    HW114816   2.537   2.515   6.383
 4639SOL    HW214817   2.542   2.557   6.225
 4640SOL     OW14818   6.208   3.181   4.339
 4640SOL    HW114819   6.215   3.163   4.437
 4640SOL    HW214820   6.112   3.178   4.311
 4641SOL     OW14821   2.017   0.394   3.877
 4641SOL    HW114822   2.038   0.481   3.922
 4641SOL    HW214823   1.932   0.403   3.826
 4642SOL     OW14824   1.269   0.015   3.189
 4642SOL    HW114825   1.346   0.052   3.242
 4642SOL    HW214826   1.291   0.019   3.092
 4643SOL     OW14827   6.610   2.460   0.802
 4643SOL    HW114828   6.587   2.378   0.854
 4643SOL    HW214829   6.546   2.533   0.825
 4644SOL     OW14830   0.402   0.807   5.432
 4644SOL    HW114831   0.304   0.811   5.453
 4644SOL    HW214832   0.419   0.851   5.344
 4645SOL     OW14833   1.501   0.966   4.289
 4645SOL    HW114834   1.446   0.883   4.275
 4645SOL    HW214835   1.458   1.043   4.243
 4646SOL     OW14836   2.355   4.786   4.052
 4646SOL    HW114837   2.282   4.719   4.060
 4646SOL    HW214838   2.439   4.742   4.020
 4647SOL     OW14839   1.111   0.252   3.222
 4647SOL    HW114840   1.153   0.167   3.191
 4647SOL    HW214841   1.180   0.325   3.223
 4648SOL     OW14842   2.511   0.735   4.216
 4648SOL    HW114843   2.566   0.718   4.135
 4648SOL    HW214844   2.545   0.678   4.291
 4649SOL     OW14845   5.975   0.523   1.166
 4649SOL    HW114846   5.977   0.622   1.179
 4649SOL    HW214847   5.909   0.483   1.229
 4650SOL     OW14848   4.380   5.354   1.695
 4650SOL    HW114849   4.460   5.385   1.643
 4650SOL    HW214850   4.371   5.409   1.777
 4651SOL     OW14851   5.897   3.714   6.561
 4651SOL    HW114852   5.809   3.721   6.513
 4651SOL    HW214853   5.913   3.797   6.614
 4652SOL     OW14854   6.220   6.507   5.113
 4652SOL    HW114855   6.298   6.480   5.057
 4652SOL    HW214856   6.245   6.504   5.210
 4653SOL     OW14857   4.912   5.716   0.640
 4653SOL    HW114858   4.934   5.805   0.600
 4653SOL    HW214859   4.962   5.644   0.592
 4654SOL     OW14860   0.504   6.626   5.656
 4654SOL    HW114861   0.462   6.544   5.695
 4654SOL    HW214862   0.562   6.601   5.579
 4655SOL     OW14863   4.804   4.105   2.224
 4655SOL    HW114864   4.784   4.131   2.129
 4655SOL    HW214865   4.802   4.006   2.233
 4656SOL     OW14866   0.795   0.436   1.638
 4656SOL    HW114867   0.894   0.418   1.638
 4656SOL    HW214868   0.762   0.442   1.732
 4657SOL     OW14869   4.771   5.645   2.070
 4657SOL    HW114870   4.836   5.717   2.047
 4657SOL    HW214871   4.684   5.687   2.096
 4658SOL     OW14872   2.631   2.417   5.923
 4658SOL    HW114873   2.597   2.496   5.871
 4658SOL    HW214874   2.625   2.335   5.867
 4659SOL     OW14875   2.864   4.483   0.479
 4659SOL    HW114876   2.931   4.430   0.529
 4659SOL    HW214877   2.788   4.507   0.540
 4660SOL     OW14878   1.220   6.335   4.128
 4660SOL    HW114879   1.256   6.426   4.108
 4660SOL    HW214880   1.171   6.338   4.215
 4661SOL     OW14881   2.121   4.157   5.692
 4661SOL    HW114882   2.027   4.181   5.669
 4661SOL    HW214883   2.147   4.073   5.644
 4662SOL     OW14884   3.376   0.212   5.527
 4662SOL    HW114885   3.390   0.243   5.433
 4662SOL    HW214886   3.357   0.114   5.528
 4663SOL     OW14887   0.362   0.064   0.145
 4663SOL    HW114888   0.447   0.014   0.159
 4663SOL    HW214889   0.359   0.142   0.207
 4664SOL     OW14890   7.010   0.334   0.378
 4664SOL    HW114891   7.000   0.308   0.282
 4664SOL    HW214892   6.943   0.284   0.433
 4665SOL     OW14893   2.619   0.114   5.838
 4665SOL    HW114894   2.665   0.033   5.874
 4665SOL    HW214895   2.640   0.124   5.741
 4666SOL     OW14896   2.098   2.466   6.666
 4666SOL    HW114897   2.106   2.444   6.568
 4666SOL    HW214898   2.189   2.473   6.705
 4667SOL     OW14899   6.840   4.190   1.911
 4667SOL    HW114900   6.770   4.147   1.968
 4667SOL    HW214901   6.797   4.232   1.831
 4668SOL     OW14902   4.554   1.466   4.847
 4668SOL    HW114903   4.550   1.532   4.772
 4668SOL    HW214904   4.550   1.514   4.934
 4669SOL     OW14905   5.556   0.224   6.427
 4669SOL    HW114906   5.522   0.303   6.477
 4669SOL    HW214907   5.478   0.167   6.398
 4670SOL     OW14908   1.080   2.857   6.952
 4670SOL    HW114909   1.013   2.848   6.879
 4670SOL    HW214910   1.090   2.770   7.000
 4671SOL     OW14911   0.986   3.119   6.954
 4671SOL    HW114912   1.002   3.020   6.952
 4671SOL    HW214913   1.073   3.167   6.945
 4672SOL     OW14914   3.960   4.763   5.893
 4672SOL    HW114915   3.908   4.679   5.877
 4672SOL    HW214916   4.025   4.747   5.967
 4673SOL     OW14917   5.177   0.103   0.127
 4673SOL    HW114918   5.090   0.123   0.082
 4673SOL    HW214919   5.222   0.189   0.151
 4674SOL     OW14920   5.522   1.742   0.738
 4674SOL    HW114921   5.589   1.816   0.739
 4674SOL    HW214922   5.532   1.686   0.820
 4675SOL     OW14923   3.516   0.452   6.922
 4675SOL    HW114924   3.493   0.461   6.825
 4675SOL    HW214925   3.563   0.534   6.953
 4676SOL     OW14926   0.131   6.689   4.724
 4676SOL    HW114927   0.054   6.688   4.659
 4676SOL    HW214928   0.096   6.675   4.817
 4677SOL     OW14929   2.858   0.255   6.813
 4677SOL    HW114930   2.917   0.195   6.758
 4677SOL    HW214931   2.904   0.277   6.899
 4678SOL     OW14932   2.292   5.236   2.172
 4678SOL    HW114933   2.334   5.308   2.227
 4678SOL    HW214934   2.362   5.172   2.142
 4679SOL     OW14935   3.727   1.360   6.673
 4679SOL    HW114936   3.760   1.450   6.645
 4679SOL    HW214937   3.699   1.364   6.769
 4680SOL     OW14938   2.372   6.264   1.491
 4680SOL    HW114939   2.406   6.335   1.430
 4680SOL    HW214940   2.381   6.295   1.586
 4681SOL     OW14941   6.376   5.893   4.542
 4681SOL    HW114942   6.334   5.860   4.626
 4681SOL    HW214943   6.427   5.818   4.499
 4682SOL     OW14944   4.778   5.090   6.554
 4682SOL    HW114945   4.855   5.152   6.573
 4682SOL    HW214946   4.772   5.021   6.626
 4683SOL     OW14947   4.935   4.443   2.451
 4683SOL    HW114948   4.905   4.347   2.446
 4683SOL    HW214949   4.962   4.465   2.545
 4684SOL     OW14950   0.234   2.561   4.419
 4684SOL    HW114951   0.319   2.548   4.469
 4684SOL    HW214952   0.248   2.537   4.323
 4685SOL     OW14953   0.261   5.110   4.288
 4685SOL    HW114954   0.250   5.043   4.361
 4685SOL    HW214955   0.188   5.098   4.220
 4686SOL     OW14956   5.212   6.050   0.427
 4686SOL    HW114957   5.279   6.006   0.487
 4686SOL    HW214958   5.255   6.129   0.382
 4687SOL     OW14959   6.555   4.669   5.325
 4687SOL    HW114960   6.515   4.632   5.409
 4687SOL    HW214961   6.647   4.703   5.344
 4688SOL     OW14962   6.949   2.433   6.169
 4688SOL    HW114963   6.919   2.520   6.129
 4688SOL    HW214964   6.991   2.450   6.258
 4689SOL     OW14965   5.478   0.537   6.281
 4689SOL    HW114966   5.451   0.570   6.371
 4689SOL    HW214967   5.410   0.472   6.247
 4690SOL     OW14968   0.833   1.397   6.925
 4690SOL    HW114969   0.859   1.315   6.975
 4690SOL    HW214970   0.909   1.462   6.924
 4691SOL     OW14971   3.278   3.988   1.936
 4691SOL    HW114972   3.269   3.888   1.935
 4691SOL    HW214973   3.221   4.026   2.009
 4692SOL     OW14974   6.898   4.994   2.282
 4692SOL    HW114975   6.957   5.030   2.210
 4692SOL    HW214976   6.929   5.028   2.371
 4693SOL     OW14977   0.821   0.929   4.153
 4693SOL    HW114978   0.748   0.893   4.211
 4693SOL    HW214979   0.867   0.853   4.106
 4694SOL     OW14980   3.001   0.558   6.933
 4694SOL    HW114981   2.942   0.504   6.993
 4694SOL    HW214982   3.094   0.560   6.971
 4695SOL     OW14983   3.266   3.458   1.769
 4695SOL    HW114984   3.248   3.368   1.808
 4695SOL    HW214985   3.362   3.482   1.783
 4696SOL     OW14986   1.148   4.849   6.202
 4696SOL    HW114987   1.146   4.933   6.257
 4696SOL    HW214988   1.210   4.783   6.245
 4697SOL     OW14989   1.685   3.331   0.927
 4697SOL    HW114990   1.621   3.408   0.921
 4697SOL    HW214991   1.644   3.257   0.981
 4698SOL     OW14992   4.666   5.059   2.598
 4698SOL    HW114993   4.603   5.031   2.525
 4698SOL    HW214994   4.718   5.138   2.568
 4699SOL     OW14995   1.069   0.160   2.695
 4699SOL    HW114996   0.991   0.223   2.693
 4699SOL    HW214997   1.036   0.066   2.679
 4700SOL     OW14998   5.303   1.256   1.735
 4700SOL    HW114999   5.288   1.240   1.637
 4700SOL    HW215000   5.385   1.313   1.747
 4701SOL     OW15001   1.268   1.743   0.271
 4701SOL    HW115002   1.281   1.822   0.332
 4701SOL    HW215003   1.174   1.709   0.281
 4702SOL     OW15004   4.941   4.582   6.416
 4702SOL    HW115005   4.906   4.671   6.447
 4702SOL    HW215006   5.039   4.576   6.435
 4703SOL     OW15007   0.680   2.402   2.234
 4703SOL    HW115008   0.728   2.358   2.158
 4703SOL    HW215009   0.665   2.498   2.213
 4704SOL     OW15010   7.018   6.603   1.019
 4704SOL    HW115011   6.940   6.611   1.080
 4704SOL    HW215012   6.988   6.619   0.925
 4705SOL     OW15013   3.352   3.348   2.955
 4705SOL    HW115014   3.366   3.371   3.052
 4705SOL    HW215015   3.397   3.261   2.935
 4706SOL     OW15016   4.059   6.787   6.491
 4706SOL    HW115017   4.143   6.820   6.533
 4706SOL    HW215018   3.996   6.754   6.562
 4707SOL     OW15019   2.151   5.953   0.782
 4707SOL    HW115020   2.098   5.984   0.703
 4707SOL    HW215021   2.248   5.970   0.766
 4708SOL     OW15022   1.880   3.000   0.866
 4708SOL    HW115023   1.796   3.047   0.838
 4708SOL    HW215024   1.884   2.994   0.965
 4709SOL     OW15025   3.949   5.464   5.069
 4709SOL    HW115026   3.864   5.465   5.017
 4709SOL    HW215027   3.935   5.414   5.155
 4710SOL     OW15028   4.079   1.267   5.999
 4710SOL    HW115029   4.012   1.192   6.001
 4710SOL    HW215030   4.171   1.230   6.009
 4711SOL     OW15031   4.383   0.719   2.777
 4711SOL    HW115032   4.452   0.665   2.729
 4711SOL    HW215033   4.323   0.659   2.829
 4712SOL     OW15034   2.402   4.888   0.528
 4712SOL    HW115035   2.452   4.811   0.489
 4712SOL    HW215036   2.410   4.887   0.628
 4713SOL     OW15037   2.542   4.113   0.878
 4713SOL    HW115038   2.564   4.049   0.952
 4713SOL    HW215039   2.625   4.158   0.847
 4714SOL     OW15040   2.552   2.144   0.200
 4714SOL    HW115041   2.582   2.075   0.266
 4714SOL    HW215042   2.625   2.160   0.133
 4715SOL     OW15043   6.261   3.563   1.827
 4715SOL    HW115044   6.286   3.647   1.875
 4715SOL    HW215045   6.270   3.578   1.728
 4716SOL     OW15046   3.602   5.317   6.243
 4716SOL    HW115047   3.687   5.288   6.287
 4716SOL    HW215048   3.529   5.253   6.266
 4717SOL     OW15049   1.227   5.994   3.261
 4717SOL    HW115050   1.302   5.943   3.218
 4717SOL    HW215051   1.195   5.944   3.341
 4718SOL     OW15052   5.357   1.447   6.593
 4718SOL    HW115053   5.274   1.501   6.581
 4718SOL    HW215054   5.437   1.505   6.577
 4719SOL     OW15055   4.993   3.075   2.644
 4719SOL    HW115056   5.056   3.130   2.700
 4719SOL    HW215057   4.979   3.120   2.556
 4720SOL     OW15058   3.197   6.566   5.472
 4720SOL    HW115059   3.170   6.470   5.481
 4720SOL    HW215060   3.167   6.601   5.383
 4721SOL     OW15061   6.676   2.316   1.816
 4721SOL    HW115062   6.671   2.270   1.905
 4721SOL    HW215063   6.585   2.322   1.776
 4722SOL     OW15064   1.140   5.986   6.848
 4722SOL    HW115065   1.148   5.962   6.945
 4722SOL    HW215066   1.188   5.917   6.793
 4723SOL     OW15067   1.835   5.374   5.321
 4723SOL    HW115068   1.862   5.278   5.330
 4723SOL    HW215069   1.893   5.430   5.381
 4724SOL     OW15070   4.669   6.489   2.527
 4724SOL    HW115071   4.621   6.406   2.554
 4724SOL    HW215072   4.687   6.487   2.429
 4725SOL     OW15073   5.220   6.161   2.927
 4725SOL    HW115074   5.173   6.235   2.976
 4725SOL    HW215075   5.318   6.178   2.927
 4726SOL     OW15076   1.663   3.436   6.706
 4726SOL    HW115077   1.759   3.464   6.703
 4726SOL    HW215078   1.657   3.336   6.709
 4727SOL     OW15079   6.985   6.226   6.661
 4727SOL    HW115080   6.993   6.133   6.698
 4727SOL    HW215081   6.915   6.227   6.589
 4728SOL     OW15082   4.987   1.608   1.005
 4728SOL    HW115083   4.982   1.579   0.909
 4728SOL    HW215084   4.903   1.657   1.029
 4729SOL     OW15085   2.322   1.224   2.807
 4729SOL    HW115086   2.394   1.288   2.782
 4729SOL    HW215087   2.251   1.272   2.857
 4730SOL     OW15088   2.228   6.243   5.447
 4730SOL    HW115089   2.275   6.177   5.506
 4730SOL    HW215090   2.278   6.329   5.448
 4731SOL     OW15091   5.204   0.303   6.606
 4731SOL    HW115092   5.219   0.385   6.660
 4731SOL    HW215093   5.119   0.313   6.553
 4732SOL     OW15094   6.845   3.074   6.332
 4732SOL    HW115095   6.886   3.086   6.422
 4732SOL    HW215096   6.748   3.050   6.342
 4733SOL     OW15097   0.842   3.910   3.706
 4733SOL    HW115098   0.767   3.852   3.674
 4733SOL    HW215099   0.852   3.900   3.805
 4734SOL     OW15100   5.244   3.595   6.838
 4734SOL    HW115101   5.149   3.563   6.847
 4734SOL    HW215102   5.277   3.573   6.746
 4735SOL     OW15103   0.666   5.044   3.720
 4735SOL    HW115104   0.632   5.104   3.648
 4735SOL    HW215105   0.593   4.982   3.750
 4736SOL     OW15106   0.315   1.723   6.810
 4736SOL    HW115107   0.381   1.797   6.822
 4736SOL    HW215108   0.326   1.682   6.719
 4737SOL     OW15109   1.709   4.999   2.455
 4737SOL    HW115110   1.647   5.061   2.504
 4737SOL    HW215111   1.718   5.029   2.360
 4738SOL     OW15112   0.349   6.010   2.843
 4738SOL    HW115113   0.379   6.076   2.774
 4738SOL    HW215114   0.423   5.944   2.860
 4739SOL     OW15115   4.092   6.977   2.323
 4739SOL    HW115116   4.018   7.019   2.375
 4739SOL    HW215117   4.160   6.940   2.387
 4740SOL     OW15118   6.909   1.354   2.266
 4740SOL    HW115119   6.990   1.413   2.269
 4740SOL    HW215120   6.935   1.262   2.296
 4741SOL     OW15121   3.393   2.368   1.702
 4741SOL    HW115122   3.475   2.342   1.753
 4741SOL    HW215123   3.339   2.287   1.682
 4742SOL     OW15124   1.828   6.868   6.462
 4742SOL    HW115125   1.833   6.961   6.425
 4742SOL    HW215126   1.876   6.805   6.401
 4743SOL     OW15127   2.042   3.717   2.598
 4743SOL    HW115128   2.066   3.796   2.542
 4743SOL    HW215129   2.069   3.733   2.693
 4744SOL     OW15130   2.037   5.150   0.453
 4744SOL    HW115131   2.039   5.087   0.375
 4744SOL    HW215132   2.012   5.241   0.422
 4745SOL     OW15133   3.081   3.994   0.097
 4745SOL    HW115134   3.165   3.943   0.121
 4745SOL    HW215135   3.092   4.090   0.123
 4746SOL     OW15136   4.089   6.068   3.998
 4746SOL    HW115137   4.034   5.985   4.013
 4746SOL    HW215138   4.094   6.120   4.083
 4747SOL     OW15139   1.041   3.520   0.712
 4747SOL    HW115140   1.072   3.469   0.792
 4747SOL    HW215141   1.121   3.555   0.663
 4748SOL     OW15142   1.480   6.946   1.824
 4748SOL    HW115143   1.538   7.023   1.851
 4748SOL    HW215144   1.504   6.916   1.732
 4749SOL     OW15145   2.098   6.919   6.124
 4749SOL    HW115146   2.144   6.972   6.053
 4749SOL    HW215147   2.129   6.824   6.119
 4750SOL     OW15148   6.488   4.089   5.466
 4750SOL    HW115149   6.558   4.093   5.395
 4750SOL    HW215150   6.448   4.180   5.479
 4751SOL     OW15151   4.633   2.280   3.172
 4751SOL    HW115152   4.718   2.314   3.213
 4751SOL    HW215153   4.567   2.356   3.166
 4752SOL     OW15154   4.518   0.756   0.446
 4752SOL    HW115155   4.459   0.694   0.395
 4752SOL    HW215156   4.523   0.844   0.398
 4753SOL     OW15157   1.258   6.870   4.655
 4753SOL    HW115158   1.179   6.812   4.673
 4753SOL    HW215159   1.327   6.854   4.726
 4754SOL     OW15160   4.731   3.811   5.263
 4754SOL    HW115161   4.701   3.716   5.250
 4754SOL    HW215162   4.696   3.845   5.350
 4755SOL     OW15163   2.256   0.318   1.338
 4755SOL    HW115164   2.192   0.243   1.356
 4755SOL    HW215165   2.228   0.366   1.255
 4756SOL     OW15166   6.823   4.043   6.209
 4756SOL    HW115167   6.909   4.068   6.164
 4756SOL    HW215168   6.835   4.046   6.308
 4757SOL     OW15169   1.455   2.840   1.394
 4757SOL    HW115170   1.537   2.897   1.396
 4757SOL    HW215171   1.402   2.860   1.311
 4758SOL     OW15172   1.389   6.834   3.408
 4758SOL    HW115173   1.316   6.897   3.436
 4758SOL    HW215174   1.393   6.757   3.472
 4759SOL     OW15175   0.445   5.971   0.119
 4759SOL    HW115176   0.357   6.016   0.135
 4759SOL    HW215177   0.480   5.996   0.029
 4760SOL     OW15178   1.026   0.148   0.648
 4760SOL    HW115179   1.063   0.169   0.738
 4760SOL    HW215180   1.095   0.100   0.594
 4761SOL     OW15181   0.956   0.508   0.418
 4761SOL    HW115182   1.037   0.463   0.381
 4761SOL    HW215183   0.945   0.598   0.375
 4762SOL     OW15184   1.587   5.844   1.927
 4762SOL    HW115185   1.654   5.908   1.964
 4762SOL    HW215186   1.525   5.892   1.865
 4763SOL     OW15187   4.818   6.772   2.223
 4763SOL    HW115188   4.790   6.684   2.262
 4763SOL    HW215189   4.774   6.785   2.134
 4764SOL     OW15190   4.522   3.407   5.372
 4764SOL    HW115191   4.559   3.467   5.301
 4764SOL    HW215192   4.428   3.436   5.394
 4765SOL     OW15193   3.742   0.883   6.429
 4765SOL    HW115194   3.759   0.968   6.478
 4765SOL    HW215195   3.711   0.813   6.493
 4766SOL     OW15196   6.304   6.154   4.588
 4766SOL    HW115197   6.351   6.065   4.585
 4766SOL    HW215198   6.256   6.169   4.502
 4767SOL     OW15199   2.564   5.621   5.227
 4767SOL    HW115200   2.531   5.663   5.142
 4767SOL    HW215201   2.517   5.533   5.241
 4768SOL     OW15202   4.617   3.588   6.205
 4768SOL    HW115203   4.538   3.550   6.252
 4768SOL    HW215204   4.592   3.616   6.112
 4769SOL     OW15205   3.214   6.163   0.440
 4769SOL    HW115206   3.226   6.257   0.406
 4769SOL    HW215207   3.121   6.152   0.475
 4770SOL     OW15208   0.014   2.397   4.810
 4770SOL    HW115209   0.020   2.492   4.781
 4770SOL    HW215210   6.944   2.364   4.795
 4771SOL     OW15211   2.624   6.700   4.846
 4771SOL    HW115212   2.628   6.744   4.936
 4771SOL    HW215213   2.637   6.768   4.774
 4772SOL     OW15214   3.234   5.288   0.636
 4772SOL    HW115215   3.158   5.234   0.673
 4772SOL    HW215216   3.315   5.275   0.693
 4773SOL     OW15217   1.266   6.117   4.616
 4773SOL    HW115218   1.309   6.064   4.543
 4773SOL    HW215219   1.298   6.085   4.705
 4774SOL     OW15220   1.639   4.058   0.664
 4774SOL    HW115221   1.617   4.063   0.566
 4774SOL    HW215222   1.737   4.072   0.676
 4775SOL     OW15223   4.663   6.950   5.011
 4775SOL    HW115224   4.649   7.018   4.938
 4775SOL    HW215225   4.761   6.938   5.027
 4776SOL     OW15226   1.417   1.029   4.969
 4776SOL    HW115227   1.386   0.936   4.949
 4776SOL    HW215228   1.419   1.083   4.885
 4777SOL     OW15229   1.716   5.711   0.768
 4777SOL    HW115230   1.754   5.772   0.699
 4777SOL    HW215231   1.645   5.653   0.726
 4778SOL     OW15232   0.823   2.804   4.464
 4778SOL    HW115233   0.733   2.782   4.426
 4778SOL    HW215234   0.895   2.767   4.405
 4779SOL     OW15235   5.988   6.328   4.328
 4779SOL    HW115236   5.956   6.373   4.244
 4779SOL    HW215237   6.058   6.260   4.305
 4780SOL     OW15238   5.805   2.675   5.699
 4780SOL    HW115239   5.828   2.611   5.772
 4780SOL    HW215240   5.709   2.664   5.674
 4781SOL     OW15241   2.729   5.670   2.625
 4781SOL    HW115242   2.813   5.620   2.645
 4781SOL    HW215243   2.690   5.704   2.710
 4782SOL     OW15244   6.224   5.807   6.017
 4782SOL    HW115245   6.209   5.708   6.020
 4782SOL    HW215246   6.138   5.853   5.994
 4783SOL     OW15247   6.200   3.837   0.121
 4783SOL    HW115248   6.185   3.785   0.205
 4783SOL    HW215249   6.162   3.929   0.131
 4784SOL     OW15250   6.166   1.733   6.019
 4784SOL    HW115251   6.149   1.659   5.954
 4784SOL    HW215252   6.166   1.696   6.112
 4785SOL     OW15253   0.274   6.801   2.783
 4785SOL    HW115254   0.314   6.744   2.711
 4785SOL    HW215255   0.283   6.755   2.871
 4786SOL     OW15256   2.723   0.320   0.267
 4786SOL    HW115257   2.634   0.290   0.233
 4786SOL    HW215258   2.747   0.266   0.348
 4787SOL     OW15259   4.076   1.938   4.494
 4787SOL    HW115260   3.992   1.912   4.445
 4787SOL    HW215261   4.153   1.887   4.456
 4788SOL     OW15262   5.964   5.697   0.569
 4788SOL    HW115263   5.869   5.686   0.541
 4788SOL    HW215264   5.969   5.750   0.653
 4789SOL     OW15265   4.941   1.556   1.976
 4789SOL    HW115266   4.861   1.512   2.017
 4789SOL    HW215267   4.913   1.604   1.893
 4790SOL     OW15268   5.297   1.668   5.229
 4790SOL    HW115269   5.390   1.664   5.191
 4790SOL    HW215270   5.286   1.595   5.296
 4791SOL     OW15271   0.713   2.486   1.021
 4791SOL    HW115272   0.740   2.395   0.991
 4791SOL    HW215273   0.617   2.484   1.052
 4792SOL     OW15274   1.770   4.728   4.444
 4792SOL    HW115275   1.864   4.694   4.458
 4792SOL    HW215276   1.723   4.734   4.532
 4793SOL     OW15277   0.926   3.706   5.830
 4793SOL    HW115278   0.958   3.766   5.903
 4793SOL    HW215279   1.003   3.683   5.770
 4794SOL     OW15280   4.858   0.357   4.050
 4794SOL    HW115281   4.833   0.388   4.142
 4794SOL    HW215282   4.809   0.411   3.982
 4795SOL     OW15283   0.039   1.783   4.432
 4795SOL    HW115284   0.137   1.769   4.447
 4795SOL    HW215285   0.019   1.775   4.334
 4796SOL     OW15286   3.829   0.680   6.071
 4796SOL    HW115287   3.742   0.667   6.119
 4796SOL    HW215288   3.899   0.709   6.135
 4797SOL     OW15289   0.400   5.359   4.226
 4797SOL    HW115290   0.370   5.276   4.274
 4797SOL    HW215291   0.366   5.440   4.273
 4798SOL     OW15292   5.964   4.936   6.014
 4798SOL    HW115293   5.976   5.034   6.030
 4798SOL    HW215294   6.047   4.887   6.042
 4799SOL     OW15295   3.751   1.824   0.197
 4799SOL    HW115296   3.783   1.810   0.290
 4799SOL    HW215297   3.814   1.781   0.133
 4800SOL     OW15298   1.884   4.700   6.903
 4800SOL    HW115299   1.861   4.648   6.820
 4800SOL    HW215300   1.853   4.650   6.983
 4801SOL     OW15301   4.073   2.786   0.621
 4801SOL    HW115302   4.058   2.881   0.594
 4801SOL    HW215303   4.035   2.726   0.551
 4802SOL     OW15304   6.971   6.420   1.759
 4802SOL    HW115305   6.931   6.375   1.679
 4802SOL    HW215306   6.899   6.441   1.825
 4803SOL     OW15307   5.502   4.826   0.866
 4803SOL    HW115308   5.409   4.838   0.899
 4803SOL    HW215309   5.502   4.819   0.766
 4804SOL     OW15310   5.603   1.201   0.680
 4804SOL    HW115311   5.646   1.129   0.625
 4804SOL    HW215312   5.636   1.196   0.774
 4805SOL     OW15313   6.570   1.170   2.196
 4805SOL    HW115314   6.503   1.097   2.183
 4805SOL    HW215315   6.524   1.259   2.191
 4806SOL     OW15316   1.390   3.962   3.108
 4806SOL    HW115317   1.313   4.022   3.128
 4806SOL    HW215318   1.432   3.989   3.022
 4807SOL     OW15319   1.947   3.053   6.668
 4807SOL    HW115320   1.986   3.124   6.726
 4807SOL    HW215321   1.915   3.094   6.583
 4808SOL     OW15322   3.848   5.477   0.736
 4808SOL    HW115323   3.834   5.575   0.725
 4808SOL    HW215324   3.787   5.427   0.675
 4809SOL     OW15325   3.637   4.533   1.637
 4809SOL    HW115326   3.598   4.441   1.637
 4809SOL    HW215327   3.586   4.590   1.702
 4810SOL     OW15328   1.054   4.075   4.541
 4810SOL    HW115329   1.107   3.998   4.504
 4810SOL    HW215330   1.062   4.153   4.479
 4811SOL     OW15331   3.922   4.055   4.591
 4811SOL    HW115332   3.983   4.122   4.633
 4811SOL    HW215333   3.965   3.964   4.594
 4812SOL     OW15334   0.587   7.019   1.967
 4812SOL    HW115335   0.678   0.004   2.008
 4812SOL    HW215336   0.517   0.006   2.038
 4813SOL     OW15337   5.707   2.119   6.525
 4813SOL    HW115338   5.638   2.178   6.568
 4813SOL    HW215339   5.781   2.101   6.590
 4814SOL     OW15340   0.055   3.715   2.458
 4814SOL    HW115341   0.126   3.690   2.524
 4814SOL    HW215342   6.997   3.660   2.473
 4815SOL     OW15343   5.204   4.884   2.838
 4815SOL    HW115344   5.150   4.810   2.799
 4815SOL    HW215345   5.270   4.847   2.903
 4816SOL     OW15346   2.386   6.709   1.506
 4816SOL    HW115347   2.372   6.718   1.605
 4816SOL    HW215348   2.315   6.649   1.468
 4817SOL     OW15349   3.761   1.304   1.734
 4817SOL    HW115350   3.825   1.228   1.718
 4817SOL    HW215351   3.673   1.282   1.693
 4818SOL     OW15352   1.728   0.692   4.298
 4818SOL    HW115353   1.755   0.597   4.313
 4818SOL    HW215354   1.657   0.696   4.228
 4819SOL     OW15355   3.165   1.989   1.374
 4819SOL    HW115356   3.222   2.026   1.301
 4819SOL    HW215357   3.119   1.906   1.342
 4820SOL     OW15358   6.497   3.121   1.132
 4820SOL    HW115359   6.453   3.199   1.176
 4820SOL    HW215360   6.596   3.133   1.133
 4821SOL     OW15361   6.418   5.510   1.691
 4821SOL    HW115362   6.394   5.485   1.598
 4821SOL    HW215363   6.397   5.434   1.753
 4822SOL     OW15364   1.748   3.274   3.607
 4822SOL    HW115365   1.785   3.221   3.531
 4822SOL    HW215366   1.721   3.212   3.681
 4823SOL     OW15367   0.094   0.276   3.630
 4823SOL    HW115368   0.144   0.362   3.644
 4823SOL    HW215369   0.158   0.199   3.629
 4824SOL     OW15370   5.472   2.152   3.913
 4824SOL    HW115371   5.464   2.059   3.947
 4824SOL    HW215372   5.508   2.150   3.819
 4825SOL     OW15373   2.101   2.661   4.428
 4825SOL    HW115374   2.008   2.689   4.451
 4825SOL    HW215375   2.164   2.735   4.451
 4826SOL     OW15376   0.106   6.864   0.891
 4826SOL    HW115377   0.118   6.772   0.928
 4826SOL    HW215378   0.186   6.920   0.916
 4827SOL     OW15379   5.360   1.018   2.148
 4827SOL    HW115380   5.456   1.034   2.125
 4827SOL    HW215381   5.309   0.995   2.065
 4828SOL     OW15382   5.998   3.883   1.548
 4828SOL    HW115383   6.066   3.954   1.568
 4828SOL    HW215384   5.917   3.898   1.605
 4829SOL     OW15385   3.650   6.834   6.339
 4829SOL    HW115386   3.658   6.933   6.326
 4829SOL    HW215387   3.554   6.809   6.340
 4830SOL     OW15388   5.187   5.441   3.938
 4830SOL    HW115389   5.116   5.372   3.950
 4830SOL    HW215390   5.160   5.526   3.984
 4831SOL     OW15391   6.641   4.889   5.689
 4831SOL    HW115392   6.705   4.823   5.650
 4831SOL    HW215393   6.554   4.843   5.706
 4832SOL     OW15394   3.130   2.375   6.276
 4832SOL    HW115395   3.219   2.419   6.287
 4832SOL    HW215396   3.066   2.440   6.234
 4833SOL     OW15397   4.810   1.971   2.917
 4833SOL    HW115398   4.718   2.012   2.914
 4833SOL    HW215399   4.878   2.041   2.897
 4834SOL     OW15400   3.759   0.058   0.556
 4834SOL    HW115401   3.821   7.007   0.577
 4834SOL    HW215402   3.675   0.049   0.610
 4835SOL     OW15403   1.777   0.084   6.839
 4835SOL    HW115404   1.712   0.012   6.862
 4835SOL    HW215405   1.842   0.095   6.914
 4836SOL     OW15406   4.232   2.329   3.575
 4836SOL    HW115407   4.215   2.300   3.481
 4836SOL    HW215408   4.164   2.288   3.636
 4837SOL     OW15409   3.674   2.807   1.794
 4837SOL    HW115410   3.622   2.728   1.761
 4837SOL    HW215411   3.680   2.803   1.894
 4838SOL     OW15412   2.806   5.088   2.488
 4838SOL    HW115413   2.707   5.078   2.499
 4838SOL    HW215414   2.848   4.998   2.478
 4839SOL     OW15415   0.753   3.822   5.659
 4839SOL    HW115416   0.815   3.783   5.728
 4839SOL    HW215417   0.659   3.795   5.680
 4840SOL     OW15418   6.881   0.472   6.020
 4840SOL    HW115419   6.968   0.424   6.033
 4840SOL    HW215420   6.853   0.467   5.924
 4841SOL     OW15421   3.154   5.474   1.998
 4841SOL    HW115422   3.238   5.498   2.047
 4841SOL    HW215423   3.116   5.390   2.036
 4842SOL     OW15424   3.298   4.854   2.016
 4842SOL    HW115425   3.276   4.849   2.113
 4842SOL    HW215426   3.389   4.816   2.000
 4843SOL     OW15427   6.145   4.220   0.581
 4843SOL    HW115428   6.096   4.227   0.668
 4843SOL    HW215429   6.144   4.308   0.534
 4844SOL     OW15430   0.038   3.807   6.747
 4844SOL    HW115431   0.038   3.713   6.713
 4844SOL    HW215432   0.094   3.865   6.687
 4845SOL     OW15433   6.598   5.497   4.383
 4845SOL    HW115434   6.659   5.445   4.443
 4845SOL    HW215435   6.565   5.578   4.432
 4846SOL     OW15436   6.812   3.543   1.424
 4846SOL    HW115437   6.789   3.464   1.480
 4846SOL    HW215438   6.833   3.513   1.331
 4847SOL     OW15439   3.411   1.758   5.738
 4847SOL    HW115440   3.429   1.668   5.778
 4847SOL    HW215441   3.360   1.748   5.653
 4848SOL     OW15442   1.878   0.941   4.560
 4848SOL    HW115443   1.879   1.030   4.515
 4848SOL    HW215444   1.938   0.945   4.640
 4849SOL     OW15445   1.371   0.649   0.323
 4849SOL    HW115446   1.439   0.718   0.348
 4849SOL    HW215447   1.383   0.568   0.380
 4850SOL     OW15448   4.171   0.659   1.729
 4850SOL    HW115449   4.145   0.753   1.752
 4850SOL    HW215450   4.089   0.606   1.706
 4851SOL     OW15451   3.807   5.849   5.036
 4851SOL    HW115452   3.736   5.916   5.012
 4851SOL    HW215453   3.783   5.760   4.998
 4852SOL     OW15454   0.952   6.872   6.413
 4852SOL    HW115455   1.021   6.830   6.354
 4852SOL    HW215456   0.958   6.971   6.407
 4853SOL     OW15457   3.390   1.138   2.679
 4853SOL    HW115458   3.402   1.234   2.706
 4853SOL    HW215459   3.296   1.124   2.649
 4854SOL     OW15460   4.883   5.949   2.652
 4854SOL    HW115461   4.803   5.891   2.643
 4854SOL    HW215462   4.964   5.893   2.668
 4855SOL     OW15463   5.842   2.820   2.307
 4855SOL    HW115464   5.861   2.739   2.251
 4855SOL    HW215465   5.884   2.808   2.397
 4856SOL     OW15466   1.627   3.923   2.567
 4856SOL    HW115467   1.580   3.865   2.501
 4856SOL    HW215468   1.578   4.009   2.577
 4857SOL     OW15469   1.844   2.429   5.540
 4857SOL    HW115470   1.753   2.455   5.572
 4857SOL    HW215471   1.860   2.468   5.449
 4858SOL     OW15472   1.891   1.244   4.213
 4858SOL    HW115473   1.922   1.249   4.308
 4858SOL    HW215474   1.832   1.165   4.202
 4859SOL     OW15475   0.659   0.261   4.149
 4859SOL    HW115476   0.623   0.203   4.076
 4859SOL    HW215477   0.590   0.328   4.175
 4860SOL     OW15478   3.399   4.974   2.689
 4860SOL    HW115479   3.491   4.945   2.662
 4860SOL    HW215480   3.405   5.054   2.748
 4861SOL     OW15481   4.855   5.438   0.311
 4861SOL    HW115482   4.793   5.501   0.357
 4861SOL    HW215483   4.863   5.354   0.365
 4862SOL     OW15484   2.015   5.129   3.614
 4862SOL    HW115485   2.037   5.134   3.517
 4862SOL    HW215486   1.978   5.038   3.635
 4863SOL     OW15487   5.460   4.810   0.598
 4863SOL    HW115488   5.440   4.904   0.570
 4863SOL    HW215489   5.534   4.773   0.542
 4864SOL     OW15490   3.120   1.161   4.168
 4864SOL    HW115491   3.155   1.239   4.220
 4864SOL    HW215492   3.144   1.076   4.216
 4865SOL     OW15493   1.528   0.702   5.319
 4865SOL    HW115494   1.594   0.743   5.256
 4865SOL    HW215495   1.487   0.774   5.375
 4866SOL     OW15496   5.943   3.878   1.168
 4866SOL    HW115497   5.946   3.960   1.110
 4866SOL    HW215498   6.022   3.877   1.229
 4867SOL     OW15499   4.318   5.948   2.593
 4867SOL    HW115500   4.325   5.915   2.498
 4867SOL    HW215501   4.320   5.870   2.655
 4868SOL     OW15502   6.551   4.641   2.546
 4868SOL    HW115503   6.574   4.571   2.614
 4868SOL    HW215504   6.493   4.710   2.588
 4869SOL     OW15505   1.760   1.642   0.598
 4869SOL    HW115506   1.781   1.715   0.663
 4869SOL    HW215507   1.844   1.595   0.571
 4870SOL     OW15508   0.543   6.253   1.101
 4870SOL    HW115509   0.573   6.206   1.185
 4870SOL    HW215510   0.609   6.324   1.077
 4871SOL     OW15511   0.680   0.506   3.850
 4871SOL    HW115512   0.656   0.573   3.921
 4871SOL    HW215513   0.597   0.478   3.801
 4872SOL     OW15514   6.387   0.410   3.253
 4872SOL    HW115515   6.433   0.497   3.231
 4872SOL    HW215516   6.300   0.406   3.204
 4873SOL     OW15517   6.604   5.690   4.697
 4873SOL    HW115518   6.595   5.613   4.760
 4873SOL    HW215519   6.559   5.771   4.736
 4874SOL     OW15520   4.904   3.250   2.383
 4874SOL    HW115521   4.954   3.227   2.299
 4874SOL    HW215522   4.842   3.176   2.407
 4875SOL     OW15523   5.863   1.049   0.308
 4875SOL    HW115524   5.842   1.094   0.221
 4875SOL    HW215525   5.934   1.101   0.356
 4876SOL     OW15526   6.835   1.223   3.603
 4876SOL    HW115527   6.741   1.191   3.591
 4876SOL    HW215528   6.855   1.230   3.701
 4877SOL     OW15529   0.352   2.168   5.289
 4877SOL    HW115530   0.270   2.138   5.241
 4877SOL    HW215531   0.327   2.220   5.370
 4878SOL     OW15532   6.254   1.323   2.013
 4878SOL    HW115533   6.282   1.235   1.975
 4878SOL    HW215534   6.335   1.370   2.050
 4879SOL     OW15535   4.396   2.113   1.787
 4879SOL    HW115536   4.422   2.019   1.810
 4879SOL    HW215537   4.457   2.148   1.716
 4880SOL     OW15538   6.070   3.604   6.967
 4880SOL    HW115539   6.018   3.664   0.003
 4880SOL    HW215540   6.168   3.613   6.986
 4881SOL     OW15541   1.736   1.181   0.097
 4881SOL    HW115542   1.780   1.213   0.014
 4881SOL    HW215543   1.681   1.255   0.136
 4882SOL     OW15544   4.143   1.357   5.527
 4882SOL    HW115545   4.068   1.362   5.462
 4882SOL    HW215546   4.162   1.447   5.565
 4883SOL     OW15547   4.672   4.062   0.712
 4883SOL    HW115548   4.672   4.159   0.733
 4883SOL    HW215549   4.713   4.011   0.788
 4884SOL     OW15550   3.092   5.403   1.548
 4884SOL    HW115551   3.070   5.306   1.552
 4884SOL    HW215552   3.023   5.451   1.495
 4885SOL     OW15553   2.035   4.977   1.121
 4885SOL    HW115554   1.977   5.009   1.197
 4885SOL    HW215555   2.050   4.878   1.131
 4886SOL     OW15556   3.066   6.350   1.572
 4886SOL    HW115557   3.029   6.435   1.534
 4886SOL    HW215558   3.116   6.369   1.655
 4887SOL     OW15559   0.171   6.275   1.779
 4887SOL    HW115560   0.203   6.283   1.684
 4887SOL    HW215561   0.077   6.309   1.785
 4888SOL     OW15562   3.180   6.898   3.083
 4888SOL    HW115563   3.174   6.974   3.147
 4888SOL    HW215564   3.243   6.921   3.009
 4889SOL     OW15565   6.633   2.232   5.137
 4889SOL    HW115566   6.634   2.207   5.234
 4889SOL    HW215567   6.726   2.255   5.107
 4890SOL     OW15568   7.007   1.799   5.100
 4890SOL    HW115569   0.002   1.701   5.097
 4890SOL    HW215570   6.932   1.821   5.038
 4891SOL     OW15571   2.746   5.636   0.107
 4891SOL    HW115572   2.793   5.579   0.040
 4891SOL    HW215573   2.745   5.590   0.195
 4892SOL     OW15574   4.633   5.660   2.526
 4892SOL    HW115575   4.576   5.577   2.531
 4892SOL    HW215576   4.725   5.639   2.557
 4893SOL     OW15577   6.283   3.473   2.102
 4893SOL    HW115578   6.289   3.479   2.002
 4893SOL    HW215579   6.240   3.556   2.138
 4894SOL     OW15580   3.589   0.630   2.841
 4894SOL    HW115581   3.517   0.626   2.910
 4894SOL    HW215582   3.547   0.642   2.751
 4895SOL     OW15583   0.646   4.697   3.854
 4895SOL    HW115584   0.636   4.718   3.951
 4895SOL    HW215585   0.617   4.602   3.837
 4896SOL     OW15586   2.632   4.716   2.437
 4896SOL    HW115587   2.726   4.748   2.441
 4896SOL    HW215588   2.590   4.746   2.351
 4897SOL     OW15589   2.221   5.806   5.253
 4897SOL    HW115590   2.165   5.888   5.262
 4897SOL    HW215591   2.316   5.828   5.274
 4898SOL     OW15592   3.754   1.254   4.910
 4898SOL    HW115593   3.797   1.330   4.960
 4898SOL    HW215594   3.734   1.284   4.817
 4899SOL     OW15595   6.217   4.861   3.164
 4899SOL    HW115596   6.243   4.768   3.190
 4899SOL    HW215597   6.134   4.887   3.213
 4900SOL     OW15598   3.543   5.950   5.385
 4900SOL    HW115599   3.479   5.949   5.308
 4900SOL    HW215600   3.622   6.007   5.363
 4901SOL     OW15601   2.187   1.549   5.423
 4901SOL    HW115602   2.089   1.567   5.415
 4901SOL    HW215603   2.209   1.524   5.517
 4902SOL     OW15604   0.883   1.334   4.898
 4902SOL    HW115605   0.937   1.367   4.976
 4902SOL    HW215606   0.786   1.333   4.923
 4903SOL     OW15607   4.719   5.676   0.386
 4903SOL    HW115608   4.768   5.749   0.338
 4903SOL    HW215609   4.692   5.708   0.477
 4904SOL     OW15610   2.023   0.433   5.192
 4904SOL    HW115611   2.112   0.433   5.239
 4904SOL    HW215612   1.981   0.342   5.201
 4905SOL     OW15613   2.726   0.928   3.577
 4905SOL    HW115614   2.763   0.994   3.642
 4905SOL    HW215615   2.749   0.835   3.606
 4906SOL     OW15616   4.600   2.468   6.128
 4906SOL    HW115617   4.520   2.517   6.162
 4906SOL    HW215618   4.680   2.528   6.131
 4907SOL     OW15619   5.048   0.667   1.646
 4907SOL    HW115620   5.011   0.618   1.725
 4907SOL    HW215621   5.119   0.611   1.603
 4908SOL     OW15622   5.256   6.707   0.267
 4908SOL    HW115623   5.187   6.779   0.272
 4908SOL    HW215624   5.212   6.622   0.238
 4909SOL     OW15625   6.871   5.353   3.436
 4909SOL    HW115626   6.828   5.322   3.351
 4909SOL    HW215627   6.952   5.297   3.455
 4910SOL     OW15628   5.556   0.437   4.441
 4910SOL    HW115629   5.571   0.511   4.507
 4910SOL    HW215630   5.458   0.428   4.424
 4911SOL     OW15631   1.712   3.650   3.049
 4911SOL    HW115632   1.720   3.723   2.982
 4911SOL    HW215633   1.761   3.675   3.132
 4912SOL     OW15634   5.326   1.851   5.881
 4912SOL    HW115635   5.417   1.890   5.868
 4912SOL    HW215636   5.328   1.786   5.956
 4913SOL     OW15637   4.341   3.665   5.759
 4913SOL    HW115638   4.358   3.764   5.758
 4913SOL    HW215639   4.370   3.625   5.672
 4914SOL     OW15640   4.397   6.651   5.442
 4914SOL    HW115641   4.356   6.681   5.356
 4914SOL    HW215642   4.423   6.732   5.496
 4915SOL     OW15643   2.973   6.482   5.042
 4915SOL    HW115644   3.032   6.430   4.980
 4915SOL    HW215645   2.881   6.490   5.002
 4916SOL     OW15646   0.724   0.769   3.721
 4916SOL    HW115647   0.736   0.713   3.803
 4916SOL    HW215648   0.720   0.866   3.746
 4917SOL     OW15649   3.573   5.535   1.060
 4917SOL    HW115650   3.610   5.443   1.048
 4917SOL    HW215651   3.616   5.578   1.139
 4918SOL     OW15652   5.695   6.382   1.737
 4918SOL    HW115653   5.734   6.382   1.829
 4918SOL    HW215654   5.692   6.476   1.703
 4919SOL     OW15655   3.594   2.879   2.562
 4919SOL    HW115656   3.649   2.901   2.643
 4919SOL    HW215657   3.654   2.842   2.491
 4920SOL     OW15658   5.418   0.162   4.780
 4920SOL    HW115659   5.357   0.154   4.859
 4920SOL    HW215660   5.389   0.097   4.709
 4921SOL     OW15661   1.371   5.227   7.023
 4921SOL    HW115662   1.297   5.168   6.994
 4921SOL    HW215663   1.393   5.293   6.951
 4922SOL     OW15664   3.197   2.121   4.482
 4922SOL    HW115665   3.223   2.102   4.388
 4922SOL    HW215666   3.277   2.113   4.542
 4923SOL     OW15667   2.656   0.923   2.421
 4923SOL    HW115668   2.707   0.977   2.354
 4923SOL    HW215669   2.607   0.849   2.375
 4924SOL     OW15670   3.100   1.583   4.451
 4924SOL    HW115671   3.173   1.629   4.400
 4924SOL    HW215672   3.076   1.637   4.531
 4925SOL     OW15673   5.174   0.550   2.541
 4925SOL    HW115674   5.140   0.644   2.536
 4925SOL    HW215675   5.274   0.550   2.534
 4926SOL     OW15676   5.324   1.579   1.875
 4926SOL    HW115677   5.384   1.509   1.836
 4926SOL    HW215678   5.330   1.577   1.974
 4927SOL     OW15679   2.768   3.135   5.871
 4927SOL    HW115680   2.817   3.050   5.851
 4927SOL    HW215681   2.684   3.113   5.921
 4928SOL     OW15682   1.160   0.437   6.662
 4928SOL    HW115683   1.194   0.528   6.637
 4928SOL    HW215684   1.064   0.444   6.688
 4929SOL     OW15685   6.565   0.145   3.967
 4929SOL    HW115686   6.531   0.214   3.903
 4929SOL    HW215687   6.640   0.183   4.020
 4930SOL     OW15688   5.883   0.279   2.750
 4930SOL    HW115689   5.841   0.285   2.841
 4930SOL    HW215690   5.812   0.271   2.680
 4931SOL     OW15691   6.603   6.236   1.393
 4931SOL    HW115692   6.614   6.207   1.298
 4931SOL    HW215693   6.540   6.174   1.440
 4932SOL     OW15694   3.696   3.501   3.130
 4932SOL    HW115695   3.795   3.489   3.130
 4932SOL    HW215696   3.673   3.596   3.152
 4933SOL     OW15697   2.368   6.632   2.379
 4933SOL    HW115698   2.331   6.551   2.423
 4933SOL    HW215699   2.338   6.714   2.427
 4934SOL     OW15700   3.559   6.123   3.018
 4934SOL    HW115701   3.491   6.145   3.087
 4934SOL    HW215702   3.513   6.083   2.938
 4935SOL     OW15703   1.684   1.869   6.073
 4935SOL    HW115704   1.719   1.851   6.165
 4935SOL    HW215705   1.725   1.953   6.038
 4936SOL     OW15706   2.959   4.797   0.827
 4936SOL    HW115707   3.007   4.727   0.879
 4936SOL    HW215708   2.996   4.800   0.734
 4937SOL     OW15709   5.050   2.699   5.601
 4937SOL    HW115710   4.997   2.753   5.666
 4937SOL    HW215711   5.065   2.607   5.638
 4938SOL     OW15712   2.920   5.856   5.698
 4938SOL    HW115713   2.994   5.853   5.765
 4938SOL    HW215714   2.926   5.777   5.638
 4939SOL     OW15715   5.464   2.260   5.038
 4939SOL    HW115716   5.527   2.234   5.111
 4939SOL    HW215717   5.453   2.184   4.975
 4940SOL     OW15718   1.414   1.142   4.672
 4940SOL    HW115719   1.369   1.216   4.623
 4940SOL    HW215720   1.479   1.096   4.611
 4941SOL     OW15721   3.968   2.298   6.475
 4941SOL    HW115722   4.032   2.317   6.550
 4941SOL    HW215723   4.018   2.299   6.388
 4942SOL     OW15724   4.854   3.187   5.509
 4942SOL    HW115725   4.870   3.270   5.456
 4942SOL    HW215726   4.773   3.140   5.473
 4943SOL     OW15727   3.654   2.828   1.188
 4943SOL    HW115728   3.562   2.792   1.203
 4943SOL    HW215729   3.704   2.768   1.126
 4944SOL     OW15730   1.895   3.991   2.695
 4944SOL    HW115731   1.946   4.072   2.667
 4944SOL    HW215732   1.807   3.988   2.647
 4945SOL     OW15733   1.047   1.233   3.776
 4945SOL    HW115734   1.015   1.148   3.817
 4945SOL    HW215735   1.131   1.215   3.725
 4946SOL     OW15736   0.785   3.047   1.572
 4946SOL    HW115737   0.712   3.037   1.640
 4946SOL    HW215738   0.749   3.028   1.481
 4947SOL     OW15739   1.580   6.958   0.951
 4947SOL    HW115740   1.516   6.884   0.932
 4947SOL    HW215741   1.541   0.021   0.920
 4948SOL     OW15742   2.634   0.466   2.407
 4948SOL    HW115743   2.578   0.533   2.455
 4948SOL    HW215744   2.730   0.477   2.434
 4949SOL     OW15745   4.857   0.520   5.360
 4949SOL    HW115746   4.867   0.488   5.266
 4949SOL    HW215747   4.803   0.454   5.413
 4950SOL     OW15748   3.048   5.458   3.658
 4950SOL    HW115749   2.994   5.541   3.674
 4950SOL    HW215750   3.061   5.446   3.559
 4951SOL     OW15751   5.557   1.358   4.898
 4951SOL    HW115752   5.586   1.264   4.919
 4951SOL    HW215753   5.525   1.401   4.982
 4952SOL     OW15754   0.460   0.811   4.689
 4952SOL    HW115755   0.532   0.877   4.707
 4952SOL    HW215756   0.394   0.850   4.625
 4953SOL     OW15757   2.377   6.085   1.961
 4953SOL    HW115758   2.439   6.090   2.039
 4953SOL    HW215759   2.430   6.076   1.877
 4954SOL     OW15760   4.148   4.346   6.710
 4954SOL    HW115761   4.053   4.375   6.698
 4954SOL    HW215762   4.158   4.299   6.798
 4955SOL     OW15763   1.445   6.137   6.701
 4955SOL    HW115764   1.363   6.159   6.754
 4955SOL    HW215765   1.420   6.078   6.624
 4956SOL     OW15766   3.378   0.180   4.970
 4956SOL    HW115767   3.369   0.153   4.874
 4956SOL    HW215768   3.475   0.194   4.992
 4957SOL     OW15769   7.000   0.819   3.319
 4957SOL    HW115770   0.049   0.877   3.284
 4957SOL    HW215771   6.973   0.850   3.411
 4958SOL     OW15772   0.283   6.474   5.997
 4958SOL    HW115773   0.246   6.391   6.041
 4958SOL    HW215774   0.303   6.454   5.901
 4959SOL     OW15775   0.060   1.369   6.960
 4959SOL    HW115776   0.065   1.270   6.945
 4959SOL    HW215777   0.153   1.405   6.971
 4960SOL     OW15778   3.221   6.301   3.850
 4960SOL    HW115779   3.243   6.267   3.942
 4960SOL    HW215780   3.242   6.230   3.783
 4961SOL     OW15781   5.340   1.190   5.222
 4961SOL    HW115782   5.357   1.172   5.319
 4961SOL    HW215783   5.244   1.170   5.201
 4962SOL     OW15784   5.714   3.137   1.643
 4962SOL    HW115785   5.672   3.154   1.732
 4962SOL    HW215786   5.642   3.122   1.575
 4963SOL     OW15787   6.217   5.804   1.488
 4963SOL    HW115788   6.130   5.767   1.522
 4963SOL    HW215789   6.277   5.825   1.565
 4964SOL     OW15790   3.657   6.593   3.264
 4964SOL    HW115791   3.715   6.627   3.338
 4964SOL    HW215792   3.705   6.603   3.177
 4965SOL     OW15793   0.462   0.107   4.844
 4965SOL    HW115794   0.426   0.021   4.881
 4965SOL    HW215795   0.546   0.088   4.793
 4966SOL     OW15796   2.160   6.490   4.425
 4966SOL    HW115797   2.255   6.465   4.405
 4966SOL    HW215798   2.157   6.550   4.505
 4967SOL     OW15799   3.977   3.077   6.779
 4967SOL    HW115800   4.077   3.068   6.774
 4967SOL    HW215801   3.953   3.174   6.776
 4968SOL     OW15802   5.324   2.673   3.349
 4968SOL    HW115803   5.358   2.604   3.285
 4968SOL    HW215804   5.400   2.724   3.388
 4969SOL     OW15805   1.954   1.140   2.525
 4969SOL    HW115806   1.888   1.103   2.590
 4969SOL    HW215807   1.912   1.145   2.434
 4970SOL     OW15808   1.307   2.605   4.899
 4970SOL    HW115809   1.306   2.703   4.915
 4970SOL    HW215810   1.258   2.558   4.973
 4971SOL     OW15811   6.264   5.677   3.607
 4971SOL    HW115812   6.268   5.735   3.526
 4971SOL    HW215813   6.339   5.611   3.605
 4972SOL     OW15814   2.034   3.282   0.971
 4972SOL    HW115815   1.974   3.204   0.983
 4972SOL    HW215816   2.011   3.329   0.886
 4973SOL     OW15817   6.748   0.062   1.896
 4973SOL    HW115818   6.696   0.079   1.813
 4973SOL    HW215819   6.822   7.022   1.877
 4974SOL     OW15820   6.495   4.707   0.787
 4974SOL    HW115821   6.559   4.676   0.716
 4974SOL    HW215822   6.487   4.807   0.784
 4975SOL     OW15823   5.957   5.849   0.828
 4975SOL    HW115824   6.019   5.928   0.833
 4975SOL    HW215825   5.907   5.840   0.914
 4976SOL     OW15826   3.041   0.400   4.369
 4976SOL    HW115827   2.970   0.433   4.307
 4976SOL    HW215828   3.068   0.307   4.343
 4977SOL     OW15829   5.168   3.746   0.858
 4977SOL    HW115830   5.124   3.718   0.773
 4977SOL    HW215831   5.101   3.746   0.932
 4978SOL     OW15832   6.941   3.549   5.450
 4978SOL    HW115833   6.875   3.475   5.450
 4978SOL    HW215834   7.013   3.530   5.383
 4979SOL     OW15835   6.929   2.300   5.107
 4979SOL    HW115836   6.971   2.292   5.197
 4979SOL    HW215837   6.998   2.324   5.040
 4980SOL     OW15838   4.512   6.828   3.465
 4980SOL    HW115839   4.528   6.745   3.519
 4980SOL    HW215840   4.598   6.857   3.421
 4981SOL     OW15841   5.025   5.996   5.845
 4981SOL    HW115842   4.999   5.979   5.750
 4981SOL    HW215843   5.003   6.091   5.869
 4982SOL     OW15844   2.573   1.393   6.554
 4982SOL    HW115845   2.661   1.381   6.508
 4982SOL    HW215846   2.513   1.450   6.497
 4983SOL     OW15847   4.955   3.302   4.519
 4983SOL    HW115848   4.950   3.356   4.435
 4983SOL    HW215849   5.046   3.309   4.559
 4984SOL     OW15850   5.555   3.189   4.068
 4984SOL    HW115851   5.638   3.233   4.104
 4984SOL    HW215852   5.554   3.093   4.096
 4985SOL     OW15853   6.458   6.179   4.201
 4985SOL    HW115854   6.456   6.100   4.139
 4985SOL    HW215855   6.440   6.263   4.148
 4986SOL     OW15856   6.382   4.552   2.921
 4986SOL    HW115857   6.343   4.550   3.013
 4986SOL    HW215858   6.392   4.459   2.886
 4987SOL     OW15859   0.919   2.207   1.196
 4987SOL    HW115860   0.930   2.266   1.277
 4987SOL    HW215861   0.822   2.188   1.182
 4988SOL     OW15862   0.044   1.541   3.661
 4988SOL    HW115863   0.109   1.465   3.671
 4988SOL    HW215864   6.996   1.532   3.730
 4989SOL     OW15865   5.759   1.232   1.664
 4989SOL    HW115866   5.709   1.168   1.607
 4989SOL    HW215867   5.770   1.194   1.756
 4990SOL     OW15868   1.333   2.127   6.285
 4990SOL    HW115869   1.360   2.076   6.204
 4990SOL    HW215870   1.239   2.105   6.309
 4991SOL     OW15871   0.681   3.063   4.036
 4991SOL    HW115872   0.769   3.015   4.029
 4991SOL    HW215873   0.606   3.000   4.019
 4992SOL     OW15874   4.284   0.778   4.302
 4992SOL    HW115875   4.383   0.767   4.290
 4992SOL    HW215876   4.264   0.872   4.328
 4993SOL     OW15877   2.439   4.527   3.887
 4993SOL    HW115878   2.515   4.568   3.936
 4993SOL    HW215879   2.436   4.562   3.793
 4994SOL     OW15880   1.312   0.259   2.366
 4994SOL    HW115881   1.349   0.350   2.386
 4994SOL    HW215882   1.323   0.239   2.269
 4995SOL     OW15883   0.080   3.546   5.680
 4995SOL    HW115884   0.023   3.524   5.759
 4995SOL    HW215885   0.037   3.510   5.597
 4996SOL     OW15886   1.070   0.655   2.376
 4996SOL    HW115887   1.145   0.626   2.435
 4996SOL    HW215888   1.080   0.613   2.286
 4997SOL     OW15889   6.929   2.370   2.636
 4997SOL    HW115890   6.873   2.309   2.691
 4997SOL    HW215891   6.962   2.445   2.693
 4998SOL     OW15892   1.730   4.388   4.943
 4998SOL    HW115893   1.797   4.337   4.890
 4998SOL    HW215894   1.758   4.484   4.949
 4999SOL     OW15895   5.125   5.683   1.570
 4999SOL    HW115896   5.063   5.644   1.638
 4999SOL    HW215897   5.083   5.765   1.530
 5000SOL     OW15898   1.119   0.731   3.824
 5000SOL    HW115899   1.107   0.782   3.739
 5000SOL    HW215900   1.066   0.647   3.820
 5001SOL     OW15901   1.646   3.794   6.129
 5001SOL    HW115902   1.670   3.867   6.194
 5001SOL    HW215903   1.715   3.790   6.056
 5002SOL     OW15904   1.267   2.696   2.816
 5002SOL    HW115905   1.169   2.700   2.796
 5002SOL    HW215906   1.280   2.683   2.915
 5003SOL     OW15907   1.025   6.700   3.602
 5003SOL    HW115908   1.041   6.784   3.550
 5003SOL    HW215909   1.098   6.688   3.669
 5004SOL     OW15910   2.699   5.863   5.900
 5004SOL    HW115911   2.782   5.855   5.846
 5004SOL    HW215912   2.716   5.828   5.993
 5005SOL     OW15913   4.018   2.046   0.666
 5005SOL    HW115914   4.035   2.109   0.742
 5005SOL    HW215915   3.920   2.044   0.646
 5006SOL     OW15916   5.672   0.024   6.234
 5006SOL    HW115917   5.648   0.098   6.297
 5006SOL    HW215918   5.636   0.045   6.143
 5007SOL     OW15919   2.791   0.389   5.908
 5007SOL    HW115920   2.830   0.324   5.973
 5007SOL    HW215921   2.798   0.481   5.945
 5008SOL     OW15922   6.198   0.627   3.664
 5008SOL    HW115923   6.200   0.555   3.594
 5008SOL    HW215924   6.276   0.616   3.726
 5009SOL     OW15925   1.603   5.776   1.481
 5009SOL    HW115926   1.563   5.867   1.469
 5009SOL    HW215927   1.601   5.727   1.394
 5010SOL     OW15928   3.283   3.626   3.741
 5010SOL    HW115929   3.207   3.690   3.735
 5010SOL    HW215930   3.315   3.620   3.835
 5011SOL     OW15931   2.040   3.305   2.040
 5011SOL    HW115932   2.069   3.212   2.063
 5011SOL    HW215933   2.118   3.367   2.042
 5012SOL     OW15934   6.041   2.946   6.169
 5012SOL    HW115935   5.958   2.958   6.114
 5012SOL    HW215936   6.031   2.996   6.255
 5013SOL     OW15937   4.939   0.680   6.761
 5013SOL    HW115938   4.912   0.624   6.839
 5013SOL    HW215939   4.978   0.766   6.793
 5014SOL     OW15940   6.387   5.540   0.589
 5014SOL    HW115941   6.416   5.634   0.607
 5014SOL    HW215942   6.294   5.540   0.553
 5015SOL     OW15943   4.105   1.802   3.697
 5015SOL    HW115944   4.114   1.720   3.641
 5015SOL    HW215945   4.194   1.848   3.703
 5016SOL     OW15946   2.152   1.107   2.340
 5016SOL    HW115947   2.098   1.045   2.284
 5016SOL    HW215948   2.116   1.108   2.433
 5017SOL     OW15949   2.273   2.597   0.729
 5017SOL    HW115950   2.243   2.535   0.656
 5017SOL    HW215951   2.194   2.646   0.766
 5018SOL     OW15952   0.637   4.385   1.876
 5018SOL    HW115953   0.581   4.466   1.894
 5018SOL    HW215954   0.714   4.382   1.940
 5019SOL     OW15955   2.209   4.721   0.370
 5019SOL    HW115956   2.284   4.767   0.417
 5019SOL    HW215957   2.219   4.734   0.271
 5020SOL     OW15958   5.670   6.572   5.224
 5020SOL    HW115959   5.716   6.567   5.312
 5020SOL    HW215960   5.707   6.648   5.171
 5021SOL     OW15961   1.041   4.178   6.142
 5021SOL    HW115962   1.043   4.117   6.220
 5021SOL    HW215963   1.044   4.273   6.174
 5022SOL     OW15964   1.620   0.180   0.690
 5022SOL    HW115965   1.708   0.136   0.680
 5022SOL    HW215966   1.632   0.280   0.687
 5023SOL     OW15967   6.116   2.960   0.740
 5023SOL    HW115968   6.125   3.039   0.679
 5023SOL    HW215969   6.184   2.965   0.812
 5024SOL     OW15970   6.865   4.187   2.502
 5024SOL    HW115971   6.859   4.286   2.510
 5024SOL    HW215972   6.950   4.163   2.455
 5025SOL     OW15973   4.705   2.124   2.158
 5025SOL    HW115974   4.690   2.158   2.065
 5025SOL    HW215975   4.796   2.152   2.189
 5026SOL     OW15976   6.266   6.106   6.021
 5026SOL    HW115977   6.176   6.123   6.061
 5026SOL    HW215978   6.272   6.011   5.990
 5027SOL     OW15979   1.038   6.576   2.981
 5027SOL    HW115980   1.090   6.512   2.926
 5027SOL    HW215981   1.018   6.658   2.927
 5028SOL     OW15982   0.190   5.759   2.103
 5028SOL    HW115983   0.247   5.685   2.068
 5028SOL    HW215984   0.118   5.779   2.037
 5029SOL     OW15985   6.959   3.119   3.010
 5029SOL    HW115986   6.927   3.064   2.933
 5029SOL    HW215987   7.002   3.203   2.976
 5030SOL     OW15988   0.437   0.724   0.056
 5030SOL    HW115989   0.498   0.735   7.002
 5030SOL    HW215990   0.471   0.778   0.133
 5031SOL     OW15991   6.352   1.364   4.506
 5031SOL    HW115992   6.356   1.462   4.492
 5031SOL    HW215993   6.319   1.344   4.598
 5032SOL     OW15994   1.013   4.437   0.692
 5032SOL    HW115995   1.111   4.448   0.705
 5032SOL    HW215996   0.972   4.524   0.666
 5033SOL     OW15997   2.501   5.278   5.696
 5033SOL    HW115998   2.527   5.212   5.767
 5033SOL    HW215999   2.530   5.370   5.724
 5034SOL     OW16000   6.992   3.598   1.700
 5034SOL    HW116001   6.895   3.578   1.717
 5034SOL    HW216002   0.001   3.541   1.625
 5035SOL     OW16003   5.652   4.689   1.100
 5035SOL    HW116004   5.628   4.717   1.006
 5035SOL    HW216005   5.581   4.719   1.163
 5036SOL     OW16006   0.826   6.106   6.035
 5036SOL    HW116007   0.845   6.049   6.115
 5036SOL    HW216008   0.816   6.201   6.064
 5037SOL     OW16009   4.553   2.198   3.438
 5037SOL    HW116010   4.614   2.174   3.363
 5037SOL    HW216011   4.607   2.213   3.521
 5038SOL     OW16012   2.118   5.885   5.606
 5038SOL    HW116013   2.093   5.842   5.519
 5038SOL    HW216014   2.187   5.830   5.651
 5039SOL     OW16015   2.122   3.716   5.030
 5039SOL    HW116016   2.076   3.631   5.055
 5039SOL    HW216017   2.185   3.699   4.954
 5040SOL     OW16018   2.503   3.637   6.721
 5040SOL    HW116019   2.557   3.567   6.674
 5040SOL    HW216020   2.520   3.632   6.819
 5041SOL     OW16021   0.626   3.889   1.220
 5041SOL    HW116022   0.688   3.853   1.150
 5041SOL    HW216023   0.585   3.814   1.271
 5042SOL     OW16024   6.852   3.141   6.754
 5042SOL    HW116025   6.886   3.195   6.832
 5042SOL    HW216026   6.816   3.053   6.788
 5043SOL     OW16027   3.324   1.396   5.296
 5043SOL    HW116028   3.410   1.433   5.262
 5043SOL    HW216029   3.339   1.350   5.383
 5044SOL     OW16030   6.263   6.355   3.418
 5044SOL    HW116031   6.240   6.289   3.347
 5044SOL    HW216032   6.249   6.313   3.508
 5045SOL     OW16033   4.845   3.595   0.345
 5045SOL    HW116034   4.925   3.633   0.393
 5045SOL    HW216035   4.849   3.621   0.249
 5046SOL     OW16036   3.605   2.903   5.075
 5046SOL    HW116037   3.592   2.998   5.103
 5046SOL    HW216038   3.665   2.856   5.139
 5047SOL     OW16039   6.073   1.475   2.573
 5047SOL    HW116040   5.979   1.485   2.606
 5047SOL    HW216041   6.130   1.548   2.611
 5048SOL     OW16042   6.694   2.143   2.020
 5048SOL    HW116043   6.689   2.053   1.978
 5048SOL    HW216044   6.667   2.137   2.116
 5049SOL     OW16045   6.420   1.038   3.106
 5049SOL    HW116046   6.350   1.077   3.166
 5049SOL    HW216047   6.480   0.978   3.159
 5050SOL     OW16048   0.341   1.472   1.863
 5050SOL    HW116049   0.315   1.566   1.887
 5050SOL    HW216050   0.277   1.408   1.905
 5051SOL     OW16051   3.302   3.938   0.866
 5051SOL    HW116052   3.228   4.003   0.878
 5051SOL    HW216053   3.264   3.845   0.858
 5052SOL     OW16054   3.241   4.461   0.374
 5052SOL    HW116055   3.172   4.529   0.349
 5052SOL    HW216056   3.303   4.446   0.297
 5053SOL     OW16057   2.242   3.964   2.215
 5053SOL    HW116058   2.335   3.929   2.230
 5053SOL    HW216059   2.247   4.058   2.181
 5054SOL     OW16060   3.872   5.761   5.492
 5054SOL    HW116061   3.825   5.847   5.510
 5054SOL    HW216062   3.894   5.754   5.395
 5055SOL     OW16063   0.402   1.764   4.774
 5055SOL    HW116064   0.304   1.782   4.779
 5055SOL    HW216065   0.448   1.802   4.854
 5056SOL     OW16066   7.003   4.009   6.447
 5056SOL    HW116067   0.068   3.987   6.487
 5056SOL    HW216068   6.946   3.927   6.445
 5057SOL     OW16069   1.067   5.223   3.355
 5057SOL    HW116070   0.996   5.282   3.394
 5057SOL    HW216071   1.051   5.213   3.256
 5058SOL     OW16072   3.767   3.860   6.426
 5058SOL    HW116073   3.688   3.916   6.401
 5058SOL    HW216074   3.786   3.795   6.352
 5059SOL     OW16075   4.620   2.781   5.107
 5059SOL    HW116076   4.710   2.810   5.076
 5059SOL    HW216077   4.608   2.684   5.090
 5060SOL     OW16078   6.779   3.256   4.775
 5060SOL    HW116079   6.745   3.169   4.811
 5060SOL    HW216080   6.704   3.322   4.773
 5061SOL     OW16081   2.952   3.216   3.970
 5061SOL    HW116082   2.899   3.268   3.903
 5061SOL    HW216083   2.995   3.278   4.035
 5062SOL     OW16084   5.130   1.847   3.006
 5062SOL    HW116085   5.092   1.855   2.914
 5062SOL    HW216086   5.228   1.869   3.004
 5063SOL     OW16087   1.142   6.589   1.931
 5063SOL    HW116088   1.148   6.512   1.868
 5063SOL    HW216089   1.234   6.616   1.960
 5064SOL     OW16090   4.686   5.057   1.048
 5064SOL    HW116091   4.645   5.081   0.961
 5064SOL    HW216092   4.786   5.053   1.039
 5065SOL     OW16093   1.634   0.663   3.308
 5065SOL    HW116094   1.558   0.693   3.251
 5065SOL    HW216095   1.694   0.603   3.256
 5066SOL     OW16096   2.265   4.126   1.765
 5066SOL    HW116097   2.219   4.041   1.736
 5066SOL    HW216098   2.254   4.137   1.863
 5067SOL     OW16099   4.218   2.213   2.051
 5067SOL    HW116100   4.291   2.249   2.109
 5067SOL    HW216101   4.217   2.262   1.964
 5068SOL     OW16102   3.402   5.632   0.289
 5068SOL    HW116103   3.395   5.718   0.237
 5068SOL    HW216104   3.330   5.630   0.358
 5069SOL     OW16105   2.231   3.179   5.611
 5069SOL    HW116106   2.155   3.116   5.593
 5069SOL    HW216107   2.310   3.151   5.557
 5070SOL     OW16108   5.904   4.166   3.813
 5070SOL    HW116109   5.851   4.240   3.771
 5070SOL    HW216110   5.904   4.178   3.913
 5071SOL     OW16111   3.788   1.966   3.535
 5071SOL    HW116112   3.818   2.055   3.569
 5071SOL    HW216113   3.721   1.927   3.598
 5072SOL     OW16114   1.860   1.131   0.892
 5072SOL    HW116115   1.868   1.212   0.950
 5072SOL    HW216116   1.947   1.083   0.888
 5073SOL     OW16117   2.388   6.350   1.791
 5073SOL    HW116118   2.302   6.369   1.839
 5073SOL    HW216119   2.441   6.283   1.843
 5074SOL     OW16120   3.636   1.544   1.674
 5074SOL    HW116121   3.703   1.471   1.688
 5074SOL    HW216122   3.564   1.538   1.744
 5075SOL     OW16123   1.473   2.635   0.299
 5075SOL    HW116124   1.436   2.728   0.299
 5075SOL    HW216125   1.559   2.633   0.249
 5076SOL     OW16126   5.484   0.320   0.019
 5076SOL    HW116127   5.487   0.270   6.956
 5076SOL    HW216128   5.578   0.336   0.051
 5077SOL     OW16129   1.502   3.481   5.884
 5077SOL    HW116130   1.599   3.489   5.908
 5077SOL    HW216131   1.467   3.571   5.859
 5078SOL     OW16132   0.715   1.093   4.389
 5078SOL    HW116133   0.760   1.113   4.477
 5078SOL    HW216134   0.764   1.140   4.316
 5079SOL     OW16135   2.129   1.902   5.586
 5079SOL    HW116136   2.142   1.867   5.493
 5079SOL    HW216137   2.071   1.984   5.583
 5080SOL     OW16138   6.084   5.568   5.746
 5080SOL    HW116139   6.011   5.532   5.688
 5080SOL    HW216140   6.060   5.660   5.776
 5081SOL     OW16141   2.595   4.973   5.026
 5081SOL    HW116142   2.568   4.997   5.119
 5081SOL    HW216143   2.690   4.942   5.027
 5082SOL     OW16144   4.788   6.643   0.194
 5082SOL    HW116145   4.793   6.695   0.109
 5082SOL    HW216146   4.693   6.640   0.226
 5083SOL     OW16147   3.255   0.250   1.483
 5083SOL    HW116148   3.328   0.210   1.539
 5083SOL    HW216149   3.175   0.268   1.540
 5084SOL     OW16150   0.866   5.223   4.911
 5084SOL    HW116151   0.953   5.177   4.893
 5084SOL    HW216152   0.832   5.196   5.001
 5085SOL     OW16153   1.150   2.523   6.031
 5085SOL    HW116154   1.097   2.518   5.946
 5085SOL    HW216155   1.227   2.459   6.026
 5086SOL     OW16156   0.828   4.250   2.208
 5086SOL    HW116157   0.913   4.197   2.213
 5086SOL    HW216158   0.850   4.346   2.191
 5087SOL     OW16159   6.807   5.239   2.114
 5087SOL    HW116160   6.840   5.332   2.129
 5087SOL    HW216161   6.877   5.186   2.066
 5088SOL     OW16162   4.462   6.527   2.927
 5088SOL    HW116163   4.503   6.459   2.866
 5088SOL    HW216164   4.491   6.510   3.021
 5089SOL     OW16165   5.927   4.175   4.078
 5089SOL    HW116166   5.906   4.100   4.141
 5089SOL    HW216167   6.026   4.181   4.065
 5090SOL     OW16168   2.161   0.675   3.377
 5090SOL    HW116169   2.235   0.678   3.310
 5090SOL    HW216170   2.124   0.767   3.389
 5091SOL     OW16171   6.699   0.487   0.746
 5091SOL    HW116172   6.733   0.407   0.697
 5091SOL    HW216173   6.603   0.472   0.772
 5092SOL     OW16174   4.056   3.301   4.126
 5092SOL    HW116175   4.150   3.321   4.099
 5092SOL    HW216176   4.013   3.243   4.057
 5093SOL     OW16177   2.628   1.744   1.640
 5093SOL    HW116178   2.624   1.796   1.725
 5093SOL    HW216179   2.610   1.806   1.563
 5094SOL     OW16180   2.214   6.134   6.809
 5094SOL    HW116181   2.207   6.067   6.735
 5094SOL    HW216182   2.148   6.207   6.795
 5095SOL     OW16183   0.215   1.497   3.045
 5095SOL    HW116184   0.189   1.454   3.131
 5095SOL    HW216185   0.296   1.452   3.008
 5096SOL     OW16186   5.631   4.568   6.414
 5096SOL    HW116187   5.622   4.469   6.406
 5096SOL    HW216188   5.703   4.600   6.352
 5097SOL     OW16189   6.734   0.394   0.134
 5097SOL    HW116190   6.737   0.448   0.049
 5097SOL    HW216191   6.826   0.360   0.154
 5098SOL     OW16192   3.718   2.282   1.319
 5098SOL    HW116193   3.721   2.186   1.289
 5098SOL    HW216194   3.683   2.286   1.412
 5099SOL     OW16195   0.301   6.293   1.536
 5099SOL    HW116196   0.294   6.195   1.554
 5099SOL    HW216197   0.396   6.316   1.513
 5100SOL     OW16198   3.553   5.425   3.286
 5100SOL    HW116199   3.560   5.472   3.374
 5100SOL    HW216200   3.526   5.330   3.301
 5101SOL     OW16201   3.973   0.894   4.329
 5101SOL    HW116202   4.036   0.940   4.391
 5101SOL    HW216203   3.913   0.961   4.286
 5102SOL     OW16204   5.252   5.634   4.570
 5102SOL    HW116205   5.230   5.654   4.475
 5102SOL    HW216206   5.342   5.672   4.592
 5103SOL     OW16207   0.797   1.401   4.435
 5103SOL    HW116208   0.843   1.472   4.382
 5103SOL    HW216209   0.698   1.416   4.434
 5104SOL     OW16210   3.399   5.964   2.080
 5104SOL    HW116211   3.304   5.974   2.109
 5104SOL    HW216212   3.456   6.030   2.128
 5105SOL     OW16213   3.329   3.427   6.612
 5105SOL    HW116214   3.235   3.415   6.581
 5105SOL    HW216215   3.369   3.506   6.566
 5106SOL     OW16216   4.115   1.794   1.157
 5106SOL    HW116217   4.070   1.706   1.174
 5106SOL    HW216218   4.084   1.860   1.226
 5107SOL     OW16219   4.661   2.505   1.084
 5107SOL    HW116220   4.702   2.593   1.106
 5107SOL    HW216221   4.720   2.431   1.118
 5108SOL     OW16222   4.007   4.198   5.444
 5108SOL    HW116223   3.934   4.234   5.387
 5108SOL    HW216224   3.968   4.142   5.517
 5109SOL     OW16225   1.221   2.649   1.019
 5109SOL    HW116226   1.213   2.617   1.113
 5109SOL    HW216227   1.232   2.571   0.958
 5110SOL     OW16228   0.141   0.604   6.213
 5110SOL    HW116229   0.074   0.632   6.281
 5110SOL    HW216230   0.230   0.645   6.235
 5111SOL     OW16231   1.196   6.983   4.413
 5111SOL    HW116232   1.259   6.951   4.342
 5111SOL    HW216233   1.218   6.937   4.499
 5112SOL     OW16234   0.402   0.174   3.112
 5112SOL    HW116235   0.330   0.227   3.070
 5112SOL    HW216236   0.388   0.077   3.095
 5113SOL     OW16237   1.325   6.114   1.184
 5113SOL    HW116238   1.244   6.057   1.199
 5113SOL    HW216239   1.392   6.097   1.256
 5114SOL     OW16240   3.827   6.716   0.265
 5114SOL    HW116241   3.879   6.631   0.252
 5114SOL    HW216242   3.740   6.695   0.310
 5115SOL     OW16243   1.842   3.971   2.101
 5115SOL    HW116244   1.849   3.889   2.157
 5115SOL    HW216245   1.872   3.950   2.008
 5116SOL     OW16246   1.960   6.498   6.897
 5116SOL    HW116247   1.941   6.425   6.963
 5116SOL    HW216248   2.048   6.540   6.919
 5117SOL     OW16249   1.038   3.591   3.962
 5117SOL    HW116250   1.131   3.619   3.985
 5117SOL    HW216251   0.986   3.576   4.046
 5118SOL     OW16252   6.031   6.695   0.174
 5118SOL    HW116253   6.031   6.595   0.178
 5118SOL    HW216254   5.940   6.728   0.147
 5119SOL     OW16255   4.675   1.566   1.243
 5119SOL    HW116256   4.703   1.521   1.328
 5119SOL    HW216257   4.588   1.613   1.258
 5120SOL     OW16258   4.676   6.592   5.078
 5120SOL    HW116259   4.589   6.572   5.034
 5120SOL    HW216260   4.661   6.647   5.160
 5121SOL     OW16261   3.546   3.603   0.234
 5121SOL    HW116262   3.479   3.650   0.292
 5121SOL    HW216263   3.498   3.553   0.162
 5122SOL     OW16264   3.776   6.287   3.159
 5122SOL    HW116265   3.698   6.236   3.195
 5122SOL    HW216266   3.848   6.290   3.228
 5123SOL     OW16267   5.248   2.496   3.550
 5123SOL    HW116268   5.330   2.459   3.594
 5123SOL    HW216269   5.276   2.557   3.475
 5124SOL     OW16270   1.990   6.878   3.463
 5124SOL    HW116271   2.086   6.852   3.448
 5124SOL    HW216272   1.934   6.795   3.469
 5125SOL     OW16273   0.430   2.015   2.697
 5125SOL    HW116274   0.388   2.008   2.607
 5125SOL    HW216275   0.500   2.086   2.696
 5126SOL     OW16276   1.029   6.494   0.106
 5126SOL    HW116277   0.993   6.552   0.033
 5126SOL    HW216278   1.109   6.538   0.146
 5127SOL     OW16279   0.949   5.624   6.736
 5127SOL    HW116280   0.918   5.556   6.802
 5127SOL    HW216281   0.899   5.710   6.751
 5128SOL     OW16282   6.465   6.537   0.782
 5128SOL    HW116283   6.458   6.578   0.691
 5128SOL    HW216284   6.385   6.562   0.836
 5129SOL     OW16285   5.126   6.367   2.459
 5129SOL    HW116286   5.033   6.354   2.491
 5129SOL    HW216287   5.187   6.381   2.537
 5130SOL     OW16288   0.108   5.216   2.709
 5130SOL    HW116289   0.125   5.233   2.806
 5130SOL    HW216290   0.149   5.290   2.655
 5131SOL     OW16291   1.642   3.464   4.438
 5131SOL    HW116292   1.572   3.533   4.421
 5131SOL    HW216293   1.624   3.384   4.380
 5132SOL     OW16294   4.414   2.601   6.268
 5132SOL    HW116295   4.447   2.690   6.237
 5132SOL    HW216296   4.389   2.606   6.364
 5133SOL     OW16297   3.131   4.821   0.590
 5133SOL    HW116298   3.144   4.839   0.492
 5133SOL    HW216299   3.220   4.813   0.634
 5134SOL     OW16300   0.024   2.659   1.712
 5134SOL    HW116301   0.124   2.657   1.707
 5134SOL    HW216302   7.010   2.606   1.636
 5135SOL     OW16303   6.226   2.395   5.517
 5135SOL    HW116304   6.283   2.323   5.477
 5135SOL    HW216305   6.151   2.353   5.569
 5136SOL     OW16306   5.184   0.181   5.966
 5136SOL    HW116307   5.238   0.100   5.989
 5136SOL    HW216308   5.149   0.172   5.873
 5137SOL     OW16309   6.069   3.327   6.383
 5137SOL    HW116310   6.075   3.380   6.298
 5137SOL    HW216311   6.032   3.385   6.456
 5138SOL     OW16312   3.502   2.637   5.958
 5138SOL    HW116313   3.504   2.737   5.956
 5138SOL    HW216314   3.502   2.605   6.052
 5139SOL     OW16315   1.150   6.959   3.473
 5139SOL    HW116316   1.118   6.906   3.395
 5139SOL    HW216317   1.081   0.004   3.496
 5140SOL     OW16318   3.299   1.336   0.183
 5140SOL    HW116319   3.261   1.362   0.272
 5140SOL    HW216320   3.230   1.350   0.112
 5141SOL     OW16321   6.392   3.355   0.407
 5141SOL    HW116322   6.378   3.429   0.472
 5141SOL    HW216323   6.461   3.382   0.340
 5142SOL     OW16324   6.096   1.645   4.273
 5142SOL    HW116325   6.157   1.653   4.353
 5142SOL    HW216326   6.077   1.736   4.237
 5143SOL     OW16327   0.541   4.069   3.683
 5143SOL    HW116328   0.634   4.092   3.655
 5143SOL    HW216329   0.517   3.979   3.647
 5144SOL     OW16330   0.952   6.551   6.390
 5144SOL    HW116331   0.872   6.524   6.444
 5144SOL    HW216332   1.009   6.471   6.372
 5145SOL     OW16333   2.274   5.323   5.915
 5145SOL    HW116334   2.370   5.348   5.899
 5145SOL    HW216335   2.215   5.381   5.860
 5146SOL     OW16336   4.578   3.665   5.941
 5146SOL    HW116337   4.500   3.686   5.882
 5146SOL    HW216338   4.626   3.749   5.964
 5147SOL     OW16339   0.227   4.066   2.051
 5147SOL    HW116340   0.297   4.119   2.005
 5147SOL    HW216341   0.260   4.036   2.141
 5148SOL     OW16342   0.685   6.398   0.907
 5148SOL    HW116343   0.640   6.487   0.909
 5148SOL    HW216344   0.756   6.395   0.977
 5149SOL     OW16345   5.831   6.083   4.309
 5149SOL    HW116346   5.742   6.077   4.263
 5149SOL    HW216347   5.857   6.179   4.319
 5150SOL     OW16348   2.259   4.718   3.482
 5150SOL    HW116349   2.292   4.633   3.441
 5150SOL    HW216350   2.249   4.788   3.411
 5151SOL     OW16351   5.385   1.145   0.542
 5151SOL    HW116352   5.410   1.171   0.449
 5151SOL    HW216353   5.464   1.153   0.602
 5152SOL     OW16354   1.985   4.834   6.246
 5152SOL    HW116355   2.029   4.745   6.253
 5152SOL    HW216356   1.976   4.860   6.150
 5153SOL     OW16357   2.122   0.669   6.262
 5153SOL    HW116358   2.053   0.651   6.332
 5153SOL    HW216359   2.077   0.690   6.176
 5154SOL     OW16360   1.971   2.853   6.456
 5154SOL    HW116361   1.950   2.897   6.368
 5154SOL    HW216362   1.959   2.919   6.530
 5155SOL     OW16363   3.549   6.460   2.200
 5155SOL    HW116364   3.483   6.487   2.270
 5155SOL    HW216365   3.602   6.382   2.232
 5156SOL     OW16366   6.744   3.175   5.587
 5156SOL    HW116367   6.720   3.115   5.511
 5156SOL    HW216368   6.674   3.245   5.598
 5157SOL     OW16369   4.619   2.516   3.905
 5157SOL    HW116370   4.531   2.503   3.859
 5157SOL    HW216371   4.690   2.527   3.837
 5158SOL     OW16372   3.325   1.650   1.467
 5158SOL    HW116373   3.282   1.564   1.493
 5158SOL    HW216374   3.275   1.691   1.391
 5159SOL     OW16375   0.621   3.119   5.132
 5159SOL    HW116376   0.570   3.039   5.162
 5159SOL    HW216377   0.570   3.202   5.157
 5160SOL     OW16378   0.699   3.667   3.969
 5160SOL    HW116379   0.762   3.743   3.953
 5160SOL    HW216380   0.611   3.703   4.000
 5161SOL     OW16381   1.300   3.819   4.971
 5161SOL    HW116382   1.357   3.777   4.900
 5161SOL    HW216383   1.237   3.885   4.928
 5162SOL     OW16384   0.898   5.159   4.141
 5162SOL    HW116385   0.901   5.192   4.236
 5162SOL    HW216386   0.807   5.177   4.102
 5163SOL     OW16387   3.741   4.976   1.454
 5163SOL    HW116388   3.701   4.885   1.452
 5163SOL    HW216389   3.807   4.982   1.529
 5164SOL     OW16390   6.407   2.410   5.921
 5164SOL    HW116391   6.360   2.357   5.993
 5164SOL    HW216392   6.501   2.377   5.912
 5165SOL     OW16393   5.847   4.114   5.097
 5165SOL    HW116394   5.853   4.149   5.003
 5165SOL    HW216395   5.860   4.190   5.161
 5166SOL     OW16396   1.400   5.154   1.733
 5166SOL    HW116397   1.411   5.090   1.809
 5166SOL    HW216398   1.490   5.190   1.707
 5167SOL     OW16399   6.238   0.458   5.777
 5167SOL    HW116400   6.286   0.527   5.832
 5167SOL    HW216401   6.206   0.500   5.693
 5168SOL     OW16402   4.829   2.190   3.395
 5168SOL    HW116403   4.901   2.213   3.461
 5168SOL    HW216404   4.859   2.214   3.303
 5169SOL     OW16405   3.324   2.764   5.720
 5169SOL    HW116406   3.420   2.770   5.748
 5169SOL    HW216407   3.309   2.677   5.671
 5170SOL     OW16408   0.174   3.983   5.799
 5170SOL    HW116409   0.271   4.005   5.806
 5170SOL    HW216410   0.120   4.067   5.799
 5171SOL     OW16411   2.293   5.050   4.544
 5171SOL    HW116412   2.298   4.991   4.464
 5171SOL    HW216413   2.362   5.021   4.611
 5172SOL     OW16414   0.543   2.949   1.983
 5172SOL    HW116415   0.565   2.859   2.021
 5172SOL    HW216416   0.491   3.002   2.051
 5173SOL     OW16417   5.916   4.352   6.286
 5173SOL    HW116418   5.822   4.359   6.319
 5173SOL    HW216419   5.931   4.422   6.215
 5174SOL     OW16420   2.040   4.669   4.396
 5174SOL    HW116421   2.060   4.737   4.326
 5174SOL    HW216422   2.116   4.605   4.403
 5175SOL     OW16423   2.179   4.078   6.744
 5175SOL    HW116424   2.168   4.177   6.741
 5175SOL    HW216425   2.276   4.055   6.756
 5176SOL     OW16426   4.264   3.175   1.022
 5176SOL    HW116427   4.218   3.256   1.059
 5176SOL    HW216428   4.343   3.153   1.079
 5177SOL     OW16429   5.091   0.195   5.720
 5177SOL    HW116430   5.140   0.149   5.645
 5177SOL    HW216431   4.993   0.198   5.699
 5178SOL     OW16432   2.444   2.505   1.160
 5178SOL    HW116433   2.475   2.588   1.112
 5178SOL    HW216434   2.508   2.484   1.234
 5179SOL     OW16435   4.474   5.933   5.258
 5179SOL    HW116436   4.481   6.028   5.289
 5179SOL    HW216437   4.561   5.887   5.272
 5180SOL     OW16438   2.989   2.590   6.207
 5180SOL    HW116439   2.906   2.641   6.232
 5180SOL    HW216440   3.064   2.654   6.193
 5181SOL     OW16441   4.916   1.229   2.881
 5181SOL    HW116442   4.880   1.136   2.877
 5181SOL    HW216443   5.008   1.231   2.841
 5182SOL     OW16444   4.986   5.309   1.304
 5182SOL    HW116445   4.924   5.270   1.373
 5182SOL    HW216446   5.080   5.295   1.333
 5183SOL     OW16447   4.740   0.068   2.085
 5183SOL    HW116448   4.829   0.049   2.128
 5183SOL    HW216449   4.675   7.020   2.111
 5184SOL     OW16450   0.704   1.496   3.809
 5184SOL    HW116451   0.739   1.586   3.784
 5184SOL    HW216452   0.754   1.425   3.760
 5185SOL     OW16453   4.687   6.873   3.028
 5185SOL    HW116454   4.622   6.880   3.105
 5185SOL    HW216455   4.669   6.947   2.963
 5186SOL     OW16456   6.137   3.843   0.732
 5186SOL    HW116457   6.219   3.809   0.777
 5186SOL    HW216458   6.119   3.791   0.649
 5187SOL     OW16459   6.339   1.317   3.461
 5187SOL    HW116460   6.351   1.261   3.543
 5187SOL    HW216461   6.428   1.342   3.424
 5188SOL     OW16462   0.562   5.049   0.654
 5188SOL    HW116463   0.583   5.073   0.748
 5188SOL    HW216464   0.636   5.080   0.594
 5189SOL     OW16465   4.766   5.258   0.741
 5189SOL    HW116466   4.774   5.356   0.757
 5189SOL    HW216467   4.700   5.218   0.805
 5190SOL     OW16468   0.928   2.218   4.149
 5190SOL    HW116469   0.925   2.121   4.124
 5190SOL    HW216470   0.973   2.228   4.238
 5191SOL     OW16471   3.915   0.588   1.727
 5191SOL    HW116472   3.885   0.559   1.636
 5191SOL    HW216473   3.864   0.669   1.755
 5192SOL     OW16474   4.523   5.719   2.123
 5192SOL    HW116475   4.447   5.772   2.086
 5192SOL    HW216476   4.489   5.633   2.161
 5193SOL     OW16477   4.828   4.704   3.945
 5193SOL    HW116478   4.875   4.772   4.001
 5193SOL    HW216479   4.791   4.748   3.863
 5194SOL     OW16480   4.759   6.940   6.166
 5194SOL    HW116481   4.701   6.977   6.239
 5194SOL    HW216482   4.810   6.861   6.200
 5195SOL     OW16483   6.445   6.366   4.663
 5195SOL    HW116484   6.391   6.288   4.631
 5195SOL    HW216485   6.543   6.343   4.658
 5196SOL     OW16486   0.847   3.806   0.790
 5196SOL    HW116487   0.814   3.733   0.731
 5196SOL    HW216488   0.783   3.883   0.787
 5197SOL     OW16489   1.989   6.167   4.306
 5197SOL    HW116490   1.988   6.250   4.251
 5197SOL    HW216491   1.934   6.180   4.388
 5198SOL     OW16492   3.369   0.289   4.435
 5198SOL    HW116493   3.278   0.250   4.423
 5198SOL    HW216494   3.369   0.384   4.402
 5199SOL     OW16495   2.500   6.020   0.969
 5199SOL    HW116496   2.423   5.988   1.023
 5199SOL    HW216497   2.467   6.071   0.890
 5200SOL     OW16498   0.949   2.162   4.797
 5200SOL    HW116499   1.033   2.173   4.851
 5200SOL    HW216500   0.973   2.135   4.704
 5201SOL     OW16501   5.320   5.729   4.292
 5201SOL    HW116502   5.332   5.824   4.323
 5201SOL    HW216503   5.403   5.699   4.245
 5202SOL     OW16504   5.338   3.551   6.598
 5202SOL    HW116505   5.264   3.546   6.530
 5202SOL    HW216506   5.391   3.466   6.594
 5203SOL     OW16507   1.639   0.453   6.181
 5203SOL    HW116508   1.559   0.410   6.224
 5203SOL    HW216509   1.628   0.453   6.082
 5204SOL     OW16510   3.043   6.896   6.928
 5204SOL    HW116511   2.947   6.885   6.955
 5204SOL    HW216512   3.084   6.805   6.914
 5205SOL     OW16513   0.119   5.608   6.763
 5205SOL    HW116514   0.151   5.658   6.844
 5205SOL    HW216515   0.021   5.589   6.773
 5206SOL     OW16516   0.426   5.298   5.710
 5206SOL    HW116517   0.339   5.322   5.754
 5206SOL    HW216518   0.446   5.201   5.726
 5207SOL     OW16519   0.393   0.374   4.092
 5207SOL    HW116520   0.429   0.360   4.000
 5207SOL    HW216521   0.330   0.301   4.115
 5208SOL     OW16522   4.639   2.402   0.108
 5208SOL    HW116523   4.589   2.391   0.022
 5208SOL    HW216524   4.677   2.495   0.114
 5209SOL     OW16525   5.010   0.113   2.450
 5209SOL    HW116526   5.096   0.086   2.494
 5209SOL    HW216527   4.968   0.187   2.502
 5210SOL     OW16528   5.337   4.099   0.902
 5210SOL    HW116529   5.369   4.120   0.809
 5210SOL    HW216530   5.237   4.100   0.903
 5211SOL     OW16531   5.275   1.814   4.553
 5211SOL    HW116532   5.263   1.719   4.582
 5211SOL    HW216533   5.190   1.848   4.512
 5212SOL     OW16534   1.447   2.398   0.690
 5212SOL    HW116535   1.405   2.329   0.632
 5212SOL    HW216536   1.406   2.487   0.670
 5213SOL     OW16537   4.030   3.758   1.951
 5213SOL    HW116538   4.011   3.845   1.906
 5213SOL    HW216539   4.129   3.745   1.961
 5214SOL     OW16540   4.931   4.391   5.966
 5214SOL    HW116541   4.984   4.309   5.942
 5214SOL    HW216542   4.971   4.434   6.046
 5215SOL     OW16543   0.168   3.823   4.202
 5215SOL    HW116544   0.239   3.790   4.264
 5215SOL    HW216545   0.117   3.897   4.246
 5216SOL     OW16546   4.804   5.476   1.198
 5216SOL    HW116547   4.846   5.565   1.180
 5216SOL    HW216548   4.864   5.423   1.259
 5217SOL     OW16549   3.791   5.536   4.440
 5217SOL    HW116550   3.874   5.554   4.388
 5217SOL    HW216551   3.814   5.482   4.521
 5218SOL     OW16552   0.381   1.385   0.724
 5218SOL    HW116553   0.300   1.416   0.674
 5218SOL    HW216554   0.355   1.314   0.789
 5219SOL     OW16555   3.400   1.301   4.600
 5219SOL    HW116556   3.343   1.374   4.637
 5219SOL    HW216557   3.486   1.339   4.567
 5220SOL     OW16558   1.530   4.900   3.002
 5220SOL    HW116559   1.555   4.949   2.919
 5220SOL    HW216560   1.431   4.891   3.008
 5221SOL     OW16561   0.130   0.293   1.608
 5221SOL    HW116562   0.200   0.317   1.541
 5221SOL    HW216563   0.171   0.285   1.698
 5222SOL     OW16564   4.106   5.575   2.236
 5222SOL    HW116565   4.189   5.530   2.204
 5222SOL    HW216566   4.119   5.674   2.236
 5223SOL     OW16567   0.095   2.542   1.211
 5223SOL    HW116568   0.086   2.443   1.213
 5223SOL    HW216569   0.004   2.584   1.201
 5224SOL     OW16570   0.745   1.895   4.173
 5224SOL    HW116571   0.811   1.827   4.204
 5224SOL    HW216572   0.699   1.936   4.252
 5225SOL     OW16573   6.950   1.291   4.416
 5225SOL    HW116574   6.977   1.212   4.361
 5225SOL    HW216575   6.858   1.320   4.390
 5226SOL     OW16576   0.374   5.686   3.380
 5226SOL    HW116577   0.374   5.680   3.280
 5226SOL    HW216578   0.330   5.605   3.418
 5227SOL     OW16579   0.585   3.667   5.954
 5227SOL    HW116580   0.562   3.692   5.859
 5227SOL    HW216581   0.523   3.596   5.985
 5228SOL     OW16582   0.829   2.464   6.979
 5228SOL    HW116583   0.913   2.456   6.926
 5228SOL    HW216584   0.824   2.390   0.022
 5229SOL     OW16585   3.202   6.195   6.357
 5229SOL    HW116586   3.242   6.230   6.272
 5229SOL    HW216587   3.270   6.201   6.431
 5230SOL     OW16588   6.733   0.245   2.692
 5230SOL    HW116589   6.749   0.217   2.597
 5230SOL    HW216590   6.651   0.303   2.696
 5231SOL     OW16591   4.891   1.798   3.567
 5231SOL    HW116592   4.979   1.754   3.550
 5231SOL    HW216593   4.856   1.838   3.482
 5232SOL     OW16594   1.509   4.228   6.077
 5232SOL    HW116595   1.449   4.189   6.147
 5232SOL    HW216596   1.604   4.225   6.110
 5233SOL     OW16597   3.232   0.888   2.115
 5233SOL    HW116598   3.176   0.834   2.052
 5233SOL    HW216599   3.190   0.887   2.206
 5234SOL     OW16600   3.102   3.580   6.823
 5234SOL    HW116601   3.107   3.492   6.870
 5234SOL    HW216602   3.039   3.573   6.746
 5235SOL     OW16603   2.198   2.080   0.362
 5235SOL    HW116604   2.132   2.136   0.313
 5235SOL    HW216605   2.250   2.025   0.297
 5236SOL     OW16606   3.153   4.895   1.749
 5236SOL    HW116607   3.211   4.883   1.829
 5236SOL    HW216608   3.061   4.859   1.768
 5237SOL     OW16609   2.355   1.511   4.609
 5237SOL    HW116610   2.375   1.481   4.702
 5237SOL    HW216611   2.437   1.551   4.568
 5238SOL     OW16612   1.106   4.619   1.795
 5238SOL    HW116613   1.009   4.598   1.811
 5238SOL    HW216614   1.115   4.712   1.760
 5239SOL     OW16615   3.562   3.639   1.071
 5239SOL    HW116616   3.612   3.709   1.020
 5239SOL    HW216617   3.464   3.651   1.056
 5240SOL     OW16618   2.720   2.609   5.391
 5240SOL    HW116619   2.757   2.695   5.355
 5240SOL    HW216620   2.795   2.546   5.410
 5241SOL     OW16621   1.121   5.645   2.158
 5241SOL    HW116622   1.074   5.557   2.148
 5241SOL    HW216623   1.062   5.718   2.123
 5242SOL     OW16624   4.935   0.482   1.822
 5242SOL    HW116625   4.874   0.498   1.900
 5242SOL    HW216626   4.941   0.384   1.804
 5243SOL     OW16627   2.164   6.118   1.390
 5243SOL    HW116628   2.165   6.049   1.462
 5243SOL    HW216629   2.231   6.189   1.410
 5244SOL     OW16630   5.073   3.190   6.963
 5244SOL    HW116631   5.093   3.267   0.000
 5244SOL    HW216632   5.121   3.109   6.996
 5245SOL     OW16633   4.280   4.111   0.514
 5245SOL    HW116634   4.272   4.160   0.601
 5245SOL    HW216635   4.199   4.054   0.499
 5246SOL     OW16636   6.339   2.343   2.251
 5246SOL    HW116637   6.375   2.431   2.221
 5246SOL    HW216638   6.259   2.319   2.195
 5247SOL     OW16639   3.592   0.981   5.670
 5247SOL    HW116640   3.589   0.949   5.575
 5247SOL    HW216641   3.658   0.926   5.721
 5248SOL     OW16642   0.175   1.954   2.859
 5248SOL    HW116643   0.262   1.920   2.822
 5248SOL    HW216644   0.184   2.051   2.882
 5249SOL     OW16645   1.968   5.427   6.650
 5249SOL    HW116646   1.985   5.332   6.624
 5249SOL    HW216647   1.946   5.433   6.747
 5250SOL     OW16648   1.467   5.994   0.173
 5250SOL    HW116649   1.494   5.898   0.177
 5250SOL    HW216650   1.452   6.028   0.266
 5251SOL     OW16651   0.782   4.826   0.793
 5251SOL    HW116652   0.801   4.901   0.730
 5251SOL    HW216653   0.834   4.745   0.765
 5252SOL     OW16654   2.818   6.655   2.257
 5252SOL    HW116655   2.905   6.606   2.257
 5252SOL    HW216656   2.827   6.738   2.313
 5253SOL     OW16657   6.400   4.315   4.903
 5253SOL    HW116658   6.453   4.328   4.819
 5253SOL    HW216659   6.414   4.393   4.964
 5254SOL     OW16660   5.914   0.400   3.747
 5254SOL    HW116661   5.894   0.400   3.845
 5254SOL    HW216662   5.993   0.341   3.730
 5255SOL     OW16663   5.626   2.204   4.665
 5255SOL    HW116664   5.552   2.137   4.666
 5255SOL    HW216665   5.681   2.195   4.748
 5256SOL     OW16666   5.083   1.887   3.807
 5256SOL    HW116667   5.024   1.829   3.752
 5256SOL    HW216668   5.133   1.831   3.874
 5257SOL     OW16669   4.667   0.002   0.817
 5257SOL    HW116670   4.605   0.075   0.845
 5257SOL    HW216671   4.728   7.003   0.892
 5258SOL     OW16672   5.398   1.901   3.062
 5258SOL    HW116673   5.361   1.993   3.075
 5258SOL    HW216674   5.468   1.903   2.991
 5259SOL     OW16675   4.870   5.100   2.762
 5259SOL    HW116676   4.884   5.071   2.857
 5259SOL    HW216677   4.912   5.034   2.700
 5260SOL     OW16678   3.824   5.409   0.225
 5260SOL    HW116679   3.816   5.313   0.197
 5260SOL    HW216680   3.742   5.437   0.274
 5261SOL     OW16681   0.559   4.454   0.315
 5261SOL    HW116682   0.638   4.454   0.375
 5261SOL    HW216683   0.576   4.393   0.237
 5262SOL     OW16684   2.835   0.635   3.286
 5262SOL    HW116685   2.837   0.638   3.186
 5262SOL    HW216686   2.815   0.542   3.317
 5263SOL     OW16687   2.070   1.349   2.640
 5263SOL    HW116688   2.148   1.387   2.590
 5263SOL    HW216689   2.041   1.264   2.597
 5264SOL     OW16690   6.968   2.115   2.279
 5264SOL    HW116691   6.883   2.066   2.299
 5264SOL    HW216692   0.000   2.120   2.361
 5265SOL     OW16693   6.011   2.939   4.620
 5265SOL    HW116694   6.064   2.870   4.669
 5265SOL    HW216695   6.017   2.923   4.521
 5266SOL     OW16696   2.741   6.617   1.056
 5266SOL    HW116697   2.819   6.554   1.062
 5266SOL    HW216698   2.663   6.569   1.016
 5267SOL     OW16699   4.556   2.372   4.521
 5267SOL    HW116700   4.490   2.395   4.592
 5267SOL    HW216701   4.591   2.456   4.480
 5268SOL     OW16702   5.184   0.566   6.669
 5268SOL    HW116703   5.090   0.601   6.668
 5268SOL    HW216704   5.247   0.640   6.695
 5269SOL     OW16705   1.122   6.375   2.216
 5269SOL    HW116706   1.167   6.330   2.138
 5269SOL    HW216707   1.091   6.306   2.281
 5270SOL     OW16708   5.477   1.745   1.522
 5270SOL    HW116709   5.531   1.697   1.592
 5270SOL    HW216710   5.417   1.811   1.567
 5271SOL     OW16711   6.141   4.594   5.771
 5271SOL    HW116712   6.219   4.577   5.832
 5271SOL    HW216713   6.174   4.598   5.676
 5272SOL     OW16714   3.332   5.727   1.180
 5272SOL    HW116715   3.300   5.729   1.085
 5272SOL    HW216716   3.283   5.797   1.233
 5273SOL     OW16717   0.858   3.344   2.533
 5273SOL    HW116718   0.943   3.394   2.522
 5273SOL    HW216719   0.781   3.408   2.536
 5274SOL     OW16720   5.270   6.440   2.674
 5274SOL    HW116721   5.205   6.452   2.749
 5274SOL    HW216722   5.324   6.357   2.690
 5275SOL     OW16723   3.559   1.154   0.711
 5275SOL    HW116724   3.556   1.079   0.777
 5275SOL    HW216725   3.630   1.219   0.739
 5276SOL     OW16726   2.282   0.489   1.718
 5276SOL    HW116727   2.381   0.476   1.712
 5276SOL    HW216728   2.256   0.498   1.814
 5277SOL     OW16729   2.936   1.105   2.829
 5277SOL    HW116730   2.864   1.117   2.897
 5277SOL    HW216731   3.002   1.179   2.836
 5278SOL     OW16732   4.990   5.031   3.743
 5278SOL    HW116733   4.986   5.034   3.643
 5278SOL    HW216734   4.898   5.028   3.781
 5279SOL     OW16735   2.373   5.747   1.052
 5279SOL    HW116736   2.350   5.835   1.093
 5279SOL    HW216737   2.459   5.713   1.092
 5280SOL     OW16738   2.989   6.203   4.622
 5280SOL    HW116739   3.036   6.116   4.609
 5280SOL    HW216740   2.994   6.257   4.537
 5281SOL     OW16741   6.513   2.173   2.384
 5281SOL    HW116742   6.605   2.210   2.388
 5281SOL    HW216743   6.458   2.226   2.319
 5282SOL     OW16744   2.619   1.584   3.627
 5282SOL    HW116745   2.578   1.525   3.558
 5282SOL    HW216746   2.658   1.665   3.583
 5283SOL     OW16747   5.070   6.598   1.561
 5283SOL    HW116748   5.123   6.608   1.477
 5283SOL    HW216749   5.118   6.537   1.624
 5284SOL     OW16750   5.453   4.074   2.870
 5284SOL    HW116751   5.493   4.103   2.783
 5284SOL    HW216752   5.449   3.974   2.873
 5285SOL     OW16753   3.161   4.904   4.128
 5285SOL    HW116754   3.250   4.869   4.157
 5285SOL    HW216755   3.171   5.000   4.101
 5286SOL     OW16756   2.201   4.159   1.351
 5286SOL    HW116757   2.241   4.068   1.359
 5286SOL    HW216758   2.221   4.197   1.261
 5287SOL     OW16759   2.717   1.089   0.771
 5287SOL    HW116760   2.698   1.048   0.682
 5287SOL    HW216761   2.723   1.188   0.763
 5288SOL     OW16762   4.169   0.184   1.334
 5288SOL    HW116763   4.167   0.284   1.341
 5288SOL    HW216764   4.081   0.147   1.367
 5289SOL     OW16765   1.054   5.386   0.064
 5289SOL    HW116766   1.151   5.392   0.087
 5289SOL    HW216767   0.999   5.386   0.148
 5290SOL     OW16768   3.204   5.896   6.832
 5290SOL    HW116769   3.271   5.827   6.806
 5290SOL    HW216770   3.136   5.855   6.893
 5291SOL     OW16771   2.907   5.587   5.546
 5291SOL    HW116772   2.984   5.590   5.482
 5291SOL    HW216773   2.833   5.532   5.507
 5292SOL     OW16774   5.773   3.138   6.724
 5292SOL    HW116775   5.807   3.169   6.813
 5292SOL    HW216776   5.695   3.193   6.696
 5293SOL     OW16777   0.866   0.773   4.689
 5293SOL    HW116778   0.897   0.788   4.596
 5293SOL    HW216779   0.801   0.844   4.716
 5294SOL     OW16780   5.998   3.012   6.680
 5294SOL    HW116781   5.914   3.065   6.692
 5294SOL    HW216782   6.059   3.028   6.758
 5295SOL     OW16783   5.230   1.194   3.154
 5295SOL    HW116784   5.196   1.161   3.066
 5295SOL    HW216785   5.242   1.293   3.151
 5296SOL     OW16786   1.642   4.699   0.189
 5296SOL    HW116787   1.678   4.623   0.134
 5296SOL    HW216788   1.717   4.740   0.242
 5297SOL     OW16789   2.469   2.183   0.765
 5297SOL    HW116790   2.381   2.178   0.719
 5297SOL    HW216791   2.522   2.260   0.729
 5298SOL     OW16792   6.573   5.301   2.243
 5298SOL    HW116793   6.654   5.269   2.194
 5298SOL    HW216794   6.601   5.335   2.333
 5299SOL     OW16795   2.945   0.644   1.677
 5299SOL    HW116796   2.990   0.587   1.608
 5299SOL    HW216797   2.981   0.737   1.672
 5300SOL     OW16798   0.262   5.381   3.213
 5300SOL    HW116799   0.294   5.287   3.201
 5300SOL    HW216800   0.163   5.385   3.196
 5301SOL     OW16801   4.094   1.864   0.215
 5301SOL    HW116802   4.031   1.874   0.292
 5301SOL    HW216803   4.110   1.954   0.173
 5302SOL     OW16804   6.627   4.099   2.400
 5302SOL    HW116805   6.689   4.161   2.449
 5302SOL    HW216806   6.535   4.137   2.401
 5303SOL     OW16807   6.607   4.991   3.729
 5303SOL    HW116808   6.599   5.079   3.682
 5303SOL    HW216809   6.559   4.921   3.676
 5304SOL     OW16810   5.310   2.070   6.117
 5304SOL    HW116811   5.218   2.033   6.118
 5304SOL    HW216812   5.348   2.067   6.210
 5305SOL     OW16813   1.692   0.838   3.765
 5305SOL    HW116814   1.662   0.809   3.856
 5305SOL    HW216815   1.627   0.803   3.697
 5306SOL     OW16816   2.323   6.067   5.628
 5306SOL    HW116817   2.407   6.014   5.637
 5306SOL    HW216818   2.247   6.006   5.606
 5307SOL     OW16819   4.470   6.733   6.283
 5307SOL    HW116820   4.510   6.671   6.350
 5307SOL    HW216821   4.501   6.707   6.191
 5308SOL     OW16822   0.375   0.667   4.096
 5308SOL    HW116823   0.388   0.571   4.068
 5308SOL    HW216824   0.458   0.718   4.076
 5309SOL     OW16825   3.969   3.881   3.768
 5309SOL    HW116826   3.954   3.943   3.691
 5309SOL    HW216827   3.980   3.788   3.735
 5310SOL     OW16828   5.116   2.571   1.543
 5310SOL    HW116829   5.117   2.558   1.643
 5310SOL    HW216830   5.088   2.665   1.522
 5311SOL     OW16831   1.633   5.561   6.837
 5311SOL    HW116832   1.727   5.546   6.868
 5311SOL    HW216833   1.593   5.637   6.888
 5312SOL     OW16834   0.885   4.936   2.464
 5312SOL    HW116835   0.862   5.020   2.416
 5312SOL    HW216836   0.908   4.956   2.559
 5313SOL     OW16837   1.104   6.406   6.649
 5313SOL    HW116838   1.006   6.421   6.663
 5313SOL    HW216839   1.156   6.473   6.702
 5314SOL     OW16840   4.614   5.191   7.021
 5314SOL    HW116841   4.685   5.153   6.962
 5314SOL    HW216842   4.653   5.213   0.086
 5315SOL     OW16843   4.981   4.281   2.014
 5315SOL    HW116844   4.901   4.226   1.992
 5315SOL    HW216845   5.063   4.224   2.006
 5316SOL     OW16846   6.778   5.337   4.715
 5316SOL    HW116847   6.758   5.318   4.619
 5316SOL    HW216848   6.692   5.356   4.764
 5317SOL     OW16849   5.582   0.892   2.884
 5317SOL    HW116850   5.618   0.980   2.853
 5317SOL    HW216851   5.638   0.818   2.847
 5318SOL     OW16852   6.787   2.789   4.630
 5318SOL    HW116853   6.801   2.885   4.652
 5318SOL    HW216854   6.744   2.781   4.540
 5319SOL     OW16855   5.454   6.906   7.005
 5319SOL    HW116856   5.520   6.980   6.993
 5319SOL    HW216857   5.370   6.928   6.955
 5320SOL     OW16858   6.170   3.770   6.459
 5320SOL    HW116859   6.085   3.744   6.504
 5320SOL    HW216860   6.164   3.865   6.429
 5321SOL     OW16861   1.824   4.973   4.768
 5321SOL    HW116862   1.825   4.889   4.713
 5321SOL    HW216863   1.908   5.024   4.752
 5322SOL     OW16864   3.999   6.526   6.816
 5322SOL    HW116865   3.999   6.480   6.727
 5322SOL    HW216866   4.094   6.546   6.843
 5323SOL     OW16867   4.201   2.128   0.491
 5323SOL    HW116868   4.284   2.139   0.545
 5323SOL    HW216869   4.125   2.104   0.552
 5324SOL     OW16870   3.802   2.764   1.471
 5324SOL    HW116871   3.804   2.864   1.470
 5324SOL    HW216872   3.816   2.731   1.564
 5325SOL     OW16873   4.956   6.359   2.171
 5325SOL    HW116874   5.025   6.407   2.224
 5325SOL    HW216875   4.964   6.260   2.187
 5326SOL     OW16876   6.838   5.653   1.733
 5326SOL    HW116877   6.837   5.554   1.727
 5326SOL    HW216878   6.861   5.692   1.643
 5327SOL     OW16879   6.871   6.973   4.682
 5327SOL    HW116880   6.899   7.020   4.766
 5327SOL    HW216881   6.779   6.937   4.693
 5328SOL     OW16882   3.933   3.664   6.650
 5328SOL    HW116883   4.006   3.725   6.682
 5328SOL    HW216884   3.859   3.663   6.718
 5329SOL     OW16885   0.516   4.731   0.340
 5329SOL    HW116886   0.543   4.639   0.314
 5329SOL    HW216887   0.516   4.739   0.440
 5330SOL     OW16888   3.675   3.485   0.729
 5330SOL    HW116889   3.700   3.556   0.796
 5330SOL    HW216890   3.591   3.513   0.682
 5331SOL     OW16891   4.738   1.954   0.509
 5331SOL    HW116892   4.751   1.881   0.575
 5331SOL    HW216893   4.747   2.042   0.554
 5332SOL     OW16894   6.293   5.020   0.490
 5332SOL    HW116895   6.206   4.973   0.476
 5332SOL    HW216896   6.312   5.029   0.587
 5333SOL     OW16897   1.887   1.265   3.142
 5333SOL    HW116898   1.851   1.311   3.061
 5333SOL    HW216899   1.967   1.210   3.116
 5334SOL     OW16900   4.526   4.795   3.346
 5334SOL    HW116901   4.530   4.771   3.249
 5334SOL    HW216902   4.595   4.743   3.396
 5335SOL     OW16903   0.038   4.279   2.018
 5335SOL    HW116904   6.989   4.233   1.967
 5335SOL    HW216905   0.126   4.236   1.997
 5336SOL     OW16906   1.824   1.983   3.916
 5336SOL    HW116907   1.749   1.916   3.920
 5336SOL    HW216908   1.900   1.951   3.972
 5337SOL     OW16909   6.292   4.004   1.273
 5337SOL    HW116910   6.357   3.974   1.203
 5337SOL    HW216911   6.305   4.101   1.291
 5338SOL     OW16912   6.155   3.156   6.887
 5338SOL    HW116913   6.171   3.249   6.921
 5338SOL    HW216914   6.242   3.108   6.877
 5339SOL     OW16915   6.226   2.341   2.491
 5339SOL    HW116916   6.280   2.349   2.407
 5339SOL    HW216917   6.192   2.247   2.499
 5340SOL     OW16918   5.711   2.837   2.022
 5340SOL    HW116919   5.732   2.829   2.119
 5340SOL    HW216920   5.706   2.746   1.981
 5341SOL     OW16921   4.759   4.664   3.442
 5341SOL    HW116922   4.840   4.685   3.386
 5341SOL    HW216923   4.763   4.569   3.472
 5342SOL     OW16924   5.745   0.026   5.754
 5342SOL    HW116925   5.672   6.995   5.715
 5342SOL    HW216926   5.744   0.017   5.854
 5343SOL     OW16927   3.634   3.773   5.652
 5343SOL    HW116928   3.554   3.827   5.625
 5343SOL    HW216929   3.704   3.835   5.689
 5344SOL     OW16930   0.699   1.644   6.900
 5344SOL    HW116931   0.747   1.557   6.903
 5344SOL    HW216932   0.679   1.675   6.993
 5345SOL     OW16933   4.847   1.493   6.834
 5345SOL    HW116934   4.847   1.468   6.737
 5345SOL    HW216935   4.759   1.468   6.875
 5346SOL     OW16936   3.076   4.991   3.765
 5346SOL    HW116937   3.115   5.021   3.852
 5346SOL    HW216938   3.011   5.059   3.732
 5347SOL     OW16939   6.790   2.581   3.889
 5347SOL    HW116940   6.760   2.677   3.895
 5347SOL    HW216941   6.755   2.540   3.805
 5348SOL     OW16942   5.514   1.831   4.282
 5348SOL    HW116943   5.516   1.834   4.382
 5348SOL    HW216944   5.435   1.882   4.248
 5349SOL     OW16945   0.815   2.672   1.907
 5349SOL    HW116946   0.837   2.757   1.859
 5349SOL    HW216947   0.777   2.606   1.842
 5350SOL     OW16948   1.827   6.969   5.788
 5350SOL    HW116949   1.843   0.016   5.720
 5350SOL    HW216950   1.729   6.955   5.799
 5351SOL     OW16951   0.475   5.384   1.285
 5351SOL    HW116952   0.498   5.289   1.262
 5351SOL    HW216953   0.527   5.446   1.226
 5352SOL     OW16954   1.873   3.740   3.722
 5352SOL    HW116955   1.851   3.819   3.665
 5352SOL    HW216956   1.817   3.662   3.694
 5353SOL     OW16957   4.359   5.366   3.665
 5353SOL    HW116958   4.262   5.343   3.675
 5353SOL    HW216959   4.373   5.418   3.580
 5354SOL     OW16960   3.683   5.337   0.569
 5354SOL    HW116961   3.746   5.266   0.537
 5354SOL    HW216962   3.634   5.376   0.491
 5355SOL     OW16963   5.518   5.338   5.304
 5355SOL    HW116964   5.419   5.330   5.290
 5355SOL    HW216965   5.562   5.356   5.216
 5356SOL     OW16966   0.077   4.241   1.622
 5356SOL    HW116967   0.097   4.210   1.529
 5356SOL    HW216968   0.086   4.164   1.685
 5357SOL     OW16969   4.223   4.853   1.666
 5357SOL    HW116970   4.240   4.829   1.571
 5357SOL    HW216971   4.221   4.953   1.675
 5358SOL     OW16972   4.540   1.768   0.151
 5358SOL    HW116973   4.626   1.799   0.112
 5358SOL    HW216974   4.516   1.826   0.229
 5359SOL     OW16975   1.724   1.705   0.187
 5359SOL    HW116976   1.662   1.686   0.263
 5359SOL    HW216977   1.819   1.693   0.216
 5360SOL     OW16978   5.861   4.934   4.142
 5360SOL    HW116979   5.929   4.912   4.212
 5360SOL    HW216980   5.814   4.851   4.112
 5361SOL     OW16981   3.554   6.397   2.850
 5361SOL    HW116982   3.609   6.330   2.899
 5361SOL    HW216983   3.457   6.374   2.859
 5362SOL     OW16984   5.044   6.802   1.865
 5362SOL    HW116985   5.117   6.740   1.834
 5362SOL    HW216986   4.970   6.748   1.905
 5363SOL     OW16987   5.951   6.013   4.634
 5363SOL    HW116988   5.893   6.003   4.715
 5363SOL    HW216989   5.986   6.106   4.629
 5364SOL     OW16990   4.878   0.428   2.802
 5364SOL    HW116991   4.875   0.358   2.874
 5364SOL    HW216992   4.905   0.515   2.842
 5365SOL     OW16993   3.108   3.043   3.837
 5365SOL    HW116994   3.045   3.102   3.889
 5365SOL    HW216995   3.070   2.951   3.833
 5366SOL     OW16996   6.607   0.333   1.602
 5366SOL    HW116997   6.579   0.241   1.627
 5366SOL    HW216998   6.527   0.386   1.575
 5367SOL     OW16999   6.721   6.506   0.637
 5367SOL    HW117000   6.637   6.510   0.691
 5367SOL    HW217001   6.731   6.592   0.585
 5368SOL     OW17002   6.867   5.542   2.652
 5368SOL    HW117003   6.928   5.618   2.673
 5368SOL    HW217004   6.792   5.541   2.719
 5369SOL     OW17005   2.744   5.012   1.711
 5369SOL    HW117006   2.769   4.928   1.761
 5369SOL    HW217007   2.823   5.043   1.657
 5370SOL     OW17008   3.851   3.866   1.506
 5370SOL    HW117009   3.783   3.908   1.445
 5370SOL    HW217010   3.840   3.905   1.598
 5371SOL     OW17011   6.916   5.318   5.085
 5371SOL    HW117012   6.865   5.318   5.172
 5371SOL    HW217013   6.985   5.245   5.087
 5372SOL     OW17014   1.331   0.163   2.689
 5372SOL    HW117015   1.238   0.199   2.682
 5372SOL    HW217016   1.355   0.118   2.603
 5373SOL     OW17017   4.162   7.022   5.412
 5373SOL    HW117018   4.119   6.933   5.398
 5373SOL    HW217019   4.252   7.010   5.454
 5374SOL     OW17020   2.658   5.336   1.248
 5374SOL    HW117021   2.734   5.332   1.312
 5374SOL    HW217022   2.663   5.258   1.185
 5375SOL     OW17023   0.983   5.981   4.872
 5375SOL    HW117024   1.045   5.917   4.826
 5375SOL    HW217025   1.036   6.047   4.925
 5376SOL     OW17026   1.015   1.504   0.556
 5376SOL    HW117027   0.920   1.474   0.562
 5376SOL    HW217028   1.034   1.567   0.631
 5377SOL     OW17029   2.229   0.882   3.098
 5377SOL    HW117030   2.296   0.956   3.094
 5377SOL    HW217031   2.274   0.798   3.128
 5378SOL     OW17032   5.725   0.753   1.318
 5378SOL    HW117033   5.640   0.705   1.341
 5378SOL    HW217034   5.703   0.839   1.273
 5379SOL     OW17035   1.277   3.055   5.988
 5379SOL    HW117036   1.365   3.086   6.026
 5379SOL    HW217037   1.264   2.958   6.009
 5380SOL     OW17038   4.395   6.839   1.478
 5380SOL    HW117039   4.349   6.878   1.399
 5380SOL    HW217040   4.379   6.897   1.558
 5381SOL     OW17041   5.112   6.473   2.872
 5381SOL    HW117042   5.109   6.434   2.964
 5381SOL    HW217043   5.020   6.474   2.833
 5382SOL     OW17044   4.083   1.675   3.053
 5382SOL    HW117045   4.080   1.759   2.999
 5382SOL    HW217046   4.100   1.597   2.993
 5383SOL     OW17047   1.400   3.072   4.117
 5383SOL    HW117048   1.426   2.976   4.123
 5383SOL    HW217049   1.446   3.114   4.039
 5384SOL     OW17050   4.717   5.850   5.373
 5384SOL    HW117051   4.668   5.764   5.357
 5384SOL    HW217052   4.798   5.854   5.315
 5385SOL     OW17053   6.045   2.240   5.661
 5385SOL    HW117054   5.988   2.183   5.720
 5385SOL    HW217055   6.141   2.222   5.681
 5386SOL     OW17056   6.366   3.370   4.001
 5386SOL    HW117057   6.278   3.338   3.966
 5386SOL    HW217058   6.437   3.353   3.933
 5387SOL     OW17059   2.180   0.572   2.444
 5387SOL    HW117060   2.205   0.618   2.359
 5387SOL    HW217061   2.081   0.578   2.458
 5388SOL     OW17062   1.005   6.514   2.682
 5388SOL    HW117063   1.101   6.538   2.674
 5388SOL    HW217064   0.982   6.445   2.613
 5389SOL     OW17065   4.212   1.675   4.378
 5389SOL    HW117066   4.247   1.665   4.471
 5389SOL    HW217067   4.130   1.619   4.367
 5390SOL     OW17068   6.489   3.578   3.681
 5390SOL    HW117069   6.535   3.578   3.770
 5390SOL    HW217070   6.391   3.566   3.694
 5391SOL     OW17071   2.369   1.936   0.124
 5391SOL    HW117072   2.302   1.983   0.066
 5391SOL    HW217073   2.441   2.001   0.151
 5392SOL     OW17074   4.698   1.746   3.730
 5392SOL    HW117075   4.608   1.769   3.693
 5392SOL    HW217076   4.769   1.771   3.664
 5393SOL     OW17077   3.884   0.898   5.753
 5393SOL    HW117078   3.928   0.987   5.760
 5393SOL    HW217079   3.952   0.825   5.764
 5394SOL     OW17080   1.903   0.426   0.473
 5394SOL    HW117081   1.982   0.447   0.531
 5394SOL    HW217082   1.830   0.387   0.528
 5395SOL     OW17083   4.802   1.871   1.608
 5395SOL    HW117084   4.889   1.887   1.561
 5395SOL    HW217085   4.731   1.848   1.541
 5396SOL     OW17086   6.052   5.675   2.616
 5396SOL    HW117087   6.030   5.763   2.573
 5396SOL    HW217088   6.130   5.686   2.676
 5397SOL     OW17089   6.103   1.418   2.916
 5397SOL    HW117090   6.145   1.372   2.838
 5397SOL    HW217091   6.166   1.415   2.994
 5398SOL     OW17092   4.558   2.045   3.851
 5398SOL    HW117093   4.625   1.987   3.804
 5398SOL    HW217094   4.606   2.114   3.905
 5399SOL     OW17095   1.961   0.061   5.448
 5399SOL    HW117096   1.898   0.082   5.523
 5399SOL    HW217097   2.050   0.101   5.467
 5400SOL     OW17098   3.551   3.094   1.272
 5400SOL    HW117099   3.586   3.165   1.211
 5400SOL    HW217100   3.561   3.004   1.228
 5401SOL     OW17101   5.440   4.550   2.458
 5401SOL    HW117102   5.361   4.611   2.466
 5401SOL    HW217103   5.523   4.599   2.487
 5402SOL     OW17104   2.006   0.157   0.886
 5402SOL    HW117105   2.013   0.257   0.890
 5402SOL    HW217106   1.997   0.120   0.978
 5403SOL     OW17107   4.769   3.331   6.878
 5403SOL    HW117108   4.755   3.286   6.790
 5403SOL    HW217109   4.851   3.294   6.922
 5404SOL     OW17110   6.948   0.578   0.819
 5404SOL    HW117111   6.974   0.674   0.814
 5404SOL    HW217112   6.850   0.569   0.803
 5405SOL     OW17113   5.192   5.765   6.991
 5405SOL    HW117114   5.191   5.666   6.976
 5405SOL    HW217115   5.214   5.784   0.062
 5406SOL     OW17116   2.481   0.594   4.490
 5406SOL    HW117117   2.567   0.543   4.487
 5406SOL    HW217118   2.405   0.533   4.470
 5407SOL     OW17119   2.439   0.620   1.421
 5407SOL    HW117120   2.400   0.712   1.426
 5407SOL    HW217121   2.387   0.565   1.356
 5408SOL     OW17122   2.701   2.398   4.315
 5408SOL    HW117123   2.734   2.397   4.221
 5408SOL    HW217124   2.631   2.469   4.326
 5409SOL     OW17125   0.238   2.699   1.033
 5409SOL    HW117126   0.216   2.794   1.056
 5409SOL    HW217127   0.185   2.637   1.091
 5410SOL     OW17128   0.835   2.044   1.463
 5410SOL    HW117129   0.911   2.096   1.504
 5410SOL    HW217130   0.872   1.976   1.400
 5411SOL     OW17131   4.748   5.398   6.752
 5411SOL    HW117132   4.827   5.361   6.703
 5411SOL    HW217133   4.663   5.362   6.713
 5412SOL     OW17134   0.815   1.976   6.450
 5412SOL    HW117135   0.896   2.020   6.410
 5412SOL    HW217136   0.781   1.907   6.386
 5413SOL     OW17137   6.485   0.185   5.458
 5413SOL    HW117138   6.510   0.211   5.365
 5413SOL    HW217139   6.513   0.258   5.521
 5414SOL     OW17140   6.853   4.294   5.703
 5414SOL    HW117141   6.790   4.282   5.780
 5414SOL    HW217142   6.947   4.290   5.737
 5415SOL     OW17143   3.152   0.151   0.701
 5415SOL    HW117144   3.249   0.164   0.681
 5415SOL    HW217145   3.118   0.227   0.755
 5416SOL     OW17146   2.985   5.089   5.546
 5416SOL    HW117147   2.961   5.136   5.631
 5416SOL    HW217148   2.987   5.154   5.471
 5417SOL     OW17149   4.525   5.799   3.573
 5417SOL    HW117150   4.568   5.819   3.485
 5417SOL    HW217151   4.492   5.884   3.613
 5418SOL     OW17152   6.178   4.470   4.446
 5418SOL    HW117153   6.145   4.376   4.432
 5418SOL    HW217154   6.193   4.486   4.544
 5419SOL     OW17155   3.866   0.031   6.866
 5419SOL    HW117156   3.816   6.969   6.860
 5419SOL    HW217157   3.805   0.104   6.897
 5420SOL     OW17158   1.394   1.692   1.193
 5420SOL    HW117159   1.413   1.661   1.100
 5420SOL    HW217160   1.473   1.672   1.251
 5421SOL     OW17161   3.531   5.233   2.216
 5421SOL    HW117162   3.548   5.208   2.312
 5421SOL    HW217163   3.458   5.176   2.179
 5422SOL     OW17164   2.079   5.925   4.018
 5422SOL    HW117165   2.025   5.842   4.028
 5422SOL    HW217166   2.121   5.949   4.106
 5423SOL     OW17167   6.423   6.374   2.052
 5423SOL    HW117168   6.469   6.404   2.135
 5423SOL    HW217169   6.468   6.415   1.972
 5424SOL     OW17170   4.767   4.141   5.132
 5424SOL    HW117171   4.803   4.057   5.171
 5424SOL    HW217172   4.689   4.120   5.073
 5425SOL     OW17173   0.529   3.564   6.333
 5425SOL    HW117174   0.620   3.531   6.308
 5425SOL    HW217175   0.536   3.622   6.414
 5426SOL     OW17176   5.399   4.833   1.969
 5426SOL    HW117177   5.414   4.824   1.871
 5426SOL    HW217178   5.388   4.741   2.009
 5427SOL     OW17179   4.941   2.752   0.078
 5427SOL    HW117180   4.902   2.838   0.046
 5427SOL    HW217181   5.041   2.754   0.068
 5428SOL     OW17182   6.361   5.335   2.916
 5428SOL    HW117183   6.434   5.280   2.956
 5428SOL    HW217184   6.283   5.337   2.977
 5429SOL     OW17185   2.594   0.654   3.908
 5429SOL    HW117186   2.529   0.579   3.922
 5429SOL    HW217187   2.546   0.741   3.909
 5430SOL     OW17188   2.778   3.710   6.385
 5430SOL    HW117189   2.761   3.672   6.475
 5430SOL    HW217190   2.731   3.655   6.316
 5431SOL     OW17191   3.142   4.962   6.502
 5431SOL    HW117192   3.139   4.973   6.402
 5431SOL    HW217193   3.237   4.951   6.531
 5432SOL     OW17194   5.823   5.799   1.384
 5432SOL    HW117195   5.885   5.877   1.385
 5432SOL    HW217196   5.864   5.722   1.432
 5433SOL     OW17197   1.233   0.301   0.813
 5433SOL    HW117198   1.280   0.258   0.735
 5433SOL    HW217199   1.188   0.385   0.782
 5434SOL     OW17200   4.558   1.414   5.685
 5434SOL    HW117201   4.531   1.339   5.624
 5434SOL    HW217202   4.651   1.443   5.662
 5435SOL     OW17203   6.215   4.081   0.869
 5435SOL    HW117204   6.201   4.015   0.796
 5435SOL    HW217205   6.135   4.081   0.930
 5436SOL     OW17206   1.651   5.334   2.721
 5436SOL    HW117207   1.606   5.422   2.734
 5436SOL    HW217208   1.749   5.344   2.737
 5437SOL     OW17209   3.836   5.409   6.910
 5437SOL    HW117210   3.887   5.332   6.871
 5437SOL    HW217211   3.898   5.486   6.922
 5438SOL     OW17212   4.722   4.342   2.771
 5438SOL    HW117213   4.703   4.248   2.799
 5438SOL    HW217214   4.696   4.354   2.675
 5439SOL     OW17215   0.855   4.557   0.925
 5439SOL    HW117216   0.869   4.483   0.859
 5439SOL    HW217217   0.943   4.581   0.967
 5440SOL     OW17218   5.522   6.084   3.402
 5440SOL    HW117219   5.613   6.124   3.404
 5440SOL    HW217220   5.489   6.072   3.496
 5441SOL     OW17221   4.745   2.694   4.083
 5441SOL    HW117222   4.700   2.637   4.014
 5441SOL    HW217223   4.818   2.642   4.126
 5442SOL     OW17224   5.145   6.699   4.566
 5442SOL    HW117225   5.220   6.640   4.536
 5442SOL    HW217226   5.067   6.644   4.594
 5443SOL     OW17227   4.827   6.686   4.846
 5443SOL    HW117228   4.859   6.780   4.854
 5443SOL    HW217229   4.781   6.659   4.931
 5444SOL     OW17230   7.023   0.799   3.804
 5444SOL    HW117231   0.047   0.812   3.891
 5444SOL    HW217232   7.005   0.701   3.790
 5445SOL     OW17233   5.247   5.621   6.035
 5445SOL    HW117234   5.266   5.632   5.938
 5445SOL    HW217235   5.221   5.710   6.075
 5446SOL     OW17236   0.415   4.603   5.624
 5446SOL    HW117237   0.431   4.647   5.535
 5446SOL    HW217238   0.336   4.646   5.668
 5447SOL     OW17239   1.526   1.564   0.449
 5447SOL    HW117240   1.490   1.651   0.417
 5447SOL    HW217241   1.607   1.580   0.506
 5448SOL     OW17242   4.153   5.705   3.672
 5448SOL    HW117243   4.065   5.668   3.700
 5448SOL    HW217244   4.225   5.667   3.730
 5449SOL     OW17245   3.126   1.400   2.147
 5449SOL    HW117246   3.221   1.372   2.139
 5449SOL    HW217247   3.118   1.474   2.213
 5450SOL     OW17248   4.150   6.053   1.813
 5450SOL    HW117249   4.209   6.123   1.853
 5450SOL    HW217250   4.199   6.005   1.741
 5451SOL     OW17251   1.391   0.317   3.203
 5451SOL    HW117252   1.379   0.380   3.127
 5451SOL    HW217253   1.484   0.281   3.202
 5452SOL     OW17254   1.816   4.691   2.243
 5452SOL    HW117255   1.829   4.643   2.156
 5452SOL    HW217256   1.763   4.632   2.305
 5453SOL     OW17257   6.004   4.038   3.398
 5453SOL    HW117258   5.914   4.023   3.357
 5453SOL    HW217259   6.010   3.988   3.484
 5454SOL     OW17260   6.250   5.547   3.248
 5454SOL    HW117261   6.247   5.486   3.327
 5454SOL    HW217262   6.160   5.589   3.235
 5455SOL     OW17263   6.704   1.984   2.306
 5455SOL    HW117264   6.621   1.977   2.361
 5455SOL    HW217265   6.718   1.899   2.255
 5456SOL     OW17266   4.865   1.110   6.501
 5456SOL    HW117267   4.842   1.015   6.523
 5456SOL    HW217268   4.827   1.170   6.571
 5457SOL     OW17269   6.080   2.454   0.897
 5457SOL    HW117270   6.176   2.437   0.872
 5457SOL    HW217271   6.033   2.496   0.820
 5458SOL     OW17272   5.982   4.530   1.371
 5458SOL    HW117273   6.062   4.543   1.313
 5458SOL    HW217274   6.010   4.533   1.467
 5459SOL     OW17275   1.767   4.651   5.846
 5459SOL    HW117276   1.811   4.562   5.836
 5459SOL    HW217277   1.830   4.715   5.889
 5460SOL     OW17278   1.749   1.044   0.463
 5460SOL    HW117279   1.719   0.980   0.392
 5460SOL    HW217280   1.803   0.994   0.532
 5461SOL     OW17281   0.134   1.527   6.145
 5461SOL    HW117282   0.069   1.480   6.204
 5461SOL    HW217283   0.109   1.624   6.138
 5462SOL     OW17284   5.070   6.136   6.698
 5462SOL    HW117285   5.164   6.104   6.684
 5462SOL    HW217286   5.046   6.127   6.795
 5463SOL     OW17287   0.234   2.495   6.743
 5463SOL    HW117288   0.234   2.526   6.838
 5463SOL    HW217289   0.306   2.543   6.692
 5464SOL     OW17290   6.263   6.506   5.408
 5464SOL    HW117291   6.281   6.412   5.436
 5464SOL    HW217292   6.336   6.565   5.442
 5465SOL     OW17293   6.706   6.593   3.710
 5465SOL    HW117294   6.655   6.597   3.795
 5465SOL    HW217295   6.719   6.686   3.674
 5466SOL     OW17296   5.824   2.518   5.419
 5466SOL    HW117297   5.915   2.540   5.385
 5466SOL    HW217298   5.816   2.546   5.514
 5467SOL     OW17299   5.914   3.665   3.670
 5467SOL    HW117300   5.860   3.585   3.694
 5467SOL    HW217301   5.888   3.742   3.729
 5468SOL     OW17302   6.784   2.333   2.897
 5468SOL    HW117303   6.845   2.313   2.974
 5468SOL    HW217304   6.696   2.364   2.931
 5469SOL     OW17305   1.985   0.679   5.686
 5469SOL    HW117306   1.940   0.630   5.612
 5469SOL    HW217307   2.042   0.753   5.649
 5470SOL     OW17308   4.244   5.294   4.936
 5470SOL    HW117309   4.148   5.269   4.942
 5470SOL    HW217310   4.296   5.244   5.006
 5471SOL     OW17311   4.900   6.544   1.896
 5471SOL    HW117312   4.855   6.632   1.912
 5471SOL    HW217313   4.855   6.496   1.821
 5472SOL     OW17314   3.315   1.696   6.183
 5472SOL    HW117315   3.343   1.783   6.142
 5472SOL    HW217316   3.396   1.644   6.210
 5473SOL     OW17317   1.685   4.814   1.361
 5473SOL    HW117318   1.708   4.744   1.294
 5473SOL    HW217319   1.604   4.865   1.329
 5474SOL     OW17320   0.709   5.629   3.803
 5474SOL    HW117321   0.665   5.627   3.713
 5474SOL    HW217322   0.751   5.719   3.818
 5475SOL     OW17323   1.135   1.896   6.903
 5475SOL    HW117324   1.182   1.965   6.849
 5475SOL    HW217325   1.200   1.825   6.930
 5476SOL     OW17326   2.549   6.475   5.626
 5476SOL    HW117327   2.521   6.562   5.666
 5476SOL    HW217328   2.609   6.427   5.689
 5477SOL     OW17329   1.946   4.824   3.948
 5477SOL    HW117330   1.941   4.789   3.854
 5477SOL    HW217331   2.015   4.772   3.999
 5478SOL     OW17332   5.838   4.678   6.279
 5478SOL    HW117333   5.918   4.684   6.339
 5478SOL    HW217334   5.791   4.767   6.277
 5479SOL     OW17335   4.542   1.658   4.668
 5479SOL    HW117336   4.445   1.656   4.646
 5479SOL    HW217337   4.562   1.738   4.725
 5480SOL     OW17338   6.461   4.522   5.108
 5480SOL    HW117339   6.495   4.584   5.179
 5480SOL    HW217340   6.367   4.494   5.129
 5481SOL     OW17341   3.816   1.266   6.253
 5481SOL    HW117342   3.916   1.270   6.261
 5481SOL    HW217343   3.790   1.181   6.208
 5482SOL     OW17344   3.537   3.602   2.103
 5482SOL    HW117345   3.447   3.572   2.136
 5482SOL    HW217346   3.551   3.569   2.010
 5483SOL     OW17347   6.345   3.398   5.836
 5483SOL    HW117348   6.412   3.387   5.909
 5483SOL    HW217349   6.253   3.391   5.874
 5484SOL     OW17350   6.778   6.747   4.004
 5484SOL    HW117351   6.777   6.647   4.013
 5484SOL    HW217352   6.686   6.782   4.016
 5485SOL     OW17353   3.290   0.129   4.709
 5485SOL    HW117354   3.304   0.033   4.685
 5485SOL    HW217355   3.307   0.186   4.629
 5486SOL     OW17356   1.368   0.393   3.465
 5486SOL    HW117357   1.448   0.439   3.502
 5486SOL    HW217358   1.394   0.344   3.381
 5487SOL     OW17359   6.349   4.063   0.301
 5487SOL    HW117360   6.382   4.017   0.219
 5487SOL    HW217361   6.315   4.154   0.277
 5488SOL     OW17362   4.465   2.172   0.227
 5488SOL    HW117363   4.393   2.213   0.284
 5488SOL    HW217364   4.532   2.242   0.204
 5489SOL     OW17365   1.434   4.126   2.333
 5489SOL    HW117366   1.392   4.047   2.289
 5489SOL    HW217367   1.497   4.170   2.268
 5490SOL     OW17368   3.396   0.294   0.620
 5490SOL    HW117369   3.355   0.382   0.597
 5490SOL    HW217370   3.470   0.308   0.687
 5491SOL     OW17371   1.689   4.471   6.784
 5491SOL    HW117372   1.604   4.469   6.732
 5491SOL    HW217373   1.767   4.469   6.722
 5492SOL     OW17374   0.843   1.305   6.207
 5492SOL    HW117375   0.754   1.307   6.253
 5492SOL    HW217376   0.887   1.394   6.215
 5493SOL     OW17377   3.682   2.914   5.600
 5493SOL    HW117378   3.767   2.963   5.617
 5493SOL    HW217379   3.676   2.835   5.661
 5494SOL     OW17380   6.544   2.984   0.764
 5494SOL    HW117381   6.500   3.050   0.703
 5494SOL    HW217382   6.508   2.994   0.857
 5495SOL     OW17383   3.648   3.367   1.062
 5495SOL    HW117384   3.628   3.332   0.970
 5495SOL    HW217385   3.632   3.466   1.064
 5496SOL     OW17386   3.775   6.082   1.677
 5496SOL    HW117387   3.837   6.018   1.722
 5496SOL    HW217388   3.741   6.041   1.592
 5497SOL     OW17389   0.543   1.780   2.801
 5497SOL    HW117390   0.635   1.762   2.766
 5497SOL    HW217391   0.504   1.859   2.753
 5498SOL     OW17392   4.764   1.721   6.620
 5498SOL    HW117393   4.708   1.751   6.697
 5498SOL    HW217394   4.736   1.770   6.537
 5499SOL     OW17395   0.128   0.584   3.417
 5499SOL    HW117396   0.052   0.643   3.388
 5499SOL    HW217397   0.214   0.624   3.387
 5500SOL     OW17398   2.276   5.480   6.858
 5500SOL    HW117399   2.240   5.422   6.931
 5500SOL    HW217400   2.327   5.556   6.898
 5501SOL     OW17401   3.003   0.273   1.920
 5501SOL    HW117402   2.977   0.188   1.967
 5501SOL    HW217403   2.922   0.312   1.877
 5502SOL     OW17404   6.256   4.280   5.560
 5502SOL    HW117405   6.266   4.245   5.653
 5502SOL    HW217406   6.180   4.233   5.515
 5503SOL     OW17407   1.073   5.226   3.078
 5503SOL    HW117408   1.068   5.148   3.016
 5503SOL    HW217409   1.162   5.271   3.067
 5504SOL     OW17410   2.836   0.936   4.579
 5504SOL    HW117411   2.832   0.936   4.679
 5504SOL    HW217412   2.743   0.944   4.542
 5505SOL     OW17413   2.096   6.042   5.304
 5505SOL    HW117414   2.015   6.072   5.253
 5505SOL    HW217415   2.151   6.122   5.330
 5506SOL     OW17416   6.758   0.479   4.595
 5506SOL    HW117417   6.683   0.453   4.535
 5506SOL    HW217418   6.724   0.491   4.688
 5507SOL     OW17419   2.608   6.180   3.009
 5507SOL    HW117420   2.548   6.212   3.083
 5507SOL    HW217421   2.684   6.244   2.997
 5508SOL     OW17422   2.383   1.069   6.880
 5508SOL    HW117423   2.401   1.003   6.807
 5508SOL    HW217424   2.380   1.161   6.842
 5509SOL     OW17425   6.318   5.766   0.318
 5509SOL    HW117426   6.411   5.801   0.312
 5509SOL    HW217427   6.255   5.831   0.275
 5510SOL     OW17428   4.562   6.844   6.899
 5510SOL    HW117429   4.467   6.863   6.874
 5510SOL    HW217430   4.623   6.904   6.847
 5511SOL     OW17431   1.452   0.510   2.941
 5511SOL    HW117432   1.511   0.436   2.910
 5511SOL    HW217433   1.365   0.506   2.891
 5512SOL     OW17434   6.593   2.409   0.528
 5512SOL    HW117435   6.594   2.446   0.620
 5512SOL    HW217436   6.524   2.456   0.473
 5513SOL     OW17437   4.828   4.191   4.765
 5513SOL    HW117438   4.756   4.255   4.794
 5513SOL    HW217439   4.851   4.209   4.669
 5514SOL     OW17440   5.799   5.073   2.841
 5514SOL    HW117441   5.703   5.046   2.838
 5514SOL    HW217442   5.856   4.992   2.853
 5515SOL     OW17443   6.251   2.998   1.495
 5515SOL    HW117444   6.154   3.005   1.474
 5515SOL    HW217445   6.264   2.931   1.569
 5516SOL     OW17446   1.913   2.793   0.176
 5516SOL    HW117447   1.868   2.881   0.188
 5516SOL    HW217448   2.012   2.806   0.166
 5517SOL     OW17449   3.324   1.928   2.091
 5517SOL    HW117450   3.248   1.876   2.052
 5517SOL    HW217451   3.298   1.962   2.181
 5518SOL     OW17452   6.179   5.545   6.390
 5518SOL    HW117453   6.167   5.563   6.488
 5518SOL    HW217454   6.245   5.471   6.377
 5519SOL     OW17455   5.467   3.568   2.950
 5519SOL    HW117456   5.429   3.476   2.936
 5519SOL    HW217457   5.392   3.634   2.956
 5520SOL     OW17458   1.188   4.158   3.179
 5520SOL    HW117459   1.136   4.216   3.116
 5520SOL    HW217460   1.151   4.167   3.271
 5521SOL     OW17461   4.622   6.064   1.937
 5521SOL    HW117462   4.682   6.123   1.883
 5521SOL    HW217463   4.656   5.970   1.935
 5522SOL     OW17464   1.976   3.972   1.408
 5522SOL    HW117465   2.053   4.036   1.399
 5522SOL    HW217466   1.961   3.925   1.321
 5523SOL     OW17467   3.356   6.997   2.897
 5523SOL    HW117468   3.423   6.990   2.972
 5523SOL    HW217469   3.360   0.064   2.857
 5524SOL     OW17470   0.183   6.156   4.699
 5524SOL    HW117471   0.233   6.214   4.635
 5524SOL    HW217472   0.237   6.074   4.718
 5525SOL     OW17473   0.100   4.591   0.230
 5525SOL    HW117474   0.139   4.667   0.282
 5525SOL    HW217475   0.112   4.608   0.132
 5526SOL     OW17476   5.846   3.621   4.340
 5526SOL    HW117477   5.884   3.661   4.256
 5526SOL    HW217478   5.765   3.568   4.317
 5527SOL     OW17479   0.539   3.225   2.425
 5527SOL    HW117480   0.500   3.138   2.456
 5527SOL    HW217481   0.623   3.207   2.373
 5528SOL     OW17482   0.726   1.882   6.094
 5528SOL    HW117483   0.736   1.864   6.192
 5528SOL    HW217484   0.755   1.801   6.042
 5529SOL     OW17485   1.835   0.087   4.469
 5529SOL    HW117486   1.888   0.020   4.416
 5529SOL    HW217487   1.740   0.056   4.476
 5530SOL     OW17488   0.058   1.921   2.091
 5530SOL    HW117489   0.106   1.986   2.151
 5530SOL    HW217490   6.983   1.934   2.103
 5531SOL     OW17491   4.064   3.421   4.678
 5531SOL    HW117492   4.112   3.344   4.638
 5531SOL    HW217493   4.004   3.389   4.751
 5532SOL     OW17494   1.795   1.312   0.662
 5532SOL    HW117495   1.696   1.319   0.653
 5532SOL    HW217496   1.817   1.240   0.729
 5533SOL     OW17497   2.916   0.954   2.583
 5533SOL    HW117498   2.843   0.889   2.603
 5533SOL    HW217499   2.935   1.009   2.664
 5534SOL     OW17500   0.805   2.877   6.850
 5534SOL    HW117501   0.824   2.857   6.754
 5534SOL    HW217502   0.765   2.968   6.858
 5535SOL     OW17503   0.125   3.467   2.744
 5535SOL    HW117504   0.070   3.521   2.808
 5535SOL    HW217505   0.216   3.452   2.783
 5536SOL     OW17506   2.360   0.976   4.150
 5536SOL    HW117507   2.414   0.898   4.184
 5536SOL    HW217508   2.298   1.006   4.222
 5537SOL     OW17509   3.300   0.845   4.701
 5537SOL    HW117510   3.245   0.770   4.737
 5537SOL    HW217511   3.282   0.928   4.753
 5538SOL     OW17512   4.249   0.015   5.162
 5538SOL    HW117513   4.228   0.096   5.108
 5538SOL    HW217514   4.209   0.024   5.253
 5539SOL     OW17515   0.202   2.105   1.459
 5539SOL    HW117516   0.262   2.063   1.528
 5539SOL    HW217517   0.145   2.035   1.417
 5540SOL     OW17518   5.258   2.845   1.677
 5540SOL    HW117519   5.229   2.914   1.744
 5540SOL    HW217520   5.196   2.845   1.599
 5541SOL     OW17521   5.122   3.265   5.689
 5541SOL    HW117522   5.111   3.364   5.690
 5541SOL    HW217523   5.045   3.222   5.737
 5542SOL     OW17524   6.028   5.834   5.752
 5542SOL    HW117525   6.013   5.911   5.813
 5542SOL    HW217526   6.020   5.865   5.657
 5543SOL     OW17527   2.071   5.563   6.425
 5543SOL    HW117528   2.031   5.552   6.516
 5543SOL    HW217529   2.013   5.623   6.370
 5544SOL     OW17530   5.659   5.727   5.791
 5544SOL    HW117531   5.685   5.750   5.697
 5544SOL    HW217532   5.708   5.645   5.820
 5545SOL     OW17533   4.577   0.652   2.574
 5545SOL    HW117534   4.596   0.651   2.476
 5545SOL    HW217535   4.603   0.741   2.612
 5546SOL     OW17536   0.721   6.454   4.448
 5546SOL    HW117537   0.638   6.489   4.491
 5546SOL    HW217538   0.714   6.355   4.439
 5547SOL     OW17539   3.954   1.051   4.859
 5547SOL    HW117540   3.880   1.112   4.885
 5547SOL    HW217541   4.031   1.104   4.824
 5548SOL     OW17542   6.568   3.862   5.611
 5548SOL    HW117543   6.578   3.807   5.528
 5548SOL    HW217544   6.543   3.955   5.586
 5549SOL     OW17545   4.121   3.881   1.154
 5549SOL    HW117546   4.197   3.891   1.090
 5549SOL    HW217547   4.071   3.797   1.133
 5550SOL     OW17548   2.480   4.445   2.434
 5550SOL    HW117549   2.469   4.456   2.335
 5550SOL    HW217550   2.543   4.514   2.469
 5551SOL     OW17551   1.787   6.175   2.384
 5551SOL    HW117552   1.853   6.248   2.365
 5551SOL    HW217553   1.720   6.208   2.452
 5552SOL     OW17554   5.650   0.822   6.826
 5552SOL    HW117555   5.669   0.894   6.893
 5552SOL    HW217556   5.551   0.812   6.815
 5553SOL     OW17557   4.262   6.474   6.123
 5553SOL    HW117558   4.317   6.489   6.041
 5553SOL    HW217559   4.168   6.506   6.107
 5554SOL     OW17560   4.727   2.745   1.203
 5554SOL    HW117561   4.722   2.709   1.296
 5554SOL    HW217562   4.806   2.806   1.195
 5555SOL     OW17563   1.439   3.547   2.147
 5555SOL    HW117564   1.475   3.475   2.088
 5555SOL    HW217565   1.489   3.632   2.130
 5556SOL     OW17566   6.231   1.271   3.915
 5556SOL    HW117567   6.267   1.334   3.847
 5556SOL    HW217568   6.185   1.322   3.987
 5557SOL     OW17569   3.906   5.941   1.886
 5557SOL    HW117570   3.867   5.920   1.975
 5557SOL    HW217571   3.998   5.978   1.898
 5558SOL     OW17572   2.899   3.368   6.192
 5558SOL    HW117573   2.934   3.431   6.262
 5558SOL    HW217574   2.958   3.373   6.111
 5559SOL     OW17575   1.888   0.537   2.355
 5559SOL    HW117576   1.813   0.481   2.321
 5559SOL    HW217577   1.862   0.634   2.353
 5560SOL     OW17578   6.980   5.406   1.389
 5560SOL    HW117579   0.050   5.404   1.357
 5560SOL    HW217580   6.965   5.334   1.457
 5561SOL     OW17581   2.151   0.998   4.352
 5561SOL    HW117582   2.187   0.948   4.430
 5561SOL    HW217583   2.076   0.946   4.310
 5562SOL     OW17584   4.204   2.807   0.153
 5562SOL    HW117585   4.205   2.896   0.107
 5562SOL    HW217586   4.116   2.795   0.198
 5563SOL     OW17587   3.187   5.158   2.816
 5563SOL    HW117588   3.205   5.216   2.895
 5563SOL    HW217589   3.153   5.069   2.847
 5564SOL     OW17590   4.519   0.199   6.934
 5564SOL    HW117591   4.602   0.156   6.898
 5564SOL    HW217592   4.445   0.131   6.937
 5565SOL     OW17593   3.768   2.609   6.151
 5565SOL    HW117594   3.776   2.510   6.155
 5565SOL    HW217595   3.802   2.642   6.063
 5566SOL     OW17596   1.893   4.489   0.099
 5566SOL    HW117597   1.817   4.424   0.089
 5566SOL    HW217598   1.907   4.509   0.196
 5567SOL     OW17599   0.045   4.050   1.318
 5567SOL    HW117600   6.984   4.043   1.265
 5567SOL    HW217601   0.110   3.981   1.285
 5568SOL     OW17602   5.405   1.641   3.852
 5568SOL    HW117603   5.317   1.594   3.850
 5568SOL    HW217604   5.473   1.586   3.803
 5569SOL     OW17605   1.982   1.983   2.053
 5569SOL    HW117606   1.950   2.077   2.060
 5569SOL    HW217607   2.074   1.982   2.013
 5570SOL     OW17608   5.689   3.635   3.998
 5570SOL    HW117609   5.660   3.695   3.923
 5570SOL    HW217610   5.784   3.655   4.022
 5571SOL     OW17611   6.133   5.814   1.850
 5571SOL    HW117612   6.211   5.762   1.887
 5571SOL    HW217613   6.072   5.839   1.925
 5572SOL     OW17614   1.343   4.241   5.026
 5572SOL    HW117615   1.410   4.249   4.951
 5572SOL    HW217616   1.320   4.332   5.059
 5573SOL     OW17617   1.811   5.854   5.468
 5573SOL    HW117618   1.895   5.803   5.448
 5573SOL    HW217619   1.806   5.935   5.410
 5574SOL     OW17620   0.112   2.340   1.623
 5574SOL    HW117621   0.018   2.311   1.637
 5574SOL    HW217622   0.157   2.279   1.558
 5575SOL     OW17623   6.646   1.304   0.741
 5575SOL    HW117624   6.634   1.400   0.716
 5575SOL    HW217625   6.715   1.297   0.813
 5576SOL     OW17626   1.063   4.443   2.331
 5576SOL    HW117627   1.073   4.349   2.362
 5576SOL    HW217628   1.095   4.451   2.237
 5577SOL     OW17629   2.747   2.562   6.872
 5577SOL    HW117630   2.753   2.561   6.972
 5577SOL    HW217631   2.747   2.468   6.838
 5578SOL     OW17632   3.756   3.814   2.018
 5578SOL    HW117633   3.852   3.842   2.026
 5578SOL    HW217634   3.736   3.790   1.924
 5579SOL     OW17635   0.072   3.353   0.443
 5579SOL    HW117636   7.023   3.287   0.422
 5579SOL    HW217637   0.041   3.445   0.420
 5580SOL     OW17638   4.811   2.442   5.532
 5580SOL    HW117639   4.806   2.507   5.456
 5580SOL    HW217640   4.882   2.374   5.513
 5581SOL     OW17641   1.667   0.140   2.273
 5581SOL    HW117642   1.729   0.088   2.332
 5581SOL    HW217643   1.647   0.087   2.191
 5582SOL     OW17644   3.565   4.107   6.422
 5582SOL    HW117645   3.572   4.174   6.496
 5582SOL    HW217646   3.479   4.056   6.430
 5583SOL     OW17647   4.838   0.949   2.884
 5583SOL    HW117648   4.849   0.937   2.785
 5583SOL    HW217649   4.744   0.930   2.910
 5584SOL     OW17650   0.183   4.068   4.706
 5584SOL    HW117651   0.225   4.068   4.797
 5584SOL    HW217652   0.084   4.060   4.714
 5585SOL     OW17653   5.766   5.411   3.319
 5585SOL    HW117654   5.681   5.422   3.370
 5585SOL    HW217655   5.750   5.432   3.223
 5586SOL     OW17656   0.448   3.463   6.088
 5586SOL    HW117657   0.510   3.395   6.048
 5586SOL    HW217658   0.491   3.503   6.168
 5587SOL     OW17659   4.421   6.636   0.873
 5587SOL    HW117660   4.361   6.672   0.945
 5587SOL    HW217661   4.367   6.619   0.791
 5588SOL     OW17662   2.277   5.269   3.067
 5588SOL    HW117663   2.366   5.280   3.023
 5588SOL    HW217664   2.233   5.358   3.077
 5589SOL     OW17665   6.348   3.670   5.726
 5589SOL    HW117666   6.367   3.575   5.752
 5589SOL    HW217667   6.434   3.719   5.713
 5590SOL     OW17668   0.204   6.129   3.655
 5590SOL    HW117669   0.243   6.044   3.692
 5590SOL    HW217670   0.266   6.167   3.587
 5591SOL     OW17671   5.849   2.017   1.598
 5591SOL    HW117672   5.856   2.070   1.514
 5591SOL    HW217673   5.843   1.919   1.576
 5592SOL     OW17674   1.911   5.956   3.103
 5592SOL    HW117675   1.991   6.000   3.143
 5592SOL    HW217676   1.927   5.857   3.097
 5593SOL     OW17677   0.678   2.837   0.668
 5593SOL    HW117678   0.767   2.796   0.652
 5593SOL    HW217679   0.609   2.792   0.610
 5594SOL     OW17680   5.184   0.849   5.985
 5594SOL    HW117681   5.189   0.793   5.902
 5594SOL    HW217682   5.215   0.795   6.063
 5595SOL     OW17683   0.423   1.497   4.713
 5595SOL    HW117684   0.433   1.594   4.737
 5595SOL    HW217685   0.334   1.465   4.746
 5596SOL     OW17686   4.643   0.388   2.623
 5596SOL    HW117687   4.616   0.482   2.605
 5596SOL    HW217688   4.742   0.381   2.627
 5597SOL     OW17689   4.897   2.907   4.460
 5597SOL    HW117690   4.981   2.854   4.471
 5597SOL    HW217691   4.904   2.964   4.378
 5598SOL     OW17692   5.115   3.720   4.190
 5598SOL    HW117693   5.104   3.765   4.102
 5598SOL    HW217694   5.170   3.778   4.250
 5599SOL     OW17695   1.024   2.257   3.430
 5599SOL    HW117696   0.987   2.175   3.386
 5599SOL    HW217697   0.995   2.259   3.526
 5600SOL     OW17698   1.527   1.164   1.700
 5600SOL    HW117699   1.614   1.139   1.657
 5600SOL    HW217700   1.543   1.231   1.772
 5601SOL     OW17701   1.922   0.650   5.945
 5601SOL    HW117702   1.961   0.560   5.961
 5601SOL    HW217703   1.953   0.685   5.857
 5602SOL     OW17704   6.280   1.623   1.252
 5602SOL    HW117705   6.335   1.592   1.329
 5602SOL    HW217706   6.196   1.570   1.247
 5603SOL     OW17707   5.832   2.501   6.433
 5603SOL    HW117708   5.760   2.521   6.366
 5603SOL    HW217709   5.860   2.585   6.479
 5604SOL     OW17710   6.233   1.841   5.025
 5604SOL    HW117711   6.264   1.916   5.084
 5604SOL    HW217712   6.241   1.869   4.929
 5605SOL     OW17713   6.943   1.676   4.741
 5605SOL    HW117714   6.916   1.643   4.651
 5605SOL    HW217715   6.913   1.610   4.811
 5606SOL     OW17716   4.904   6.750   0.415
 5606SOL    HW117717   4.979   6.813   0.396
 5606SOL    HW217718   4.854   6.732   0.331
 5607SOL     OW17719   5.635   1.160   2.822
 5607SOL    HW117720   5.685   1.180   2.737
 5607SOL    HW217721   5.685   1.198   2.900
 5608SOL     OW17722   5.106   0.000   4.493
 5608SOL    HW117723   5.205   0.001   4.506
 5608SOL    HW217724   5.086   7.018   4.396
 5609SOL     OW17725   3.202   6.404   1.189
 5609SOL    HW117726   3.229   6.499   1.199
 5609SOL    HW217727   3.276   6.344   1.221
 5610SOL     OW17728   3.678   6.271   0.527
 5610SOL    HW117729   3.647   6.305   0.438
 5610SOL    HW217730   3.607   6.286   0.595
 5611SOL     OW17731   0.989   5.798   2.722
 5611SOL    HW117732   0.912   5.859   2.704
 5611SOL    HW217733   0.958   5.720   2.776
 5612SOL     OW17734   3.719   2.591   6.934
 5612SOL    HW117735   3.755   2.651   6.863
 5612SOL    HW217736   3.645   2.535   6.897
 5613SOL     OW17737   5.692   4.083   3.595
 5613SOL    HW117738   5.755   4.111   3.668
 5613SOL    HW217739   5.599   4.081   3.630
 5614SOL     OW17740   4.337   1.824   4.191
 5614SOL    HW117741   4.431   1.788   4.192
 5614SOL    HW217742   4.280   1.770   4.252
 5615SOL     OW17743   0.408   1.726   4.279
 5615SOL    HW117744   0.387   1.738   4.377
 5615SOL    HW217745   0.375   1.806   4.229
 5616SOL     OW17746   2.472   2.108   4.831
 5616SOL    HW117747   2.549   2.140   4.886
 5616SOL    HW217748   2.506   2.048   4.758
 5617SOL     OW17749   2.840   6.988   5.976
 5617SOL    HW117750   2.824   6.960   6.071
 5617SOL    HW217751   2.903   0.041   5.974
 5618SOL     OW17752   0.018   4.510   3.882
 5618SOL    HW117753   0.062   4.509   3.971
 5618SOL    HW217754   7.009   4.602   3.861
 5619SOL     OW17755   2.802   3.668   5.859
 5619SOL    HW117756   2.853   3.599   5.910
 5619SOL    HW217757   2.865   3.722   5.803
 5620SOL     OW17758   4.587   3.746   1.133
 5620SOL    HW117759   4.522   3.703   1.197
 5620SOL    HW217760   4.587   3.696   1.047
 5621SOL     OW17761   2.355   1.641   6.722
 5621SOL    HW117762   2.446   1.668   6.689
 5621SOL    HW217763   2.361   1.550   6.764
 5622SOL     OW17764   4.957   0.285   6.398
 5622SOL    HW117765   4.997   0.238   6.319
 5622SOL    HW217766   4.874   0.334   6.369
 5623SOL     OW17767   2.746   5.741   4.826
 5623SOL    HW117768   2.686   5.661   4.816
 5623SOL    HW217769   2.825   5.716   4.882
 5624SOL     OW17770   1.132   4.378   3.867
 5624SOL    HW117771   1.033   4.386   3.856
 5624SOL    HW217772   1.161   4.288   3.835
 5625SOL     OW17773   6.427   1.654   4.925
 5625SOL    HW117774   6.361   1.728   4.925
 5625SOL    HW217775   6.494   1.669   4.998
 5626SOL     OW17776   2.708   6.177   4.287
 5626SOL    HW117777   2.677   6.260   4.240
 5626SOL    HW217778   2.631   6.138   4.338
 5627SOL     OW17779   0.875   5.844   6.265
 5627SOL    HW117780   0.880   5.773   6.194
 5627SOL    HW217781   0.938   5.820   6.340
 5628SOL     OW17782   1.125   2.556   0.460
 5628SOL    HW117783   1.201   2.498   0.432
 5628SOL    HW217784   1.038   2.511   0.439
 5629SOL     OW17785   3.565   3.941   2.641
 5629SOL    HW117786   3.599   3.932   2.734
 5629SOL    HW217787   3.532   4.034   2.627
 5630SOL     OW17788   1.977   4.167   0.407
 5630SOL    HW117789   2.025   4.184   0.321
 5630SOL    HW217790   1.907   4.236   0.420
 5631SOL     OW17791   4.632   1.758   0.712
 5631SOL    HW117792   4.707   1.701   0.681
 5631SOL    HW217793   4.553   1.746   0.651
 5632SOL     OW17794   3.222   2.529   5.933
 5632SOL    HW117795   3.203   2.435   5.908
 5632SOL    HW217796   3.303   2.561   5.883
 5633SOL     OW17797   6.205   3.626   4.054
 5633SOL    HW117798   6.291   3.576   4.056
 5633SOL    HW217799   6.217   3.712   4.005
 5634SOL     OW17800   2.627   5.222   4.352
 5634SOL    HW117801   2.691   5.273   4.294
 5634SOL    HW217802   2.534   5.247   4.329
 5635SOL     OW17803   2.233   4.000   5.496
 5635SOL    HW117804   2.295   4.071   5.461
 5635SOL    HW217805   2.219   3.931   5.425
 5636SOL     OW17806   4.104   6.462   4.328
 5636SOL    HW117807   4.198   6.488   4.351
 5636SOL    HW217808   4.071   6.520   4.254
 5637SOL     OW17809   4.998   6.441   3.379
 5637SOL    HW117810   4.940   6.433   3.460
 5637SOL    HW217811   4.985   6.531   3.337
 5638SOL     OW17812   6.109   3.574   1.072
 5638SOL    HW117813   6.191   3.628   1.092
 5638SOL    HW217814   6.065   3.547   1.158
 5639SOL     OW17815   0.765   1.055   1.172
 5639SOL    HW117816   0.762   1.084   1.267
 5639SOL    HW217817   0.747   1.134   1.112
 5640SOL     OW17818   2.788   0.294   3.937
 5640SOL    HW117819   2.847   0.363   3.895
 5640SOL    HW217820   2.701   0.291   3.889
 5641SOL     OW17821   1.220   5.419   5.361
 5641SOL    HW117822   1.230   5.322   5.383
 5641SOL    HW217823   1.145   5.458   5.413
 5642SOL     OW17824   1.625   6.915   5.536
 5642SOL    HW117825   1.652   6.828   5.495
 5642SOL    HW217826   1.626   6.987   5.466
 5643SOL     OW17827   4.550   1.852   4.853
 5643SOL    HW117828   4.557   1.950   4.832
 5643SOL    HW217829   4.478   1.838   4.921
 5644SOL     OW17830   3.172   0.367   4.943
 5644SOL    HW117831   3.234   0.294   4.916
 5644SOL    HW217832   3.210   0.415   5.023
 5645SOL     OW17833   6.425   4.247   4.008
 5645SOL    HW117834   6.399   4.299   4.089
 5645SOL    HW217835   6.343   4.211   3.963
 5646SOL     OW17836   1.646   5.482   3.346
 5646SOL    HW117837   1.621   5.573   3.314
 5646SOL    HW217838   1.618   5.414   3.278
 5647SOL     OW17839   5.247   6.359   1.121
 5647SOL    HW117840   5.311   6.368   1.044
 5647SOL    HW217841   5.193   6.276   1.109
 5648SOL     OW17842   2.172   5.314   2.739
 5648SOL    HW117843   2.141   5.331   2.645
 5648SOL    HW217844   2.265   5.278   2.737
 5649SOL     OW17845   0.698   6.717   4.226
 5649SOL    HW117846   0.798   6.711   4.228
 5649SOL    HW217847   0.665   6.669   4.145
 5650SOL     OW17848   1.291   4.539   1.629
 5650SOL    HW117849   1.202   4.556   1.671
 5650SOL    HW217850   1.362   4.582   1.683
 5651SOL     OW17851   2.323   1.432   0.442
 5651SOL    HW117852   2.418   1.406   0.457
 5651SOL    HW217853   2.278   1.446   0.531
 5652SOL     OW17854   6.353   5.869   1.030
 5652SOL    HW117855   6.270   5.828   1.067
 5652SOL    HW217856   6.332   5.913   0.942
 5653SOL     OW17857   6.746   6.672   6.270
 5653SOL    HW117858   6.680   6.641   6.338
 5653SOL    HW217859   6.826   6.612   6.270
 5654SOL     OW17860   0.746   6.170   4.460
 5654SOL    HW117861   0.663   6.123   4.491
 5654SOL    HW217862   0.825   6.111   4.473
 5655SOL     OW17863   0.224   2.980   4.050
 5655SOL    HW117864   0.271   3.033   4.121
 5655SOL    HW217865   0.292   2.939   3.989
 5656SOL     OW17866   6.802   4.103   6.604
 5656SOL    HW117867   6.733   4.031   6.597
 5656SOL    HW217868   6.884   4.076   6.553
 5657SOL     OW17869   5.290   3.119   5.520
 5657SOL    HW117870   5.222   3.166   5.576
 5657SOL    HW217871   5.253   3.101   5.429
 5658SOL     OW17872   2.724   3.254   6.381
 5658SOL    HW117873   2.758   3.160   6.384
 5658SOL    HW217874   2.766   3.302   6.304
 5659SOL     OW17875   4.187   3.459   6.344
 5659SOL    HW117876   4.095   3.442   6.380
 5659SOL    HW217877   4.179   3.502   6.253
 5660SOL     OW17878   4.887   6.718   5.717
 5660SOL    HW117879   4.921   6.625   5.728
 5660SOL    HW217880   4.789   6.720   5.739
 5661SOL     OW17881   1.678   5.942   4.520
 5661SOL    HW117882   1.738   6.022   4.511
 5661SOL    HW217883   1.730   5.859   4.500
 5662SOL     OW17884   2.754   6.798   2.755
 5662SOL    HW117885   2.722   6.828   2.846
 5662SOL    HW217886   2.772   6.878   2.698
 5663SOL     OW17887   2.323   1.953   0.831
 5663SOL    HW117888   2.351   1.898   0.752
 5663SOL    HW217889   2.391   2.024   0.847
 5664SOL     OW17890   6.604   3.566   3.931
 5664SOL    HW117891   6.599   3.474   3.892
 5664SOL    HW217892   6.672   3.568   4.004
 5665SOL     OW17893   1.020   0.026   0.884
 5665SOL    HW117894   1.118   0.010   0.871
 5665SOL    HW217895   0.968   6.985   0.827
 5666SOL     OW17896   6.257   0.360   3.925
 5666SOL    HW117897   6.305   0.446   3.909
 5666SOL    HW217898   6.289   0.319   4.010
 5667SOL     OW17899   1.703   5.274   4.687
 5667SOL    HW117900   1.714   5.196   4.748
 5667SOL    HW217901   1.791   5.319   4.675
 5668SOL     OW17902   6.253   3.256   3.555
 5668SOL    HW117903   6.255   3.199   3.472
 5668SOL    HW217904   6.159   3.262   3.589
 5669SOL     OW17905   6.556   4.463   0.908
 5669SOL    HW117906   6.647   4.438   0.874
 5669SOL    HW217907   6.527   4.547   0.864
 5670SOL     OW17908   1.383   3.246   3.832
 5670SOL    HW117909   1.290   3.230   3.801
 5670SOL    HW217910   1.438   3.164   3.816
 5671SOL     OW17911   6.105   6.421   5.643
 5671SOL    HW117912   6.132   6.456   5.733
 5671SOL    HW217913   6.111   6.494   5.575
 5672SOL     OW17914   5.373   4.439   5.696
 5672SOL    HW117915   5.351   4.353   5.743
 5672SOL    HW217916   5.358   4.515   5.759
 5673SOL     OW17917   1.522   6.458   1.089
 5673SOL    HW117918   1.481   6.376   1.049
 5673SOL    HW217919   1.613   6.472   1.050
 5674SOL     OW17920   1.865   4.642   4.984
 5674SOL    HW117921   1.951   4.676   4.945
 5674SOL    HW217922   1.872   4.642   5.084
 5675SOL     OW17923   4.596   2.699   6.952
 5675SOL    HW117924   4.568   2.763   7.024
 5675SOL    HW217925   4.573   2.737   6.863
 5676SOL     OW17926   2.717   1.702   2.202
 5676SOL    HW117927   2.640   1.762   2.221
 5676SOL    HW217928   2.802   1.747   2.229
 5677SOL     OW17929   0.716   0.909   0.638
 5677SOL    HW117930   0.713   1.009   0.637
 5677SOL    HW217931   0.663   0.875   0.715
 5678SOL     OW17932   4.257   0.946   2.610
 5678SOL    HW117933   4.161   0.971   2.619
 5678SOL    HW217934   4.276   0.865   2.665
 5679SOL     OW17935   5.812   1.515   4.027
 5679SOL    HW117936   5.805   1.462   3.943
 5679SOL    HW217937   5.755   1.597   4.019
 5680SOL     OW17938   1.790   5.423   6.373
 5680SOL    HW117939   1.829   5.470   6.452
 5680SOL    HW217940   1.745   5.339   6.402
 5681SOL     OW17941   0.526   3.826   2.388
 5681SOL    HW117942   0.538   3.758   2.315
 5681SOL    HW217943   0.612   3.875   2.402
 5682SOL     OW17944   2.715   5.526   4.444
 5682SOL    HW117945   2.648   5.575   4.388
 5682SOL    HW217946   2.770   5.466   4.385
 5683SOL     OW17947   3.609   2.259   6.205
 5683SOL    HW117948   3.625   2.161   6.194
 5683SOL    HW217949   3.682   2.310   6.159
 5684SOL     OW17950   1.852   3.649   5.943
 5684SOL    HW117951   1.924   3.587   5.971
 5684SOL    HW217952   1.791   3.602   5.879
 5685SOL     OW17953   2.256   1.937   2.998
 5685SOL    HW117954   2.219   1.997   2.927
 5685SOL    HW217955   2.238   1.976   3.088
 5686SOL     OW17956   2.614   1.507   4.929
 5686SOL    HW117957   2.648   1.480   4.839
 5686SOL    HW217958   2.656   1.451   4.999
 5687SOL     OW17959   0.822   6.096   5.704
 5687SOL    HW117960   0.872   6.145   5.775
 5687SOL    HW217961   0.879   6.087   5.623
 5688SOL     OW17962   1.606   2.527   3.156
 5688SOL    HW117963   1.530   2.462   3.156
 5688SOL    HW217964   1.600   2.585   3.074
 5689SOL     OW17965   2.697   0.711   1.804
 5689SOL    HW117966   2.639   0.642   1.848
 5689SOL    HW217967   2.776   0.666   1.763
 5690SOL     OW17968   1.426   5.834   6.846
 5690SOL    HW117969   1.459   5.906   6.785
 5690SOL    HW217970   1.498   5.812   6.913
 5691SOL     OW17971   3.726   0.518   2.034
 5691SOL    HW117972   3.825   0.530   2.027
 5691SOL    HW217973   3.681   0.577   1.967
 5692SOL     OW17974   4.886   4.839   1.233
 5692SOL    HW117975   4.878   4.772   1.159
 5692SOL    HW217976   4.925   4.923   1.197
 5693SOL     OW17977   4.540   0.654   1.552
 5693SOL    HW117978   4.501   0.669   1.643
 5693SOL    HW217979   4.613   0.720   1.535
 5694SOL     OW17980   0.804   0.608   2.459
 5694SOL    HW117981   0.816   0.590   2.557
 5694SOL    HW217982   0.887   0.649   2.423
 5695SOL     OW17983   1.292   1.118   2.935
 5695SOL    HW117984   1.216   1.168   2.976
 5695SOL    HW217985   1.277   1.110   2.837
 5696SOL     OW17986   1.114   6.541   4.362
 5696SOL    HW117987   1.083   6.605   4.291
 5696SOL    HW217988   1.035   6.501   4.408
 5697SOL     OW17989   5.885   2.562   2.153
 5697SOL    HW117990   5.834   2.487   2.195
 5697SOL    HW217991   5.851   2.578   2.061
 5698SOL     OW17992   1.602   4.397   4.603
 5698SOL    HW117993   1.641   4.314   4.563
 5698SOL    HW217994   1.609   4.472   4.537
 5699SOL     OW17995   1.544   2.141   2.796
 5699SOL    HW117996   1.503   2.224   2.758
 5699SOL    HW217997   1.642   2.139   2.774
 5700SOL     OW17998   6.534   6.689   3.361
 5700SOL    HW117999   6.632   6.668   3.356
 5700SOL    HW218000   6.520   6.787   3.343
 5701SOL     OW18001   6.948   0.446   1.706
 5701SOL    HW118002   7.015   0.379   1.675
 5701SOL    HW218003   6.896   0.407   1.783
 5702SOL     OW18004   2.114   6.317   4.067
 5702SOL    HW118005   2.040   6.350   4.125
 5702SOL    HW218006   2.077   6.256   3.997
 5703SOL     OW18007   0.029   4.404   6.593
 5703SOL    HW118008   0.084   4.463   6.651
 5703SOL    HW218009   6.961   4.393   6.632
 5704SOL     OW18010   4.895   3.975   3.077
 5704SOL    HW118011   4.978   3.974   3.021
 5704SOL    HW218012   4.920   3.978   3.174
 5705SOL     OW18013   5.052   5.637   6.490
 5705SOL    HW118014   5.051   5.606   6.585
 5705SOL    HW218015   5.135   5.603   6.444
 5706SOL     OW18016   5.340   2.195   1.997
 5706SOL    HW118017   5.410   2.163   1.932
 5706SOL    HW218018   5.256   2.143   1.983
 5707SOL     OW18019   6.419   0.391   0.815
 5707SOL    HW118020   6.332   0.390   0.765
 5707SOL    HW218021   6.404   0.361   0.909
 5708SOL     OW18022   5.347   5.986   2.647
 5708SOL    HW118023   5.388   6.074   2.667
 5708SOL    HW218024   5.326   5.980   2.550
 5709SOL     OW18025   0.408   1.189   2.667
 5709SOL    HW118026   0.474   1.119   2.640
 5709SOL    HW218027   0.394   1.253   2.592
 5710SOL     OW18028   3.080   2.139   0.384
 5710SOL    HW118029   3.050   2.058   0.334
 5710SOL    HW218030   3.130   2.111   0.466
 5711SOL     OW18031   5.125   0.926   1.580
 5711SOL    HW118032   5.092   0.836   1.611
 5711SOL    HW218033   5.078   0.998   1.631
 5712SOL     OW18034   6.279   6.765   0.080
 5712SOL    HW118035   6.186   6.740   0.106
 5712SOL    HW218036   6.321   6.689   0.030
 5713SOL     OW18037   3.226   4.231   1.769
 5713SOL    HW118038   3.127   4.214   1.765
 5713SOL    HW218039   3.274   4.152   1.730
 5714SOL     OW18040   6.696   6.179   1.146
 5714SOL    HW118041   6.699   6.268   1.101
 5714SOL    HW218042   6.790   6.144   1.155
 5715SOL     OW18043   0.166   7.000   2.320
 5715SOL    HW118044   0.132   6.907   2.333
 5715SOL    HW218045   0.262   6.996   2.290
 5716SOL     OW18046   1.110   5.851   5.588
 5716SOL    HW118047   1.199   5.895   5.582
 5716SOL    HW218048   1.038   5.915   5.562
 5717SOL     OW18049   1.879   5.048   1.579
 5717SOL    HW118050   1.924   4.961   1.598
 5717SOL    HW218051   1.863   5.056   1.480
 5718SOL     OW18052   1.675   3.420   0.124
 5718SOL    HW118053   1.589   3.376   0.099
 5718SOL    HW218054   1.656   3.511   0.163
 5719SOL     OW18055   2.399   3.413   0.434
 5719SOL    HW118056   2.330   3.456   0.375
 5719SOL    HW218057   2.355   3.371   0.513
 5720SOL     OW18058   1.753   6.829   4.770
 5720SOL    HW118059   1.778   6.925   4.771
 5720SOL    HW218060   1.745   6.795   4.863
 5721SOL     OW18061   5.794   4.321   0.971
 5721SOL    HW118062   5.712   4.322   0.914
 5721SOL    HW218063   5.771   4.354   1.062
 5722SOL     OW18064   6.645   2.670   5.398
 5722SOL    HW118065   6.627   2.699   5.304
 5722SOL    HW218066   6.558   2.649   5.443
 5723SOL     OW18067   4.545   3.916   6.947
 5723SOL    HW118068   4.458   3.952   6.982
 5723SOL    HW218069   4.554   3.820   6.973
 5724SOL     OW18070   6.056   2.830   4.102
 5724SOL    HW118071   6.108   2.749   4.073
 5724SOL    HW218072   6.066   2.902   4.033
 5725SOL     OW18073   6.877   4.453   4.364
 5725SOL    HW118074   6.974   4.455   4.339
 5725SOL    HW218075   6.867   4.413   4.455
 5726SOL     OW18076   6.618   5.122   4.203
 5726SOL    HW118077   6.545   5.095   4.140
 5726SOL    HW218078   6.612   5.220   4.219
 5727SOL     OW18079   6.539   2.529   4.471
 5727SOL    HW118080   6.512   2.514   4.566
 5727SOL    HW218081   6.542   2.627   4.452
 5728SOL     OW18082   5.145   6.160   5.608
 5728SOL    HW118083   5.180   6.253   5.596
 5728SOL    HW218084   5.066   6.147   5.548
 5729SOL     OW18085   1.793   1.721   6.735
 5729SOL    HW118086   1.798   1.815   6.771
 5729SOL    HW218087   1.868   1.707   6.670
 5730SOL     OW18088   6.417   4.338   6.554
 5730SOL    HW118089   6.495   4.297   6.507
 5730SOL    HW218090   6.344   4.270   6.563
 5731SOL     OW18091   6.779   0.056   2.399
 5731SOL    HW118092   6.829   0.136   2.365
 5731SOL    HW218093   6.756   7.020   2.323
 5732SOL     OW18094   0.777   6.443   3.807
 5732SOL    HW118095   0.705   6.385   3.844
 5732SOL    HW218096   0.818   6.398   3.728
 5733SOL     OW18097   3.892   6.442   5.090
 5733SOL    HW118098   3.941   6.395   5.164
 5733SOL    HW218099   3.855   6.375   5.027
 5734SOL     OW18100   1.062   0.338   5.273
 5734SOL    HW118101   1.155   0.331   5.236
 5734SOL    HW218102   1.018   0.420   5.236
 5735SOL     OW18103   3.440   1.472   0.773
 5735SOL    HW118104   3.449   1.387   0.721
 5735SOL    HW218105   3.494   1.465   0.857
 5736SOL     OW18106   0.039   4.628   6.965
 5736SOL    HW118107   0.098   4.613   6.886
 5736SOL    HW218108   7.005   4.547   6.979
 5737SOL     OW18109   5.407   5.679   0.501
 5737SOL    HW118110   5.393   5.687   0.402
 5737SOL    HW218111   5.382   5.765   0.545
 5738SOL     OW18112   1.815   3.155   6.429
 5738SOL    HW118113   1.907   3.192   6.436
 5738SOL    HW218114   1.772   3.187   6.344
 5739SOL     OW18115   1.614   1.320   6.193
 5739SOL    HW118116   1.662   1.405   6.171
 5739SOL    HW218117   1.556   1.293   6.116
 5740SOL     OW18118   4.367   5.628   0.365
 5740SOL    HW118119   4.275   5.637   0.327
 5740SOL    HW218120   4.431   5.683   0.311
 5741SOL     OW18121   0.231   5.608   4.032
 5741SOL    HW118122   0.152   5.552   4.055
 5741SOL    HW218123   0.232   5.690   4.088
 5742SOL     OW18124   4.887   6.222   2.568
 5742SOL    HW118125   4.869   6.126   2.591
 5742SOL    HW218126   4.895   6.275   2.653
 5743SOL     OW18127   3.098   6.240   4.872
 5743SOL    HW118128   3.020   6.230   4.933
 5743SOL    HW218129   3.067   6.246   4.778
 5744SOL     OW18130   4.630   0.230   0.961
 5744SOL    HW118131   4.561   0.252   1.030
 5744SOL    HW218132   4.636   0.304   0.894
 5745SOL     OW18133   3.206   1.364   4.344
 5745SOL    HW118134   3.206   1.360   4.444
 5745SOL    HW218135   3.162   1.449   4.314
 5746SOL     OW18136   4.826   0.975   0.996
 5746SOL    HW118137   4.851   0.930   1.081
 5746SOL    HW218138   4.865   1.068   0.995
 5747SOL     OW18139   0.554   5.192   2.909
 5747SOL    HW118140   0.512   5.218   2.822
 5747SOL    HW218141   0.634   5.134   2.892
 5748SOL     OW18142   1.837   5.031   1.301
 5748SOL    HW118143   1.787   4.950   1.331
 5748SOL    HW218144   1.775   5.093   1.253
 5749SOL     OW18145   2.518   1.205   4.145
 5749SOL    HW118146   2.506   1.265   4.224
 5749SOL    HW218147   2.462   1.123   4.155
 5750SOL     OW18148   5.962   5.315   4.764
 5750SOL    HW118149   6.023   5.371   4.708
 5750SOL    HW218150   5.923   5.370   4.837
 5751SOL     OW18151   2.337   2.518   5.030
 5751SOL    HW118152   2.380   2.428   5.038
 5751SOL    HW218153   2.378   2.581   5.096
 5752SOL     OW18154   5.984   1.365   6.216
 5752SOL    HW118155   5.968   1.275   6.176
 5752SOL    HW218156   5.972   1.360   6.315
 5753SOL     OW18157   3.266   3.392   6.271
 5753SOL    HW118158   3.206   3.341   6.333
 5753SOL    HW218159   3.262   3.350   6.180
 5754SOL     OW18160   5.935   5.540   1.518
 5754SOL    HW118161   6.018   5.519   1.466
 5754SOL    HW218162   5.957   5.606   1.590
 5755SOL     OW18163   2.685   3.544   6.168
 5755SOL    HW118164   2.605   3.486   6.186
 5755SOL    HW218165   2.767   3.486   6.161
 5756SOL     OW18166   6.666   5.220   3.560
 5756SOL    HW118167   6.754   5.261   3.533
 5756SOL    HW218168   6.624   5.177   3.480
 5757SOL     OW18169   6.301   6.529   1.684
 5757SOL    HW118170   6.307   6.430   1.669
 5757SOL    HW218171   6.337   6.577   1.605
 5758SOL     OW18172   2.752   2.164   4.459
 5758SOL    HW118173   2.747   2.235   4.388
 5758SOL    HW218174   2.678   2.099   4.446
 5759SOL     OW18175   4.903   2.328   6.890
 5759SOL    HW118176   4.903   2.314   6.989
 5759SOL    HW218177   4.885   2.425   6.871
 5760SOL     OW18178   1.416   6.054   2.135
 5760SOL    HW118179   1.502   6.085   2.094
 5760SOL    HW218180   1.365   6.001   2.068
 5761SOL     OW18181   5.931   6.990   5.198
 5761SOL    HW118182   5.994   0.008   5.264
 5761SOL    HW218183   5.837   7.014   5.222
 5762SOL     OW18184   5.691   0.112   0.266
 5762SOL    HW118185   5.752   0.170   0.320
 5762SOL    HW218186   5.596   0.132   0.290
 5763SOL     OW18187   0.977   6.392   0.832
 5763SOL    HW118188   0.988   6.490   0.848
 5763SOL    HW218189   0.918   6.377   0.752
 5764SOL     OW18190   5.929   4.758   5.697
 5764SOL    HW118191   5.939   4.842   5.750
 5764SOL    HW218192   5.997   4.691   5.727
 5765SOL     OW18193   6.355   4.421   6.826
 5765SOL    HW118194   6.383   4.408   6.731
 5765SOL    HW218195   6.436   4.421   6.884
 5766SOL     OW18196   3.026   1.134   2.150
 5766SOL    HW118197   3.082   1.124   2.067
 5766SOL    HW218198   3.028   1.229   2.180
 5767SOL     OW18199   1.363   6.506   0.574
 5767SOL    HW118200   1.451   6.554   0.574
 5767SOL    HW218201   1.349   6.462   0.486
 5768SOL     OW18202   0.042   0.400   3.021
 5768SOL    HW118203   7.017   0.405   3.108
 5768SOL    HW218204   7.024   0.331   2.962
 5769SOL     OW18205   3.004   6.750   3.277
 5769SOL    HW118206   3.036   6.809   3.203
 5769SOL    HW218207   3.061   6.668   3.282
 5770SOL     OW18208   6.985   0.145   0.923
 5770SOL    HW118209   6.907   0.194   0.963
 5770SOL    HW218210   6.986   0.051   0.956
 5771SOL     OW18211   1.330   0.177   1.036
 5771SOL    HW118212   1.268   0.214   1.106
 5771SOL    HW218213   1.297   0.202   0.945
 5772SOL     OW18214   5.957   2.564   0.691
 5772SOL    HW118215   5.933   2.661   0.701
 5772SOL    HW218216   5.980   2.546   0.595
 5773SOL     OW18217   5.398   6.648   4.056
 5773SOL    HW118218   5.459   6.721   4.086
 5773SOL    HW218219   5.448   6.561   4.056
 5774SOL     OW18220   2.445   4.418   2.914
 5774SOL    HW118221   2.380   4.470   2.859
 5774SOL    HW218222   2.537   4.453   2.899
 5775SOL     OW18223   0.606   0.280   0.200
 5775SOL    HW118224   0.509   0.299   0.211
 5775SOL    HW218225   0.620   0.181   0.194
 5776SOL     OW18226   5.691   1.013   6.641
 5776SOL    HW118227   5.663   0.951   6.715
 5776SOL    HW218228   5.609   1.045   6.593
 5777SOL     OW18229   5.936   0.702   4.230
 5777SOL    HW118230   5.969   0.785   4.185
 5777SOL    HW218231   5.977   0.622   4.186
 5778SOL     OW18232   2.438   0.681   2.569
 5778SOL    HW118233   2.408   0.718   2.657
 5778SOL    HW218234   2.360   0.672   2.507
 5779SOL     OW18235   3.716   0.718   1.161
 5779SOL    HW118236   3.695   0.657   1.085
 5779SOL    HW218237   3.648   0.792   1.165
 5780SOL     OW18238   6.103   4.841   1.787
 5780SOL    HW118239   6.149   4.892   1.714
 5780SOL    HW218240   6.084   4.902   1.864
 5781SOL     OW18241   1.702   4.014   4.890
 5781SOL    HW118242   1.669   4.092   4.943
 5781SOL    HW218243   1.794   3.988   4.922
 5782SOL     OW18244   1.376   0.730   1.644
 5782SOL    HW118245   1.342   0.813   1.599
 5782SOL    HW218246   1.468   0.709   1.610
 5783SOL     OW18247   1.934   1.278   0.415
 5783SOL    HW118248   1.876   1.275   0.496
 5783SOL    HW218249   1.949   1.185   0.382
 5784SOL     OW18250   0.446   6.148   0.481
 5784SOL    HW118251   0.435   6.049   0.482
 5784SOL    HW218252   0.475   6.180   0.571
 5785SOL     OW18253   1.344   0.930   0.743
 5785SOL    HW118254   1.439   0.955   0.763
 5785SOL    HW218255   1.301   0.894   0.826
 5786SOL     OW18256   1.399   3.742   1.832
 5786SOL    HW118257   1.353   3.777   1.914
 5786SOL    HW218258   1.371   3.798   1.754
 5787SOL     OW18259   5.541   2.334   4.114
 5787SOL    HW118260   5.532   2.265   4.042
 5787SOL    HW218261   5.627   2.321   4.162
 5788SOL     OW18262   3.307   0.297   1.855
 5788SOL    HW118263   3.354   0.373   1.809
 5788SOL    HW218264   3.209   0.305   1.842
 5789SOL     OW18265   3.819   2.789   0.474
 5789SOL    HW118266   3.799   2.724   0.547
 5789SOL    HW218267   3.822   2.882   0.511
 5790SOL     OW18268   6.157   5.540   4.717
 5790SOL    HW118269   6.141   5.637   4.697
 5790SOL    HW218270   6.174   5.529   4.815
 5791SOL     OW18271   2.928   1.966   2.606
 5791SOL    HW118272   2.900   2.002   2.695
 5791SOL    HW218273   2.960   1.872   2.617
 5792SOL     OW18274   4.886   3.303   3.068
 5792SOL    HW118275   4.877   3.355   2.982
 5792SOL    HW218276   4.848   3.212   3.056
 5793SOL     OW18277   6.242   2.464   5.221
 5793SOL    HW118278   6.187   2.394   5.267
 5793SOL    HW218279   6.325   2.482   5.275
 5794SOL     OW18280   2.906   6.593   6.052
 5794SOL    HW118281   2.904   6.580   5.953
 5794SOL    HW218282   2.997   6.622   6.081
 5795SOL     OW18283   1.096   5.479   1.582
 5795SOL    HW118284   1.155   5.399   1.581
 5795SOL    HW218285   1.129   5.544   1.650
 5796SOL     OW18286   4.661   1.901   6.426
 5796SOL    HW118287   4.701   1.993   6.432
 5796SOL    HW218288   4.572   1.901   6.473
 5797SOL     OW18289   5.486   1.932   6.994
 5797SOL    HW118290   5.470   1.997   6.920
 5797SOL    HW218291   5.404   1.926   0.028
 5798SOL     OW18292   0.917   4.010   5.120
 5798SOL    HW118293   0.898   3.948   5.044
 5798SOL    HW218294   0.830   4.045   5.156
 5799SOL     OW18295   1.564   6.316   3.191
 5799SOL    HW118296   1.476   6.285   3.225
 5799SOL    HW218297   1.615   6.238   3.153
 5800SOL     OW18298   0.398   0.186   0.920
 5800SOL    HW118299   0.346   0.138   0.990
 5800SOL    HW218300   0.355   0.274   0.901
 5801SOL     OW18301   2.326   2.752   2.280
 5801SOL    HW118302   2.372   2.694   2.213
 5801SOL    HW218303   2.379   2.753   2.365
 5802SOL     OW18304   6.810   1.739   3.220
 5802SOL    HW118305   6.712   1.746   3.203
 5802SOL    HW218306   6.856   1.706   3.138
 5803SOL     OW18307   2.055   5.111   4.773
 5803SOL    HW118308   2.103   5.165   4.704
 5803SOL    HW218309   2.089   5.136   4.864
 5804SOL     OW18310   6.082   6.331   3.914
 5804SOL    HW118311   6.026   6.327   3.831
 5804SOL    HW218312   6.038   6.388   3.982
 5805SOL     OW18313   1.937   3.535   1.469
 5805SOL    HW118314   1.860   3.536   1.533
 5805SOL    HW218315   1.907   3.499   1.381
 5806SOL     OW18316   0.240   3.184   3.715
 5806SOL    HW118317   0.195   3.249   3.776
 5806SOL    HW218318   0.337   3.180   3.736
 5807SOL     OW18319   1.341   5.798   0.406
 5807SOL    HW118320   1.348   5.894   0.432
 5807SOL    HW218321   1.420   5.772   0.350
 5808SOL     OW18322   6.273   6.651   4.275
 5808SOL    HW118323   6.334   6.615   4.345
 5808SOL    HW218324   6.178   6.644   4.307
 5809SOL     OW18325   0.174   2.374   6.039
 5809SOL    HW118326   0.257   2.334   6.079
 5809SOL    HW218327   0.098   2.363   6.102
 5810SOL     OW18328   4.324   6.752   5.203
 5810SOL    HW118329   4.359   6.724   5.114
 5810SOL    HW218330   4.287   6.845   5.197
 5811SOL     OW18331   3.068   3.184   5.969
 5811SOL    HW118332   3.104   3.131   5.892
 5811SOL    HW218333   3.015   3.125   6.029
 5812SOL     OW18334   5.728   3.087   0.633
 5812SOL    HW118335   5.773   3.001   0.609
 5812SOL    HW218336   5.751   3.111   0.728
 5813SOL     OW18337   4.210   5.948   1.110
 5813SOL    HW118338   4.208   5.950   1.010
 5813SOL    HW218339   4.258   6.028   1.144
 5814SOL     OW18340   6.312   2.011   2.542
 5814SOL    HW118341   6.394   2.066   2.530
 5814SOL    HW218342   6.267   2.037   2.628
 5815SOL     OW18343   6.383   1.046   3.778
 5815SOL    HW118344   6.351   0.979   3.711
 5815SOL    HW218345   6.308   1.104   3.807
 5816SOL     OW18346   0.578   4.763   2.674
 5816SOL    HW118347   0.638   4.688   2.702
 5816SOL    HW218348   0.501   4.727   2.621
 5817SOL     OW18349   5.493   4.050   4.547
 5817SOL    HW118350   5.518   4.037   4.451
 5817SOL    HW218351   5.528   3.975   4.602
 5818SOL     OW18352   1.491   6.999   4.919
 5818SOL    HW118353   1.575   7.022   4.869
 5818SOL    HW218354   1.481   6.899   4.923
 5819SOL     OW18355   3.730   4.761   0.165
 5819SOL    HW118356   3.682   4.758   0.252
 5819SOL    HW218357   3.813   4.815   0.174
 5820SOL     OW18358   5.624   4.760   2.206
 5820SOL    HW118359   5.627   4.842   2.263
 5820SOL    HW218360   5.529   4.732   2.193
 5821SOL     OW18361   6.627   0.915   1.447
 5821SOL    HW118362   6.641   0.817   1.435
 5821SOL    HW218363   6.646   0.963   1.361
 5822SOL     OW18364   1.393   1.915   2.762
 5822SOL    HW118365   1.334   1.917   2.681
 5822SOL    HW218366   1.434   2.005   2.776
 5823SOL     OW18367   2.131   6.763   3.789
 5823SOL    HW118368   2.051   6.822   3.800
 5823SOL    HW218369   2.108   6.669   3.814
 5824SOL     OW18370   0.997   6.765   2.394
 5824SOL    HW118371   0.917   6.819   2.369
 5824SOL    HW218372   1.024   6.707   2.317
 5825SOL     OW18373   6.305   0.377   4.755
 5825SOL    HW118374   6.401   0.351   4.762
 5825SOL    HW218375   6.290   0.425   4.668
 5826SOL     OW18376   0.092   0.437   5.128
 5826SOL    HW118377   0.192   0.443   5.131
 5826SOL    HW218378   0.058   0.409   5.217
 5827SOL     OW18379   1.533   4.016   5.460
 5827SOL    HW118380   1.581   4.072   5.528
 5827SOL    HW218381   1.596   3.990   5.387
 5828SOL     OW18382   5.211   6.773   4.248
 5828SOL    HW118383   5.247   6.754   4.339
 5828SOL    HW218384   5.272   6.735   4.178
 5829SOL     OW18385   1.945   0.838   4.188
 5829SOL    HW118386   1.881   0.806   4.257
 5829SOL    HW218387   1.900   0.906   4.131
 5830SOL     OW18388   3.489   4.960   5.535
 5830SOL    HW118389   3.526   4.963   5.628
 5830SOL    HW218390   3.540   5.024   5.477
 5831SOL     OW18391   1.171   1.051   5.308
 5831SOL    HW118392   1.235   1.045   5.230
 5831SOL    HW218393   1.196   0.983   5.376
 5832SOL     OW18394   3.314   4.559   1.432
 5832SOL    HW118395   3.380   4.633   1.430
 5832SOL    HW218396   3.279   4.547   1.525
 5833SOL     OW18397   4.079   3.726   5.795
 5833SOL    HW118398   4.170   3.685   5.804
 5833SOL    HW218399   4.016   3.680   5.858
 5834SOL     OW18400   6.586   4.372   6.983
 5834SOL    HW118401   6.601   4.298   6.918
 5834SOL    HW218402   6.670   4.426   6.992
 5835SOL     OW18403   5.510   0.409   2.754
 5835SOL    HW118404   5.477   0.315   2.759
 5835SOL    HW218405   5.471   0.462   2.829
 5836SOL     OW18406   4.516   6.417   2.087
 5836SOL    HW118407   4.431   6.462   2.114
 5836SOL    HW218408   4.540   6.445   1.993
 5837SOL     OW18409   3.719   3.929   0.655
 5837SOL    HW118410   3.782   3.855   0.675
 5837SOL    HW218411   3.669   3.955   0.738
 5838SOL     OW18412   2.892   1.827   1.500
 5838SOL    HW118413   2.891   1.926   1.509
 5838SOL    HW218414   2.843   1.786   1.577
 5839SOL     OW18415   1.380   2.233   1.800
 5839SOL    HW118416   1.373   2.137   1.773
 5839SOL    HW218417   1.297   2.259   1.850
 5840SOL     OW18418   0.889   3.697   2.264
 5840SOL    HW118419   0.790   3.684   2.252
 5840SOL    HW218420   0.922   3.637   2.337
 5841SOL     OW18421   4.471   0.829   1.325
 5841SOL    HW118422   4.487   0.926   1.346
 5841SOL    HW218423   4.548   0.794   1.272
 5842SOL     OW18424   3.380   1.868   0.549
 5842SOL    HW118425   3.404   1.824   0.636
 5842SOL    HW218426   3.362   1.965   0.564
 5843SOL     OW18427   1.830   3.398   1.227
 5843SOL    HW118428   1.733   3.380   1.212
 5843SOL    HW218429   1.883   3.363   1.149
 5844SOL     OW18430   0.735   0.117   4.762
 5844SOL    HW118431   0.753   0.215   4.760
 5844SOL    HW218432   0.797   0.073   4.827
 5845SOL     OW18433   0.347   6.500   1.978
 5845SOL    HW118434   0.270   6.438   1.965
 5845SOL    HW218435   0.318   6.593   1.958
 5846SOL     OW18436   6.853   3.805   5.419
 5846SOL    HW118437   6.755   3.816   5.404
 5846SOL    HW218438   6.876   3.708   5.422
 5847SOL     OW18439   2.593   3.087   1.179
 5847SOL    HW118440   2.591   3.185   1.197
 5847SOL    HW218441   2.577   3.037   1.264
 5848SOL     OW18442   2.355   6.125   3.833
 5848SOL    HW118443   2.380   6.162   3.923
 5848SOL    HW218444   2.330   6.029   3.843
 5849SOL     OW18445   2.384   6.661   5.265
 5849SOL    HW118446   2.377   6.664   5.364
 5849SOL    HW218447   2.317   6.596   5.228
 5850SOL     OW18448   1.642   2.246   1.922
 5850SOL    HW118449   1.584   2.189   1.980
 5850SOL    HW218450   1.592   2.274   1.840
 5851SOL     OW18451   5.767   3.299   4.233
 5851SOL    HW118452   5.719   3.387   4.238
 5851SOL    HW218453   5.866   3.315   4.238
 5852SOL     OW18454   4.824   5.587   3.820
 5852SOL    HW118455   4.849   5.548   3.731
 5852SOL    HW218456   4.789   5.515   3.879
 5853SOL     OW18457   3.563   5.051   5.786
 5853SOL    HW118458   3.627   5.122   5.815
 5853SOL    HW218459   3.544   4.990   5.863
 5854SOL     OW18460   3.205   4.447   6.149
 5854SOL    HW118461   3.267   4.460   6.071
 5854SOL    HW218462   3.181   4.537   6.187
 5855SOL     OW18463   2.185   2.500   4.196
 5855SOL    HW118464   2.151   2.506   4.102
 5855SOL    HW218465   2.130   2.558   4.255
 5856SOL     OW18466   1.822   6.549   2.617
 5856SOL    HW118467   1.901   6.494   2.590
 5856SOL    HW218468   1.741   6.491   2.623
 5857SOL     OW18469   0.520   3.198   5.965
 5857SOL    HW118470   0.447   3.151   5.916
 5857SOL    HW218471   0.605   3.147   5.954
 5858SOL     OW18472   1.775   1.321   2.903
 5858SOL    HW118473   1.811   1.364   2.821
 5858SOL    HW218474   1.697   1.263   2.879
 5859SOL     OW18475   5.608   0.239   2.027
 5859SOL    HW118476   5.519   0.254   1.985
 5859SOL    HW218477   5.616   0.295   2.110
 5860SOL     OW18478   6.938   3.543   3.184
 5860SOL    HW118479   6.990   3.479   3.241
 5860SOL    HW218480   6.976   3.543   3.091
 5861SOL     OW18481   5.970   0.799   4.905
 5861SOL    HW118482   5.892   0.738   4.892
 5861SOL    HW218483   6.044   0.750   4.952
 5862SOL     OW18484   6.579   5.805   2.896
 5862SOL    HW118485   6.666   5.804   2.946
 5862SOL    HW218486   6.597   5.818   2.798
 5863SOL     OW18487   3.315   0.538   4.366
 5863SOL    HW118488   3.223   0.522   4.402
 5863SOL    HW218489   3.328   0.636   4.351
 5864SOL     OW18490   3.565   3.809   3.582
 5864SOL    HW118491   3.545   3.711   3.578
 5864SOL    HW218492   3.518   3.849   3.661
 5865SOL     OW18493   6.099   1.042   5.883
 5865SOL    HW118494   6.152   1.093   5.815
 5865SOL    HW218495   6.089   0.947   5.853
 5866SOL     OW18496   3.902   3.449   1.375
 5866SOL    HW118497   3.933   3.407   1.461
 5866SOL    HW218498   3.887   3.377   1.307
 5867SOL     OW18499   2.488   2.107   1.553
 5867SOL    HW118500   2.447   2.146   1.470
 5867SOL    HW218501   2.529   2.019   1.531
 5868SOL     OW18502   0.782   1.529   5.836
 5868SOL    HW118503   0.839   1.599   5.878
 5868SOL    HW218504   0.821   1.439   5.854
 5869SOL     OW18505   0.887   4.603   4.075
 5869SOL    HW118506   0.848   4.688   4.110
 5869SOL    HW218507   0.987   4.606   4.084
 5870SOL     OW18508   4.190   4.862   5.359
 5870SOL    HW118509   4.180   4.937   5.423
 5870SOL    HW218510   4.135   4.880   5.277
 5871SOL     OW18511   2.918   3.356   3.729
 5871SOL    HW118512   3.014   3.333   3.745
 5871SOL    HW218513   2.890   3.316   3.642
 5872SOL     OW18514   4.283   5.841   2.038
 5872SOL    HW118515   4.252   5.815   1.946
 5872SOL    HW218516   4.251   5.933   2.059
 5873SOL     OW18517   3.038   4.939   2.903
 5873SOL    HW118518   2.981   4.878   2.849
 5873SOL    HW218519   3.068   4.892   2.986
 5874SOL     OW18520   2.348   4.306   5.112
 5874SOL    HW118521   2.258   4.339   5.140
 5874SOL    HW218522   2.356   4.209   5.135
 5875SOL     OW18523   3.379   2.103   0.144
 5875SOL    HW118524   3.366   2.174   0.075
 5875SOL    HW218525   3.294   2.051   0.156
 5876SOL     OW18526   3.804   3.608   2.241
 5876SOL    HW118527   3.807   3.557   2.155
 5876SOL    HW218528   3.836   3.550   2.316
 5877SOL     OW18529   5.913   6.175   0.688
 5877SOL    HW118530   5.873   6.121   0.762
 5877SOL    HW218531   5.978   6.242   0.727
 5878SOL     OW18532   1.323   5.344   3.067
 5878SOL    HW118533   1.411   5.318   3.108
 5878SOL    HW218534   1.326   5.440   3.039
 5879SOL     OW18535   6.354   3.582   6.882
 5879SOL    HW118536   6.398   3.651   6.824
 5879SOL    HW218537   6.315   3.511   6.824
 5880SOL     OW18538   2.846   6.066   1.242
 5880SOL    HW118539   2.778   6.080   1.315
 5880SOL    HW218540   2.924   6.126   1.257
 5881SOL     OW18541   0.280   4.451   3.211
 5881SOL    HW118542   0.320   4.361   3.224
 5881SOL    HW218543   0.327   4.518   3.269
 5882SOL     OW18544   5.760   0.662   0.931
 5882SOL    HW118545   5.725   0.613   1.010
 5882SOL    HW218546   5.860   0.659   0.932
 5883SOL     OW18547   0.376   2.534   6.387
 5883SOL    HW118548   0.415   2.616   6.428
 5883SOL    HW218549   0.442   2.459   6.392
 5884SOL     OW18550   1.598   1.305   3.289
 5884SOL    HW118551   1.677   1.352   3.251
 5884SOL    HW218552   1.550   1.256   3.215
 5885SOL     OW18553   6.798   6.629   1.169
 5885SOL    HW118554   6.797   6.722   1.131
 5885SOL    HW218555   6.723   6.619   1.234
 5886SOL     OW18556   0.482   2.540   5.555
 5886SOL    HW118557   0.448   2.544   5.461
 5886SOL    HW218558   0.436   2.609   5.610
 5887SOL     OW18559   3.772   0.954   3.761
 5887SOL    HW118560   3.845   0.986   3.821
 5887SOL    HW218561   3.727   0.876   3.803
 5888SOL     OW18562   2.477   5.869   2.626
 5888SOL    HW118563   2.510   5.923   2.703
 5888SOL    HW218564   2.512   5.906   2.540
 5889SOL     OW18565   1.858   6.938   1.644
 5889SOL    HW118566   1.824   0.007   1.658
 5889SOL    HW218567   1.956   6.941   1.626
 5890SOL     OW18568   1.260   0.036   5.446
 5890SOL    HW118569   1.237   6.983   5.506
 5890SOL    HW218570   1.183   0.055   5.385
 5891SOL     OW18571   3.733   3.625   6.835
 5891SOL    HW118572   3.682   3.541   6.816
 5891SOL    HW218573   3.762   3.626   6.930
 5892SOL     OW18574   0.829   6.123   1.184
 5892SOL    HW118575   0.853   6.200   1.244
 5892SOL    HW218576   0.736   6.092   1.206
 5893SOL     OW18577   1.358   3.209   3.209
 5893SOL    HW118578   1.331   3.304   3.227
 5893SOL    HW218579   1.380   3.164   3.296
 5894SOL     OW18580   1.409   4.769   3.573
 5894SOL    HW118581   1.392   4.732   3.664
 5894SOL    HW218582   1.363   4.857   3.564
 5895SOL     OW18583   5.282   2.397   4.841
 5895SOL    HW118584   5.330   2.366   4.923
 5895SOL    HW218585   5.329   2.478   4.805
 5896SOL     OW18586   3.656   2.090   6.921
 5896SOL    HW118587   3.639   2.107   7.018
 5896SOL    HW218588   3.688   2.174   6.877
 5897SOL     OW18589   4.087   6.973   1.576
 5897SOL    HW118590   4.163   0.005   1.544
 5897SOL    HW218591   4.045   7.016   1.656
 5898SOL     OW18592   1.230   0.075   1.878
 5898SOL    HW118593   1.319   0.058   1.835
 5898SOL    HW218594   1.158   0.071   1.809
 5899SOL     OW18595   5.787   6.732   5.040
 5899SOL    HW118596   5.825   6.813   5.085
 5899SOL    HW218597   5.862   6.672   5.010
 5900SOL     OW18598   4.572   5.156   3.097
 5900SOL    HW118599   4.548   5.224   3.029
 5900SOL    HW218600   4.492   5.137   3.156
 5901SOL     OW18601   2.073   0.252   6.758
 5901SOL    HW118602   2.133   0.194   6.813
 5901SOL    HW218603   2.005   0.196   6.711
 5902SOL     OW18604   6.904   2.050   1.219
 5902SOL    HW118605   6.836   2.070   1.290
 5902SOL    HW218606   6.866   2.069   1.129
 5903SOL     OW18607   5.610   4.330   0.775
 5903SOL    HW118608   5.589   4.252   0.716
 5903SOL    HW218609   5.585   4.414   0.728
 5904SOL     OW18610   0.667   3.536   2.525
 5904SOL    HW118611   0.597   3.510   2.459
 5904SOL    HW218612   0.648   3.627   2.560
 5905SOL     OW18613   6.514   6.530   3.017
 5905SOL    HW118614   6.553   6.587   3.089
 5905SOL    HW218615   6.458   6.587   2.956
 5906SOL     OW18616   5.821   0.397   4.014
 5906SOL    HW118617   5.746   0.426   4.074
 5906SOL    HW218618   5.865   0.317   4.053
 5907SOL     OW18619   1.085   6.360   1.768
 5907SOL    HW118620   1.075   6.317   1.679
 5907SOL    HW218621   1.000   6.352   1.820
 5908SOL     OW18622   0.738   2.119   5.671
 5908SOL    HW118623   0.639   2.107   5.683
 5908SOL    HW218624   0.787   2.046   5.718
 5909SOL     OW18625   0.727   5.751   0.500
 5909SOL    HW118626   0.769   5.841   0.511
 5909SOL    HW218627   0.753   5.693   0.578
 5910SOL     OW18628   0.932   2.640   3.126
 5910SOL    HW118629   0.995   2.581   3.178
 5910SOL    HW218630   0.985   2.696   3.062
 5911SOL     OW18631   6.946   5.800   6.213
 5911SOL    HW118632   7.015   5.734   6.184
 5911SOL    HW218633   6.929   5.865   6.139
 5912SOL     OW18634   6.445   1.194   5.526
 5912SOL    HW118635   6.463   1.291   5.545
 5912SOL    HW218636   6.498   1.166   5.445
 5913SOL     OW18637   5.576   2.938   0.169
 5913SOL    HW118638   5.556   2.885   0.087
 5913SOL    HW218639   5.494   2.942   0.227
 5914SOL     OW18640   1.060   6.768   6.656
 5914SOL    HW118641   1.006   6.818   6.588
 5914SOL    HW218642   1.131   6.715   6.609
 5915SOL     OW18643   3.165   6.433   0.393
 5915SOL    HW118644   3.219   6.517   0.390
 5915SOL    HW218645   3.120   6.419   0.305
 5916SOL     OW18646   0.084   6.679   2.130
 5916SOL    HW118647   0.040   6.596   2.096
 5916SOL    HW218648   0.067   6.690   2.228
 5917SOL     OW18649   2.759   3.953   5.982
 5917SOL    HW118650   2.826   4.020   5.950
 5917SOL    HW218651   2.773   3.866   5.933
 5918SOL     OW18652   2.237   5.670   6.122
 5918SOL    HW118653   2.203   5.764   6.125
 5918SOL    HW218654   2.234   5.630   6.214
 5919SOL     OW18655   2.907   3.529   3.189
 5919SOL    HW118656   2.937   3.479   3.270
 5919SOL    HW218657   2.921   3.627   3.203
 5920SOL     OW18658   5.107   1.538   5.800
 5920SOL    HW118659   5.069   1.532   5.892
 5920SOL    HW218660   5.094   1.631   5.765
 5921SOL     OW18661   3.927   5.057   7.022
 5921SOL    HW118662   3.992   5.110   6.968
 5921SOL    HW218663   3.965   4.966   0.016
 5922SOL     OW18664   6.256   3.825   3.877
 5922SOL    HW118665   6.351   3.826   3.846
 5922SOL    HW218666   6.212   3.912   3.853
 5923SOL     OW18667   7.024   0.693   1.814
 5923SOL    HW118668   6.937   0.738   1.791
 5923SOL    HW218669   7.019   0.597   1.789
 5924SOL     OW18670   5.644   6.449   3.394
 5924SOL    HW118671   5.657   6.472   3.490
 5924SOL    HW218672   5.549   6.464   3.368
 5925SOL     OW18673   3.982   6.241   1.695
 5925SOL    HW118674   4.032   6.172   1.748
 5925SOL    HW218675   3.888   6.211   1.680
 5926SOL     OW18676   4.290   4.587   2.884
 5926SOL    HW118677   4.202   4.547   2.907
 5926SOL    HW218678   4.282   4.641   2.800
 5927SOL     OW18679   1.209   3.710   2.068
 5927SOL    HW118680   1.118   3.670   2.053
 5927SOL    HW218681   1.273   3.638   2.095
 5928SOL     OW18682   3.965   6.771   1.435
 5928SOL    HW118683   4.009   6.855   1.466
 5928SOL    HW218684   4.031   6.713   1.387
 5929SOL     OW18685   6.492   0.925   5.582
 5929SOL    HW118686   6.472   1.017   5.548
 5929SOL    HW218687   6.489   0.924   5.682
 5930SOL     OW18688   0.749   3.109   1.876
 5930SOL    HW118689   0.818   3.046   1.914
 5930SOL    HW218690   0.659   3.086   1.915
 5931SOL     OW18691   6.023   6.258   2.485
 5931SOL    HW118692   6.112   6.220   2.459
 5931SOL    HW218693   6.029   6.296   2.577
 5932SOL     OW18694   3.321   0.020   6.659
 5932SOL    HW118695   3.271   6.962   6.631
 5932SOL    HW218696   3.417   0.011   6.634
 5933SOL     OW18697   0.226   4.892   4.481
 5933SOL    HW118698   0.169   4.940   4.547
 5933SOL    HW218699   0.231   4.795   4.506
 5934SOL     OW18700   3.659   3.505   5.704
 5934SOL    HW118701   3.663   3.461   5.614
 5934SOL    HW218702   3.636   3.602   5.693
 5935SOL     OW18703   0.665   6.084   5.264
 5935SOL    HW118704   0.693   6.160   5.322
 5935SOL    HW218705   0.613   6.119   5.186
 5936SOL     OW18706   3.162   2.942   2.564
 5936SOL    HW118707   3.070   2.961   2.532
 5936SOL    HW218708   3.215   2.901   2.490
 5937SOL     OW18709   6.278   3.229   1.915
 5937SOL    HW118710   6.271   3.295   1.989
 5937SOL    HW218711   6.323   3.146   1.949
 5938SOL     OW18712   5.909   5.706   4.619
 5938SOL    HW118713   5.888   5.688   4.523
 5938SOL    HW218714   5.934   5.803   4.630
 5939SOL     OW18715   3.392   5.852   4.128
 5939SOL    HW118716   3.373   5.826   4.223
 5939SOL    HW218717   3.339   5.794   4.066
 5940SOL     OW18718   4.210   4.764   3.103
 5940SOL    HW118719   4.223   4.844   3.161
 5940SOL    HW218720   4.299   4.720   3.087
 5941SOL     OW18721   5.810   2.445   3.337
 5941SOL    HW118722   5.754   2.427   3.418
 5941SOL    HW218723   5.801   2.370   3.272
 5942SOL     OW18724   5.852   3.131   6.034
 5942SOL    HW118725   5.811   3.115   6.124
 5942SOL    HW218726   5.797   3.197   5.983
 5943SOL     OW18727   3.951   3.721   0.422
 5943SOL    HW118728   3.934   3.627   0.451
 5943SOL    HW218729   3.879   3.750   0.360
 5944SOL     OW18730   0.552   2.745   0.431
 5944SOL    HW118731   0.583   2.650   0.431
 5944SOL    HW218732   0.462   2.750   0.388
 5945SOL     OW18733   0.217   6.127   5.270
 5945SOL    HW118734   0.236   6.125   5.172
 5945SOL    HW218735   0.221   6.034   5.307
 5946SOL     OW18736   3.418   4.946   6.937
 5946SOL    HW118737   3.473   4.868   6.907
 5946SOL    HW218738   3.440   4.967   0.008
 5947SOL     OW18739   3.069   3.283   4.406
 5947SOL    HW118740   3.151   3.301   4.460
 5947SOL    HW218741   3.009   3.362   4.409
 5948SOL     OW18742   4.626   4.661   2.294
 5948SOL    HW118743   4.639   4.567   2.262
 5948SOL    HW218744   4.690   4.722   2.248
 5949SOL     OW18745   5.739   5.535   1.088
 5949SOL    HW118746   5.692   5.562   1.172
 5949SOL    HW218747   5.733   5.436   1.076
 5950SOL     OW18748   4.895   2.324   5.099
 5950SOL    HW118749   4.875   2.287   5.008
 5950SOL    HW218750   4.975   2.384   5.094
 5951SOL     OW18751   0.850   5.879   5.296
 5951SOL    HW118752   0.830   5.785   5.325
 5951SOL    HW218753   0.768   5.921   5.259
 5952SOL     OW18754   3.977   5.778   2.998
 5952SOL    HW118755   4.056   5.717   3.008
 5952SOL    HW218756   3.989   5.858   3.057
 5953SOL     OW18757   6.766   3.711   4.729
 5953SOL    HW118758   6.808   3.798   4.755
 5953SOL    HW218759   6.835   3.639   4.731
 5954SOL     OW18760   0.643   5.588   5.877
 5954SOL    HW118761   0.725   5.611   5.823
 5954SOL    HW218762   0.561   5.613   5.826
 5955SOL     OW18763   4.002   5.405   1.496
 5955SOL    HW118764   3.999   5.369   1.402
 5955SOL    HW218765   4.085   5.459   1.509
 5956SOL     OW18766   5.710   1.764   4.106
 5956SOL    HW118767   5.636   1.803   4.160
 5956SOL    HW218768   5.732   1.825   4.030
 5957SOL     OW18769   1.840   1.505   3.478
 5957SOL    HW118770   1.866   1.572   3.547
 5957SOL    HW218771   1.781   1.436   3.519
 5958SOL     OW18772   4.139   0.715   3.175
 5958SOL    HW118773   4.120   0.628   3.130
 5958SOL    HW218774   4.097   0.714   3.266
 5959SOL     OW18775   4.150   2.840   5.411
 5959SOL    HW118776   4.171   2.816   5.505
 5959SOL    HW218777   4.230   2.824   5.353
 5960SOL     OW18778   2.632   6.587   4.272
 5960SOL    HW118779   2.672   6.652   4.209
 5960SOL    HW218780   2.610   6.502   4.224
 5961SOL     OW18781   3.671   1.611   2.373
 5961SOL    HW118782   3.697   1.672   2.298
 5961SOL    HW218783   3.752   1.577   2.419
 5962SOL     OW18784   5.131   6.026   6.367
 5962SOL    HW118785   5.056   6.084   6.399
 5962SOL    HW218786   5.145   5.951   6.432
 5963SOL     OW18787   3.333   3.870   0.178
 5963SOL    HW118788   3.286   3.838   0.261
 5963SOL    HW218789   3.397   3.942   0.202
 5964SOL     OW18790   2.250   6.733   3.527
 5964SOL    HW118791   2.321   6.802   3.517
 5964SOL    HW218792   2.225   6.723   3.624
 5965SOL     OW18793   1.988   0.490   6.537
 5965SOL    HW118794   1.993   0.437   6.621
 5965SOL    HW218795   1.960   0.584   6.559
 5966SOL     OW18796   0.909   0.188   5.817
 5966SOL    HW118797   0.833   0.238   5.860
 5966SOL    HW218798   0.986   0.251   5.803
 5967SOL     OW18799   2.503   1.067   5.437
 5967SOL    HW118800   2.569   1.074   5.362
 5967SOL    HW218801   2.542   1.014   5.512
 5968SOL     OW18802   5.616   2.771   0.618
 5968SOL    HW118803   5.558   2.804   0.692
 5968SOL    HW218804   5.712   2.786   0.641
 5969SOL     OW18805   4.975   1.310   6.332
 5969SOL    HW118806   4.972   1.240   6.403
 5969SOL    HW218807   4.964   1.400   6.374
 5970SOL     OW18808   0.541   4.139   0.545
 5970SOL    HW118809   0.495   4.216   0.499
 5970SOL    HW218810   0.639   4.145   0.529
 5971SOL     OW18811   6.018   0.201   1.684
 5971SOL    HW118812   6.048   0.232   1.774
 5971SOL    HW218813   5.979   0.277   1.634
 5972SOL     OW18814   5.481   5.465   6.705
 5972SOL    HW118815   5.537   5.526   6.650
 5972SOL    HW218816   5.508   5.370   6.689
 5973SOL     OW18817   1.662   3.189   2.809
 5973SOL    HW118818   1.642   3.144   2.896
 5973SOL    HW218819   1.695   3.282   2.826
 5974SOL     OW18820   5.149   0.403   0.117
 5974SOL    HW118821   5.134   0.343   0.195
 5974SOL    HW218822   5.193   0.488   0.148
 5975SOL     OW18823   4.613   5.752   1.270
 5975SOL    HW118824   4.552   5.674   1.257
 5975SOL    HW218825   4.623   5.771   1.367
 5976SOL     OW18826   3.435   3.413   5.879
 5976SOL    HW118827   3.494   3.413   5.798
 5976SOL    HW218828   3.464   3.340   5.941
 5977SOL     OW18829   0.644   5.615   0.252
 5977SOL    HW118830   0.694   5.668   0.320
 5977SOL    HW218831   0.636   5.669   0.168
 5978SOL     OW18832   3.598   5.170   1.150
 5978SOL    HW118833   3.635   5.198   1.238
 5978SOL    HW218834   3.513   5.220   1.132
 5979SOL     OW18835   6.118   0.899   2.372
 5979SOL    HW118836   6.018   0.897   2.379
 5979SOL    HW218837   6.148   0.992   2.349
 5980SOL     OW18838   3.625   2.851   2.159
 5980SOL    HW118839   3.705   2.793   2.177
 5980SOL    HW218840   3.649   2.947   2.175
 5981SOL     OW18841   4.914   1.598   0.347
 5981SOL    HW118842   4.815   1.599   0.355
 5981SOL    HW218843   4.948   1.692   0.334
 5982SOL     OW18844   5.966   2.415   2.706
 5982SOL    HW118845   5.974   2.335   2.645
 5982SOL    HW218846   5.876   2.414   2.749
 5983SOL     OW18847   1.512   0.571   4.124
 5983SOL    HW118848   1.481   0.624   4.045
 5983SOL    HW218849   1.491   0.474   4.109
 5984SOL     OW18850   5.692   6.169   4.000
 5984SOL    HW118851   5.711   6.183   3.903
 5984SOL    HW218852   5.673   6.073   4.018
 5985SOL     OW18853   6.253   2.611   3.552
 5985SOL    HW118854   6.267   2.664   3.468
 5985SOL    HW218855   6.299   2.656   3.628
 5986SOL     OW18856   3.949   4.199   6.069
 5986SOL    HW118857   3.930   4.101   6.066
 5986SOL    HW218858   4.007   4.224   5.992
 5987SOL     OW18859   5.796   0.739   4.465
 5987SOL    HW118860   5.814   0.836   4.482
 5987SOL    HW218861   5.817   0.717   4.370
 5988SOL     OW18862   3.695   1.098   6.631
 5988SOL    HW118863   3.643   1.068   6.711
 5988SOL    HW218864   3.683   1.197   6.619
 5989SOL     OW18865   2.099   5.505   5.807
 5989SOL    HW118866   2.022   5.477   5.750
 5989SOL    HW218867   2.160   5.564   5.754
 5990SOL     OW18868   3.796   3.672   0.883
 5990SOL    HW118869   3.863   3.701   0.814
 5990SOL    HW218870   3.843   3.625   0.957
 5991SOL     OW18871   4.489   5.900   0.411
 5991SOL    HW118872   4.442   5.816   0.440
 5991SOL    HW218873   4.431   5.950   0.347
 5992SOL     OW18874   3.224   6.860   2.373
 5992SOL    HW118875   3.268   6.800   2.306
 5992SOL    HW218876   3.254   6.835   2.465
 5993SOL     OW18877   5.683   4.300   6.007
 5993SOL    HW118878   5.714   4.384   5.963
 5993SOL    HW218879   5.734   4.222   5.969
 5994SOL     OW18880   6.892   2.947   1.183
 5994SOL    HW118881   6.935   2.891   1.112
 5994SOL    HW218882   6.853   2.888   1.254
 5995SOL     OW18883   4.551   2.820   1.717
 5995SOL    HW118884   4.581   2.868   1.799
 5995SOL    HW218885   4.451   2.824   1.711
 5996SOL     OW18886   1.646   5.642   1.764
 5996SOL    HW118887   1.605   5.696   1.838
 5996SOL    HW218888   1.606   5.669   1.677
 5997SOL     OW18889   0.372   6.751   3.568
 5997SOL    HW118890   0.454   6.807   3.580
 5997SOL    HW218891   0.295   6.809   3.541
 5998SOL     OW18892   5.622   1.032   1.543
 5998SOL    HW118893   5.528   1.009   1.519
 5998SOL    HW218894   5.684   0.998   1.472
 5999SOL     OW18895   3.238   3.199   0.915
 5999SOL    HW118896   3.268   3.251   0.994
 5999SOL    HW218897   3.299   3.120   0.902
 6000SOL     OW18898   0.202   6.078   0.126
 6000SOL    HW118899   0.198   6.156   0.064
 6000SOL    HW218900   0.157   6.102   0.212
 6001SOL     OW18901   5.392   5.331   0.302
 6001SOL    HW118902   5.458   5.298   0.369
 6001SOL    HW218903   5.435   5.402   0.246
 6002SOL     OW18904   6.952   0.190   5.758
 6002SOL    HW118905   6.882   0.158   5.695
 6002SOL    HW218906   6.947   0.138   5.844
 6003SOL     OW18907   6.051   2.627   4.443
 6003SOL    HW118908   6.097   2.715   4.426
 6003SOL    HW218909   5.984   2.638   4.517
 6004SOL     OW18910   6.025   2.454   3.578
 6004SOL    HW118911   5.957   2.525   3.595
 6004SOL    HW218912   6.107   2.495   3.540
 6005SOL     OW18913   5.885   4.836   5.129
 6005SOL    HW118914   5.879   4.789   5.218
 6005SOL    HW218915   5.885   4.768   5.056
 6006SOL     OW18916   3.159   0.161   5.185
 6006SOL    HW118917   3.222   0.167   5.107
 6006SOL    HW218918   3.153   0.250   5.230
 6007SOL     OW18919   7.006   2.938   6.633
 6007SOL    HW118920   6.933   3.003   6.651
 6007SOL    HW218921   0.018   2.903   6.719
 6008SOL     OW18922   1.967   4.485   5.443
 6008SOL    HW118923   2.027   4.536   5.504
 6008SOL    HW218924   1.899   4.547   5.403
 6009SOL     OW18925   4.349   5.591   3.494
 6009SOL    HW118926   4.422   5.654   3.520
 6009SOL    HW218927   4.261   5.636   3.504
 6010SOL     OW18928   0.337   4.360   3.796
 6010SOL    HW118929   0.300   4.321   3.880
 6010SOL    HW218930   0.269   4.352   3.723
 6011SOL     OW18931   4.723   2.877   2.560
 6011SOL    HW118932   4.670   2.792   2.559
 6011SOL    HW218933   4.728   2.913   2.654
 6012SOL     OW18934   6.165   0.776   0.199
 6012SOL    HW118935   6.109   0.759   0.118
 6012SOL    HW218936   6.197   0.871   0.199
 6013SOL     OW18937   5.078   1.351   2.631
 6013SOL    HW118938   5.081   1.257   2.597
 6013SOL    HW218939   4.983   1.384   2.626
 6014SOL     OW18940   3.408   3.529   4.068
 6014SOL    HW118941   3.428   3.572   4.155
 6014SOL    HW218942   3.359   3.443   4.083
 6015SOL     OW18943   6.120   3.432   4.545
 6015SOL    HW118944   6.126   3.404   4.449
 6015SOL    HW218945   6.066   3.516   4.552
 6016SOL     OW18946   5.293   1.912   5.410
 6016SOL    HW118947   5.301   1.864   5.497
 6016SOL    HW218948   5.286   1.845   5.336
 6017SOL     OW18949   0.047   4.587   5.231
 6017SOL    HW118950   0.135   4.539   5.223
 6017SOL    HW218951   7.001   4.521   5.259
 6018SOL     OW18952   3.044   1.111   4.517
 6018SOL    HW118953   2.971   1.047   4.542
 6018SOL    HW218954   3.008   1.204   4.516
 6019SOL     OW18955   0.786   3.491   5.894
 6019SOL    HW118956   0.705   3.544   5.921
 6019SOL    HW218957   0.859   3.554   5.866
 6020SOL     OW18958   0.896   5.307   0.726
 6020SOL    HW118959   0.972   5.355   0.685
 6020SOL    HW218960   0.930   5.233   0.784
 6021SOL     OW18961   5.061   6.892   2.697
 6021SOL    HW118962   5.026   6.972   2.746
 6021SOL    HW218963   5.013   6.810   2.730
 6022SOL     OW18964   6.549   1.425   3.368
 6022SOL    HW118965   6.647   1.444   3.382
 6022SOL    HW218966   6.522   1.458   3.278
 6023SOL     OW18967   5.328   0.139   1.053
 6023SOL    HW118968   5.363   0.086   1.130
 6023SOL    HW218969   5.237   0.105   1.027
 6024SOL     OW18970   0.265   4.837   0.282
 6024SOL    HW118971   0.235   4.927   0.312
 6024SOL    HW218972   0.346   4.810   0.335
 6025SOL     OW18973   3.296   0.864   3.749
 6025SOL    HW118974   3.246   0.846   3.664
 6025SOL    HW218975   3.309   0.962   3.760
 6026SOL     OW18976   6.541   5.156   5.000
 6026SOL    HW118977   6.583   5.072   5.034
 6026SOL    HW218978   6.487   5.198   5.073
 6027SOL     OW18979   6.639   3.557   6.016
 6027SOL    HW118980   6.689   3.628   6.066
 6027SOL    HW218981   6.638   3.580   5.919
 6028SOL     OW18982   5.225   5.024   1.264
 6028SOL    HW118983   5.196   4.958   1.334
 6028SOL    HW218984   5.320   5.052   1.282
 6029SOL     OW18985   2.004   0.102   3.602
 6029SOL    HW118986   2.088   0.147   3.574
 6029SOL    HW218987   1.992   0.017   3.550
 6030SOL     OW18988   4.960   3.496   4.832
 6030SOL    HW118989   4.871   3.509   4.875
 6030SOL    HW218990   4.972   3.399   4.809
 6031SOL     OW18991   1.916   5.742   4.140
 6031SOL    HW118992   1.902   5.835   4.173
 6031SOL    HW218993   1.830   5.692   4.142
 6032SOL     OW18994   2.571   4.881   3.030
 6032SOL    HW118995   2.631   4.960   3.020
 6032SOL    HW218996   2.531   4.881   3.122
 6033SOL     OW18997   2.410   2.729   2.554
 6033SOL    HW118998   2.447   2.708   2.645
 6033SOL    HW218999   2.340   2.800   2.563
 6034SOL     OW19000   0.733   0.353   6.729
 6034SOL    HW119001   0.685   0.357   6.817
 6034SOL    HW219002   0.666   0.336   6.656
 6035SOL     OW19003   1.224   0.506   2.814
 6035SOL    HW119004   1.233   0.460   2.726
 6035SOL    HW219005   1.133   0.489   2.851
 6036SOL     OW19006   5.966   4.843   1.456
 6036SOL    HW119007   6.022   4.762   1.476
 6036SOL    HW219008   5.894   4.851   1.525
 6037SOL     OW19009   3.940   0.520   0.980
 6037SOL    HW119010   4.030   0.562   0.996
 6037SOL    HW219011   3.892   0.570   0.908
 6038SOL     OW19012   0.721   2.536   6.690
 6038SOL    HW119013   0.730   2.521   6.789
 6038SOL    HW219014   0.794   2.597   6.659
 6039SOL     OW19015   3.904   3.959   4.292
 6039SOL    HW119016   3.962   3.927   4.217
 6039SOL    HW219017   3.956   3.958   4.378
 6040SOL     OW19018   1.884   1.289   6.888
 6040SOL    HW119019   1.832   1.372   6.870
 6040SOL    HW219020   1.897   1.238   6.802
 6041SOL     OW19021   3.276   2.585   5.334
 6041SOL    HW119022   3.255   2.681   5.317
 6041SOL    HW219023   3.261   2.532   5.250
 6042SOL     OW19024   3.946   6.496   3.006
 6042SOL    HW119025   4.034   6.458   3.034
 6042SOL    HW219026   3.873   6.431   3.030
 6043SOL     OW19027   1.381   0.746   3.949
 6043SOL    HW119028   1.297   0.711   3.907
 6043SOL    HW219029   1.367   0.839   3.981
 6044SOL     OW19030   2.499   2.531   2.160
 6044SOL    HW119031   2.596   2.512   2.173
 6044SOL    HW219032   2.464   2.478   2.082
 6045SOL     OW19033   4.893   3.216   3.827
 6045SOL    HW119034   4.901   3.301   3.879
 6045SOL    HW219035   4.844   3.148   3.882
 6046SOL     OW19036   3.054   2.801   1.007
 6046SOL    HW119037   3.059   2.741   0.927
 6046SOL    HW219038   3.145   2.836   1.028
 6047SOL     OW19039   5.302   2.407   1.151
 6047SOL    HW119040   5.208   2.375   1.140
 6047SOL    HW219041   5.363   2.352   1.095
 6048SOL     OW19042   5.167   5.861   5.300
 6048SOL    HW119043   5.175   5.955   5.333
 6048SOL    HW219044   5.245   5.840   5.241
 6049SOL     OW19045   6.030   4.520   6.047
 6049SOL    HW119046   6.016   4.517   5.948
 6049SOL    HW219047   6.058   4.613   6.073
 6050SOL     OW19048   2.614   5.313   0.687
 6050SOL    HW119049   2.627   5.221   0.723
 6050SOL    HW219050   2.701   5.350   0.655
 6051SOL     OW19051   1.868   7.005   2.973
 6051SOL    HW119052   1.790   6.966   2.925
 6051SOL    HW219053   1.857   6.993   3.071
 6052SOL     OW19054   5.367   0.955   1.464
 6052SOL    HW119055   5.371   1.036   1.404
 6052SOL    HW219056   5.274   0.945   1.499
 6053SOL     OW19057   3.954   0.413   6.314
 6053SOL    HW119058   3.909   0.399   6.226
 6053SOL    HW219059   3.954   0.510   6.338
 6054SOL     OW19060   3.353   4.822   0.718
 6054SOL    HW119061   3.332   4.911   0.757
 6054SOL    HW219062   3.413   4.833   0.638
 6055SOL     OW19063   3.436   5.651   6.318
 6055SOL    HW119064   3.361   5.586   6.303
 6055SOL    HW219065   3.499   5.646   6.241
 6056SOL     OW19066   5.669   2.859   4.938
 6056SOL    HW119067   5.618   2.838   5.022
 6056SOL    HW219068   5.619   2.823   4.859
 6057SOL     OW19069   5.870   0.854   2.196
 6057SOL    HW119070   5.850   0.784   2.127
 6057SOL    HW219071   5.921   0.929   2.154
 6058SOL     OW19072   5.264   3.817   0.054
 6058SOL    HW119073   5.311   3.883   0.112
 6058SOL    HW219074   5.325   3.791   7.002
 6059SOL     OW19075   5.335   4.380   5.236
 6059SOL    HW119076   5.298   4.399   5.145
 6059SOL    HW219077   5.434   4.395   5.235
 6060SOL     OW19078   2.822   2.987   6.958
 6060SOL    HW119079   2.860   2.899   6.928
 6060SOL    HW219080   2.861   3.061   6.903
 6061SOL     OW19081   4.665   4.450   0.452
 6061SOL    HW119082   4.632   4.385   0.520
 6061SOL    HW219083   4.600   4.526   0.443
 6062SOL     OW19084   2.172   1.827   6.659
 6062SOL    HW119085   2.210   1.739   6.687
 6062SOL    HW219086   2.244   1.896   6.661
 6063SOL     OW19087   3.443   4.242   5.796
 6063SOL    HW119088   3.462   4.336   5.768
 6063SOL    HW219089   3.403   4.242   5.888
 6064SOL     OW19090   0.610   0.402   1.153
 6064SOL    HW119091   0.598   0.305   1.174
 6064SOL    HW219092   0.637   0.451   1.236
 6065SOL     OW19093   0.485   5.626   1.756
 6065SOL    HW119094   0.470   5.575   1.671
 6065SOL    HW219095   0.417   5.698   1.764
 6066SOL     OW19096   5.632   1.037   4.636
 6066SOL    HW119097   5.606   1.124   4.595
 6066SOL    HW219098   5.685   0.984   4.569
 6067SOL     OW19099   4.655   1.350   5.195
 6067SOL    HW119100   4.679   1.292   5.117
 6067SOL    HW219101   4.557   1.345   5.211
 6068SOL     OW19102   5.202   2.260   4.341
 6068SOL    HW119103   5.160   2.333   4.287
 6068SOL    HW219104   5.188   2.277   4.438
 6069SOL     OW19105   6.778   3.820   5.836
 6069SOL    HW119106   6.875   3.847   5.829
 6069SOL    HW219107   6.730   3.850   5.754
 6070SOL     OW19108   3.508   2.691   1.507
 6070SOL    HW119109   3.598   2.732   1.498
 6070SOL    HW219110   3.469   2.675   1.416
 6071SOL     OW19111   0.692   5.595   4.414
 6071SOL    HW119112   0.716   5.522   4.350
 6071SOL    HW219113   0.633   5.559   4.486
 6072SOL     OW19114   6.956   1.242   1.919
 6072SOL    HW119115   6.929   1.184   1.842
 6072SOL    HW219116   6.924   1.201   2.004
 6073SOL     OW19117   4.808   2.858   0.708
 6073SOL    HW119118   4.738   2.809   0.760
 6073SOL    HW219119   4.872   2.901   0.770
 6074SOL     OW19120   1.771   6.878   1.923
 6074SOL    HW119121   1.834   6.807   1.956
 6074SOL    HW219122   1.778   6.885   1.824
 6075SOL     OW19123   5.139   0.591   5.469
 6075SOL    HW119124   5.200   0.534   5.525
 6075SOL    HW219125   5.047   0.551   5.468
 6076SOL     OW19126   2.536   5.274   3.276
 6076SOL    HW119127   2.559   5.370   3.290
 6076SOL    HW219128   2.452   5.252   3.325
 6077SOL     OW19129   5.655   6.290   0.906
 6077SOL    HW119130   5.729   6.229   0.933
 6077SOL    HW219131   5.663   6.312   0.809
 6078SOL     OW19132   4.440   4.900   0.675
 6078SOL    HW119133   4.355   4.848   0.674
 6078SOL    HW219134   4.429   4.982   0.619
 6079SOL     OW19135   4.864   4.854   6.107
 6079SOL    HW119136   4.857   4.840   6.008
 6079SOL    HW219137   4.784   4.815   6.152
 6080SOL     OW19138   0.419   4.972   1.697
 6080SOL    HW119139   0.384   4.881   1.675
 6080SOL    HW219140   0.474   4.968   1.780
 6081SOL     OW19141   6.520   3.313   5.613
 6081SOL    HW119142   6.462   3.365   5.550
 6081SOL    HW219143   6.512   3.351   5.704
 6082SOL     OW19144   3.567   6.591   2.679
 6082SOL    HW119145   3.489   6.587   2.617
 6082SOL    HW219146   3.569   6.507   2.733
 6083SOL     OW19147   5.318   5.781   0.837
 6083SOL    HW119148   5.379   5.809   0.911
 6083SOL    HW219149   5.248   5.719   0.874
 6084SOL     OW19150   0.989   6.617   2.180
 6084SOL    HW119151   1.004   6.519   2.189
 6084SOL    HW219152   1.016   6.647   2.088
 6085SOL     OW19153   6.660   5.995   6.081
 6085SOL    HW119154   6.651   5.972   6.178
 6085SOL    HW219155   6.616   5.925   6.026
 6086SOL     OW19156   2.683   2.173   5.714
 6086SOL    HW119157   2.764   2.192   5.659
 6086SOL    HW219158   2.708   2.116   5.792
 6087SOL     OW19159   3.977   5.622   1.084
 6087SOL    HW119160   4.044   5.559   1.045
 6087SOL    HW219161   4.018   5.672   1.161
 6088SOL     OW19162   5.481   6.718   5.409
 6088SOL    HW119163   5.485   6.787   5.337
 6088SOL    HW219164   5.542   6.642   5.386
 6089SOL     OW19165   6.733   2.644   2.881
 6089SOL    HW119166   6.725   2.590   2.964
 6089SOL    HW219167   6.825   2.635   2.843
 6090SOL     OW19168   2.671   5.097   4.569
 6090SOL    HW119169   2.639   5.123   4.478
 6090SOL    HW219170   2.695   5.000   4.570
 6091SOL     OW19171   3.212   1.412   0.535
 6091SOL    HW119172   3.182   1.472   0.610
 6091SOL    HW219173   3.312   1.414   0.530
 6092SOL     OW19174   3.953   1.092   1.708
 6092SOL    HW119175   3.931   1.011   1.654
 6092SOL    HW219176   4.052   1.096   1.723
 6093SOL     OW19177   2.376   2.354   1.982
 6093SOL    HW119178   2.277   2.350   1.995
 6093SOL    HW219179   2.409   2.264   1.953
 6094SOL     OW19180   1.730   6.280   3.657
 6094SOL    HW119181   1.712   6.349   3.587
 6094SOL    HW219182   1.694   6.192   3.626
 6095SOL     OW19183   4.615   5.046   6.342
 6095SOL    HW119184   4.658   5.077   6.428
 6095SOL    HW219185   4.635   4.950   6.328
 6096SOL     OW19186   5.603   6.984   2.120
 6096SOL    HW119187   5.619   0.056   2.097
 6096SOL    HW219188   5.526   6.977   2.184
 6097SOL     OW19189   1.962   5.178   2.279
 6097SOL    HW119190   1.889   5.111   2.268
 6097SOL    HW219191   2.051   5.133   2.270
 6098SOL     OW19192   6.335   1.063   6.328
 6098SOL    HW119193   6.320   1.055   6.229
 6098SOL    HW219194   6.351   0.971   6.366
 6099SOL     OW19195   4.825   5.851   5.665
 6099SOL    HW119196   4.868   5.761   5.662
 6099SOL    HW219197   4.781   5.870   5.577
 6100SOL     OW19198   0.371   6.126   2.204
 6100SOL    HW119199   0.365   6.117   2.104
 6100SOL    HW219200   0.409   6.216   2.227
 6101SOL     OW19201   6.487   2.727   2.815
 6101SOL    HW119202   6.439   2.654   2.766
 6101SOL    HW219203   6.585   2.707   2.816
 6102SOL     OW19204   4.200   6.173   2.834
 6102SOL    HW119205   4.123   6.212   2.783
 6102SOL    HW219206   4.238   6.096   2.783
 6103SOL     OW19207   6.958   1.036   1.231
 6103SOL    HW119208   6.988   0.945   1.203
 6103SOL    HW219209   6.863   1.050   1.203
 6104SOL     OW19210   6.054   0.131   5.400
 6104SOL    HW119211   6.078   0.061   5.467
 6104SOL    HW219212   6.137   0.173   5.365
 6105SOL     OW19213   1.919   5.242   5.852
 6105SOL    HW119214   1.997   5.179   5.848
 6105SOL    HW219215   1.913   5.280   5.944
 6106SOL     OW19216   1.346   5.482   0.154
 6106SOL    HW119217   1.329   5.548   0.080
 6106SOL    HW219218   1.364   5.392   0.114
 6107SOL     OW19219   4.934   5.269   4.648
 6107SOL    HW119220   4.930   5.243   4.744
 6107SOL    HW219221   4.851   5.240   4.601
 6108SOL     OW19222   1.860   2.428   3.034
 6108SOL    HW119223   1.765   2.443   3.063
 6108SOL    HW219224   1.908   2.516   3.030
 6109SOL     OW19225   5.557   1.131   5.062
 6109SOL    HW119226   5.486   1.157   5.127
 6109SOL    HW219227   5.624   1.073   5.108
 6110SOL     OW19228   2.220   2.828   0.148
 6110SOL    HW119229   2.185   2.814   0.056
 6110SOL    HW219230   2.222   2.926   0.169
 6111SOL     OW19231   1.263   3.118   2.229
 6111SOL    HW119232   1.233   3.155   2.141
 6111SOL    HW219233   1.219   3.169   2.303
 6112SOL     OW19234   4.372   0.360   2.525
 6112SOL    HW119235   4.449   0.364   2.589
 6112SOL    HW219236   4.324   0.448   2.525
 6113SOL     OW19237   2.706   2.989   6.639
 6113SOL    HW119238   2.655   3.068   6.673
 6113SOL    HW219239   2.683   2.909   6.694
 6114SOL     OW19240   4.922   3.572   2.558
 6114SOL    HW119241   4.964   3.489   2.523
 6114SOL    HW219242   4.943   3.649   2.498
 6115SOL     OW19243   6.604   1.312   5.093
 6115SOL    HW119244   6.507   1.313   5.117
 6115SOL    HW219245   6.616   1.340   4.998
 6116SOL     OW19246   4.051   2.233   5.655
 6116SOL    HW119247   4.005   2.282   5.729
 6116SOL    HW219248   4.113   2.164   5.693
 6117SOL     OW19249   1.848   2.134   3.049
 6117SOL    HW119250   1.858   2.233   3.037
 6117SOL    HW219251   1.841   2.090   2.959
 6118SOL     OW19252   6.074   1.277   1.405
 6118SOL    HW119253   6.105   1.222   1.482
 6118SOL    HW219254   5.974   1.271   1.398
 6119SOL     OW19255   1.230   3.150   0.326
 6119SOL    HW119256   1.196   3.231   0.373
 6119SOL    HW219257   1.168   3.073   0.342
 6120SOL     OW19258   2.132   6.891   5.352
 6120SOL    HW119259   2.072   6.967   5.378
 6120SOL    HW219260   2.198   6.923   5.284
 6121SOL     OW19261   0.969   4.142   5.566
 6121SOL    HW119262   0.996   4.190   5.649
 6121SOL    HW219263   0.980   4.202   5.487
 6122SOL     OW19264   4.777   5.309   6.321
 6122SOL    HW119265   4.730   5.381   6.373
 6122SOL    HW219266   4.731   5.222   6.338
 6123SOL     OW19267   5.285   0.338   5.570
 6123SOL    HW119268   5.234   0.326   5.485
 6123SOL    HW219269   5.232   0.301   5.646
 6124SOL     OW19270   0.241   6.678   5.593
 6124SOL    HW119271   0.206   6.608   5.655
 6124SOL    HW219272   0.337   6.697   5.614
 6125SOL     OW19273   2.514   4.074   0.021
 6125SOL    HW119274   2.445   4.078   0.093
 6125SOL    HW219275   2.588   4.138   0.042
 6126SOL     OW19276   0.579   1.873   4.965
 6126SOL    HW119277   0.559   1.864   5.063
 6126SOL    HW219278   0.622   1.962   4.948
 6127SOL     OW19279   3.995   0.043   1.871
 6127SOL    HW119280   4.057   0.053   1.949
 6127SOL    HW219281   3.945   0.128   1.857
 6128SOL     OW19282   5.369   5.155   0.971
 6128SOL    HW119283   5.286   5.100   0.963
 6128SOL    HW219284   5.349   5.239   1.021
 6129SOL     OW19285   1.137   3.289   4.205
 6129SOL    HW119286   1.119   3.360   4.273
 6129SOL    HW219287   1.145   3.200   4.250
 6130SOL     OW19288   5.826   2.315   3.097
 6130SOL    HW119289   5.905   2.277   3.049
 6130SOL    HW219290   5.833   2.415   3.097
 6131SOL     OW19291   1.047   1.627   2.886
 6131SOL    HW119292   1.090   1.680   2.959
 6131SOL    HW219293   1.112   1.559   2.851
 6132SOL     OW19294   3.894   2.006   6.807
 6132SOL    HW119295   3.914   1.909   6.818
 6132SOL    HW219296   3.810   2.028   6.856
 6133SOL     OW19297   1.833   2.972   3.126
 6133SOL    HW119298   1.764   2.992   3.056
 6133SOL    HW219299   1.913   2.930   3.082
 6134SOL     OW19300   4.285   6.799   0.013
 6134SOL    HW119301   4.304   6.808   0.110
 6134SOL    HW219302   4.212   6.862   7.011
 6135SOL     OW19303   7.012   5.883   1.000
 6135SOL    HW119304   0.064   5.934   1.040
 6135SOL    HW219305   6.957   5.944   0.943
 6136SOL     OW19306   1.185   3.186   1.431
 6136SOL    HW119307   1.247   3.138   1.493
 6136SOL    HW219308   1.100   3.207   1.480
 6137SOL     OW19309   0.613   3.770   2.633
 6137SOL    HW119310   0.673   3.850   2.631
 6137SOL    HW219311   0.540   3.781   2.566
 6138SOL     OW19312   3.997   6.947   3.062
 6138SOL    HW119313   3.998   0.011   3.111
 6138SOL    HW219314   3.952   6.960   2.973
 6139SOL     OW19315   0.629   6.976   5.338
 6139SOL    HW119316   0.681   0.012   5.398
 6139SOL    HW219317   0.538   6.961   5.377
 6140SOL     OW19318   0.395   1.339   2.905
 6140SOL    HW119319   0.482   1.387   2.916
 6140SOL    HW219320   0.399   1.280   2.824
 6141SOL     OW19321   0.360   0.078   6.180
 6141SOL    HW119322   0.452   0.040   6.188
 6141SOL    HW219323   0.293   0.004   6.179
 6142SOL     OW19324   0.900   6.680   6.169
 6142SOL    HW119325   0.823   6.742   6.183
 6142SOL    HW219326   0.912   6.624   6.251
 6143SOL     OW19327   0.026   4.226   1.003
 6143SOL    HW119328   6.988   4.270   1.069
 6143SOL    HW219329   0.106   4.285   0.988
 6144SOL     OW19330   4.765   4.975   3.217
 6144SOL    HW119331   4.773   4.878   3.193
 6144SOL    HW219332   4.731   5.026   3.138
 6145SOL     OW19333   5.832   4.526   4.196
 6145SOL    HW119334   5.802   4.604   4.141
 6145SOL    HW219335   5.922   4.496   4.165
 6146SOL     OW19336   3.506   6.130   3.448
 6146SOL    HW119337   3.548   6.213   3.485
 6146SOL    HW219338   3.406   6.138   3.453
 6147SOL     OW19339   1.967   2.543   4.831
 6147SOL    HW119340   2.024   2.493   4.766
 6147SOL    HW219341   2.020   2.619   4.869
 6148SOL     OW19342   3.866   5.622   6.115
 6148SOL    HW119343   3.960   5.601   6.088
 6148SOL    HW219344   3.843   5.715   6.085
 6149SOL     OW19345   2.139   0.136   1.827
 6149SOL    HW119346   2.065   0.113   1.890
 6149SOL    HW219347   2.107   0.202   1.759
 6150SOL     OW19348   6.406   3.804   6.669
 6150SOL    HW119349   6.387   3.884   6.726
 6150SOL    HW219350   6.325   3.781   6.614
 6151SOL     OW19351   5.599   5.187   4.562
 6151SOL    HW119352   5.620   5.098   4.521
 6151SOL    HW219353   5.503   5.208   4.549
 6152SOL     OW19354   0.847   5.326   4.634
 6152SOL    HW119355   0.920   5.381   4.592
 6152SOL    HW219356   0.868   5.313   4.731
 6153SOL     OW19357   5.031   5.058   1.112
 6153SOL    HW119358   5.019   5.148   1.069
 6153SOL    HW219359   5.090   5.067   1.192
 6154SOL     OW19360   5.751   2.941   2.922
 6154SOL    HW119361   5.842   2.979   2.941
 6154SOL    HW219362   5.681   3.006   2.951
 6155SOL     OW19363   3.069   1.403   2.944
 6155SOL    HW119364   3.072   1.469   3.018
 6155SOL    HW219365   3.105   1.315   2.976
 6156SOL     OW19366   4.201   4.681   2.055
 6156SOL    HW119367   4.279   4.620   2.043
 6156SOL    HW219368   4.221   4.770   2.013
 6157SOL     OW19369   0.889   2.150   3.167
 6157SOL    HW119370   0.810   2.166   3.225
 6157SOL    HW219371   0.864   2.089   3.092
 6158SOL     OW19372   3.371   1.773   0.292
 6158SOL    HW119373   3.365   1.812   0.384
 6158SOL    HW219374   3.466   1.779   0.259
 6159SOL     OW19375   4.998   2.659   0.715
 6159SOL    HW119376   5.007   2.662   0.616
 6159SOL    HW219377   4.920   2.716   0.743
 6160SOL     OW19378   6.609   0.197   6.496
 6160SOL    HW119379   6.562   0.222   6.412
 6160SOL    HW219380   6.546   0.207   6.574
 6161SOL     OW19381   5.124   0.881   0.412
 6161SOL    HW119382   5.206   0.830   0.385
 6161SOL    HW219383   5.124   0.893   0.512
 6162SOL     OW19384   6.138   6.086   4.005
 6162SOL    HW119385   6.100   6.177   3.987
 6162SOL    HW219386   6.238   6.092   4.008
 6163SOL     OW19387   5.272   5.807   2.164
 6163SOL    HW119388   5.217   5.724   2.161
 6163SOL    HW219389   5.352   5.792   2.222
 6164SOL     OW19390   3.514   4.089   4.844
 6164SOL    HW119391   3.606   4.060   4.871
 6164SOL    HW219392   3.463   4.120   4.925
 6165SOL     OW19393   3.613   2.218   5.527
 6165SOL    HW119394   3.529   2.164   5.521
 6165SOL    HW219395   3.683   2.176   5.469
 6166SOL     OW19396   6.091   1.936   0.360
 6166SOL    HW119397   6.032   1.968   0.286
 6166SOL    HW219398   6.070   1.987   0.444
 6167SOL     OW19399   0.400   4.688   3.328
 6167SOL    HW119400   0.345   4.765   3.295
 6167SOL    HW219401   0.404   4.692   3.428
 6168SOL     OW19402   0.895   2.891   3.307
 6168SOL    HW119403   0.891   2.810   3.248
 6168SOL    HW219404   0.812   2.897   3.361
 6169SOL     OW19405   0.853   1.416   6.495
 6169SOL    HW119406   0.890   1.435   6.404
 6169SOL    HW219407   0.833   1.503   6.541
 6170SOL     OW19408   3.092   3.930   5.455
 6170SOL    HW119409   3.016   3.980   5.412
 6170SOL    HW219410   3.056   3.868   5.524
 6171SOL     OW19411   1.185   3.472   1.511
 6171SOL    HW119412   1.127   3.527   1.452
 6171SOL    HW219413   1.174   3.375   1.489
 6172SOL     OW19414   0.486   0.779   2.675
 6172SOL    HW119415   0.413   0.844   2.652
 6172SOL    HW219416   0.563   0.828   2.715
 6173SOL     OW19417   6.940   5.065   2.546
 6173SOL    HW119418   7.007   5.107   2.608
 6173SOL    HW219419   6.883   5.001   2.598
 6174SOL     OW19420   6.178   5.092   2.808
 6174SOL    HW119421   6.099   5.153   2.808
 6174SOL    HW219422   6.152   5.003   2.844
 6175SOL     OW19423   5.223   0.331   3.854
 6175SOL    HW119424   5.238   0.236   3.825
 6175SOL    HW219425   5.253   0.393   3.781
 6176SOL     OW19426   6.434   2.689   0.071
 6176SOL    HW119427   6.517   2.734   0.101
 6176SOL    HW219428   6.448   2.652   7.003
 6177SOL     OW19429   5.868   1.388   1.010
 6177SOL    HW119430   5.889   1.432   0.923
 6177SOL    HW219431   5.780   1.340   1.003
 6178SOL     OW19432   4.581   5.333   2.017
 6178SOL    HW119433   4.656   5.386   1.977
 6178SOL    HW219434   4.598   5.321   2.115
 6179SOL     OW19435   6.800   4.394   4.790
 6179SOL    HW119436   6.787   4.320   4.724
 6179SOL    HW219437   6.894   4.427   4.785
 6180SOL     OW19438   3.188   6.458   6.134
 6180SOL    HW119439   3.244   6.483   6.054
 6180SOL    HW219440   3.117   6.394   6.106
 6181SOL     OW19441   4.912   6.424   1.071
 6181SOL    HW119442   4.887   6.430   0.975
 6181SOL    HW219443   4.830   6.424   1.128
 6182SOL     OW19444   5.640   3.961   5.437
 6182SOL    HW119445   5.657   3.946   5.339
 6182SOL    HW219446   5.545   3.939   5.458
 6183SOL     OW19447   2.708   0.072   3.423
 6183SOL    HW119448   2.630   0.121   3.384
 6183SOL    HW219449   2.686   6.998   3.428
 6184SOL     OW19450   1.936   6.512   6.002
 6184SOL    HW119451   1.950   6.563   5.917
 6184SOL    HW219452   1.851   6.541   6.045
 6185SOL     OW19453   1.679   4.882   6.776
 6185SOL    HW119454   1.603   4.841   6.825
 6185SOL    HW219455   1.741   4.810   6.743
 6186SOL     OW19456   5.953   0.119   4.028
 6186SOL    HW119457   6.035   0.080   3.986
 6186SOL    HW219458   5.944   0.087   4.122
 6187SOL     OW19459   4.623   4.346   4.234
 6187SOL    HW119460   4.593   4.342   4.330
 6187SOL    HW219461   4.631   4.442   4.206
 6188SOL     OW19462   1.976   6.770   0.995
 6188SOL    HW119463   1.916   6.776   1.075
 6188SOL    HW219464   2.024   6.683   0.995
 6189SOL     OW19465   4.704   4.444   3.820
 6189SOL    HW119466   4.610   4.451   3.852
 6189SOL    HW219467   4.755   4.525   3.849
 6190SOL     OW19468   6.386   3.626   6.111
 6190SOL    HW119469   6.395   3.710   6.057
 6190SOL    HW219470   6.469   3.571   6.100
 6191SOL     OW19471   4.555   2.854   0.166
 6191SOL    HW119472   4.482   2.794   0.200
 6191SOL    HW219473   4.639   2.836   0.218
 6192SOL     OW19474   3.169   3.364   0.253
 6192SOL    HW119475   3.223   3.292   0.209
 6192SOL    HW219476   3.098   3.323   0.310
 6193SOL     OW19477   5.204   1.180   2.800
 6193SOL    HW119478   5.192   1.170   2.701
 6193SOL    HW219479   5.225   1.091   2.840
 6194SOL     OW19480   1.691   6.521   0.054
 6194SOL    HW119481   1.704   6.619   0.044
 6194SOL    HW219482   1.778   6.474   0.039
 6195SOL     OW19483   3.530   5.496   5.624
 6195SOL    HW119484   3.513   5.591   5.599
 6195SOL    HW219485   3.475   5.435   5.568
 6196SOL     OW19486   5.482   2.215   1.066
 6196SOL    HW119487   5.498   2.155   1.144
 6196SOL    HW219488   5.517   2.171   0.983
 6197SOL     OW19489   4.396   3.987   0.255
 6197SOL    HW119490   4.490   3.962   0.280
 6197SOL    HW219491   4.358   4.047   0.325
 6198SOL     OW19492   3.369   5.272   2.674
 6198SOL    HW119493   3.407   5.328   2.748
 6198SOL    HW219494   3.297   5.213   2.711
 6199SOL     OW19495   0.621   0.005   0.984
 6199SOL    HW119496   0.600   0.059   1.065
 6199SOL    HW219497   0.547   0.012   0.918
 6200SOL     OW19498   1.727   0.852   5.728
 6200SOL    HW119499   1.824   0.854   5.703
 6200SOL    HW219500   1.696   0.757   5.733
 6201SOL     OW19501   1.912   3.824   5.524
 6201SOL    HW119502   1.915   3.908   5.468
 6201SOL    HW219503   1.885   3.848   5.617
 6202SOL     OW19504   3.892   2.046   1.548
 6202SOL    HW119505   3.922   2.014   1.638
 6202SOL    HW219506   3.843   2.133   1.559
 6203SOL     OW19507   5.303   6.714   3.466
 6203SOL    HW119508   5.346   6.777   3.401
 6203SOL    HW219509   5.204   6.714   3.452
 6204SOL     OW19510   0.181   5.131   5.462
 6204SOL    HW119511   0.198   5.227   5.484
 6204SOL    HW219512   0.229   5.107   5.377
 6205SOL     OW19513   5.362   6.416   0.121
 6205SOL    HW119514   5.342   6.386   0.215
 6205SOL    HW219515   5.448   6.377   0.091
 6206SOL     OW19516   6.161   0.530   2.682
 6206SOL    HW119517   6.165   0.434   2.655
 6206SOL    HW219518   6.121   0.537   2.774
 6207SOL     OW19519   1.523   4.216   4.240
 6207SOL    HW119520   1.561   4.262   4.160
 6207SOL    HW219521   1.594   4.209   4.310
 6208SOL     OW19522   5.937   1.061   6.815
 6208SOL    HW119523   5.930   1.156   6.843
 6208SOL    HW219524   5.874   1.044   6.739
 6209SOL     OW19525   4.770   5.433   0.014
 6209SOL    HW119526   4.855   5.391   0.046
 6209SOL    HW219527   4.763   5.422   6.939
 6210SOL     OW19528   6.133   5.159   3.531
 6210SOL    HW119529   6.216   5.109   3.507
 6210SOL    HW219530   6.136   5.184   3.628
 6211SOL     OW19531   3.127   6.875   4.264
 6211SOL    HW119532   3.154   6.935   4.189
 6211SOL    HW219533   3.093   6.788   4.227
 6212SOL     OW19534   2.122   5.032   2.951
 6212SOL    HW119535   2.174   5.104   2.997
 6212SOL    HW219536   2.178   4.994   2.877
 6213SOL     OW19537   4.884   0.271   6.714
 6213SOL    HW119538   4.958   0.293   6.778
 6213SOL    HW219539   4.888   0.332   6.636
 6214SOL     OW19540   5.173   4.959   3.364
 6214SOL    HW119541   5.252   5.008   3.325
 6214SOL    HW219542   5.206   4.892   3.431
 6215SOL     OW19543   4.264   1.975   6.780
 6215SOL    HW119544   4.187   1.912   6.783
 6215SOL    HW219545   4.267   2.028   6.865
 6216SOL     OW19546   6.904   2.527   2.224
 6216SOL    HW119547   6.966   2.454   2.251
 6216SOL    HW219548   6.907   2.539   2.124
 6217SOL     OW19549   0.065   2.786   2.667
 6217SOL    HW119550   0.131   2.777   2.592
 6217SOL    HW219551   0.002   2.861   2.647
 6218SOL     OW19552   3.375   5.364   4.891
 6218SOL    HW119553   3.307   5.294   4.916
 6218SOL    HW219554   3.417   5.339   4.804
 6219SOL     OW19555   1.228   1.887   4.753
 6219SOL    HW119556   1.262   1.980   4.768
 6219SOL    HW219557   1.195   1.849   4.840
 6220SOL     OW19558   0.965   3.347   5.509
 6220SOL    HW119559   0.957   3.402   5.426
 6220SOL    HW219560   1.010   3.400   5.581
 6221SOL     OW19561   6.349   6.064   6.546
 6221SOL    HW119562   6.251   6.056   6.567
 6221SOL    HW219563   6.383   5.975   6.515
 6222SOL     OW19564   0.851   6.450   1.108
 6222SOL    HW119565   0.942   6.468   1.070
 6222SOL    HW219566   0.858   6.441   1.207
 6223SOL     OW19567   0.112   4.269   5.035
 6223SOL    HW119568   0.072   4.180   5.012
 6223SOL    HW219569   0.071   4.339   4.977
 6224SOL     OW19570   2.288   2.002   6.312
 6224SOL    HW119571   2.387   2.009   6.319
 6224SOL    HW219572   2.256   2.052   6.232
 6225SOL     OW19573   3.283   2.920   1.069
 6225SOL    HW119574   3.239   2.988   1.127
 6225SOL    HW219575   3.358   2.962   1.018
 6226SOL     OW19576   5.777   2.132   4.946
 6226SOL    HW119577   5.746   2.199   5.014
 6226SOL    HW219578   5.719   2.050   4.951
 6227SOL     OW19579   3.601   5.587   6.120
 6227SOL    HW119580   3.699   5.605   6.114
 6227SOL    HW219581   3.586   5.491   6.146
 6228SOL     OW19582   0.472   2.961   2.470
 6228SOL    HW119583   0.518   2.954   2.558
 6228SOL    HW219584   0.538   2.951   2.396
 6229SOL     OW19585   0.673   2.880   2.297
 6229SOL    HW119586   0.739   2.867   2.372
 6229SOL    HW219587   0.669   2.797   2.242
 6230SOL     OW19588   1.277   1.482   4.103
 6230SOL    HW119589   1.234   1.500   4.191
 6230SOL    HW219590   1.209   1.490   4.030
 6231SOL     OW19591   6.805   4.656   1.454
 6231SOL    HW119592   6.882   4.594   1.465
 6231SOL    HW219593   6.782   4.665   1.358
 6232SOL     OW19594   6.023   2.135   0.886
 6232SOL    HW119595   6.018   2.069   0.962
 6232SOL    HW219596   5.961   2.211   0.904
 6233SOL     OW19597   5.433   1.005   6.943
 6233SOL    HW119598   5.409   1.102   6.934
 6233SOL    HW219599   5.395   0.969   0.003
 6234SOL     OW19600   6.810   1.208   5.637
 6234SOL    HW119601   6.771   1.118   5.620
 6234SOL    HW219602   6.896   1.217   5.586
 6235SOL     OW19603   0.876   0.241   1.924
 6235SOL    HW119604   0.946   0.263   1.992
 6235SOL    HW219605   0.852   0.323   1.873
 6236SOL     OW19606   0.823   4.529   0.381
 6236SOL    HW119607   0.872   4.446   0.355
 6236SOL    HW219608   0.828   4.596   0.307
 6237SOL     OW19609   3.348   6.051   6.618
 6237SOL    HW119610   3.372   6.030   6.523
 6237SOL    HW219611   3.303   5.972   6.659
 6238SOL     OW19612   3.899   4.825   3.135
 6238SOL    HW119613   3.949   4.807   3.050
 6238SOL    HW219614   3.932   4.763   3.206
 6239SOL     OW19615   3.067   6.249   1.950
 6239SOL    HW119616   3.140   6.258   2.018
 6239SOL    HW219617   3.032   6.340   1.927
 6240SOL     OW19618   3.119   2.773   6.491
 6240SOL    HW119619   3.174   2.752   6.410
 6240SOL    HW219620   3.024   2.746   6.476
 6241SOL     OW19621   2.751   0.351   1.784
 6241SOL    HW119622   2.700   0.377   1.867
 6241SOL    HW219623   2.695   0.372   1.704
 6242SOL     OW19624   5.242   0.449   3.580
 6242SOL    HW119625   5.191   0.524   3.536
 6242SOL    HW219626   5.300   0.404   3.512
 6243SOL     OW19627   5.447   6.708   3.696
 6243SOL    HW119628   5.390   6.712   3.613
 6243SOL    HW219629   5.388   6.701   3.776
 6244SOL     OW19630   1.617   2.397   2.322
 6244SOL    HW119631   1.705   2.420   2.281
 6244SOL    HW219632   1.626   2.313   2.377
 6245SOL     OW19633   1.821   4.948   0.942
 6245SOL    HW119634   1.837   4.883   0.868
 6245SOL    HW219635   1.905   4.961   0.993
 6246SOL     OW19636   1.788   2.958   5.874
 6246SOL    HW119637   1.884   2.983   5.860
 6246SOL    HW219638   1.732   2.997   5.802
 6247SOL     OW19639   1.221   6.906   3.742
 6247SOL    HW119640   1.229   6.919   3.643
 6247SOL    HW219641   1.257   6.817   3.767
 6248SOL     OW19642   2.750   4.250   0.762
 6248SOL    HW119643   2.755   4.328   0.824
 6248SOL    HW219644   2.841   4.232   0.724
 6249SOL     OW19645   1.181   4.010   0.249
 6249SOL    HW119646   1.231   3.959   0.179
 6249SOL    HW219647   1.200   4.107   0.239
 6250SOL     OW19648   6.944   6.137   0.195
 6250SOL    HW119649   6.852   6.120   0.231
 6250SOL    HW219650   7.011   6.123   0.268
 6251SOL     OW19651   3.626   6.256   0.037
 6251SOL    HW119652   3.531   6.267   0.067
 6251SOL    HW219653   3.630   6.265   6.962
 6252SOL     OW19654   1.536   6.881   5.805
 6252SOL    HW119655   1.441   6.849   5.809
 6252SOL    HW219656   1.561   6.900   5.710
 6253SOL     OW19657   2.077   3.946   2.427
 6253SOL    HW119658   2.123   3.970   2.342
 6253SOL    HW219659   2.065   4.029   2.483
 6254SOL     OW19660   4.897   1.214   0.593
 6254SOL    HW119661   4.987   1.238   0.630
 6254SOL    HW219662   4.827   1.233   0.662
 6255SOL     OW19663   2.321   0.869   1.556
 6255SOL    HW119664   2.269   0.937   1.505
 6255SOL    HW219665   2.398   0.913   1.603
 6256SOL     OW19666   3.453   5.353   2.909
 6256SOL    HW119667   3.517   5.411   2.959
 6256SOL    HW219668   3.360   5.370   2.942
 6257SOL     OW19669   5.117   2.180   1.067
 6257SOL    HW119670   5.155   2.220   0.983
 6257SOL    HW219671   5.058   2.102   1.042
 6258SOL     OW19672   4.602   0.154   3.612
 6258SOL    HW119673   4.526   0.192   3.559
 6258SOL    HW219674   4.676   0.128   3.550
 6259SOL     OW19675   2.533   2.571   0.724
 6259SOL    HW119676   2.433   2.571   0.716
 6259SOL    HW219677   2.563   2.658   0.763
 6260SOL     OW19678   2.707   4.874   0.018
 6260SOL    HW119679   2.713   4.896   6.944
 6260SOL    HW219680   2.706   4.959   0.071
 6261SOL     OW19681   3.733   0.284   6.657
 6261SOL    HW119682   3.677   0.345   6.601
 6261SOL    HW219683   3.828   0.290   6.628
 6262SOL     OW19684   1.526   4.478   1.049
 6262SOL    HW119685   1.507   4.537   0.971
 6262SOL    HW219686   1.447   4.475   1.109
 6263SOL     OW19687   0.154   0.847   5.509
 6263SOL    HW119688   0.130   0.773   5.571
 6263SOL    HW219689   0.070   0.888   5.472
 6264SOL     OW19690   1.239   6.990   1.272
 6264SOL    HW119691   1.303   6.917   1.298
 6264SOL    HW219692   1.255   7.016   1.177
 6265SOL     OW19693   3.023   4.154   0.633
 6265SOL    HW119694   3.074   4.236   0.661
 6265SOL    HW219695   3.004   4.098   0.713
 6266SOL     OW19696   4.071   0.477   4.666
 6266SOL    HW119697   4.104   0.387   4.696
 6266SOL    HW219698   4.089   0.487   4.568
 6267SOL     OW19699   2.592   0.273   6.824
 6267SOL    HW119700   2.567   0.352   6.769
 6267SOL    HW219701   2.690   0.257   6.817
 6268SOL     OW19702   3.340   6.407   3.342
 6268SOL    HW119703   3.373   6.456   3.423
 6268SOL    HW219704   3.351   6.465   3.262
 6269SOL     OW19705   6.722   5.847   2.139
 6269SOL    HW119706   6.812   5.855   2.096
 6269SOL    HW219707   6.665   5.925   2.113
 6270SOL     OW19708   1.722   0.041   5.273
 6270SOL    HW119709   1.805   0.051   5.329
 6270SOL    HW219710   1.650   0.101   5.310
 6271SOL     OW19711   5.591   2.391   5.872
 6271SOL    HW119712   5.580   2.299   5.911
 6271SOL    HW219713   5.688   2.409   5.857
 6272SOL     OW19714   0.758   2.421   6.130
 6272SOL    HW119715   0.716   2.360   6.064
 6272SOL    HW219716   0.824   2.370   6.186
 6273SOL     OW19717   2.174   0.343   2.704
 6273SOL    HW119718   2.205   0.317   2.613
 6273SOL    HW219719   2.251   0.340   2.768
 6274SOL     OW19720   2.516   5.469   5.899
 6274SOL    HW119721   2.473   5.559   5.898
 6274SOL    HW219722   2.600   5.473   5.954
 6275SOL     OW19723   2.148   6.277   5.027
 6275SOL    HW119724   2.052   6.266   5.001
 6275SOL    HW219725   2.195   6.331   4.957
 6276SOL     OW19726   1.938   5.090   4.022
 6276SOL    HW119727   1.931   5.002   3.975
 6276SOL    HW219728   1.985   5.077   4.109
 6277SOL     OW19729   5.094   3.385   1.414
 6277SOL    HW119730   5.137   3.306   1.459
 6277SOL    HW219731   5.072   3.454   1.483
 6278SOL     OW19732   4.981   6.466   4.541
 6278SOL    HW119733   5.024   6.429   4.623
 6278SOL    HW219734   4.881   6.468   4.554
 6279SOL     OW19735   3.652   0.637   6.551
 6279SOL    HW119736   3.577   0.631   6.617
 6279SOL    HW219737   3.648   0.559   6.488
 6280SOL     OW19738   0.730   2.339   5.855
 6280SOL    HW119739   0.711   2.247   5.818
 6280SOL    HW219740   0.643   2.387   5.871
 6281SOL     OW19741   1.361   5.527   4.423
 6281SOL    HW119742   1.324   5.507   4.333
 6281SOL    HW219743   1.354   5.446   4.481
 6282SOL     OW19744   1.122   0.694   4.829
 6282SOL    HW119745   1.037   0.714   4.779
 6282SOL    HW219746   1.139   0.596   4.828
 6283SOL     OW19747   6.694   3.069   5.818
 6283SOL    HW119748   6.674   3.154   5.867
 6283SOL    HW219749   6.736   3.090   5.730
 6284SOL     OW19750   2.253   5.573   5.104
 6284SOL    HW119751   2.181   5.571   5.035
 6284SOL    HW219752   2.232   5.644   5.172
 6285SOL     OW19753   0.895   2.845   3.689
 6285SOL    HW119754   0.975   2.830   3.630
 6285SOL    HW219755   0.921   2.829   3.784
 6286SOL     OW19756   6.826   1.860   4.010
 6286SOL    HW119757   6.825   1.861   3.910
 6286SOL    HW219758   6.756   1.922   4.044
 6287SOL     OW19759   3.735   5.224   3.431
 6287SOL    HW119760   3.644   5.192   3.408
 6287SOL    HW219761   3.802   5.152   3.412
 6288SOL     OW19762   6.200   4.818   2.893
 6288SOL    HW119763   6.201   4.863   2.983
 6288SOL    HW219764   6.278   4.756   2.885
 6289SOL     OW19765   1.445   4.896   2.395
 6289SOL    HW119766   1.523   4.954   2.418
 6289SOL    HW219767   1.476   4.803   2.378
 6290SOL     OW19768   6.029   3.383   4.188
 6290SOL    HW119769   6.112   3.433   4.161
 6290SOL    HW219770   5.970   3.371   4.109
 6291SOL     OW19771   3.553   3.067   3.967
 6291SOL    HW119772   3.492   3.093   4.042
 6291SOL    HW219773   3.648   3.070   3.998
 6292SOL     OW19774   1.698   2.396   3.749
 6292SOL    HW119775   1.598   2.383   3.752
 6292SOL    HW219776   1.725   2.426   3.657
 6293SOL     OW19777   4.013   0.366   0.006
 6293SOL    HW119778   3.972   0.275   0.010
 6293SOL    HW219779   4.107   0.362   0.040
 6294SOL     OW19780   3.758   4.981   3.910
 6294SOL    HW119781   3.857   4.972   3.922
 6294SOL    HW219782   3.727   4.919   3.838
 6295SOL     OW19783   5.256   5.352   5.221
 6295SOL    HW119784   5.184   5.410   5.258
 6295SOL    HW219785   5.215   5.271   5.179
 6296SOL     OW19786   0.015   6.662   4.972
 6296SOL    HW119787   0.024   6.577   5.023
 6296SOL    HW219788   0.031   6.740   5.032
 6297SOL     OW19789   4.785   0.201   5.336
 6297SOL    HW119790   4.852   0.141   5.379
 6297SOL    HW219791   4.717   0.146   5.287
 6298SOL     OW19792   1.589   2.521   5.616
 6298SOL    HW119793   1.532   2.536   5.535
 6298SOL    HW219794   1.623   2.610   5.649
 6299SOL     OW19795   5.456   1.510   0.387
 6299SOL    HW119796   5.435   1.422   0.344
 6299SOL    HW219797   5.514   1.495   0.467
 6300SOL     OW19798   5.131   0.538   6.094
 6300SOL    HW119799   5.192   0.465   6.127
 6300SOL    HW219800   5.142   0.619   6.151
 6301SOL     OW19801   3.346   0.818   1.145
 6301SOL    HW119802   3.361   0.817   1.046
 6301SOL    HW219803   3.248   0.813   1.164
 6302SOL     OW19804   1.477   1.672   4.105
 6302SOL    HW119805   1.428   1.587   4.087
 6302SOL    HW219806   1.489   1.722   4.019
 6303SOL     OW19807   2.347   1.161   4.587
 6303SOL    HW119808   2.370   1.143   4.682
 6303SOL    HW219809   2.398   1.099   4.527
 6304SOL     OW19810   2.369   1.234   0.862
 6304SOL    HW119811   2.372   1.154   0.804
 6304SOL    HW219812   2.458   1.249   0.904
 6305SOL     OW19813   6.302   6.559   1.359
 6305SOL    HW119814   6.312   6.494   1.283
 6305SOL    HW219815   6.221   6.617   1.343
 6306SOL     OW19816   1.191   3.707   4.226
 6306SOL    HW119817   1.230   3.690   4.135
 6306SOL    HW219818   1.096   3.737   4.216
 6307SOL     OW19819   3.948   4.434   5.707
 6307SOL    HW119820   3.887   4.487   5.766
 6307SOL    HW219821   3.992   4.495   5.642
 6308SOL     OW19822   2.043   1.754   4.440
 6308SOL    HW119823   2.079   1.660   4.443
 6308SOL    HW219824   1.944   1.753   4.456
 6309SOL     OW19825   5.307   3.932   4.321
 6309SOL    HW119826   5.280   3.946   4.416
 6309SOL    HW219827   5.293   4.017   4.269
 6310SOL     OW19828   1.945   5.606   3.527
 6310SOL    HW119829   2.022   5.572   3.473
 6310SOL    HW219830   1.903   5.531   3.578
 6311SOL     OW19831   5.703   0.044   5.343
 6311SOL    HW119832   5.639   0.009   5.411
 6311SOL    HW219833   5.724   0.140   5.363
 6312SOL     OW19834   5.956   5.277   5.754
 6312SOL    HW119835   5.928   5.190   5.714
 6312SOL    HW219836   5.966   5.345   5.681
 6313SOL     OW19837   1.570   6.094   3.539
 6313SOL    HW119838   1.596   6.042   3.458
 6313SOL    HW219839   1.511   6.038   3.597
 6314SOL     OW19840   3.993   6.250   1.372
 6314SOL    HW119841   4.028   6.205   1.454
 6314SOL    HW219842   3.956   6.340   1.397
 6315SOL     OW19843   3.700   2.934   6.117
 6315SOL    HW119844   3.700   2.843   6.075
 6315SOL    HW219845   3.720   2.926   6.215
 6316SOL     OW19846   5.006   1.941   6.675
 6316SOL    HW119847   5.027   1.898   6.587
 6316SOL    HW219848   4.942   2.016   6.661
 6317SOL     OW19849   5.043   5.311   3.455
 6317SOL    HW119850   5.036   5.304   3.355
 6317SOL    HW219851   5.011   5.225   3.496
 6318SOL     OW19852   2.975   2.165   4.638
 6318SOL    HW119853   3.041   2.180   4.564
 6318SOL    HW219854   2.882   2.162   4.599
 6319SOL     OW19855   0.394   2.339   3.348
 6319SOL    HW119856   0.476   2.306   3.394
 6319SOL    HW219857   0.346   2.404   3.407
 6320SOL     OW19858   5.827   4.815   5.392
 6320SOL    HW119859   5.829   4.751   5.469
 6320SOL    HW219860   5.734   4.826   5.359
 6321SOL     OW19861   3.282   4.556   0.810
 6321SOL    HW119862   3.347   4.493   0.853
 6321SOL    HW219863   3.322   4.648   0.807
 6322SOL     OW19864   1.523   2.238   6.733
 6322SOL    HW119865   1.563   2.311   6.677
 6322SOL    HW219866   1.544   2.149   6.692
 6323SOL     OW19867   3.400   2.719   1.261
 6323SOL    HW119868   3.322   2.656   1.251
 6323SOL    HW219869   3.373   2.811   1.233
 6324SOL     OW19870   4.997   6.903   6.636
 6324SOL    HW119871   4.906   6.862   6.627
 6324SOL    HW219872   4.992   6.980   6.699
 6325SOL     OW19873   2.102   1.853   2.310
 6325SOL    HW119874   2.118   1.933   2.367
 6325SOL    HW219875   2.069   1.883   2.220
 6326SOL     OW19876   4.733   5.798   1.810
 6326SOL    HW119877   4.815   5.829   1.762
 6326SOL    HW219878   4.726   5.698   1.802
 6327SOL     OW19879   7.003   0.662   4.964
 6327SOL    HW119880   0.058   0.700   4.916
 6327SOL    HW219881   0.010   0.594   5.031
 6328SOL     OW19882   2.287   3.724   0.543
 6328SOL    HW119883   2.375   3.761   0.573
 6328SOL    HW219884   2.298   3.678   0.455
 6329SOL     OW19885   2.480   2.595   3.125
 6329SOL    HW119886   2.486   2.693   3.105
 6329SOL    HW219887   2.385   2.567   3.126
 6330SOL     OW19888   4.506   1.082   1.410
 6330SOL    HW119889   4.531   1.137   1.331
 6330SOL    HW219890   4.559   1.113   1.490
 6331SOL     OW19891   6.154   2.423   0.093
 6331SOL    HW119892   6.064   2.439   0.132
 6331SOL    HW219893   6.188   2.333   0.120
 6332SOL     OW19894   6.593   3.717   2.066
 6332SOL    HW119895   6.590   3.687   1.970
 6332SOL    HW219896   6.624   3.812   2.070
 6333SOL     OW19897   3.993   5.080   4.398
 6333SOL    HW119898   3.907   5.127   4.378
 6333SOL    HW219899   4.004   5.070   4.497
 6334SOL     OW19900   2.905   0.123   2.300
 6334SOL    HW119901   2.912   0.043   2.360
 6334SOL    HW219902   2.997   0.156   2.279
 6335SOL     OW19903   4.622   1.640   0.420
 6335SOL    HW119904   4.560   1.671   0.348
 6335SOL    HW219905   4.583   1.560   0.466
 6336SOL     OW19906   0.459   1.868   6.348
 6336SOL    HW119907   0.402   1.867   6.265
 6336SOL    HW219908   0.447   1.955   6.396
 6337SOL     OW19909   4.678   4.179   5.972
 6337SOL    HW119910   4.651   4.210   6.063
 6337SOL    HW219911   4.757   4.233   5.940
 6338SOL     OW19912   3.135   2.173   2.598
 6338SOL    HW119913   3.231   2.154   2.620
 6338SOL    HW219914   3.079   2.094   2.625
 6339SOL     OW19915   1.017   2.848   2.967
 6339SOL    HW119916   0.971   2.929   3.003
 6339SOL    HW219917   0.968   2.817   2.885
 6340SOL     OW19918   1.743   4.719   3.000
 6340SOL    HW119919   1.650   4.753   3.013
 6340SOL    HW219920   1.743   4.619   3.002
 6341SOL     OW19921   0.798   4.373   3.944
 6341SOL    HW119922   0.807   4.451   4.006
 6341SOL    HW219923   0.767   4.405   3.855
 6342SOL     OW19924   2.872   1.852   1.794
 6342SOL    HW119925   2.914   1.929   1.843
 6342SOL    HW219926   2.782   1.833   1.834
 6343SOL     OW19927   5.248   2.426   6.804
 6343SOL    HW119928   5.347   2.435   6.791
 6343SOL    HW219929   5.200   2.471   6.729
 6344SOL     OW19930   5.945   3.588   5.512
 6344SOL    HW119931   6.043   3.598   5.496
 6344SOL    HW219932   5.903   3.679   5.517
 6345SOL     OW19933   4.527   1.907   2.110
 6345SOL    HW119934   4.513   1.896   2.011
 6345SOL    HW219935   4.588   1.984   2.127
 6346SOL     OW19936   6.736   4.038   3.757
 6346SOL    HW119937   6.764   4.020   3.663
 6346SOL    HW219938   6.765   4.130   3.784
 6347SOL     OW19939   1.828   0.444   1.714
 6347SOL    HW119940   1.805   0.505   1.638
 6347SOL    HW219941   1.905   0.386   1.688
 6348SOL     OW19942   1.444   3.998   5.118
 6348SOL    HW119943   1.426   4.093   5.092
 6348SOL    HW219944   1.403   3.937   5.050
 6349SOL     OW19945   3.310   6.904   1.237
 6349SOL    HW119946   3.251   6.976   1.199
 6349SOL    HW219947   3.258   6.818   1.242
 6350SOL     OW19948   2.632   4.688   4.055
 6350SOL    HW119949   2.624   4.638   4.141
 6350SOL    HW219950   2.717   4.741   4.055
 6351SOL     OW19951   6.680   3.423   3.239
 6351SOL    HW119952   6.778   3.440   3.249
 6351SOL    HW219953   6.666   3.328   3.212
 6352SOL     OW19954   2.573   5.269   4.759
 6352SOL    HW119955   2.562   5.368   4.757
 6352SOL    HW219956   2.622   5.239   4.677
 6353SOL     OW19957   6.648   1.180   6.370
 6353SOL    HW119958   6.722   1.115   6.352
 6353SOL    HW219959   6.561   1.137   6.348
 6354SOL     OW19960   1.626   6.964   2.824
 6354SOL    HW119961   1.565   7.008   2.890
 6354SOL    HW219962   1.621   7.012   2.737
 6355SOL     OW19963   1.338   5.531   6.027
 6355SOL    HW119964   1.422   5.514   6.079
 6355SOL    HW219965   1.285   5.603   6.072
 6356SOL     OW19966   3.885   5.148   3.095
 6356SOL    HW119967   3.935   5.081   3.150
 6356SOL    HW219968   3.911   5.240   3.124
 6357SOL     OW19969   5.217   2.798   2.016
 6357SOL    HW119970   5.179   2.870   2.074
 6357SOL    HW219971   5.257   2.727   2.072
 6358SOL     OW19972   1.306   2.251   5.979
 6358SOL    HW119973   1.358   2.314   5.921
 6358SOL    HW219974   1.364   2.175   6.006
 6359SOL     OW19975   6.296   7.017   5.532
 6359SOL    HW119976   6.378   0.047   5.513
 6359SOL    HW219977   6.308   6.968   5.619
 6360SOL     OW19978   1.830   3.704   4.238
 6360SOL    HW119979   1.755   3.750   4.285
 6360SOL    HW219980   1.909   3.698   4.299
 6361SOL     OW19981   6.243   0.101   0.460
 6361SOL    HW119982   6.294   0.072   0.541
 6361SOL    HW219983   6.224   0.199   0.467
 6362SOL     OW19984   6.757   5.665   6.502
 6362SOL    HW119985   6.856   5.683   6.501
 6362SOL    HW219986   6.741   5.568   6.522
 6363SOL     OW19987   2.284   4.204   3.357
 6363SOL    HW119988   2.337   4.286   3.335
 6363SOL    HW219989   2.261   4.155   3.273
 6364SOL     OW19990   3.471   1.513   5.833
 6364SOL    HW119991   3.427   1.427   5.806
 6364SOL    HW219992   3.492   1.510   5.931
 6365SOL     OW19993   5.446   6.773   4.690
 6365SOL    HW119994   5.394   6.719   4.756
 6365SOL    HW219995   5.535   6.797   4.730
 6366SOL     OW19996   0.789   5.971   6.517
 6366SOL    HW119997   0.802   5.950   6.420
 6366SOL    HW219998   0.868   6.020   6.552
 6367SOL     OW19999   3.940   0.576   3.985
 6367SOL    HW120000   4.023   0.629   4.006
 6367SOL    HW220001   3.875   0.635   3.937
 6368SOL     OW20002   3.764   6.692   3.794
 6368SOL    HW120003   3.686   6.748   3.823
 6368SOL    HW220004   3.786   6.625   3.864
 6369SOL     OW20005   2.471   4.980   4.760
 6369SOL    HW120006   2.489   4.964   4.857
 6369SOL    HW220007   2.529   5.054   4.727
 6370SOL     OW20008   1.196   3.284   2.469
 6370SOL    HW120009   1.289   3.283   2.506
 6370SOL    HW220010   1.130   3.266   2.542
 6371SOL     OW20011   4.909   3.426   3.985
 6371SOL    HW120012   4.847   3.427   4.064
 6371SOL    HW220013   5.003   3.440   4.017
 6372SOL     OW20014   3.355   0.074   1.677
 6372SOL    HW120015   3.444   0.039   1.646
 6372SOL    HW220016   3.370   0.153   1.737
 6373SOL     OW20017   5.580   4.433   3.501
 6373SOL    HW120018   5.514   4.363   3.474
 6373SOL    HW220019   5.644   4.449   3.425
 6374SOL     OW20020   3.313   4.076   4.228
 6374SOL    HW120021   3.298   4.174   4.220
 6374SOL    HW220022   3.276   4.044   4.316
 6375SOL     OW20023   0.313   1.926   3.895
 6375SOL    HW120024   0.298   1.832   3.864
 6375SOL    HW220025   0.268   1.940   3.983
 6376SOL     OW20026   6.177   2.732   5.510
 6376SOL    HW120027   6.254   2.682   5.552
 6376SOL    HW220028   6.099   2.730   5.572
 6377SOL     OW20029   6.363   1.728   5.337
 6377SOL    HW120030   6.441   1.702   5.281
 6377SOL    HW220031   6.284   1.673   5.313
 6378SOL     OW20032   5.614   5.032   3.434
 6378SOL    HW120033   5.587   5.050   3.529
 6378SOL    HW220034   5.654   5.115   3.395
 6379SOL     OW20035   2.323   4.180   4.222
 6379SOL    HW120036   2.251   4.111   4.226
 6379SOL    HW220037   2.351   4.204   4.315
 6380SOL     OW20038   0.669   1.564   6.152
 6380SOL    HW120039   0.648   1.468   6.134
 6380SOL    HW220040   0.627   1.621   6.082
 6381SOL     OW20041   3.735   3.256   2.072
 6381SOL    HW120042   3.642   3.245   2.037
 6381SOL    HW220043   3.776   3.338   2.033
 6382SOL     OW20044   1.321   2.639   0.637
 6382SOL    HW120045   1.261   2.626   0.558
 6382SOL    HW220046   1.266   2.638   0.721
 6383SOL     OW20047   1.823   2.149   2.744
 6383SOL    HW120048   1.823   2.249   2.743
 6383SOL    HW220049   1.906   2.115   2.701
 6384SOL     OW20050   5.249   4.032   1.186
 6384SOL    HW120051   5.311   3.979   1.244
 6384SOL    HW220052   5.291   4.044   1.096
 6385SOL     OW20053   6.804   4.243   4.535
 6385SOL    HW120054   6.759   4.272   4.450
 6385SOL    HW220055   6.868   4.169   4.515
 6386SOL     OW20056   2.804   4.231   6.410
 6386SOL    HW120057   2.872   4.237   6.483
 6386SOL    HW220058   2.849   4.207   6.324
 6387SOL     OW20059   0.576   1.498   6.641
 6387SOL    HW120060   0.567   1.464   6.734
 6387SOL    HW220061   0.639   1.576   6.639
 6388SOL     OW20062   3.859   4.687   1.192
 6388SOL    HW120063   3.805   4.771   1.184
 6388SOL    HW220064   3.930   4.700   1.261
 6389SOL     OW20065   0.819   5.844   2.310
 6389SOL    HW120066   0.722   5.850   2.285
 6389SOL    HW220067   0.836   5.758   2.358
 6390SOL     OW20068   1.511   2.077   4.836
 6390SOL    HW120069   1.541   1.983   4.822
 6390SOL    HW220070   1.561   2.117   4.913
 6391SOL     OW20071   3.244   6.958   5.975
 6391SOL    HW120072   3.166   7.019   5.960
 6391SOL    HW220073   3.319   7.009   6.017
 6392SOL     OW20074   2.098   0.041   3.859
 6392SOL    HW120075   2.067   0.085   3.775
 6392SOL    HW220076   2.196   0.021   3.852
 6393SOL     OW20077   5.946   6.618   1.420
 6393SOL    HW120078   5.883   6.597   1.495
 6393SOL    HW220079   6.022   6.674   1.455
 6394SOL     OW20080   2.483   4.893   0.818
 6394SOL    HW120081   2.418   4.818   0.824
 6394SOL    HW220082   2.460   4.963   0.886
 6395SOL     OW20083   6.239   2.654   1.541
 6395SOL    HW120084   6.279   2.588   1.477
 6395SOL    HW220085   6.140   2.637   1.548
 6396SOL     OW20086   5.332   2.878   6.543
 6396SOL    HW120087   5.417   2.930   6.538
 6396SOL    HW220088   5.277   2.898   6.461
 6397SOL     OW20089   5.887   2.757   6.556
 6397SOL    HW120090   5.800   2.806   6.553
 6397SOL    HW220091   5.961   2.823   6.568
 6398SOL     OW20092   3.357   0.704   0.858
 6398SOL    HW120093   3.361   0.690   0.759
 6398SOL    HW220094   3.280   0.653   0.896
 6399SOL     OW20095   1.558   5.063   6.636
 6399SOL    HW120096   1.638   5.107   6.595
 6399SOL    HW220097   1.588   4.993   6.700
 6400SOL     OW20098   2.133   5.980   2.771
 6400SOL    HW120099   2.150   5.924   2.690
 6400SOL    HW220100   2.035   5.979   2.792
 6401SOL     OW20101   6.922   4.321   3.486
 6401SOL    HW120102   6.872   4.399   3.448
 6401SOL    HW220103   6.948   4.258   3.412
 6402SOL     OW20104   3.660   0.882   3.237
 6402SOL    HW120105   3.603   0.953   3.277
 6402SOL    HW220106   3.629   0.861   3.144
 6403SOL     OW20107   0.339   6.401   6.357
 6403SOL    HW120108   0.272   6.455   6.306
 6403SOL    HW220109   0.293   6.346   6.426
 6404SOL     OW20110   3.523   1.160   3.079
 6404SOL    HW120111   3.552   1.074   3.037
 6404SOL    HW220112   3.471   1.214   3.013
 6405SOL     OW20113   1.772   0.925   3.299
 6405SOL    HW120114   1.732   0.833   3.292
 6405SOL    HW220115   1.759   0.973   3.213
 6406SOL     OW20116   2.068   2.640   3.479
 6406SOL    HW120117   2.150   2.584   3.488
 6406SOL    HW220118   2.026   2.652   3.569
 6407SOL     OW20119   3.078   0.051   3.258
 6407SOL    HW120120   2.993   0.020   3.216
 6407SOL    HW220121   3.071   0.047   3.357
 6408SOL     OW20122   6.028   2.510   6.777
 6408SOL    HW120123   6.067   2.592   6.819
 6408SOL    HW220124   5.931   2.504   6.799
 6409SOL     OW20125   0.200   4.572   2.864
 6409SOL    HW120126   0.293   4.537   2.852
 6409SOL    HW220127   0.187   4.599   2.959
 6410SOL     OW20128   2.141   1.335   0.245
 6410SOL    HW120129   2.214   1.390   0.285
 6410SOL    HW220130   2.068   1.323   0.312
 6411SOL     OW20131   0.037   2.469   3.318
 6411SOL    HW120132   0.094   2.393   3.286
 6411SOL    HW220133   0.096   2.542   3.352
 6412SOL     OW20134   6.912   2.964   5.361
 6412SOL    HW120135   6.941   2.952   5.456
 6412SOL    HW220136   6.815   2.942   5.353
 6413SOL     OW20137   4.975   4.748   3.307
 6413SOL    HW120138   5.009   4.840   3.286
 6413SOL    HW220139   5.044   4.680   3.281
 6414SOL     OW20140   5.790   0.829   1.733
 6414SOL    HW120141   5.848   0.748   1.745
 6414SOL    HW220142   5.830   0.890   1.665
 6415SOL     OW20143   2.413   2.226   2.864
 6415SOL    HW120144   2.436   2.130   2.883
 6415SOL    HW220145   2.463   2.285   2.929
 6416SOL     OW20146   1.324   1.291   5.743
 6416SOL    HW120147   1.252   1.337   5.795
 6416SOL    HW220148   1.282   1.223   5.682
 6417SOL     OW20149   6.998   4.516   2.149
 6417SOL    HW120150   6.899   4.503   2.160
 6417SOL    HW220151   0.014   4.434   2.108
 6418SOL     OW20152   5.242   4.379   2.163
 6418SOL    HW120153   5.159   4.324   2.174
 6418SOL    HW220154   5.248   4.414   2.070
 6419SOL     OW20155   2.412   4.743   2.563
 6419SOL    HW120156   2.504   4.738   2.523
 6419SOL    HW220157   2.345   4.756   2.490
 6420SOL     OW20158   2.533   3.646   5.752
 6420SOL    HW120159   2.627   3.636   5.783
 6420SOL    HW220160   2.492   3.556   5.740
 6421SOL     OW20161   5.148   1.353   1.945
 6421SOL    HW120162   5.205   1.331   1.866
 6421SOL    HW220163   5.120   1.448   1.941
 6422SOL     OW20164   0.040   0.397   4.146
 6422SOL    HW120165   0.067   0.303   4.124
 6422SOL    HW220166   0.088   0.427   4.228
 6423SOL     OW20167   5.071   4.903   2.298
 6423SOL    HW120168   5.151   4.941   2.254
 6423SOL    HW220169   4.993   4.905   2.235
 6424SOL     OW20170   6.893   5.833   5.629
 6424SOL    HW120171   6.943   5.913   5.663
 6424SOL    HW220172   6.852   5.784   5.706
 6425SOL     OW20173   6.539   5.582   3.268
 6425SOL    HW120174   6.443   5.595   3.244
 6425SOL    HW220175   6.571   5.494   3.233
 6426SOL     OW20176   0.382   4.614   3.629
 6426SOL    HW120177   0.463   4.554   3.622
 6426SOL    HW220178   0.299   4.558   3.628
 6427SOL     OW20179   2.334   3.258   6.600
 6427SOL    HW120180   2.261   3.236   6.536
 6427SOL    HW220181   2.295   3.276   6.690
 6428SOL     OW20182   6.452   3.147   0.551
 6428SOL    HW120183   6.440   3.223   0.488
 6428SOL    HW220184   6.456   3.061   0.499
 6429SOL     OW20185   0.527   1.317   5.361
 6429SOL    HW120186   0.491   1.380   5.291
 6429SOL    HW220187   0.481   1.229   5.353
 6430SOL     OW20188   5.209   1.131   2.340
 6430SOL    HW120189   5.256   1.069   2.277
 6430SOL    HW220190   5.142   1.185   2.288
 6431SOL     OW20191   5.397   6.499   3.336
 6431SOL    HW120192   5.359   6.570   3.396
 6431SOL    HW220193   5.420   6.540   3.247
 6432SOL     OW20194   4.161   3.752   6.823
 6432SOL    HW120195   4.142   3.716   6.914
 6432SOL    HW220196   4.144   3.851   6.822
 6433SOL     OW20197   3.527   4.430   0.472
 6433SOL    HW120198   3.431   4.412   0.451
 6433SOL    HW220199   3.568   4.348   0.512
 6434SOL     OW20200   2.015   3.710   0.242
 6434SOL    HW120201   1.952   3.775   0.284
 6434SOL    HW220202   2.101   3.756   0.220
 6435SOL     OW20203   4.236   6.151   6.470
 6435SOL    HW120204   4.217   6.237   6.423
 6435SOL    HW220205   4.183   6.078   6.429
 6436SOL     OW20206   2.034   3.334   3.755
 6436SOL    HW120207   1.936   3.353   3.768
 6436SOL    HW220208   2.087   3.389   3.820
 6437SOL     OW20209   2.109   1.032   0.920
 6437SOL    HW120210   2.126   0.943   0.962
 6437SOL    HW220211   2.195   1.081   0.910
 6438SOL     OW20212   0.560   4.655   6.582
 6438SOL    HW120213   0.569   4.699   6.492
 6438SOL    HW220214   0.606   4.567   6.581
 6439SOL     OW20215   6.585   0.443   1.872
 6439SOL    HW120216   6.676   0.442   1.914
 6439SOL    HW220217   6.591   0.408   1.778
 6440SOL     OW20218   2.326   1.804   1.478
 6440SOL    HW120219   2.424   1.793   1.459
 6440SOL    HW220220   2.290   1.880   1.424
 6441SOL     OW20221   1.209   6.893   2.527
 6441SOL    HW120222   1.142   6.869   2.458
 6441SOL    HW220223   1.301   6.869   2.495
 6442SOL     OW20224   2.066   1.416   3.364
 6442SOL    HW120225   2.051   1.366   3.449
 6442SOL    HW220226   1.994   1.394   3.298
 6443SOL     OW20227   3.960   2.873   0.237
 6443SOL    HW120228   3.934   2.821   0.318
 6443SOL    HW220229   3.921   2.965   0.242
 6444SOL     OW20230   0.703   2.611   3.808
 6444SOL    HW120231   0.721   2.699   3.850
 6444SOL    HW220232   0.763   2.600   3.728
 6445SOL     OW20233   4.798   2.561   5.785
 6445SOL    HW120234   4.828   2.653   5.763
 6445SOL    HW220235   4.800   2.505   5.702
 6446SOL     OW20236   1.398   1.056   6.152
 6446SOL    HW120237   1.414   1.103   6.066
 6446SOL    HW220238   1.438   0.964   6.149
 6447SOL     OW20239   0.309   5.706   2.634
 6447SOL    HW120240   0.277   5.613   2.614
 6447SOL    HW220241   0.309   5.720   2.733
 6448SOL     OW20242   5.276   4.172   2.469
 6448SOL    HW120243   5.207   4.160   2.397
 6448SOL    HW220244   5.235   4.221   2.545
 6449SOL     OW20245   3.185   4.372   0.638
 6449SOL    HW120246   3.205   4.444   0.704
 6449SOL    HW220247   3.225   4.396   0.549
 6450SOL     OW20248   0.035   3.153   1.320
 6450SOL    HW120249   0.062   3.215   1.246
 6450SOL    HW220250   6.981   3.097   1.289
 6451SOL     OW20251   2.737   6.303   4.728
 6451SOL    HW120252   2.714   6.317   4.824
 6451SOL    HW220253   2.823   6.254   4.721
 6452SOL     OW20254   3.626   6.068   4.982
 6452SOL    HW120255   3.544   6.120   4.960
 6452SOL    HW220256   3.663   6.099   5.069
 6453SOL     OW20257   1.410   6.539   6.994
 6453SOL    HW120258   1.357   6.590   0.039
 6453SOL    HW220259   1.504   6.529   0.001
 6454SOL     OW20260   3.104   1.414   3.820
 6454SOL    HW120261   3.043   1.423   3.899
 6454SOL    HW220262   3.103   1.319   3.788
 6455SOL     OW20263   1.008   1.954   4.020
 6455SOL    HW120264   0.965   1.944   3.930
 6455SOL    HW220265   1.027   1.863   4.058
 6456SOL     OW20266   1.853   0.602   3.626
 6456SOL    HW120267   1.944   0.631   3.654
 6456SOL    HW220268   1.785   0.667   3.659
 6457SOL     OW20269   5.072   1.082   1.138
 6457SOL    HW120270   5.043   0.997   1.181
 6457SOL    HW220271   5.023   1.159   1.179
 6458SOL     OW20272   0.831   0.047   3.530
 6458SOL    HW120273   0.867   0.140   3.538
 6458SOL    HW220274   0.800   0.031   3.437
 6459SOL     OW20275   5.773   5.410   0.454
 6459SOL    HW120276   5.834   5.385   0.529
 6459SOL    HW220277   5.704   5.339   0.443
 6460SOL     OW20278   4.701   5.443   5.569
 6460SOL    HW120279   4.728   5.482   5.657
 6460SOL    HW220280   4.769   5.468   5.500
 6461SOL     OW20281   2.890   4.904   5.046
 6461SOL    HW120282   2.893   4.951   5.134
 6461SOL    HW220283   2.856   4.811   5.059
 6462SOL     OW20284   2.423   2.718   5.201
 6462SOL    HW120285   2.453   2.799   5.151
 6462SOL    HW220286   2.430   2.735   5.299
 6463SOL     OW20287   1.453   3.730   6.522
 6463SOL    HW120288   1.357   3.715   6.544
 6463SOL    HW220289   1.506   3.649   6.546
 6464SOL     OW20290   0.990   5.072   5.331
 6464SOL    HW120291   1.027   4.980   5.316
 6464SOL    HW220292   0.899   5.078   5.292
 6465SOL     OW20293   6.176   2.315   3.931
 6465SOL    HW120294   6.138   2.260   4.006
 6465SOL    HW220295   6.232   2.389   3.968
 6466SOL     OW20296   0.814   1.698   6.585
 6466SOL    HW120297   0.747   1.718   6.513
 6466SOL    HW220298   0.841   1.782   6.630
 6467SOL     OW20299   2.988   0.822   6.879
 6467SOL    HW120300   3.014   0.874   6.960
 6467SOL    HW220301   3.003   0.724   6.895
 6468SOL     OW20302   3.829   6.433   1.516
 6468SOL    HW120303   3.805   6.377   1.595
 6468SOL    HW220304   3.830   6.529   1.543
 6469SOL     OW20305   4.586   0.504   5.411
 6469SOL    HW120306   4.595   0.427   5.348
 6469SOL    HW220307   4.596   0.590   5.361
 6470SOL     OW20308   5.769   5.626   6.657
 6470SOL    HW120309   5.808   5.598   6.569
 6470SOL    HW220310   5.815   5.576   6.730
 6471SOL     OW20311   6.603   5.975   5.773
 6471SOL    HW120312   6.652   5.952   5.688
 6471SOL    HW220313   6.544   5.898   5.799
 6472SOL     OW20314   0.278   4.688   0.961
 6472SOL    HW120315   0.320   4.766   0.916
 6472SOL    HW220316   0.312   4.603   0.919
 6473SOL     OW20317   2.065   1.792   4.156
 6473SOL    HW120318   1.967   1.775   4.144
 6473SOL    HW220319   2.089   1.782   4.253
 6474SOL     OW20320   2.067   3.378   5.632
 6474SOL    HW120321   2.103   3.397   5.723
 6474SOL    HW220322   2.105   3.292   5.599
 6475SOL     OW20323   6.994   5.273   4.350
 6475SOL    HW120324   0.013   5.219   4.422
 6475SOL    HW220325   0.020   5.259   4.264
 6476SOL     OW20326   4.236   3.528   1.827
 6476SOL    HW120327   4.211   3.431   1.831
 6476SOL    HW220328   4.168   3.578   1.773
 6477SOL     OW20329   7.000   4.469   1.547
 6477SOL    HW120330   7.001   4.382   1.596
 6477SOL    HW220331   0.068   4.488   1.512
 6478SOL     OW20332   3.518   6.239   2.506
 6478SOL    HW120333   3.511   6.267   2.602
 6478SOL    HW220334   3.436   6.188   2.481
 6479SOL     OW20335   3.883   5.654   3.694
 6479SOL    HW120336   3.862   5.570   3.644
 6479SOL    HW220337   3.808   5.675   3.757
 6480SOL     OW20338   3.225   2.516   5.602
 6480SOL    HW120339   3.192   2.425   5.626
 6480SOL    HW220340   3.225   2.526   5.503
 6481SOL     OW20341   3.150   1.786   1.919
 6481SOL    HW120342   3.133   1.700   1.871
 6481SOL    HW220343   3.114   1.862   1.864
 6482SOL     OW20344   0.230   1.013   6.195
 6482SOL    HW120345   0.309   0.995   6.137
 6482SOL    HW220346   0.166   1.073   6.146
 6483SOL     OW20347   2.477   5.756   1.619
 6483SOL    HW120348   2.398   5.728   1.564
 6483SOL    HW220349   2.446   5.784   1.710
 6484SOL     OW20350   3.887   0.341   2.920
 6484SOL    HW120351   3.810   0.350   2.856
 6484SOL    HW220352   3.857   0.368   3.011
 6485SOL     OW20353   2.069   3.694   3.442
 6485SOL    HW120354   2.081   3.649   3.530
 6485SOL    HW220355   2.078   3.792   3.453
 6486SOL     OW20356   1.435   4.606   4.451
 6486SOL    HW120357   1.396   4.651   4.531
 6486SOL    HW220358   1.433   4.668   4.373
 6487SOL     OW20359   6.569   5.879   4.913
 6487SOL    HW120360   6.567   5.824   4.997
 6487SOL    HW220361   6.609   5.968   4.933
 6488SOL     OW20362   3.090   5.696   4.825
 6488SOL    HW120363   3.106   5.682   4.922
 6488SOL    HW220364   3.052   5.613   4.785
 6489SOL     OW20365   2.581   3.634   6.983
 6489SOL    HW120366   2.569   3.711   0.022
 6489SOL    HW220367   2.676   3.604   6.984
 6490SOL     OW20368   4.185   2.458   7.007
 6490SOL    HW120369   4.086   2.442   7.010
 6490SOL    HW220370   4.216   2.488   0.073
 6491SOL     OW20371   4.157   1.629   6.614
 6491SOL    HW120372   4.104   1.551   6.581
 6491SOL    HW220373   4.245   1.597   6.649
 6492SOL     OW20374   5.979   5.864   0.047
 6492SOL    HW120375   5.905   5.806   0.011
 6492SOL    HW220376   6.030   5.903   6.994
 6493SOL     OW20377   1.782   6.070   5.286
 6493SOL    HW120378   1.722   6.048   5.209
 6493SOL    HW220379   1.783   6.169   5.301
 6494SOL     OW20380   0.200   0.965   3.034
 6494SOL    HW120381   0.190   0.996   3.128
 6494SOL    HW220382   0.175   0.868   3.028
 6495SOL     OW20383   5.087   6.496   4.295
 6495SOL    HW120384   5.035   6.506   4.379
 6495SOL    HW220385   5.049   6.556   4.224
 6496SOL     OW20386   0.552   6.759   2.420
 6496SOL    HW120387   0.631   6.704   2.448
 6496SOL    HW220388   0.498   6.707   2.353
 6497SOL     OW20389   2.361   3.477   7.015
 6497SOL    HW120390   2.449   3.525   7.009
 6497SOL    HW220391   2.310   3.512   0.069
 6498SOL     OW20392   2.275   4.234   3.830
 6498SOL    HW120393   2.227   4.241   3.743
 6498SOL    HW220394   2.359   4.288   3.826
 6499SOL     OW20395   5.605   2.493   4.988
 6499SOL    HW120396   5.558   2.407   5.006
 6499SOL    HW220397   5.620   2.542   5.074
 6500SOL     OW20398   0.208   4.878   3.341
 6500SOL    HW120399   0.119   4.837   3.363
 6500SOL    HW220400   0.198   4.977   3.336
 6501SOL     OW20401   6.760   2.141   6.921
 6501SOL    HW120402   6.854   2.114   6.897
 6501SOL    HW220403   6.696   2.093   6.862
 6502SOL     OW20404   6.520   3.812   2.987
 6502SOL    HW120405   6.550   3.745   2.920
 6502SOL    HW220406   6.567   3.796   3.074
 6503SOL     OW20407   5.548   6.964   3.725
 6503SOL    HW120408   5.519   6.869   3.722
 6503SOL    HW220409   5.590   6.989   3.638
 6504SOL     OW20410   4.913   6.735   6.279
 6504SOL    HW120411   4.939   6.681   6.359
 6504SOL    HW220412   4.991   6.741   6.216
 6505SOL     OW20413   5.331   4.620   1.683
 6505SOL    HW120414   5.359   4.551   1.617
 6505SOL    HW220415   5.307   4.576   1.769
 6506SOL     OW20416   6.885   3.454   1.167
 6506SOL    HW120417   6.868   3.538   1.117
 6506SOL    HW220418   6.969   3.412   1.135
 6507SOL     OW20419   1.911   5.673   5.941
 6507SOL    HW120420   1.928   5.722   6.026
 6507SOL    HW220421   1.996   5.634   5.907
 6508SOL     OW20422   2.204   1.787   3.423
 6508SOL    HW120423   2.277   1.853   3.404
 6508SOL    HW220424   2.229   1.732   3.502
 6509SOL     OW20425   2.498   2.580   4.343
 6509SOL    HW120426   2.450   2.635   4.274
 6509SOL    HW220427   2.476   2.616   4.434
 6510SOL     OW20428   0.172   5.351   6.361
 6510SOL    HW120429   0.155   5.435   6.413
 6510SOL    HW220430   0.266   5.322   6.376
 6511SOL     OW20431   5.122   0.891   5.077
 6511SOL    HW120432   5.062   0.853   5.007
 6511SOL    HW220433   5.216   0.891   5.043
 6512SOL     OW20434   4.966   0.346   2.559
 6512SOL    HW120435   4.935   0.375   2.650
 6512SOL    HW220436   5.043   0.403   2.530
 6513SOL     OW20437   3.102   5.374   3.395
 6513SOL    HW120438   3.173   5.405   3.332
 6513SOL    HW220439   3.112   5.277   3.413
 6514SOL     OW20440   6.058   6.886   3.257
 6514SOL    HW120441   6.157   6.881   3.269
 6514SOL    HW220442   6.032   6.980   3.235
 6515SOL     OW20443   0.561   5.125   4.021
 6515SOL    HW120444   0.586   5.113   3.925
 6515SOL    HW220445   0.500   5.204   4.030
 6516SOL     OW20446   0.257   2.701   0.598
 6516SOL    HW120447   0.277   2.794   0.567
 6516SOL    HW220448   0.252   2.640   0.519
 6517SOL     OW20449   6.467   1.073   0.677
 6517SOL    HW120450   6.529   1.147   0.703
 6517SOL    HW220451   6.425   1.034   0.760
 6518SOL     OW20452   0.294   6.545   6.640
 6518SOL    HW120453   0.237   6.589   6.709
 6518SOL    HW220454   0.264   6.450   6.627
 6519SOL     OW20455   2.373   2.016   3.355
 6519SOL    HW120456   2.294   2.076   3.339
 6519SOL    HW220457   2.446   2.040   3.292
 6520SOL     OW20458   6.312   5.835   2.916
 6520SOL    HW120459   6.412   5.841   2.917
 6520SOL    HW220460   6.284   5.746   2.879
 6521SOL     OW20461   1.305   1.679   4.580
 6521SOL    HW120462   1.357   1.617   4.639
 6521SOL    HW220463   1.242   1.733   4.636
 6522SOL     OW20464   3.581   4.299   6.871
 6522SOL    HW120465   3.599   4.253   6.958
 6522SOL    HW220466   3.490   4.274   6.838
 6523SOL     OW20467   3.364   0.946   6.554
 6523SOL    HW120468   3.270   0.954   6.586
 6523SOL    HW220469   3.384   1.021   6.491
 6524SOL     OW20470   3.494   3.095   2.935
 6524SOL    HW120471   3.545   3.017   2.972
 6524SOL    HW220472   3.443   3.066   2.854
 6525SOL     OW20473   2.241   2.974   2.914
 6525SOL    HW120474   2.210   3.068   2.931
 6525SOL    HW220475   2.280   2.937   2.998
 6526SOL     OW20476   0.969   6.708   5.602
 6526SOL    HW120477   0.904   6.741   5.533
 6526SOL    HW220478   0.955   6.610   5.618
 6527SOL     OW20479   0.866   1.635   4.288
 6527SOL    HW120480   0.935   1.640   4.216
 6527SOL    HW220481   0.891   1.696   4.363
 6528SOL     OW20482   6.987   0.376   3.285
 6528SOL    HW120483   0.005   0.286   3.274
 6528SOL    HW220484   0.026   0.435   3.337
 6529SOL     OW20485   6.568   1.697   3.034
 6529SOL    HW120486   6.474   1.703   3.069
 6529SOL    HW220487   6.583   1.606   2.996
 6530SOL     OW20488   6.603   3.957   0.965
 6530SOL    HW120489   6.609   3.937   0.867
 6530SOL    HW220490   6.631   4.052   0.981
 6531SOL     OW20491   5.269   3.593   4.528
 6531SOL    HW120492   5.197   3.653   4.563
 6531SOL    HW220493   5.242   3.497   4.542
 6532SOL     OW20494   5.925   0.968   0.727
 6532SOL    HW120495   5.962   0.875   0.722
 6532SOL    HW220496   5.993   1.029   0.767
 6533SOL     OW20497   5.164   6.064   1.707
 6533SOL    HW120498   5.120   6.119   1.636
 6533SOL    HW220499   5.191   6.122   1.783
 6534SOL     OW20500   2.934   4.530   1.378
 6534SOL    HW120501   2.845   4.489   1.396
 6534SOL    HW220502   2.971   4.568   1.462
 6535SOL     OW20503   6.497   3.095   4.383
 6535SOL    HW120504   6.423   3.134   4.329
 6535SOL    HW220505   6.572   3.068   4.323
 6536SOL     OW20506   6.744   2.322   5.757
 6536SOL    HW120507   6.735   2.225   5.780
 6536SOL    HW220508   6.831   2.356   5.790
 6537SOL     OW20509   6.148   5.603   6.655
 6537SOL    HW120510   6.189   5.557   6.734
 6537SOL    HW220511   6.164   5.701   6.662
 6538SOL     OW20512   3.776   4.434   0.186
 6538SOL    HW120513   3.750   4.480   0.101
 6538SOL    HW220514   3.867   4.464   0.214
 6539SOL     OW20515   3.032   1.407   6.240
 6539SOL    HW120516   3.078   1.442   6.158
 6539SOL    HW220517   3.058   1.312   6.254
 6540SOL     OW20518   4.737   1.817   5.062
 6540SOL    HW120519   4.679   1.841   4.984
 6540SOL    HW220520   4.832   1.839   5.042
 6541SOL     OW20521   4.072   1.788   5.012
 6541SOL    HW120522   4.169   1.812   5.006
 6541SOL    HW220523   4.050   1.720   4.942
 6542SOL     OW20524   6.952   4.814   3.411
 6542SOL    HW120525   6.932   4.887   3.345
 6542SOL    HW220526   6.928   4.845   3.503
 6543SOL     OW20527   6.387   4.023   6.833
 6543SOL    HW120528   6.304   4.079   6.838
 6543SOL    HW220529   6.427   4.017   6.924
 6544SOL     OW20530   0.573   5.834   3.237
 6544SOL    HW120531   0.621   5.916   3.270
 6544SOL    HW220532   0.515   5.797   3.310
 6545SOL     OW20533   5.329   2.136   6.501
 6545SOL    HW120534   5.395   2.068   6.468
 6545SOL    HW220535   5.376   2.222   6.520
 6546SOL     OW20536   4.735   4.411   6.415
 6546SOL    HW120537   4.810   4.477   6.418
 6546SOL    HW220538   4.694   4.402   6.506
 6547SOL     OW20539   4.715   1.639   5.843
 6547SOL    HW120540   4.775   1.577   5.791
 6547SOL    HW220541   4.645   1.586   5.890
 6548SOL     OW20542   1.213   3.253   6.858
 6548SOL    HW120543   1.210   3.203   6.772
 6548SOL    HW220544   1.308   3.264   6.887
 6549SOL     OW20545   3.813   1.300   0.819
 6549SOL    HW120546   3.881   1.351   0.766
 6549SOL    HW220547   3.771   1.360   0.886
 6550SOL     OW20548   6.837   6.372   3.302
 6550SOL    HW120549   6.737   6.377   3.301
 6550SOL    HW220550   6.871   6.403   3.391
 6551SOL     OW20551   1.341   3.975   2.059
 6551SOL    HW120552   1.425   3.920   2.055
 6551SOL    HW220553   1.262   3.914   2.054
 6552SOL     OW20554   2.253   0.348   5.336
 6552SOL    HW120555   2.255   0.291   5.419
 6552SOL    HW220556   2.304   0.303   5.263
 6553SOL     OW20557   0.356   1.673   2.097
 6553SOL    HW120558   0.339   1.769   2.076
 6553SOL    HW220559   0.292   1.642   2.168
 6554SOL     OW20560   5.590   1.929   5.816
 6554SOL    HW120561   5.649   1.871   5.760
 6554SOL    HW220562   5.553   2.003   5.760
 6555SOL     OW20563   1.075   1.661   1.912
 6555SOL    HW120564   1.043   1.578   1.866
 6555SOL    HW220565   1.001   1.728   1.915
 6556SOL     OW20566   4.600   4.725   5.172
 6556SOL    HW120567   4.644   4.734   5.083
 6556SOL    HW220568   4.650   4.778   5.240
 6557SOL     OW20569   5.688   5.444   1.410
 6557SOL    HW120570   5.783   5.440   1.440
 6557SOL    HW220571   5.637   5.508   1.468
 6558SOL     OW20572   6.113   5.776   1.141
 6558SOL    HW120573   6.146   5.683   1.126
 6558SOL    HW220574   6.019   5.783   1.107
 6559SOL     OW20575   6.644   4.159   0.158
 6559SOL    HW120576   6.629   4.245   0.110
 6559SOL    HW220577   6.579   4.090   0.124
 6560SOL     OW20578   3.761   3.075   1.489
 6560SOL    HW120579   3.728   3.092   1.396
 6560SOL    HW220580   3.685   3.079   1.553
 6561SOL     OW20581   3.560   3.652   2.456
 6561SOL    HW120582   3.630   3.693   2.515
 6561SOL    HW220583   3.470   3.662   2.499
 6562SOL     OW20584   5.624   4.657   6.787
 6562SOL    HW120585   5.685   4.736   6.792
 6562SOL    HW220586   5.542   4.681   6.736
 6563SOL     OW20587   0.558   6.563   0.021
 6563SOL    HW120588   0.619   6.618   6.987
 6563SOL    HW220589   0.508   6.623   0.083
 6564SOL     OW20590   0.375   4.064   2.300
 6564SOL    HW120591   0.373   3.970   2.331
 6564SOL    HW220592   0.467   4.086   2.267
 6565SOL     OW20593   6.577   1.980   4.153
 6565SOL    HW120594   6.614   2.063   4.196
 6565SOL    HW220595   6.479   1.991   4.137
 6566SOL     OW20596   3.287   6.922   0.806
 6566SOL    HW120597   3.255   6.846   0.749
 6566SOL    HW220598   3.208   6.974   0.838
 6567SOL     OW20599   3.975   2.421   1.205
 6567SOL    HW120600   3.932   2.400   1.117
 6567SOL    HW220601   3.920   2.383   1.279
 6568SOL     OW20602   5.028   5.275   3.185
 6568SOL    HW120603   5.014   5.185   3.145
 6568SOL    HW220604   5.052   5.341   3.114
 6569SOL     OW20605   3.296   3.974   1.209
 6569SOL    HW120606   3.267   4.053   1.262
 6569SOL    HW220607   3.396   3.964   1.215
 6570SOL     OW20608   4.540   6.633   1.425
 6570SOL    HW120609   4.477   6.702   1.460
 6570SOL    HW220610   4.634   6.658   1.449
 6571SOL     OW20611   2.501   6.356   2.118
 6571SOL    HW120612   2.521   6.441   2.168
 6571SOL    HW220613   2.574   6.338   2.053
 6572SOL     OW20614   6.397   5.233   5.585
 6572SOL    HW120615   6.317   5.172   5.584
 6572SOL    HW220616   6.377   5.311   5.644
 6573SOL     OW20617   2.843   1.448   2.808
 6573SOL    HW120618   2.784   1.368   2.803
 6573SOL    HW220619   2.928   1.425   2.856
 6574SOL     OW20620   2.860   5.919   2.330
 6574SOL    HW120621   2.912   5.866   2.397
 6574SOL    HW220622   2.762   5.905   2.345
 6575SOL     OW20623   0.794   1.739   1.501
 6575SOL    HW120624   0.835   1.648   1.511
 6575SOL    HW220625   0.860   1.808   1.529
 6576SOL     OW20626   1.227   6.834   6.901
 6576SOL    HW120627   1.244   6.769   6.827
 6576SOL    HW220628   1.130   6.860   6.901
 6577SOL     OW20629   0.094   1.468   3.340
 6577SOL    HW120630   0.006   1.452   3.294
 6577SOL    HW220631   0.097   1.563   3.373
 6578SOL     OW20632   0.606   4.582   3.122
 6578SOL    HW120633   0.524   4.604   3.176
 6578SOL    HW220634   0.640   4.666   3.078
 6579SOL     OW20635   0.566   3.912   4.658
 6579SOL    HW120636   0.638   3.934   4.592
 6579SOL    HW220637   0.595   3.937   4.750
 6580SOL     OW20638   6.627   1.401   1.229
 6580SOL    HW120639   6.626   1.484   1.173
 6580SOL    HW220640   6.556   1.338   1.197
 6581SOL     OW20641   3.586   1.342   6.419
 6581SOL    HW120642   3.665   1.293   6.383
 6581SOL    HW220643   3.610   1.382   6.508
 6582SOL     OW20644   1.670   0.756   1.820
 6582SOL    HW120645   1.604   0.831   1.825
 6582SOL    HW220646   1.628   0.673   1.854
 6583SOL     OW20647   4.201   0.887   5.969
 6583SOL    HW120648   4.151   0.962   5.926
 6583SOL    HW220649   4.189   0.891   6.069
 6584SOL     OW20650   5.083   1.722   0.056
 6584SOL    HW120651   5.079   1.779   0.138
 6584SOL    HW220652   5.045   1.773   7.003
 6585SOL     OW20653   6.196   1.296   0.257
 6585SOL    HW120654   6.255   1.368   0.295
 6585SOL    HW220655   6.172   1.319   0.163
 6586SOL     OW20656   5.866   2.483   5.884
 6586SOL    HW120657   5.816   2.490   5.971
 6586SOL    HW220658   5.964   2.485   5.902
 6587SOL     OW20659   3.168   5.166   3.984
 6587SOL    HW120660   3.165   5.208   4.074
 6587SOL    HW220661   3.248   5.200   3.934
 6588SOL     OW20662   1.413   4.103   1.403
 6588SOL    HW120663   1.512   4.108   1.420
 6588SOL    HW220664   1.387   4.174   1.338
 6589SOL     OW20665   4.458   0.515   6.530
 6589SOL    HW120666   4.386   0.448   6.513
 6589SOL    HW220667   4.429   0.604   6.493
 6590SOL     OW20668   0.949   1.547   6.243
 6590SOL    HW120669   0.978   1.629   6.294
 6590SOL    HW220670   0.889   1.575   6.169
 6591SOL     OW20671   5.450   6.164   2.098
 6591SOL    HW120672   5.540   6.150   2.138
 6591SOL    HW220673   5.393   6.215   2.162
 6592SOL     OW20674   5.688   6.670   4.264
 6592SOL    HW120675   5.767   6.654   4.205
 6592SOL    HW220676   5.629   6.739   4.222
 6593SOL     OW20677   2.286   2.436   3.506
 6593SOL    HW120678   2.229   2.386   3.441
 6593SOL    HW220679   2.268   2.402   3.599
 6594SOL     OW20680   4.131   1.437   0.936
 6594SOL    HW120681   4.112   1.343   0.907
 6594SOL    HW220682   4.094   1.452   1.027
 6595SOL     OW20683   0.324   3.416   0.534
 6595SOL    HW120684   0.235   3.374   0.516
 6595SOL    HW220685   0.316   3.515   0.523
 6596SOL     OW20686   3.608   6.847   4.683
 6596SOL    HW120687   3.672   6.771   4.687
 6596SOL    HW220688   3.658   6.933   4.670
 6597SOL     OW20689   1.293   6.272   3.243
 6597SOL    HW120690   1.250   6.184   3.262
 6597SOL    HW220691   1.299   6.285   3.144
 6598SOL     OW20692   1.377   6.554   4.595
 6598SOL    HW120693   1.390   6.468   4.547
 6598SOL    HW220694   1.297   6.549   4.655
 6599SOL     OW20695   3.641   5.119   5.387
 6599SOL    HW120696   3.580   5.196   5.366
 6599SOL    HW220697   3.636   5.052   5.314
 6600SOL     OW20698   5.078   5.335   5.929
 6600SOL    HW120699   5.160   5.392   5.926
 6600SOL    HW220700   5.094   5.250   5.879
 6601SOL     OW20701   0.853   1.108   0.344
 6601SOL    HW120702   0.942   1.120   0.299
 6601SOL    HW220703   0.821   1.014   0.328
 6602SOL     OW20704   6.162   1.504   1.622
 6602SOL    HW120705   6.190   1.440   1.550
 6602SOL    HW220706   6.232   1.505   1.694
 6603SOL     OW20707   0.982   2.677   4.264
 6603SOL    HW120708   1.080   2.664   4.281
 6603SOL    HW220709   0.940   2.588   4.247
 6604SOL     OW20710   2.616   6.153   1.506
 6604SOL    HW120711   2.630   6.059   1.473
 6604SOL    HW220712   2.528   6.186   1.473
 6605SOL     OW20713   5.182   5.002   0.747
 6605SOL    HW120714   5.230   4.956   0.822
 6605SOL    HW220715   5.094   5.038   0.780
 6606SOL     OW20716   4.915   0.008   1.854
 6606SOL    HW120717   4.961   6.949   1.885
 6606SOL    HW220718   4.858   0.044   1.928
 6607SOL     OW20719   1.747   2.366   1.321
 6607SOL    HW120720   1.738   2.349   1.419
 6607SOL    HW220721   1.784   2.285   1.276
 6608SOL     OW20722   5.131   4.858   1.745
 6608SOL    HW120723   5.156   4.783   1.807
 6608SOL    HW220724   5.035   4.846   1.716
 6609SOL     OW20725   4.821   1.063   6.220
 6609SOL    HW120726   4.752   0.991   6.225
 6609SOL    HW220727   4.825   1.112   6.307
 6610SOL     OW20728   2.270   0.505   6.406
 6610SOL    HW120729   2.208   0.544   6.338
 6610SOL    HW220730   2.308   0.577   6.463
 6611SOL     OW20731   6.716   2.741   3.158
 6611SOL    HW120732   6.767   2.757   3.242
 6611SOL    HW220733   6.704   2.643   3.144
 6612SOL     OW20734   0.360   3.032   6.905
 6612SOL    HW120735   0.262   3.023   6.893
 6612SOL    HW220736   0.379   3.111   6.964
 6613SOL     OW20737   5.598   5.889   4.002
 6613SOL    HW120738   5.594   5.796   4.039
 6613SOL    HW220739   5.505   5.923   3.986
 6614SOL     OW20740   5.086   6.032   6.951
 6614SOL    HW120741   5.089   6.079   0.015
 6614SOL    HW220742   5.119   5.938   6.962
 6615SOL     OW20743   1.072   4.288   4.339
 6615SOL    HW120744   1.164   4.321   4.360
 6615SOL    HW220745   1.007   4.363   4.346
 6616SOL     OW20746   4.445   1.163   6.342
 6616SOL    HW120747   4.493   1.127   6.421
 6616SOL    HW220748   4.349   1.178   6.365
 6617SOL     OW20749   3.002   6.089   3.264
 6617SOL    HW120750   3.009   6.043   3.176
 6617SOL    HW220751   3.093   6.112   3.298
 6618SOL     OW20752   1.228   3.157   2.971
 6618SOL    HW120753   1.286   3.153   3.053
 6618SOL    HW220754   1.267   3.222   2.906
 6619SOL     OW20755   6.642   0.065   4.919
 6619SOL    HW120756   6.644   7.002   4.870
 6619SOL    HW220757   6.735   0.097   4.935
 6620SOL     OW20758   1.975   2.840   5.250
 6620SOL    HW120759   2.034   2.766   5.285
 6620SOL    HW220760   2.030   2.901   5.193
 6621SOL     OW20761   2.591   3.248   6.998
 6621SOL    HW120762   2.665   3.183   7.013
 6621SOL    HW220763   2.574   3.299   0.059
 6622SOL     OW20764   5.923   6.261   1.673
 6622SOL    HW120765   5.841   6.318   1.664
 6622SOL    HW220766   5.923   6.217   1.763
 6623SOL     OW20767   3.099   3.519   1.266
 6623SOL    HW120768   3.102   3.619   1.263
 6623SOL    HW220769   3.140   3.487   1.351
 6624SOL     OW20770   1.809   0.434   4.178
 6624SOL    HW120771   1.730   0.373   4.174
 6624SOL    HW220772   1.891   0.380   4.197
 6625SOL     OW20773   5.107   1.751   6.159
 6625SOL    HW120774   5.096   1.805   6.075
 6625SOL    HW220775   5.201   1.718   6.165
 6626SOL     OW20776   4.132   4.944   3.931
 6626SOL    HW120777   4.123   4.855   3.887
 6626SOL    HW220778   4.224   4.980   3.916
 6627SOL     OW20779   2.534   0.616   5.748
 6627SOL    HW120780   2.583   0.590   5.664
 6627SOL    HW220781   2.589   0.681   5.799
 6628SOL     OW20782   4.713   5.056   3.850
 6628SOL    HW120783   4.635   5.018   3.900
 6628SOL    HW220784   4.686   5.139   3.801
 6629SOL     OW20785   2.850   6.037   0.051
 6629SOL    HW120786   2.867   6.009   6.981
 6629SOL    HW220787   2.754   6.060   0.063
 6630SOL     OW20788   3.585   1.451   1.388
 6630SOL    HW120789   3.512   1.512   1.420
 6630SOL    HW220790   3.656   1.505   1.343
 6631SOL     OW20791   4.005   0.555   2.038
 6631SOL    HW120792   4.017   0.530   2.134
 6631SOL    HW220793   4.032   0.650   2.024
 6632SOL     OW20794   0.420   0.567   2.142
 6632SOL    HW120795   0.520   0.566   2.141
 6632SOL    HW220796   0.388   0.662   2.143
 6633SOL     OW20797   1.392   5.140   5.963
 6633SOL    HW120798   1.425   5.145   5.868
 6633SOL    HW220799   1.458   5.088   6.018
 6634SOL     OW20800   5.465   3.451   5.477
 6634SOL    HW120801   5.527   3.491   5.408
 6634SOL    HW220802   5.510   3.373   5.521
 6635SOL     OW20803   4.122   5.433   3.351
 6635SOL    HW120804   4.116   5.533   3.346
 6635SOL    HW220805   4.100   5.404   3.444
 6636SOL     OW20806   3.392   1.959   6.099
 6636SOL    HW120807   3.483   1.996   6.118
 6636SOL    HW220808   3.322   2.027   6.121
 6637SOL     OW20809   1.534   0.299   6.448
 6637SOL    HW120810   1.595   0.325   6.523
 6637SOL    HW220811   1.568   0.215   6.406
 6638SOL     OW20812   4.001   4.923   5.156
 6638SOL    HW120813   3.956   4.937   5.068
 6638SOL    HW220814   3.940   4.872   5.217
 6639SOL     OW20815   5.957   6.351   6.929
 6639SOL    HW120816   5.883   6.403   6.973
 6639SOL    HW220817   6.039   6.356   6.987
 6640SOL     OW20818   6.735   2.291   5.437
 6640SOL    HW120819   6.781   2.227   5.498
 6640SOL    HW220820   6.796   2.368   5.416
 6641SOL     OW20821   2.448   2.257   6.790
 6641SOL    HW120822   2.406   2.346   6.774
 6641SOL    HW220823   2.496   2.257   6.877
 6642SOL     OW20824   2.758   5.647   0.391
 6642SOL    HW120825   2.810   5.574   0.434
 6642SOL    HW220826   2.682   5.674   0.451
 6643SOL     OW20827   6.618   4.563   6.512
 6643SOL    HW120828   6.576   4.651   6.491
 6643SOL    HW220829   6.548   4.493   6.521
 6644SOL     OW20830   2.836   4.771   1.759
 6644SOL    HW120831   2.873   4.755   1.667
 6644SOL    HW220832   2.839   4.686   1.811
 6645SOL     OW20833   6.832   5.207   6.990
 6645SOL    HW120834   6.745   5.214   0.016
 6645SOL    HW220835   6.892   5.281   7.017
 6646SOL     OW20836   3.922   6.260   4.426
 6646SOL    HW120837   3.962   6.343   4.390
 6646SOL    HW220838   3.905   6.271   4.524
 6647SOL     OW20839   3.388   1.373   2.190
 6647SOL    HW120840   3.361   1.320   2.271
 6647SOL    HW220841   3.387   1.470   2.211
 6648SOL     OW20842   3.093   5.912   2.146
 6648SOL    HW120843   3.020   5.900   2.214
 6648SOL    HW220844   3.093   5.834   2.084
 6649SOL     OW20845   4.887   1.774   6.862
 6649SOL    HW120846   4.880   1.687   6.813
 6649SOL    HW220847   4.938   1.839   6.807
 6650SOL     OW20848   4.267   1.128   5.425
 6650SOL    HW120849   4.213   1.207   5.455
 6650SOL    HW220850   4.211   1.046   5.431
 6651SOL     OW20851   1.681   1.596   6.442
 6651SOL    HW120852   1.645   1.689   6.451
 6651SOL    HW220853   1.781   1.599   6.437
 6652SOL     OW20854   6.766   4.964   0.423
 6652SOL    HW120855   6.740   5.008   0.509
 6652SOL    HW220856   6.683   4.949   0.368
 6653SOL     OW20857   3.730   3.288   2.931
 6653SOL    HW120858   3.706   3.368   2.986
 6653SOL    HW220859   3.653   3.225   2.927
 6654SOL     OW20860   1.845   3.115   1.120
 6654SOL    HW120861   1.746   3.130   1.128
 6654SOL    HW220862   1.887   3.122   1.210
 6655SOL     OW20863   2.999   6.617   1.631
 6655SOL    HW120864   3.077   6.675   1.611
 6655SOL    HW220865   2.915   6.672   1.631
 6656SOL     OW20866   5.808   1.512   2.708
 6656SOL    HW120867   5.768   1.543   2.622
 6656SOL    HW220868   5.763   1.559   2.784
 6657SOL     OW20869   4.961   6.277   6.474
 6657SOL    HW120870   4.862   6.279   6.466
 6657SOL    HW220871   4.986   6.242   6.564
 6658SOL     OW20872   5.915   1.529   4.549
 6658SOL    HW120873   5.973   1.448   4.538
 6658SOL    HW220874   5.881   1.557   4.460
 6659SOL     OW20875   2.778   2.147   0.544
 6659SOL    HW120876   2.742   2.240   0.552
 6659SOL    HW220877   2.707   2.088   0.505
 6660SOL     OW20878   0.073   6.056   0.697
 6660SOL    HW120879   0.086   6.154   0.717
 6660SOL    HW220880   7.004   6.029   0.720
 6661SOL     OW20881   0.505   5.911   3.901
 6661SOL    HW120882   0.475   5.989   3.956
 6661SOL    HW220883   0.425   5.866   3.861
 6662SOL     OW20884   1.344   0.535   0.091
 6662SOL    HW120885   1.334   0.602   0.018
 6662SOL    HW220886   1.362   0.582   0.177
 6663SOL     OW20887   6.953   5.384   3.115
 6663SOL    HW120888   6.966   5.445   3.036
 6663SOL    HW220889   6.997   5.296   3.096
 6664SOL     OW20890   1.772   6.986   1.176
 6664SOL    HW120891   1.708   6.981   1.099
 6664SOL    HW220892   1.724   6.960   1.260
 6665SOL     OW20893   2.376   0.831   2.795
 6665SOL    HW120894   2.298   0.823   2.856
 6665SOL    HW220895   2.353   0.892   2.719
 6666SOL     OW20896   5.398   1.579   5.821
 6666SOL    HW120897   5.451   1.514   5.766
 6666SOL    HW220898   5.301   1.561   5.809
 6667SOL     OW20899   0.078   5.654   5.285
 6667SOL    HW120900   0.124   5.637   5.198
 6667SOL    HW220901   0.144   5.687   5.352
 6668SOL     OW20902   6.393   5.864   1.697
 6668SOL    HW120903   6.459   5.808   1.748
 6668SOL    HW220904   6.408   5.961   1.719
 6669SOL     OW20905   2.227   2.934   4.095
 6669SOL    HW120906   2.130   2.949   4.080
 6669SOL    HW220907   2.278   3.018   4.075
 6670SOL     OW20908   3.438   3.203   6.113
 6670SOL    HW120909   3.386   3.136   6.166
 6670SOL    HW220910   3.498   3.254   6.173
 6671SOL     OW20911   5.078   5.613   1.244
 6671SOL    HW120912   5.106   5.586   1.151
 6671SOL    HW220913   5.160   5.619   1.302
 6672SOL     OW20914   1.068   1.703   4.910
 6672SOL    HW120915   0.987   1.758   4.930
 6672SOL    HW220916   1.119   1.687   4.995
 6673SOL     OW20917   4.653   6.204   3.281
 6673SOL    HW120918   4.572   6.165   3.236
 6673SOL    HW220919   4.734   6.187   3.226
 6674SOL     OW20920   0.883   5.187   6.751
 6674SOL    HW120921   0.955   5.215   6.688
 6674SOL    HW220922   0.837   5.106   6.716
 6675SOL     OW20923   4.408   3.949   1.696
 6675SOL    HW120924   4.384   3.975   1.602
 6675SOL    HW220925   4.382   4.023   1.758
 6676SOL     OW20926   0.420   4.164   5.843
 6676SOL    HW120927   0.501   4.105   5.853
 6676SOL    HW220928   0.435   4.229   5.769
 6677SOL     OW20929   0.443   2.718   0.169
 6677SOL    HW120930   0.455   2.650   0.097
 6677SOL    HW220931   0.533   2.750   0.200
 6678SOL     OW20932   1.886   2.454   0.028
 6678SOL    HW120933   1.805   2.466   0.086
 6678SOL    HW220934   1.938   2.375   0.060
 6679SOL     OW20935   2.608   1.825   4.168
 6679SOL    HW120936   2.568   1.733   4.160
 6679SOL    HW220937   2.707   1.817   4.181
 6680SOL     OW20938   4.153   6.335   6.331
 6680SOL    HW120939   4.203   6.387   6.262
 6680SOL    HW220940   4.057   6.325   6.303
 6681SOL     OW20941   4.981   4.791   0.024
 6681SOL    HW120942   5.029   4.740   6.977
 6681SOL    HW220943   4.945   4.727   0.092
 6682SOL     OW20944   0.740   3.991   2.499
 6682SOL    HW120945   0.690   4.076   2.482
 6682SOL    HW220946   0.831   3.997   2.460
 6683SOL     OW20947   5.108   2.447   5.706
 6683SOL    HW120948   5.047   2.380   5.747
 6683SOL    HW220949   5.197   2.445   5.753
 6684SOL     OW20950   2.195   6.883   0.710
 6684SOL    HW120951   2.112   6.870   0.763
 6684SOL    HW220952   2.244   6.964   0.744
 6685SOL     OW20953   5.370   2.563   5.286
 6685SOL    HW120954   5.463   2.592   5.265
 6685SOL    HW220955   5.346   2.594   5.378
 6686SOL     OW20956   5.112   5.646   3.736
 6686SOL    HW120957   5.016   5.663   3.758
 6686SOL    HW220958   5.138   5.555   3.769
 6687SOL     OW20959   0.150   1.703   1.255
 6687SOL    HW120960   0.191   1.617   1.285
 6687SOL    HW220961   0.143   1.703   1.155
 6688SOL     OW20962   0.106   4.039   1.800
 6688SOL    HW120963   0.164   4.068   1.875
 6688SOL    HW220964   0.034   3.979   1.835
 6689SOL     OW20965   4.026   3.240   0.492
 6689SOL    HW120966   4.124   3.244   0.514
 6689SOL    HW220967   3.984   3.329   0.510
 6690SOL     OW20968   2.457   0.794   2.075
 6690SOL    HW120969   2.505   0.707   2.063
 6690SOL    HW220970   2.463   0.847   1.991
 6691SOL     OW20971   3.122   5.732   1.938
 6691SOL    HW120972   3.211   5.767   1.909
 6691SOL    HW220973   3.126   5.633   1.949
 6692SOL     OW20974   2.733   4.690   5.295
 6692SOL    HW120975   2.644   4.669   5.254
 6692SOL    HW220976   2.805   4.640   5.246
 6693SOL     OW20977   4.808   3.573   5.828
 6693SOL    HW120978   4.833   3.650   5.770
 6693SOL    HW220979   4.722   3.593   5.875
 6694SOL     OW20980   4.747   6.396   0.056
 6694SOL    HW120981   4.679   6.423   7.012
 6694SOL    HW220982   4.745   6.462   0.132
 6695SOL     OW20983   1.576   1.738   5.791
 6695SOL    HW120984   1.636   1.781   5.859
 6695SOL    HW220985   1.529   1.809   5.739
 6696SOL     OW20986   1.390   2.160   0.289
 6696SOL    HW120987   1.406   2.143   0.386
 6696SOL    HW220988   1.453   2.104   0.235
 6697SOL     OW20989   4.423   2.425   3.759
 6697SOL    HW120990   4.346   2.414   3.696
 6697SOL    HW220991   4.503   2.375   3.723
 6698SOL     OW20992   3.156   2.964   0.654
 6698SOL    HW120993   3.102   2.957   0.570
 6698SOL    HW220994   3.097   2.994   0.729
 6699SOL     OW20995   3.549   4.728   6.968
 6699SOL    HW120996   3.598   4.757   0.027
 6699SOL    HW220997   3.462   4.686   6.994
 6700SOL     OW20998   0.198   6.045   1.117
 6700SOL    HW120999   0.272   6.061   1.052
 6700SOL    HW221000   0.233   5.990   1.193
 6701SOL     OW21001   5.820   3.025   1.303
 6701SOL    HW121002   5.848   3.074   1.386
 6701SOL    HW221003   5.791   2.933   1.327
 6702SOL     OW21004   2.545   2.354   0.553
 6702SOL    HW121005   2.560   2.390   0.461
 6702SOL    HW221006   2.547   2.429   0.619
 6703SOL     OW21007   6.694   1.800   6.919
 6703SOL    HW121008   6.687   1.855   6.836
 6703SOL    HW221009   6.696   1.703   6.894
 6704SOL     OW21010   4.359   2.420   2.951
 6704SOL    HW121011   4.399   2.483   3.017
 6704SOL    HW221012   4.421   2.411   2.873
 6705SOL     OW21013   0.058   1.647   1.996
 6705SOL    HW121014   0.073   1.746   1.989
 6705SOL    HW221015   0.016   1.613   1.912
 6706SOL     OW21016   1.237   4.053   0.732
 6706SOL    HW121017   1.144   4.077   0.705
 6706SOL    HW221018   1.235   3.994   0.812
 6707SOL     OW21019   0.091   5.368   4.656
 6707SOL    HW121020   0.027   5.442   4.636
 6707SOL    HW221021   0.081   5.296   4.588
 6708SOL     OW21022   1.759   5.558   2.914
 6708SOL    HW121023   1.821   5.500   2.861
 6708SOL    HW221024   1.717   5.625   2.854
 6709SOL     OW21025   2.887   5.442   1.854
 6709SOL    HW121026   2.878   5.498   1.772
 6709SOL    HW221027   2.984   5.428   1.874
 6710SOL     OW21028   2.489   2.075   5.940
 6710SOL    HW121029   2.463   2.138   6.014
 6710SOL    HW221030   2.409   2.054   5.885
 6711SOL     OW21031   6.073   4.676   6.389
 6711SOL    HW121032   6.135   4.750   6.415
 6711SOL    HW221033   6.097   4.593   6.440
 6712SOL     OW21034   4.487   5.368   0.231
 6712SOL    HW121035   4.444   5.449   0.271
 6712SOL    HW221036   4.531   5.394   0.144
 6713SOL     OW21037   2.095   1.759   1.251
 6713SOL    HW121038   2.103   1.852   1.287
 6713SOL    HW221039   2.161   1.746   1.177
 6714SOL     OW21040   5.298   0.655   5.777
 6714SOL    HW121041   5.391   0.629   5.752
 6714SOL    HW221042   5.238   0.575   5.772
 6715SOL     OW21043   0.187   0.829   0.009
 6715SOL    HW121044   0.278   0.799   0.038
 6715SOL    HW221045   0.127   0.834   0.088
 6716SOL     OW21046   1.153   6.017   1.989
 6716SOL    HW121047   1.081   6.053   1.930
 6716SOL    HW221048   1.122   6.020   2.085
 6717SOL     OW21049   4.447   2.861   0.744
 6717SOL    HW121050   4.533   2.825   0.781
 6717SOL    HW221051   4.373   2.796   0.764
 6718SOL     OW21052   3.873   6.321   6.300
 6718SOL    HW121053   3.788   6.283   6.336
 6718SOL    HW221054   3.876   6.420   6.318
 6719SOL     OW21055   0.095   0.358   6.124
 6719SOL    HW121056   0.178   0.306   6.145
 6719SOL    HW221057   0.107   0.453   6.155
 6720SOL     OW21058   2.124   6.163   1.922
 6720SOL    HW121059   2.201   6.100   1.911
 6720SOL    HW221060   2.133   6.212   2.008
 6721SOL     OW21061   6.370   6.691   4.942
 6721SOL    HW121062   6.355   6.672   5.039
 6721SOL    HW221063   6.295   6.748   4.908
 6722SOL     OW21064   5.182   3.443   0.875
 6722SOL    HW121065   5.275   3.476   0.892
 6722SOL    HW221066   5.130   3.445   0.960
 6723SOL     OW21067   2.414   6.952   3.514
 6723SOL    HW121068   2.416   0.013   3.461
 6723SOL    HW221069   2.470   6.963   3.596
 6724SOL     OW21070   1.244   3.940   5.847
 6724SOL    HW121071   1.340   3.964   5.833
 6724SOL    HW221072   1.197   3.939   5.759
 6725SOL     OW21073   0.815   4.075   1.905
 6725SOL    HW121074   0.806   4.136   1.827
 6725SOL    HW221075   0.912   4.055   1.921
 6726SOL     OW21076   1.167   2.186   3.936
 6726SOL    HW121077   1.135   2.203   3.843
 6726SOL    HW221078   1.111   2.114   3.978
 6727SOL     OW21079   5.988   3.945   5.749
 6727SOL    HW121080   5.981   3.900   5.660
 6727SOL    HW221081   6.049   3.893   5.809
 6728SOL     OW21082   4.653   1.194   4.513
 6728SOL    HW121083   4.673   1.208   4.610
 6728SOL    HW221084   4.653   1.282   4.466
 6729SOL     OW21085   6.359   1.526   2.333
 6729SOL    HW121086   6.275   1.473   2.326
 6729SOL    HW221087   6.370   1.559   2.427
 6730SOL     OW21088   2.038   6.357   6.690
 6730SOL    HW121089   2.011   6.414   6.612
 6730SOL    HW221090   2.019   6.407   6.775
 6731SOL     OW21091   2.261   4.553   1.018
 6731SOL    HW121092   2.265   4.617   0.941
 6731SOL    HW221093   2.353   4.521   1.039
 6732SOL     OW21094   3.412   5.751   6.687
 6732SOL    HW121095   3.506   5.786   6.684
 6732SOL    HW221096   3.396   5.693   6.607
 6733SOL     OW21097   4.152   5.259   6.560
 6733SOL    HW121098   4.196   5.269   6.471
 6733SOL    HW221099   4.145   5.349   6.604
 6734SOL     OW21100   0.893   3.242   5.920
 6734SOL    HW121101   0.850   3.331   5.929
 6734SOL    HW221102   0.883   3.209   5.826
 6735SOL     OW21103   0.362   5.387   5.219
 6735SOL    HW121104   0.312   5.449   5.159
 6735SOL    HW221105   0.459   5.387   5.194
 6736SOL     OW21106   1.825   3.412   0.410
 6736SOL    HW121107   1.762   3.417   0.332
 6736SOL    HW221108   1.892   3.485   0.404
 6737SOL     OW21109   2.069   2.270   1.097
 6737SOL    HW121110   2.134   2.335   1.056
 6737SOL    HW221111   2.093   2.255   1.192
 6738SOL     OW21112   1.780   2.774   2.027
 6738SOL    HW121113   1.768   2.693   1.970
 6738SOL    HW221114   1.839   2.839   1.980
 6739SOL     OW21115   3.172   5.573   5.811
 6739SOL    HW121116   3.227   5.511   5.867
 6739SOL    HW221117   3.220   5.660   5.800
 6740SOL     OW21118   2.115   1.495   4.477
 6740SOL    HW121119   2.211   1.480   4.499
 6740SOL    HW221120   2.084   1.425   4.412
 6741SOL     OW21121   4.755   1.741   6.193
 6741SOL    HW121122   4.834   1.783   6.148
 6741SOL    HW221123   4.718   1.806   6.260
 6742SOL     OW21124   0.264   5.794   3.805
 6742SOL    HW121125   0.272   5.733   3.884
 6742SOL    HW221126   0.215   5.747   3.731
 6743SOL     OW21127   4.344   4.196   6.576
 6743SOL    HW121128   4.270   4.251   6.613
 6743SOL    HW221129   4.364   4.226   6.482
 6744SOL     OW21130   4.124   5.566   6.031
 6744SOL    HW121131   4.109   5.657   5.992
 6744SOL    HW221132   4.127   5.498   5.958
 6745SOL     OW21133   1.095   5.540   2.576
 6745SOL    HW121134   1.133   5.608   2.639
 6745SOL    HW221135   1.123   5.448   2.603
 6746SOL     OW21136   0.467   0.469   2.413
 6746SOL    HW121137   0.472   0.487   2.511
 6746SOL    HW221138   0.479   0.554   2.363
 6747SOL     OW21139   5.584   6.108   4.432
 6747SOL    HW121140   5.557   6.192   4.479
 6747SOL    HW221141   5.674   6.079   4.466
 6748SOL     OW21142   1.319   0.790   2.750
 6748SOL    HW121143   1.246   0.722   2.745
 6748SOL    HW221144   1.280   0.879   2.775
 6749SOL     OW21145   2.817   6.755   0.004
 6749SOL    HW121146   2.734   6.810   0.008
 6749SOL    HW221147   2.818   6.702   6.943
 6750SOL     OW21148   3.969   1.514   4.717
 6750SOL    HW121149   4.042   1.491   4.782
 6750SOL    HW221150   3.881   1.513   4.764
 6751SOL     OW21151   3.299   2.145   3.704
 6751SOL    HW121152   3.274   2.103   3.617
 6751SOL    HW221153   3.217   2.182   3.748
 6752SOL     OW21154   6.285   2.843   1.732
 6752SOL    HW121155   6.202   2.840   1.786
 6752SOL    HW221156   6.287   2.765   1.669
 6753SOL     OW21157   4.512   1.795   6.784
 6753SOL    HW121158   4.464   1.716   6.823
 6753SOL    HW221159   4.467   1.879   6.813
 6754SOL     OW21160   6.559   2.081   5.868
 6754SOL    HW121161   6.598   1.998   5.829
 6754SOL    HW221162   6.530   2.063   5.962
 6755SOL     OW21163   4.925   1.630   3.871
 6755SOL    HW121164   4.901   1.661   3.962
 6755SOL    HW221165   4.852   1.572   3.834
 6756SOL     OW21166   4.720   4.178   4.027
 6756SOL    HW121167   4.736   4.097   4.083
 6756SOL    HW221168   4.662   4.242   4.077
 6757SOL     OW21169   4.996   5.962   0.549
 6757SOL    HW121170   4.909   6.006   0.529
 6757SOL    HW221171   5.068   6.002   0.492
 6758SOL     OW21172   4.907   3.502   1.976
 6758SOL    HW121173   4.854   3.585   1.960
 6758SOL    HW221174   4.884   3.433   1.908
 6759SOL     OW21175   1.154   3.918   3.969
 6759SOL    HW121176   1.178   3.831   3.926
 6759SOL    HW221177   1.232   3.953   4.021
 6760SOL     OW21178   0.158   4.916   4.795
 6760SOL    HW121179   0.113   4.855   4.861
 6760SOL    HW221180   0.233   4.964   4.841
 6761SOL     OW21181   5.579   2.827   6.114
 6761SOL    HW121182   5.605   2.860   6.024
 6761SOL    HW221183   5.491   2.780   6.108
 6762SOL     OW21184   6.671   5.362   3.170
 6762SOL    HW121185   6.636   5.301   3.099
 6762SOL    HW221186   6.761   5.397   3.143
 6763SOL     OW21187   6.451   5.730   4.154
 6763SOL    HW121188   6.512   5.731   4.232
 6763SOL    HW221189   6.368   5.679   4.177
 6764SOL     OW21190   3.211   3.909   5.958
 6764SOL    HW121191   3.278   3.934   5.888
 6764SOL    HW221192   3.230   3.817   5.990
 6765SOL     OW21193   6.363   5.043   3.461
 6765SOL    HW121194   6.422   4.968   3.432
 6765SOL    HW221195   6.379   5.122   3.402
 6766SOL     OW21196   2.480   0.377   5.901
 6766SOL    HW121197   2.480   0.444   5.827
 6766SOL    HW221198   2.548   0.306   5.882
 6767SOL     OW21199   0.514   2.475   0.386
 6767SOL    HW121200   0.422   2.506   0.361
 6767SOL    HW221201   0.523   2.378   0.363
 6768SOL     OW21202   0.422   0.700   3.353
 6768SOL    HW121203   0.420   0.670   3.257
 6768SOL    HW221204   0.484   0.641   3.405
 6769SOL     OW21205   3.212   1.835   5.245
 6769SOL    HW121206   3.161   1.749   5.252
 6769SOL    HW221207   3.197   1.876   5.155
 6770SOL     OW21208   0.322   2.797   4.283
 6770SOL    HW121209   0.280   2.887   4.289
 6770SOL    HW221210   0.281   2.745   4.208
 6771SOL     OW21211   3.799   1.889   2.993
 6771SOL    HW121212   3.731   1.960   3.011
 6771SOL    HW221213   3.864   1.885   3.068
 6772SOL     OW21214   5.291   1.960   2.545
 6772SOL    HW121215   5.363   2.021   2.511
 6772SOL    HW221216   5.221   1.949   2.474
 6773SOL     OW21217   6.820   6.310   1.512
 6773SOL    HW121218   6.879   6.333   1.435
 6773SOL    HW221219   6.724   6.323   1.486
 6774SOL     OW21220   1.857   1.807   5.330
 6774SOL    HW121221   1.938   1.866   5.326
 6774SOL    HW221222   1.885   1.713   5.351
 6775SOL     OW21223   1.005   1.691   3.709
 6775SOL    HW121224   1.039   1.784   3.705
 6775SOL    HW221225   1.059   1.632   3.649
 6776SOL     OW21226   3.857   4.159   0.944
 6776SOL    HW121227   3.791   4.128   0.876
 6776SOL    HW221228   3.820   4.144   1.036
 6777SOL     OW21229   4.425   5.506   1.246
 6777SOL    HW121230   4.333   5.482   1.217
 6777SOL    HW221231   4.483   5.424   1.245
 6778SOL     OW21232   5.363   3.181   2.462
 6778SOL    HW121233   5.449   3.165   2.510
 6778SOL    HW221234   5.368   3.144   2.370
 6779SOL     OW21235   6.070   4.207   5.834
 6779SOL    HW121236   6.051   4.196   5.931
 6779SOL    HW221237   6.046   4.123   5.785
 6780SOL     OW21238   2.272   2.836   3.192
 6780SOL    HW121239   2.244   2.931   3.198
 6780SOL    HW221240   2.306   2.805   3.281
 6781SOL     OW21241   6.247   1.265   4.260
 6781SOL    HW121242   6.208   1.327   4.193
 6781SOL    HW221243   6.263   1.313   4.346
 6782SOL     OW21244   6.896   1.424   3.188
 6782SOL    HW121245   6.827   1.374   3.135
 6782SOL    HW221246   6.857   1.450   3.277
 6783SOL     OW21247   1.154   4.747   5.637
 6783SOL    HW121248   1.057   4.757   5.658
 6783SOL    HW221249   1.195   4.682   5.700
 6784SOL     OW21250   2.189   3.236   1.782
 6784SOL    HW121251   2.116   3.281   1.832
 6784SOL    HW221252   2.275   3.285   1.797
 6785SOL     OW21253   5.524   4.712   5.107
 6785SOL    HW121254   5.470   4.732   5.025
 6785SOL    HW221255   5.525   4.614   5.123
 6786SOL     OW21256   6.285   2.757   0.964
 6786SOL    HW121257   6.318   2.745   0.870
 6786SOL    HW221258   6.187   2.737   0.967
 6787SOL     OW21259   3.493   2.199   0.441
 6787SOL    HW121260   3.421   2.185   0.509
 6787SOL    HW221261   3.499   2.296   0.418
 6788SOL     OW21262   0.765   3.703   3.236
 6788SOL    HW121263   0.707   3.622   3.228
 6788SOL    HW221264   0.827   3.707   3.157
 6789SOL     OW21265   6.851   3.978   4.170
 6789SOL    HW121266   6.806   4.057   4.129
 6789SOL    HW221267   6.867   3.909   4.100
 6790SOL     OW21268   0.828   5.132   6.228
 6790SOL    HW121269   0.779   5.093   6.306
 6790SOL    HW221270   0.841   5.061   6.158
 6791SOL     OW21271   4.355   1.572   4.028
 6791SOL    HW121272   4.282   1.640   4.030
 6791SOL    HW221273   4.368   1.539   3.935
 6792SOL     OW21274   4.482   0.339   5.209
 6792SOL    HW121275   4.385   0.329   5.229
 6792SOL    HW221276   4.524   0.248   5.202
 6793SOL     OW21277   2.593   2.752   6.765
 6793SOL    HW121278   2.638   2.668   6.795
 6793SOL    HW221279   2.546   2.794   6.843
 6794SOL     OW21280   4.431   1.544   5.992
 6794SOL    HW121281   4.338   1.572   6.014
 6794SOL    HW221282   4.429   1.459   5.941
 6795SOL     OW21283   1.394   1.014   1.119
 6795SOL    HW121284   1.326   0.956   1.075
 6795SOL    HW221285   1.379   1.109   1.094
 6796SOL     OW21286   5.976   1.359   1.964
 6796SOL    HW121287   6.070   1.350   1.998
 6796SOL    HW221288   5.976   1.409   1.878
 6797SOL     OW21289   0.400   2.485   1.622
 6797SOL    HW121290   0.399   2.387   1.644
 6797SOL    HW221291   0.326   2.507   1.559
 6798SOL     OW21292   5.630   0.694   2.088
 6798SOL    HW121293   5.557   0.742   2.039
 6798SOL    HW221294   5.652   0.744   2.172
 6799SOL     OW21295   5.277   6.887   3.054
 6799SOL    HW121296   5.272   6.819   2.981
 6799SOL    HW221297   5.234   6.972   3.025
 6800SOL     OW21298   1.138   0.765   1.280
 6800SOL    HW121299   1.222   0.781   1.228
 6800SOL    HW221300   1.152   0.688   1.343
 6801SOL     OW21301   1.523   6.290   4.946
 6801SOL    HW121302   1.533   6.368   5.007
 6801SOL    HW221303   1.486   6.321   4.858
 6802SOL     OW21304   3.362   5.839   1.847
 6802SOL    HW121305   3.449   5.843   1.798
 6802SOL    HW221306   3.369   5.892   1.931
 6803SOL     OW21307   5.164   4.945   0.162
 6803SOL    HW121308   5.098   4.882   0.121
 6803SOL    HW221309   5.199   4.905   0.247
 6804SOL     OW21310   2.682   4.625   3.022
 6804SOL    HW121311   2.633   4.712   3.015
 6804SOL    HW221312   2.662   4.582   3.110
 6805SOL     OW21313   0.221   5.059   5.837
 6805SOL    HW121314   0.137   5.105   5.867
 6805SOL    HW221315   0.300   5.114   5.864
 6806SOL     OW21316   6.460   0.745   3.488
 6806SOL    HW121317   6.536   0.776   3.545
 6806SOL    HW221318   6.379   0.801   3.507
 6807SOL     OW21319   3.336   3.809   2.756
 6807SOL    HW121320   3.379   3.809   2.847
 6807SOL    HW221321   3.401   3.842   2.688
 6808SOL     OW21322   4.341   1.752   5.209
 6808SOL    HW121323   4.338   1.762   5.308
 6808SOL    HW221324   4.418   1.692   5.184
 6809SOL     OW21325   5.816   4.605   2.330
 6809SOL    HW121326   5.743   4.653   2.281
 6809SOL    HW221327   5.835   4.518   2.285
 6810SOL     OW21328   2.632   1.115   3.230
 6810SOL    HW121329   2.680   1.041   3.276
 6810SOL    HW221330   2.644   1.200   3.282
 6811SOL     OW21331   6.156   1.848   2.394
 6811SOL    HW121332   6.085   1.799   2.445
 6811SOL    HW221333   6.218   1.893   2.458
 6812SOL     OW21334   2.945   3.532   5.346
 6812SOL    HW121335   2.907   3.621   5.320
 6812SOL    HW221336   2.870   3.471   5.374
 6813SOL     OW21337   4.903   3.238   1.296
 6813SOL    HW121338   4.974   3.293   1.340
 6813SOL    HW221339   4.813   3.266   1.329
 6814SOL     OW21340   4.099   1.628   6.219
 6814SOL    HW121341   4.092   1.540   6.267
 6814SOL    HW221342   4.121   1.612   6.123
 6815SOL     OW21343   2.228   5.282   6.672
 6815SOL    HW121344   2.246   5.373   6.707
 6815SOL    HW221345   2.214   5.287   6.573
 6816SOL     OW21346   0.598   2.244   4.302
 6816SOL    HW121347   0.641   2.227   4.391
 6816SOL    HW221348   0.514   2.191   4.295
 6817SOL     OW21349   2.917   2.248   2.455
 6817SOL    HW121350   2.996   2.224   2.511
 6817SOL    HW221351   2.872   2.328   2.493
 6818SOL     OW21352   2.273   6.384   6.047
 6818SOL    HW121353   2.217   6.360   6.126
 6818SOL    HW221354   2.288   6.303   5.991
 6819SOL     OW21355   4.528   4.770   3.081
 6819SOL    HW121356   4.514   4.831   3.003
 6819SOL    HW221357   4.617   4.726   3.074
 6820SOL     OW21358   1.805   6.244   1.536
 6820SOL    HW121359   1.795   6.147   1.512
 6820SOL    HW221360   1.875   6.253   1.608
 6821SOL     OW21361   4.376   2.800   5.289
 6821SOL    HW121362   4.398   2.783   5.193
 6821SOL    HW221363   4.420   2.885   5.318
 6822SOL     OW21364   0.132   2.901   6.124
 6822SOL    HW121365   0.168   2.926   6.214
 6822SOL    HW221366   0.045   2.852   6.136
 6823SOL     OW21367   5.643   3.479   6.778
 6823SOL    HW121368   5.628   3.457   6.681
 6823SOL    HW221369   5.730   3.441   6.807
 6824SOL     OW21370   1.399   1.552   6.631
 6824SOL    HW121371   1.406   1.592   6.540
 6824SOL    HW221372   1.421   1.621   6.700
 6825SOL     OW21373   0.067   6.031   1.407
 6825SOL    HW121374   0.015   6.014   1.491
 6825SOL    HW221375   0.006   6.025   1.328
 6826SOL     OW21376   1.112   3.407   3.297
 6826SOL    HW121377   1.034   3.469   3.295
 6826SOL    HW221378   1.080   3.313   3.306
 6827SOL     OW21379   4.531   5.815   4.905
 6827SOL    HW121380   4.453   5.815   4.969
 6827SOL    HW221381   4.510   5.756   4.827
 6828SOL     OW21382   3.792   1.379   2.985
 6828SOL    HW121383   3.792   1.332   3.073
 6828SOL    HW221384   3.759   1.472   2.997
 6829SOL     OW21385   5.137   6.423   5.003
 6829SOL    HW121386   5.040   6.440   4.986
 6829SOL    HW221387   5.148   6.381   5.093
 6830SOL     OW21388   5.520   0.599   2.946
 6830SOL    HW121389   5.555   0.562   3.032
 6830SOL    HW221390   5.459   0.675   2.966
 6831SOL     OW21391   1.639   1.317   5.595
 6831SOL    HW121392   1.638   1.314   5.695
 6831SOL    HW221393   1.585   1.241   5.559
 6832SOL     OW21394   3.086   1.870   0.571
 6832SOL    HW121395   3.028   1.941   0.610
 6832SOL    HW221396   3.170   1.862   0.626
 6833SOL     OW21397   2.988   5.160   5.852
 6833SOL    HW121398   2.970   5.257   5.834
 6833SOL    HW221399   3.082   5.138   5.826
 6834SOL     OW21400   4.911   0.196   0.813
 6834SOL    HW121401   4.916   0.295   0.825
 6834SOL    HW221402   4.823   0.163   0.846
 6835SOL     OW21403   3.566   2.115   4.384
 6835SOL    HW121404   3.597   2.204   4.351
 6835SOL    HW221405   3.497   2.078   4.322
 6836SOL     OW21406   1.953   5.070   6.384
 6836SOL    HW121407   1.974   4.972   6.377
 6836SOL    HW221408   1.963   5.113   6.294
 6837SOL     OW21409   1.047   0.381   2.142
 6837SOL    HW121410   1.136   0.426   2.129
 6837SOL    HW221411   1.046   0.337   2.232
 6838SOL     OW21412   2.776   4.389   5.341
 6838SOL    HW121413   2.681   4.404   5.314
 6838SOL    HW221414   2.834   4.462   5.305
 6839SOL     OW21415   5.236   2.289   3.944
 6839SOL    HW121416   5.324   2.251   3.918
 6839SOL    HW221417   5.249   2.373   3.996
 6840SOL     OW21418   2.477   6.351   4.654
 6840SOL    HW121419   2.467   6.431   4.594
 6840SOL    HW221420   2.574   6.337   4.675
 6841SOL     OW21421   3.825   5.919   2.144
 6841SOL    HW121422   3.735   5.936   2.184
 6841SOL    HW221423   3.896   5.951   2.207
 6842SOL     OW21424   0.423   3.251   0.032
 6842SOL    HW121425   0.502   3.279   7.000
 6842SOL    HW221426   0.445   3.262   0.129
 6843SOL     OW21427   4.428   2.396   2.152
 6843SOL    HW121428   4.484   2.479   2.143
 6843SOL    HW221429   4.388   2.393   2.243
 6844SOL     OW21430   4.581   5.207   4.369
 6844SOL    HW121431   4.585   5.302   4.339
 6844SOL    HW221432   4.663   5.185   4.422
 6845SOL     OW21433   4.601   4.878   2.813
 6845SOL    HW121434   4.572   4.792   2.773
 6845SOL    HW221435   4.630   4.941   2.741
 6846SOL     OW21436   3.391   3.151   2.268
 6846SOL    HW121437   3.291   3.151   2.260
 6846SOL    HW221438   3.419   3.221   2.334
 6847SOL     OW21439   4.914   3.770   1.765
 6847SOL    HW121440   4.906   3.694   1.699
 6847SOL    HW221441   4.843   3.838   1.745
 6848SOL     OW21442   0.677   5.377   4.243
 6848SOL    HW121443   0.711   5.306   4.305
 6848SOL    HW221444   0.579   5.362   4.227
 6849SOL     OW21445   3.680   5.778   4.030
 6849SOL    HW121446   3.656   5.729   3.946
 6849SOL    HW221447   3.596   5.810   4.075
 6850SOL     OW21448   5.596   2.066   3.693
 6850SOL    HW121449   5.639   2.081   3.604
 6850SOL    HW221450   5.502   2.034   3.680
 6851SOL     OW21451   1.227   5.241   6.159
 6851SOL    HW121452   1.291   5.214   6.087
 6851SOL    HW221453   1.151   5.291   6.118
 6852SOL     OW21454   0.825   4.433   1.314
 6852SOL    HW121455   0.806   4.427   1.412
 6852SOL    HW221456   0.739   4.443   1.264
 6853SOL     OW21457   0.861   5.781   5.981
 6853SOL    HW121458   0.876   5.878   6.000
 6853SOL    HW221459   0.889   5.761   5.887
 6854SOL     OW21460   6.523   1.621   5.698
 6854SOL    HW121461   6.588   1.692   5.726
 6854SOL    HW221462   6.557   1.532   5.727
 6855SOL     OW21463   4.359   0.234   2.961
 6855SOL    HW121464   4.329   0.298   3.032
 6855SOL    HW221465   4.279   0.190   2.920
 6856SOL     OW21466   6.653   4.031   4.706
 6856SOL    HW121467   6.603   4.116   4.723
 6856SOL    HW221468   6.646   4.007   4.610
 6857SOL     OW21469   3.593   1.846   6.422
 6857SOL    HW121470   3.594   1.844   6.322
 6857SOL    HW221471   3.687   1.845   6.456
 6858SOL     OW21472   4.131   3.614   4.868
 6858SOL    HW121473   4.124   3.539   4.802
 6858SOL    HW221474   4.182   3.690   4.828
 6859SOL     OW21475   2.417   6.587   0.710
 6859SOL    HW121476   2.432   6.593   0.611
 6859SOL    HW221477   2.464   6.506   0.746
 6860SOL     OW21478   5.179   4.805   1.426
 6860SOL    HW121479   5.190   4.824   1.524
 6860SOL    HW221480   5.126   4.722   1.414
 6861SOL     OW21481   5.814   5.410   0.163
 6861SOL    HW121482   5.805   5.416   0.262
 6861SOL    HW221483   5.911   5.414   0.137
 6862SOL     OW21484   2.994   4.921   4.786
 6862SOL    HW121485   2.981   4.900   4.883
 6862SOL    HW221486   3.090   4.910   4.762
 6863SOL     OW21487   6.510   1.280   4.198
 6863SOL    HW121488   6.413   1.277   4.224
 6863SOL    HW221489   6.522   1.235   4.110
 6864SOL     OW21490   2.884   5.890   3.424
 6864SOL    HW121491   2.911   5.986   3.415
 6864SOL    HW221492   2.966   5.833   3.433
 6865SOL     OW21493   6.277   4.052   4.726
 6865SOL    HW121494   6.193   4.104   4.711
 6865SOL    HW221495   6.299   4.053   4.824
 6866SOL     OW21496   6.984   3.827   1.880
 6866SOL    HW121497   7.000   3.741   1.832
 6866SOL    HW221498   6.886   3.845   1.883
 6867SOL     OW21499   1.702   4.310   1.905
 6867SOL    HW121500   1.758   4.252   1.846
 6867SOL    HW221501   1.606   4.301   1.879
 6868SOL     OW21502   1.873   6.198   4.977
 6868SOL    HW121503   1.808   6.145   5.032
 6868SOL    HW221504   1.822   6.262   4.918
 6869SOL     OW21505   5.688   3.131   4.923
 6869SOL    HW121506   5.657   3.036   4.933
 6869SOL    HW221507   5.651   3.186   4.998
 6870SOL     OW21508   5.442   3.390   3.323
 6870SOL    HW121509   5.497   3.324   3.376
 6870SOL    HW221510   5.495   3.474   3.310
 6871SOL     OW21511   6.153   4.396   1.780
 6871SOL    HW121512   6.247   4.384   1.748
 6871SOL    HW221513   6.116   4.309   1.810
 6872SOL     OW21514   1.471   3.527   0.920
 6872SOL    HW121515   1.383   3.486   0.898
 6872SOL    HW221516   1.457   3.618   0.960
 6873SOL     OW21517   5.538   2.878   5.839
 6873SOL    HW121518   5.456   2.863   5.783
 6873SOL    HW221519   5.601   2.938   5.789
 6874SOL     OW21520   6.886   3.367   3.876
 6874SOL    HW121521   6.984   3.375   3.895
 6874SOL    HW221522   6.872   3.344   3.780
 6875SOL     OW21523   1.217   1.467   2.774
 6875SOL    HW121524   1.247   1.451   2.680
 6875SOL    HW221525   1.292   1.507   2.826
 6876SOL     OW21526   3.591   5.527   6.528
 6876SOL    HW121527   3.564   5.525   6.432
 6876SOL    HW221528   3.686   5.497   6.537
 6877SOL     OW21529   2.145   4.358   6.729
 6877SOL    HW121530   2.060   4.369   6.676
 6877SOL    HW221531   2.125   4.367   6.826
 6878SOL     OW21532   2.441   1.670   5.617
 6878SOL    HW121533   2.513   1.729   5.654
 6878SOL    HW221534   2.361   1.675   5.676
 6879SOL     OW21535   0.215   1.921   0.299
 6879SOL    HW121536   0.185   1.941   0.393
 6879SOL    HW221537   0.231   1.823   0.290
 6880SOL     OW21538   2.091   4.120   5.149
 6880SOL    HW121539   2.180   4.095   5.110
 6880SOL    HW221540   2.086   4.220   5.158
 6881SOL     OW21541   6.930   4.365   1.225
 6881SOL    HW121542   7.008   4.338   1.281
 6881SOL    HW221543   6.914   4.463   1.237
 6882SOL     OW21544   2.132   0.766   4.729
 6882SOL    HW121545   2.101   0.677   4.764
 6882SOL    HW221546   2.070   0.838   4.759
 6883SOL     OW21547   3.752   6.923   0.867
 6883SOL    HW121548   3.763   6.876   0.955
 6883SOL    HW221549   3.840   6.965   0.841
 6884SOL     OW21550   2.334   4.287   4.516
 6884SOL    HW121551   2.317   4.210   4.577
 6884SOL    HW221552   2.377   4.361   4.567
 6885SOL     OW21553   2.710   5.974   3.184
 6885SOL    HW121554   2.793   6.003   3.232
 6885SOL    HW221555   2.680   6.047   3.122
 6886SOL     OW21556   4.988   1.536   2.291
 6886SOL    HW121557   4.943   1.605   2.235
 6886SOL    HW221558   5.056   1.580   2.350
 6887SOL     OW21559   5.237   0.164   5.004
 6887SOL    HW121560   5.297   0.187   5.081
 6887SOL    HW221561   5.190   0.246   4.973
 6888SOL     OW21562   6.014   0.499   5.372
 6888SOL    HW121563   6.044   0.544   5.288
 6888SOL    HW221564   5.956   0.421   5.348
 6889SOL     OW21565   0.947   2.501   5.836
 6889SOL    HW121566   0.955   2.494   5.736
 6889SOL    HW221567   0.881   2.434   5.869
 6890SOL     OW21568   2.176   0.171   0.671
 6890SOL    HW121569   2.274   0.174   0.690
 6890SOL    HW221570   2.126   0.141   0.752
 6891SOL     OW21571   2.011   3.983   4.931
 6891SOL    HW121572   2.020   4.036   5.015
 6891SOL    HW221573   2.055   3.894   4.943
 6892SOL     OW21574   4.004   0.060   4.205
 6892SOL    HW121575   3.936   0.128   4.179
 6892SOL    HW221576   4.074   0.102   4.261
 6893SOL     OW21577   5.505   5.722   2.773
 6893SOL    HW121578   5.516   5.748   2.677
 6893SOL    HW221579   5.451   5.792   2.821
 6894SOL     OW21580   6.151   5.567   0.436
 6894SOL    HW121581   6.081   5.612   0.491
 6894SOL    HW221582   6.203   5.635   0.386
 6895SOL     OW21583   3.116   4.432   6.992
 6895SOL    HW121584   3.026   4.470   6.969
 6895SOL    HW221585   3.114   4.333   6.979
 6896SOL     OW21586   3.549   0.354   3.884
 6896SOL    HW121587   3.615   0.280   3.874
 6896SOL    HW221588   3.511   0.353   3.977
 6897SOL     OW21589   2.906   3.078   0.207
 6897SOL    HW121590   2.893   3.020   0.127
 6897SOL    HW221591   2.880   3.172   0.184
 6898SOL     OW21592   4.285   0.972   1.775
 6898SOL    HW121593   4.258   0.995   1.869
 6898SOL    HW221594   4.298   1.057   1.723
 6899SOL     OW21595   5.313   0.145   6.372
 6899SOL    HW121596   5.250   0.067   6.363
 6899SOL    HW221597   5.276   0.210   6.438
 6900SOL     OW21598   5.732   0.679   5.974
 6900SOL    HW121599   5.650   0.733   5.994
 6900SOL    HW221600   5.755   0.624   6.055
 6901SOL     OW21601   0.325   0.353   6.348
 6901SOL    HW121602   0.356   0.436   6.303
 6901SOL    HW221603   0.386   0.277   6.325
 6902SOL     OW21604   0.643   0.020   0.183
 6902SOL    HW121605   0.677   0.004   0.091
 6902SOL    HW221606   0.716   0.005   0.249
 6903SOL     OW21607   3.888   3.467   0.525
 6903SOL    HW121608   3.812   3.440   0.466
 6903SOL    HW221609   3.855   3.476   0.619
 6904SOL     OW21610   6.600   1.348   3.740
 6904SOL    HW121611   6.585   1.280   3.667
 6904SOL    HW221612   6.513   1.393   3.761
 6905SOL     OW21613   6.030   6.829   0.608
 6905SOL    HW121614   5.978   6.906   0.645
 6905SOL    HW221615   5.983   6.744   0.631
 6906SOL     OW21616   3.831   1.075   4.195
 6906SOL    HW121617   3.757   1.096   4.258
 6906SOL    HW221618   3.881   1.159   4.172
 6907SOL     OW21619   3.864   1.113   1.063
 6907SOL    HW121620   3.956   1.074   1.068
 6907SOL    HW221621   3.859   1.175   0.984
 6908SOL     OW21622   0.780   0.397   5.602
 6908SOL    HW121623   0.697   0.353   5.568
 6908SOL    HW221624   0.755   0.471   5.665
 6909SOL     OW21625   4.306   4.977   1.115
 6909SOL    HW121626   4.260   5.048   1.063
 6909SOL    HW221627   4.315   5.005   1.210
 6910SOL     OW21628   6.239   1.643   2.781
 6910SOL    HW121629   6.268   1.738   2.795
 6910SOL    HW221630   6.146   1.631   2.816
 6911SOL     OW21631   4.566   0.359   3.798
 6911SOL    HW121632   4.590   0.308   3.715
 6911SOL    HW221633   4.475   0.331   3.829
 6912SOL     OW21634   4.564   4.981   1.492
 6912SOL    HW121635   4.572   4.971   1.592
 6912SOL    HW221636   4.602   4.900   1.448
 6913SOL     OW21637   4.976   4.262   4.551
 6913SOL    HW121638   5.047   4.291   4.487
 6913SOL    HW221639   5.019   4.217   4.630
 6914SOL     OW21640   6.062   5.074   6.979
 6914SOL    HW121641   6.048   4.981   6.947
 6914SOL    HW221642   6.083   5.133   6.902
 6915SOL     OW21643   0.662   4.686   2.265
 6915SOL    HW121644   0.647   4.604   2.321
 6915SOL    HW221645   0.758   4.713   2.272
 6916SOL     OW21646   6.620   4.203   6.765
 6916SOL    HW121647   6.545   4.139   6.750
 6916SOL    HW221648   6.699   4.175   6.710
 6917SOL     OW21649   4.978   5.687   6.189
 6917SOL    HW121650   4.886   5.725   6.193
 6917SOL    HW221651   4.976   5.590   6.210
 6918SOL     OW21652   0.650   3.833   4.327
 6918SOL    HW121653   0.698   3.899   4.385
 6918SOL    HW221654   0.714   3.759   4.302
 6919SOL     OW21655   2.080   5.358   2.500
 6919SOL    HW121656   2.020   5.299   2.446
 6919SOL    HW221657   2.061   5.454   2.477
 6920SOL     OW21658   5.176   5.341   4.927
 6920SOL    HW121659   5.262   5.387   4.949
 6920SOL    HW221660   5.100   5.404   4.938
 6921SOL     OW21661   6.233   5.897   3.405
 6921SOL    HW121662   6.301   5.883   3.333
 6921SOL    HW221663   6.141   5.889   3.366
 6922SOL     OW21664   1.658   6.187   0.094
 6922SOL    HW121665   1.568   6.142   0.100
 6922SOL    HW221666   1.679   6.206   7.022
 6923SOL     OW21667   4.285   6.566   4.056
 6923SOL    HW121668   4.302   6.490   3.993
 6923SOL    HW221669   4.343   6.556   4.137
 6924SOL     OW21670   0.914   3.959   0.294
 6924SOL    HW121671   1.005   3.972   0.255
 6924SOL    HW221672   0.847   3.944   0.221
 6925SOL     OW21673   3.855   5.964   3.719
 6925SOL    HW121674   3.863   6.055   3.678
 6925SOL    HW221675   3.758   5.937   3.720
 6926SOL     OW21676   3.795   4.001   3.568
 6926SOL    HW121677   3.716   3.939   3.570
 6926SOL    HW221678   3.764   4.093   3.543
 6927SOL     OW21679   5.194   4.247   5.922
 6927SOL    HW121680   5.291   4.231   5.906
 6927SOL    HW221681   5.173   4.236   6.019
 6928SOL     OW21682   4.349   0.132   6.583
 6928SOL    HW121683   4.295   0.193   6.526
 6928SOL    HW221684   4.446   0.150   6.570
 6929SOL     OW21685   4.377   6.336   6.882
 6929SOL    HW121686   4.455   6.364   6.827
 6929SOL    HW221687   4.406   6.267   6.949
 6930SOL     OW21688   0.363   6.689   2.227
 6930SOL    HW121689   0.269   6.673   2.259
 6930SOL    HW221690   0.361   6.730   2.136
 6931SOL     OW21691   0.486   0.069   1.728
 6931SOL    HW121692   0.524   0.022   1.808
 6931SOL    HW221693   0.427   0.006   1.678
 6932SOL     OW21694   3.481   0.798   6.737
 6932SOL    HW121695   3.449   0.822   6.645
 6932SOL    HW221696   3.534   0.875   6.774
 6933SOL     OW21697   3.702   5.438   4.966
 6933SOL    HW121698   3.693   5.348   4.923
 6933SOL    HW221699   3.721   5.507   4.895
 6934SOL     OW21700   5.337   3.208   6.651
 6934SOL    HW121701   5.238   3.203   6.653
 6934SOL    HW221702   5.374   3.181   6.740
 6935SOL     OW21703   4.232   6.067   3.278
 6935SOL    HW121704   4.234   6.080   3.378
 6935SOL    HW221705   4.314   6.109   3.238
 6936SOL     OW21706   0.110   1.544   2.243
 6936SOL    HW121707   0.089   1.591   2.157
 6936SOL    HW221708   0.065   1.591   2.318
 6937SOL     OW21709   4.798   6.403   6.738
 6937SOL    HW121710   4.790   6.449   6.650
 6937SOL    HW221711   4.738   6.323   6.740
 6938SOL     OW21712   4.781   3.700   5.549
 6938SOL    HW121713   4.700   3.642   5.558
 6938SOL    HW221714   4.826   3.681   5.462
 6939SOL     OW21715   0.114   4.854   2.564
 6939SOL    HW121716   0.078   4.807   2.644
 6939SOL    HW221717   0.060   4.936   2.546
 6940SOL     OW21718   4.762   0.626   0.590
 6940SOL    HW121719   4.843   0.590   0.545
 6940SOL    HW221720   4.702   0.670   0.523
 6941SOL     OW21721   3.855   3.524   1.964
 6941SOL    HW121722   3.807   3.611   1.977
 6941SOL    HW221723   3.849   3.496   1.869
 6942SOL     OW21724   0.098   2.774   0.801
 6942SOL    HW121725   0.141   2.711   0.737
 6942SOL    HW221726   0.137   2.761   0.892
 6943SOL     OW21727   5.130   6.823   6.119
 6943SOL    HW121728   5.219   6.785   6.095
 6943SOL    HW221729   5.141   6.886   6.196
 6944SOL     OW21730   1.436   5.850   5.145
 6944SOL    HW121731   1.523   5.855   5.194
 6944SOL    HW221732   1.376   5.924   5.176
 6945SOL     OW21733   6.271   3.462   6.635
 6945SOL    HW121734   6.180   3.431   6.610
 6945SOL    HW221735   6.310   3.516   6.561
 6946SOL     OW21736   5.806   5.074   2.525
 6946SOL    HW121737   5.879   5.030   2.473
 6946SOL    HW221738   5.844   5.113   2.608
 6947SOL     OW21739   3.955   6.863   3.691
 6947SOL    HW121740   3.892   6.797   3.731
 6947SOL    HW221741   3.949   6.950   3.740
 6948SOL     OW21742   5.070   0.363   0.389
 6948SOL    HW121743   4.987   0.343   0.440
 6948SOL    HW221744   5.147   0.313   0.429
 6949SOL     OW21745   4.833   6.070   3.174
 6949SOL    HW121746   4.921   6.024   3.181
 6949SOL    HW221747   4.791   6.049   3.085
 6950SOL     OW21748   2.406   0.250   2.865
 6950SOL    HW121749   2.433   0.154   2.855
 6950SOL    HW221750   2.410   0.275   2.962
 6951SOL     OW21751   6.405   6.476   6.070
 6951SOL    HW121752   6.459   6.560   6.069
 6951SOL    HW221753   6.449   6.409   6.130
 6952SOL     OW21754   6.914   5.028   3.223
 6952SOL    HW121755   6.988   5.093   3.241
 6952SOL    HW221756   6.897   5.024   3.124
 6953SOL     OW21757   5.335   1.156   5.496
 6953SOL    HW121758   5.282   1.213   5.560
 6953SOL    HW221759   5.321   1.060   5.518
 6954SOL     OW21760   0.548   3.368   3.929
 6954SOL    HW121761   0.638   3.368   3.973
 6954SOL    HW221762   0.487   3.430   3.977
 6955SOL     OW21763   6.565   0.107   2.082
 6955SOL    HW121764   6.642   0.103   2.019
 6955SOL    HW221765   6.548   0.202   2.108
 6956SOL     OW21766   4.358   5.870   2.336
 6956SOL    HW121767   4.400   5.949   2.291
 6956SOL    HW221768   4.394   5.786   2.295
 6957SOL     OW21769   0.014   4.912   1.343
 6957SOL    HW121770   0.019   4.812   1.345
 6957SOL    HW221771   6.943   4.940   1.357
 6958SOL     OW21772   2.455   2.336   6.110
 6958SOL    HW121773   2.470   2.291   6.198
 6958SOL    HW221774   2.536   2.389   6.085
 6959SOL     OW21775   2.382   1.124   4.856
 6959SOL    HW121776   2.302   1.101   4.912
 6959SOL    HW221777   2.400   1.222   4.862
 6960SOL     OW21778   0.267   5.116   0.310
 6960SOL    HW121779   0.289   5.174   0.232
 6960SOL    HW221780   0.271   5.170   0.394
 6961SOL     OW21781   0.711   2.274   3.574
 6961SOL    HW121782   0.654   2.341   3.623
 6961SOL    HW221783   0.657   2.234   3.500
 6962SOL     OW21784   5.404   5.032   3.252
 6962SOL    HW121785   5.464   5.007   3.328
 6962SOL    HW221786   5.418   5.128   3.228
 6963SOL     OW21787   0.323   5.789   0.932
 6963SOL    HW121788   0.331   5.814   1.029
 6963SOL    HW221789   0.376   5.854   0.877
 6964SOL     OW21790   4.738   4.861   5.356
 6964SOL    HW121791   4.731   4.795   5.431
 6964SOL    HW221792   4.663   4.927   5.362
 6965SOL     OW21793   6.880   3.536   6.218
 6965SOL    HW121794   6.873   3.605   6.146
 6965SOL    HW221795   6.975   3.528   6.248
 6966SOL     OW21796   5.654   2.759   2.704
 6966SOL    HW121797   5.567   2.771   2.655
 6966SOL    HW221798   5.661   2.827   2.777
 6967SOL     OW21799   1.602   1.777   5.408
 6967SOL    HW121800   1.608   1.698   5.470
 6967SOL    HW221801   1.693   1.803   5.378
 6968SOL     OW21802   3.916   6.470   0.937
 6968SOL    HW121803   3.950   6.377   0.953
 6968SOL    HW221804   3.819   6.466   0.914
 6969SOL     OW21805   3.742   1.750   1.875
 6969SOL    HW121806   3.804   1.827   1.857
 6969SOL    HW221807   3.655   1.765   1.828
 6970SOL     OW21808   3.956   3.818   0.731
 6970SOL    HW121809   4.029   3.806   0.798
 6970SOL    HW221810   3.992   3.869   0.652
 6971SOL     OW21811   6.681   2.931   1.917
 6971SOL    HW121812   6.711   3.002   1.981
 6971SOL    HW221813   6.615   2.970   1.853
 6972SOL     OW21814   5.717   4.396   4.551
 6972SOL    HW121815   5.706   4.335   4.472
 6972SOL    HW221816   5.692   4.489   4.525
 6973SOL     OW21817   1.557   4.877   4.987
 6973SOL    HW121818   1.536   4.781   4.970
 6973SOL    HW221819   1.630   4.884   5.055
 6974SOL     OW21820   3.774   3.434   3.722
 6974SOL    HW121821   3.698   3.425   3.657
 6974SOL    HW221822   3.740   3.476   3.806
 6975SOL     OW21823   3.481   6.970   5.229
 6975SOL    HW121824   3.554   6.994   5.164
 6975SOL    HW221825   3.404   6.929   5.180
 6976SOL     OW21826   3.854   4.765   6.784
 6976SOL    HW121827   3.819   4.856   6.809
 6976SOL    HW221828   3.785   4.696   6.804
 6977SOL     OW21829   5.274   1.918   1.611
 6977SOL    HW121830   5.190   1.902   1.663
 6977SOL    HW221831   5.276   2.013   1.579
 6978SOL     OW21832   6.504   0.734   1.882
 6978SOL    HW121833   6.536   0.764   1.972
 6978SOL    HW221834   6.527   0.637   1.870
 6979SOL     OW21835   1.351   5.651   2.323
 6979SOL    HW121836   1.423   5.613   2.265
 6979SOL    HW221837   1.264   5.648   2.275
 6980SOL     OW21838   2.111   0.662   3.722
 6980SOL    HW121839   2.137   0.736   3.661
 6980SOL    HW221840   2.160   0.671   3.809
 6981SOL     OW21841   2.451   3.997   6.794
 6981SOL    HW121842   2.520   3.927   6.773
 6981SOL    HW221843   2.471   4.038   6.882
 6982SOL     OW21844   1.438   1.330   3.898
 6982SOL    HW121845   1.384   1.326   3.982
 6982SOL    HW221846   1.509   1.400   3.907
 6983SOL     OW21847   0.102   1.078   3.957
 6983SOL    HW121848   0.131   1.127   3.876
 6983SOL    HW221849   0.159   0.997   3.970
 6984SOL     OW21850   2.689   1.718   5.109
 6984SOL    HW121851   2.645   1.648   5.053
 6984SOL    HW221852   2.620   1.776   5.151
 6985SOL     OW21853   3.937   5.476   2.423
 6985SOL    HW121854   3.991   5.534   2.363
 6985SOL    HW221855   3.839   5.493   2.407
 6986SOL     OW21856   2.314   6.171   5.900
 6986SOL    HW121857   2.326   6.138   5.806
 6986SOL    HW221858   2.397   6.151   5.953
 6987SOL     OW21859   0.386   1.841   6.082
 6987SOL    HW121860   0.476   1.865   6.047
 6987SOL    HW221861   0.355   1.757   6.038
 6988SOL     OW21862   5.945   1.201   4.725
 6988SOL    HW121863   5.928   1.155   4.813
 6988SOL    HW221864   5.862   1.248   4.696
 6989SOL     OW21865   1.066   1.942   3.341
 6989SOL    HW121866   1.129   1.908   3.411
 6989SOL    HW221867   1.109   2.016   3.289
 6990SOL     OW21868   4.968   1.865   0.361
 6990SOL    HW121869   4.979   1.925   0.281
 6990SOL    HW221870   4.888   1.894   0.413
 6991SOL     OW21871   2.636   4.684   4.829
 6991SOL    HW121872   2.549   4.680   4.877
 6991SOL    HW221873   2.710   4.660   4.892
 6992SOL     OW21874   5.865   5.939   5.213
 6992SOL    HW121875   5.852   6.000   5.135
 6992SOL    HW221876   5.951   5.963   5.259
 6993SOL     OW21877   5.801   6.472   3.143
 6993SOL    HW121878   5.877   6.408   3.153
 6993SOL    HW221879   5.740   6.465   3.222
 6994SOL     OW21880   0.565   3.592   5.220
 6994SOL    HW121881   0.587   3.576   5.317
 6994SOL    HW221882   0.588   3.510   5.168
 6995SOL     OW21883   6.211   5.132   4.757
 6995SOL    HW121884   6.215   5.037   4.788
 6995SOL    HW221885   6.207   5.134   4.657
 6996SOL     OW21886   2.740   1.095   5.221
 6996SOL    HW121887   2.708   1.025   5.157
 6996SOL    HW221888   2.831   1.072   5.254
 6997SOL     OW21889   4.681   6.317   5.579
 6997SOL    HW121890   4.730   6.337   5.494
 6997SOL    HW221891   4.666   6.218   5.586
 6998SOL     OW21892   1.700   3.503   1.675
 6998SOL    HW121893   1.666   3.413   1.646
 6998SOL    HW221894   1.769   3.490   1.747
 6999SOL     OW21895   2.622   1.603   6.714
 6999SOL    HW121896   2.611   1.514   6.670
 6999SOL    HW221897   2.686   1.594   6.791
 7000SOL     OW21898   0.022   6.298   2.928
 7000SOL    HW121899   6.986   6.360   2.978
 7000SOL    HW221900   0.110   6.293   2.975
 7001SOL     OW21901   2.862   2.374   6.071
 7001SOL    HW121902   2.778   2.391   6.021
 7001SOL    HW221903   2.900   2.461   6.102
 7002SOL     OW21904   2.460   4.655   3.661
 7002SOL    HW121905   2.405   4.708   3.597
 7002SOL    HW221906   2.514   4.718   3.718
 7003SOL     OW21907   2.686   0.057   0.074
 7003SOL    HW121908   2.613   0.120   0.051
 7003SOL    HW221909   2.774   0.095   0.045
 7004SOL     OW21910   2.006   4.294   1.970
 7004SOL    HW121911   2.052   4.348   1.900
 7004SOL    HW221912   1.955   4.220   1.927
 7005SOL     OW21913   0.260   5.906   5.427
 7005SOL    HW121914   0.357   5.885   5.432
 7005SOL    HW221915   0.223   5.911   5.520
 7006SOL     OW21916   5.122   4.230   4.946
 7006SOL    HW121917   5.044   4.183   4.904
 7006SOL    HW221918   5.153   4.178   5.026
 7007SOL     OW21919   5.030   6.331   3.100
 7007SOL    HW121920   5.033   6.364   3.195
 7007SOL    HW221921   4.955   6.266   3.091
 7008SOL     OW21922   2.250   4.960   3.871
 7008SOL    HW121923   2.164   4.929   3.830
 7008SOL    HW221924   2.280   4.893   3.939
 7009SOL     OW21925   6.363   4.900   2.327
 7009SOL    HW121926   6.453   4.940   2.312
 7009SOL    HW221927   6.352   4.879   2.425
 7010SOL     OW21928   4.270   4.621   5.868
 7010SOL    HW121929   4.360   4.607   5.909
 7010SOL    HW221930   4.204   4.646   5.939
 7011SOL     OW21931   1.404   0.065   5.971
 7011SOL    HW121932   1.463   7.015   5.936
 7011SOL    HW221933   1.308   0.042   5.954
 7012SOL     OW21934   1.807   1.005   1.988
 7012SOL    HW121935   1.839   1.034   1.898
 7012SOL    HW221936   1.708   0.991   1.986
 7013SOL     OW21937   0.703   6.750   0.967
 7013SOL    HW121938   0.675   6.846   0.977
 7013SOL    HW221939   0.637   6.701   0.910
 7014SOL     OW21940   4.609   4.239   1.081
 7014SOL    HW121941   4.578   4.218   1.173
 7014SOL    HW221942   4.555   4.186   1.015
 7015SOL     OW21943   5.554   3.561   2.061
 7015SOL    HW121944   5.502   3.643   2.085
 7015SOL    HW221945   5.577   3.510   2.145
 7016SOL     OW21946   3.969   4.777   2.655
 7016SOL    HW121947   3.917   4.835   2.717
 7016SOL    HW221948   3.909   4.742   2.583
 7017SOL     OW21949   2.198   0.731   2.226
 7017SOL    HW121950   2.291   0.742   2.189
 7017SOL    HW221951   2.132   0.773   2.163
 7018SOL     OW21952   0.043   4.502   4.846
 7018SOL    HW121953   0.142   4.514   4.838
 7018SOL    HW221954   0.008   4.560   4.919
 7019SOL     OW21955   2.908   4.841   6.602
 7019SOL    HW121956   2.929   4.746   6.578
 7019SOL    HW221957   2.987   4.898   6.582
 7020SOL     OW21958   5.502   6.635   0.393
 7020SOL    HW121959   5.420   6.657   0.339
 7020SOL    HW221960   5.577   6.694   0.365
 7021SOL     OW21961   3.012   0.652   5.658
 7021SOL    HW121962   3.069   0.649   5.576
 7021SOL    HW221963   2.948   0.575   5.658
 7022SOL     OW21964   4.638   4.169   0.221
 7022SOL    HW121965   4.613   4.194   0.315
 7022SOL    HW221966   4.665   4.073   0.219
 7023SOL     OW21967   6.887   2.283   3.143
 7023SOL    HW121968   6.882   2.183   3.146
 7023SOL    HW221969   6.954   2.316   3.209
 7024SOL     OW21970   1.456   5.938   6.507
 7024SOL    HW121971   1.446   5.839   6.496
 7024SOL    HW221972   1.454   5.982   6.417
 7025SOL     OW21973   3.468   1.812   6.839
 7025SOL    HW121974   3.472   1.768   6.749
 7025SOL    HW221975   3.415   1.896   6.833
 7026SOL     OW21976   2.748   1.239   1.763
 7026SOL    HW121977   2.813   1.258   1.837
 7026SOL    HW221978   2.798   1.223   1.678
 7027SOL     OW21979   3.284   5.800   2.863
 7027SOL    HW121980   3.352   5.788   2.936
 7027SOL    HW221981   3.199   5.756   2.889
 7028SOL     OW21982   5.654   6.435   4.672
 7028SOL    HW121983   5.707   6.503   4.621
 7028SOL    HW221984   5.666   6.451   4.770
 7029SOL     OW21985   3.815   6.659   6.647
 7029SOL    HW121986   3.727   6.705   6.631
 7029SOL    HW221987   3.834   6.658   6.745
 7030SOL     OW21988   0.261   3.104   5.866
 7030SOL    HW121989   0.183   3.105   5.927
 7030SOL    HW221990   0.240   3.158   5.784
 7031SOL     OW21991   2.298   5.847   3.872
 7031SOL    HW121992   2.255   5.784   3.807
 7031SOL    HW221993   2.231   5.873   3.941
 7032SOL     OW21994   4.397   6.740   3.817
 7032SOL    HW121995   4.363   6.708   3.905
 7032SOL    HW221996   4.323   6.738   3.750
 7033SOL     OW21997   6.751   1.419   4.288
 7033SOL    HW121998   6.664   1.390   4.249
 7033SOL    HW221999   6.744   1.514   4.320
 7034SOL     OW22000   5.455   0.853   3.159
 7034SOL    HW122001   5.530   0.860   3.093
 7034SOL    HW222002   5.455   0.934   3.218
 7035SOL     OW22003   1.482   6.816   2.487
 7035SOL    HW122004   1.554   6.771   2.435
 7035SOL    HW222005   1.485   6.915   2.470
 7036SOL     OW22006   6.371   6.028   1.379
 7036SOL    HW122007   6.293   5.966   1.384
 7036SOL    HW222008   6.451   5.984   1.419
 7037SOL     OW22009   0.228   6.753   6.438
 7037SOL    HW122010   0.262   6.666   6.475
 7037SOL    HW222011   0.199   6.812   6.513
 7038SOL     OW22012   1.596   3.991   4.621
 7038SOL    HW122013   1.500   4.012   4.640
 7038SOL    HW222014   1.646   3.981   4.707
 7039SOL     OW22015   3.054   6.759   0.143
 7039SOL    HW122016   2.968   6.766   0.093
 7039SOL    HW222017   3.104   6.845   0.138
 7040SOL     OW22018   4.813   2.622   6.071
 7040SOL    HW122019   4.887   2.556   6.076
 7040SOL    HW222020   4.774   2.623   5.979
 7041SOL     OW22021   1.272   1.895   3.514
 7041SOL    HW122022   1.310   1.881   3.606
 7041SOL    HW222023   1.329   1.961   3.465
 7042SOL     OW22024   5.610   5.206   6.584
 7042SOL    HW122025   5.641   5.213   6.489
 7042SOL    HW222026   5.542   5.134   6.592
 7043SOL     OW22027   2.448   2.621   2.809
 7043SOL    HW122028   2.509   2.585   2.879
 7043SOL    HW222029   2.362   2.569   2.809
 7044SOL     OW22030   5.246   4.402   2.852
 7044SOL    HW122031   5.338   4.424   2.822
 7044SOL    HW222032   5.250   4.347   2.936
 7045SOL     OW22033   4.569   6.165   1.435
 7045SOL    HW122034   4.636   6.239   1.444
 7045SOL    HW222035   4.554   6.145   1.338
 7046SOL     OW22036   3.622   1.797   3.738
 7046SOL    HW122037   3.674   1.832   3.816
 7046SOL    HW222038   3.535   1.760   3.770
 7047SOL     OW22039   1.091   2.385   3.194
 7047SOL    HW122040   1.076   2.361   3.290
 7047SOL    HW222041   1.024   2.338   3.136
 7048SOL     OW22042   0.665   6.036   1.509
 7048SOL    HW122043   0.624   6.019   1.419
 7048SOL    HW222044   0.722   5.958   1.535
 7049SOL     OW22045   2.838   0.606   0.912
 7049SOL    HW122046   2.787   0.543   0.853
 7049SOL    HW222047   2.779   0.681   0.940
 7050SOL     OW22048   3.151   4.071   3.764
 7050SOL    HW122049   3.140   4.029   3.854
 7050SOL    HW222050   3.248   4.085   3.745
 7051SOL     OW22051   0.468   0.535   0.929
 7051SOL    HW122052   0.518   0.512   1.013
 7051SOL    HW222053   0.519   0.503   0.850
 7052SOL     OW22054   6.625   2.321   4.337
 7052SOL    HW122055   6.613   2.418   4.358
 7052SOL    HW222056   6.564   2.267   4.394
 7053SOL     OW22057   0.192   3.215   6.338
 7053SOL    HW122058   0.166   3.284   6.405
 7053SOL    HW222059   0.150   3.236   6.250
 7054SOL     OW22060   1.063   6.876   1.514
 7054SOL    HW122061   1.152   6.835   1.535
 7054SOL    HW222062   0.992   6.830   1.566
 7055SOL     OW22063   4.133   6.408   5.303
 7055SOL    HW122064   4.045   6.396   5.349
 7055SOL    HW222065   4.201   6.439   5.370
 7056SOL     OW22066   5.794   4.934   3.737
 7056SOL    HW122067   5.872   4.978   3.781
 7056SOL    HW222068   5.720   5.001   3.726
 7057SOL     OW22069   0.694   4.268   4.722
 7057SOL    HW122070   0.736   4.182   4.691
 7057SOL    HW222071   0.747   4.345   4.686
 7058SOL     OW22072   0.098   5.751   5.796
 7058SOL    HW122073   0.014   5.786   5.838
 7058SOL    HW222074   0.077   5.714   5.706
 7059SOL     OW22075   0.357   0.200   2.642
 7059SOL    HW122076   0.260   0.189   2.620
 7059SOL    HW222077   0.412   0.154   2.573
 7060SOL     OW22078   3.659   0.111   1.503
 7060SOL    HW122079   3.618   0.021   1.516
 7060SOL    HW222080   3.657   0.162   1.589
 7061SOL     OW22081   0.303   1.981   3.563
 7061SOL    HW122082   0.353   2.017   3.642
 7061SOL    HW222083   0.366   1.972   3.485
 7062SOL     OW22084   5.826   1.402   5.656
 7062SOL    HW122085   5.886   1.473   5.620
 7062SOL    HW222086   5.856   1.378   5.749
 7063SOL     OW22087   1.267   6.948   0.795
 7063SOL    HW122088   1.342   6.935   0.730
 7063SOL    HW222089   1.221   6.860   0.811
 7064SOL     OW22090   4.110   2.261   1.719
 7064SOL    HW122091   4.177   2.191   1.695
 7064SOL    HW222092   4.158   2.340   1.759
 7065SOL     OW22093   4.826   3.876   1.200
 7065SOL    HW122094   4.745   3.820   1.180
 7065SOL    HW222095   4.827   3.897   1.298
 7066SOL     OW22096   3.938   0.782   0.362
 7066SOL    HW122097   4.030   0.744   0.360
 7066SOL    HW222098   3.934   0.855   0.431
 7067SOL     OW22099   1.228   2.495   5.128
 7067SOL    HW122100   1.155   2.562   5.132
 7067SOL    HW222101   1.262   2.476   5.221
 7068SOL     OW22102   0.617   3.487   3.235
 7068SOL    HW122103   0.626   3.428   3.316
 7068SOL    HW222104   0.620   3.431   3.153
 7069SOL     OW22105   6.624   2.983   4.835
 7069SOL    HW122106   6.599   2.888   4.850
 7069SOL    HW222107   6.568   3.022   4.762
 7070SOL     OW22108   6.500   5.303   4.774
 7070SOL    HW122109   6.408   5.312   4.736
 7070SOL    HW222110   6.510   5.214   4.818
 7071SOL     OW22111   0.323   6.801   5.162
 7071SOL    HW122112   0.285   6.716   5.200
 7071SOL    HW222113   0.337   6.867   5.236
 7072SOL     OW22114   6.901   0.476   5.729
 7072SOL    HW122115   6.931   0.381   5.721
 7072SOL    HW222116   6.803   0.479   5.748
 7073SOL     OW22117   6.493   0.696   4.548
 7073SOL    HW122118   6.495   0.745   4.461
 7073SOL    HW222119   6.423   0.625   4.545
 7074SOL     OW22120   3.723   3.085   2.264
 7074SOL    HW122121   3.640   3.127   2.300
 7074SOL    HW222122   3.757   3.138   2.186
 7075SOL     OW22123   0.981   6.381   4.526
 7075SOL    HW122124   0.885   6.398   4.502
 7075SOL    HW222125   1.003   6.285   4.512
 7076SOL     OW22126   4.176   2.444   0.606
 7076SOL    HW122127   4.256   2.427   0.548
 7076SOL    HW222128   4.102   2.480   0.550
 7077SOL     OW22129   2.322   5.228   5.483
 7077SOL    HW122130   2.354   5.296   5.416
 7077SOL    HW222131   2.382   5.228   5.562
 7078SOL     OW22132   6.134   0.325   1.881
 7078SOL    HW122133   6.208   0.261   1.857
 7078SOL    HW222134   6.086   0.290   1.962
 7079SOL     OW22135   6.876   6.658   5.471
 7079SOL    HW122136   6.785   6.663   5.512
 7079SOL    HW222137   6.945   6.660   5.543
 7080SOL     OW22138   4.069   2.251   3.843
 7080SOL    HW122139   4.107   2.318   3.907
 7080SOL    HW222140   4.139   2.183   3.822
 7081SOL     OW22141   3.352   1.003   5.508
 7081SOL    HW122142   3.394   0.996   5.598
 7081SOL    HW222143   3.405   0.949   5.442
 7082SOL     OW22144   5.856   6.539   0.467
 7082SOL    HW122145   5.793   6.504   0.397
 7082SOL    HW222146   5.949   6.514   0.443
 7083SOL     OW22147   3.407   1.130   6.377
 7083SOL    HW122148   3.417   1.077   6.293
 7083SOL    HW222149   3.479   1.199   6.380
 7084SOL     OW22150   6.935   6.997   5.286
 7084SOL    HW122151   6.971   6.929   5.350
 7084SOL    HW222152   6.972   0.063   5.308
 7085SOL     OW22153   1.743   0.977   3.032
 7085SOL    HW122154   1.840   1.000   3.022
 7085SOL    HW222155   1.728   0.882   3.004
 7086SOL     OW22156   5.037   1.467   6.080
 7086SOL    HW122157   5.034   1.565   6.100
 7086SOL    HW222158   5.031   1.415   6.166
 7087SOL     OW22159   0.192   3.934   3.659
 7087SOL    HW122160   0.154   3.958   3.748
 7087SOL    HW222161   0.235   4.015   3.619
 7088SOL     OW22162   5.099   3.197   4.141
 7088SOL    HW122163   5.159   3.271   4.171
 7088SOL    HW222164   5.134   3.158   4.056
 7089SOL     OW22165   3.409   2.386   6.328
 7089SOL    HW122166   3.397   2.364   6.425
 7089SOL    HW222167   3.470   2.319   6.286
 7090SOL     OW22168   2.617   1.384   6.086
 7090SOL    HW122169   2.659   1.474   6.098
 7090SOL    HW222170   2.683   1.313   6.108
 7091SOL     OW22171   0.017   2.053   6.754
 7091SOL    HW122172   0.104   2.012   6.727
 7091SOL    HW222173   0.002   2.137   6.702
 7092SOL     OW22174   4.171   2.749   6.876
 7092SOL    HW122175   4.187   2.765   6.973
 7092SOL    HW222176   4.151   2.652   6.861
 7093SOL     OW22177   2.961   3.783   4.165
 7093SOL    HW122178   2.944   3.794   4.263
 7093SOL    HW222179   2.874   3.765   4.118
 7094SOL     OW22180   0.623   6.513   5.396
 7094SOL    HW122181   0.546   6.454   5.419
 7094SOL    HW222182   0.609   6.553   5.305
 7095SOL     OW22183   2.806   2.570   0.147
 7095SOL    HW122184   2.856   2.490   0.115
 7095SOL    HW222185   2.866   2.627   0.203
 7096SOL     OW22186   5.857   1.373   3.791
 7096SOL    HW122187   5.931   1.432   3.760
 7096SOL    HW222188   5.892   1.308   3.858
 7097SOL     OW22189   6.472   0.364   2.124
 7097SOL    HW122190   6.387   0.407   2.156
 7097SOL    HW222191   6.492   0.395   2.031
 7098SOL     OW22192   1.145   6.160   5.026
 7098SOL    HW122193   1.163   6.103   5.106
 7098SOL    HW222194   1.189   6.119   4.946
 7099SOL     OW22195   2.186   0.646   4.337
 7099SOL    HW122196   2.256   0.709   4.371
 7099SOL    HW222197   2.227   0.585   4.268
 7100SOL     OW22198   5.453   3.802   0.853
 7100SOL    HW122199   5.353   3.802   0.850
 7100SOL    HW222200   5.486   3.896   0.858
 7101SOL     OW22201   2.019   0.276   4.486
 7101SOL    HW122202   1.992   0.366   4.520
 7101SOL    HW222203   1.943   0.212   4.497
 7102SOL     OW22204   4.215   0.501   1.034
 7102SOL    HW122205   4.238   0.571   1.101
 7102SOL    HW222206   4.284   0.501   0.961
 7103SOL     OW22207   4.409   5.818   0.102
 7103SOL    HW122208   4.441   5.724   0.112
 7103SOL    HW222209   4.455   5.861   0.024
 7104SOL     OW22210   0.982   3.594   4.834
 7104SOL    HW122211   0.902   3.540   4.809
 7104SOL    HW222212   1.063   3.535   4.837
 7105SOL     OW22213   3.409   2.896   5.502
 7105SOL    HW122214   3.361   2.847   5.574
 7105SOL    HW222215   3.505   2.907   5.527
 7106SOL     OW22216   3.375   2.870   3.417
 7106SOL    HW122217   3.357   2.906   3.326
 7106SOL    HW222218   3.471   2.887   3.441
 7107SOL     OW22219   2.640   0.834   0.661
 7107SOL    HW122220   2.601   0.768   0.598
 7107SOL    HW222221   2.736   0.811   0.679
 7108SOL     OW22222   4.315   6.206   1.152
 7108SOL    HW122223   4.373   6.287   1.159
 7108SOL    HW222224   4.223   6.233   1.124
 7109SOL     OW22225   3.567   6.821   6.688
 7109SOL    HW122226   3.591   6.907   6.641
 7109SOL    HW222227   3.582   6.831   6.786
 7110SOL     OW22228   5.417   4.978   3.964
 7110SOL    HW122229   5.322   5.003   3.985
 7110SOL    HW222230   5.469   4.970   4.049
 7111SOL     OW22231   1.590   2.824   4.404
 7111SOL    HW122232   1.498   2.862   4.415
 7111SOL    HW222233   1.589   2.728   4.431
 7112SOL     OW22234   1.680   5.595   4.185
 7112SOL    HW122235   1.629   5.527   4.133
 7112SOL    HW222236   1.681   5.568   4.282
 7113SOL     OW22237   2.903   3.755   4.962
 7113SOL    HW122238   2.948   3.667   4.978
 7113SOL    HW222239   2.964   3.829   4.990
 7114SOL     OW22240   3.968   6.712   1.841
 7114SOL    HW122241   3.948   6.807   1.814
 7114SOL    HW222242   4.044   6.678   1.786
 7115SOL     OW22243   5.247   2.310   1.736
 7115SOL    HW122244   5.336   2.334   1.775
 7115SOL    HW222245   5.259   2.282   1.641
 7116SOL     OW22246   5.784   2.860   3.302
 7116SOL    HW122247   5.749   2.942   3.257
 7116SOL    HW222248   5.872   2.881   3.345
 7117SOL     OW22249   0.182   0.204   4.495
 7117SOL    HW122250   0.225   0.206   4.585
 7117SOL    HW222251   0.083   0.195   4.505
 7118SOL     OW22252   4.053   3.381   1.098
 7118SOL    HW122253   4.075   3.443   1.173
 7118SOL    HW222254   3.996   3.306   1.131
 7119SOL     OW22255   4.540   1.593   3.428
 7119SOL    HW122256   4.625   1.620   3.383
 7119SOL    HW222257   4.462   1.627   3.376
 7120SOL     OW22258   3.620   1.724   3.356
 7120SOL    HW122259   3.528   1.740   3.392
 7120SOL    HW222260   3.670   1.663   3.417
 7121SOL     OW22261   2.391   0.096   2.494
 7121SOL    HW122262   2.477   0.109   2.444
 7121SOL    HW222263   2.334   0.178   2.484
 7122SOL     OW22264   6.556   1.105   6.634
 7122SOL    HW122265   6.521   1.011   6.632
 7122SOL    HW222266   6.600   1.126   6.547
 7123SOL     OW22267   3.171   4.968   1.176
 7123SOL    HW122268   3.106   5.025   1.125
 7123SOL    HW222269   3.125   4.925   1.253
 7124SOL     OW22270   1.130   3.725   0.382
 7124SOL    HW122271   1.138   3.781   0.299
 7124SOL    HW222272   1.034   3.703   0.398
 7125SOL     OW22273   6.953   6.410   1.297
 7125SOL    HW122274   0.017   6.448   1.327
 7125SOL    HW222275   6.897   6.483   1.258
 7126SOL     OW22276   2.821   4.626   0.066
 7126SOL    HW122277   2.853   4.614   6.996
 7126SOL    HW222278   2.775   4.715   0.074
 7127SOL     OW22279   3.010   5.838   4.391
 7127SOL    HW122280   2.930   5.823   4.448
 7127SOL    HW222281   2.988   5.814   4.296
 7128SOL     OW22282   2.832   5.468   0.588
 7128SOL    HW122283   2.886   5.531   0.644
 7128SOL    HW222284   2.890   5.426   0.519
 7129SOL     OW22285   3.583   0.567   0.903
 7129SOL    HW122286   3.495   0.611   0.886
 7129SOL    HW222287   3.603   0.503   0.828
 7130SOL     OW22288   3.068   4.877   4.391
 7130SOL    HW122289   3.106   4.884   4.299
 7130SOL    HW222290   2.989   4.816   4.391
 7131SOL     OW22291   2.607   1.948   0.403
 7131SOL    HW122292   2.577   1.896   0.483
 7131SOL    HW222293   2.674   1.895   0.351
 7132SOL     OW22294   3.536   3.719   1.538
 7132SOL    HW122295   3.597   3.709   1.459
 7132SOL    HW222296   3.447   3.753   1.507
 7133SOL     OW22297   5.376   4.785   3.462
 7133SOL    HW122298   5.462   4.742   3.434
 7133SOL    HW222299   5.387   4.822   3.555
 7134SOL     OW22300   5.850   6.035   2.881
 7134SOL    HW122301   5.791   5.957   2.860
 7134SOL    HW222302   5.910   6.053   2.803
 7135SOL     OW22303   1.810   1.794   3.110
 7135SOL    HW122304   1.881   1.765   3.174
 7135SOL    HW222305   1.851   1.822   3.024
 7136SOL     OW22306   1.978   2.099   0.888
 7136SOL    HW122307   2.014   2.024   0.833
 7136SOL    HW222308   2.052   2.141   0.940
 7137SOL     OW22309   5.609   0.875   5.599
 7137SOL    HW122310   5.574   0.952   5.652
 7137SOL    HW222311   5.547   0.855   5.524
 7138SOL     OW22312   2.738   2.310   1.052
 7138SOL    HW122313   2.703   2.392   1.097
 7138SOL    HW222314   2.778   2.335   0.964
 7139SOL     OW22315   4.972   3.196   2.111
 7139SOL    HW122316   5.004   3.251   2.034
 7139SOL    HW222317   4.886   3.151   2.086
 7140SOL     OW22318   6.333   3.338   5.129
 7140SOL    HW122319   6.344   3.422   5.077
 7140SOL    HW222320   6.390   3.266   5.089
 7141SOL     OW22321   3.583   6.586   0.699
 7141SOL    HW122322   3.579   6.648   0.777
 7141SOL    HW222323   3.602   6.638   0.616
 7142SOL     OW22324   4.436   6.781   2.804
 7142SOL    HW122325   4.462   6.691   2.838
 7142SOL    HW222326   4.388   6.831   2.876
 7143SOL     OW22327   1.315   2.413   6.330
 7143SOL    HW122328   1.242   2.473   6.297
 7143SOL    HW222329   1.289   2.318   6.316
 7144SOL     OW22330   1.278   1.499   3.202
 7144SOL    HW122331   1.281   1.565   3.127
 7144SOL    HW222332   1.300   1.544   3.288
 7145SOL     OW22333   4.352   6.189   6.070
 7145SOL    HW122334   4.448   6.211   6.084
 7145SOL    HW222335   4.299   6.273   6.063
 7146SOL     OW22336   1.986   0.436   6.968
 7146SOL    HW122337   2.017   0.359   6.911
 7146SOL    HW222338   2.065   0.478   7.012
 7147SOL     OW22339   6.313   6.617   3.548
 7147SOL    HW122340   6.290   6.526   3.514
 7147SOL    HW222341   6.382   6.659   3.489
 7148SOL     OW22342   7.002   6.045   1.820
 7148SOL    HW122343   6.944   6.018   1.743
 7148SOL    HW222344   0.039   6.119   1.792
 7149SOL     OW22345   6.819   6.786   3.415
 7149SOL    HW122346   6.892   6.730   3.454
 7149SOL    HW222347   6.831   6.881   3.445
 7150SOL     OW22348   4.828   2.321   1.656
 7150SOL    HW122349   4.889   2.316   1.577
 7150SOL    HW222350   4.865   2.265   1.730
 7151SOL     OW22351   0.699   5.859   1.069
 7151SOL    HW122352   0.779   5.843   1.011
 7151SOL    HW222353   0.666   5.773   1.106
 7152SOL     OW22354   0.294   2.320   5.768
 7152SOL    HW122355   0.213   2.322   5.826
 7152SOL    HW222356   0.366   2.375   5.810
 7153SOL     OW22357   3.365   6.015   3.830
 7153SOL    HW122358   3.433   6.089   3.831
 7153SOL    HW222359   3.389   5.948   3.900
 7154SOL     OW22360   3.922   6.404   4.682
 7154SOL    HW122361   4.021   6.419   4.693
 7154SOL    HW222362   3.889   6.345   4.756
 7155SOL     OW22363   1.592   6.247   1.373
 7155SOL    HW122364   1.664   6.244   1.442
 7155SOL    HW222365   1.560   6.341   1.362
 7156SOL     OW22366   0.800   4.929   4.653
 7156SOL    HW122367   0.790   4.878   4.568
 7156SOL    HW222368   0.882   4.985   4.649
 7157SOL     OW22369   5.913   4.757   0.972
 7157SOL    HW122370   5.974   4.785   1.047
 7157SOL    HW222371   5.825   4.731   1.010
 7158SOL     OW22372   0.505   6.842   3.167
 7158SOL    HW122373   0.486   6.749   3.199
 7158SOL    HW222374   0.529   6.900   3.246
 7159SOL     OW22375   0.338   4.677   2.548
 7159SOL    HW122376   0.276   4.753   2.527
 7159SOL    HW222377   0.287   4.591   2.550
 7160SOL     OW22378   6.450   0.384   2.940
 7160SOL    HW122379   6.527   0.444   2.918
 7160SOL    HW222380   6.474   0.327   3.019
 7161SOL     OW22381   3.257   4.026   4.693
 7161SOL    HW122382   3.204   4.032   4.778
 7161SOL    HW222383   3.354   4.041   4.713
 7162SOL     OW22384   3.408   6.351   5.587
 7162SOL    HW122385   3.334   6.288   5.561
 7162SOL    HW222386   3.419   6.420   5.516
 7163SOL     OW22387   3.404   6.518   3.803
 7163SOL    HW122388   3.356   6.430   3.795
 7163SOL    HW222389   3.468   6.514   3.879
 7164SOL     OW22390   2.163   2.016   2.767
 7164SOL    HW122391   2.193   1.945   2.703
 7164SOL    HW222392   2.182   2.106   2.727
 7165SOL     OW22393   6.374   0.978   1.266
 7165SOL    HW122394   6.454   0.929   1.231
 7165SOL    HW222395   6.314   0.914   1.314
 7166SOL     OW22396   5.139   3.693   0.358
 7166SOL    HW122397   5.162   3.629   0.432
 7166SOL    HW222398   5.172   3.657   0.271
 7167SOL     OW22399   4.989   3.999   5.224
 7167SOL    HW122400   4.973   3.994   5.323
 7167SOL    HW222401   5.065   4.061   5.205
 7168SOL     OW22402   1.115   2.476   3.664
 7168SOL    HW122403   1.147   2.569   3.649
 7168SOL    HW222404   1.088   2.465   3.760
 7169SOL     OW22405   1.004   3.003   5.223
 7169SOL    HW122406   0.940   3.003   5.300
 7169SOL    HW222407   0.997   3.090   5.174
 7170SOL     OW22408   4.023   5.408   3.991
 7170SOL    HW122409   4.114   5.369   3.998
 7170SOL    HW222410   4.019   5.493   4.044
 7171SOL     OW22411   5.789   4.069   5.900
 7171SOL    HW122412   5.853   4.044   5.827
 7171SOL    HW222413   5.722   3.996   5.911
 7172SOL     OW22414   1.195   0.252   5.734
 7172SOL    HW122415   1.148   0.285   5.652
 7172SOL    HW222416   1.293   0.242   5.715
 7173SOL     OW22417   0.229   4.772   5.804
 7173SOL    HW122418   0.156   4.718   5.845
 7173SOL    HW222419   0.217   4.869   5.826
 7174SOL     OW22420   1.162   5.556   6.621
 7174SOL    HW122421   1.101   5.610   6.679
 7174SOL    HW222422   1.132   5.461   6.620
 7175SOL     OW22423   5.715   3.387   0.718
 7175SOL    HW122424   5.793   3.427   0.670
 7175SOL    HW222425   5.728   3.288   0.725
 7176SOL     OW22426   0.715   4.984   2.796
 7176SOL    HW122427   0.650   4.933   2.740
 7176SOL    HW222428   0.759   5.055   2.740
 7177SOL     OW22429   2.407   6.956   3.844
 7177SOL    HW122430   2.495   6.920   3.811
 7177SOL    HW222431   2.338   6.884   3.838
 7178SOL     OW22432   2.558   2.632   5.777
 7178SOL    HW122433   2.578   2.697   5.704
 7178SOL    HW222434   2.459   2.628   5.791
 7179SOL     OW22435   1.527   3.398   4.840
 7179SOL    HW122436   1.627   3.401   4.837
 7179SOL    HW222437   1.497   3.305   4.858
 7180SOL     OW22438   1.237   5.727   6.204
 7180SOL    HW122439   1.224   5.820   6.169
 7180SOL    HW222440   1.188   5.717   6.290
 7181SOL     OW22441   2.765   6.790   0.816
 7181SOL    HW122442   2.762   6.721   0.888
 7181SOL    HW222443   2.804   6.750   0.733
 7182SOL     OW22444   0.987   2.962   5.671
 7182SOL    HW122445   0.958   2.907   5.750
 7182SOL    HW222446   0.911   3.017   5.638
 7183SOL     OW22447   1.757   5.017   1.901
 7183SOL    HW122448   1.808   5.090   1.856
 7183SOL    HW222449   1.736   4.945   1.835
 7184SOL     OW22450   0.600   6.915   3.610
 7184SOL    HW122451   0.665   6.977   3.565
 7184SOL    HW222452   0.648   6.833   3.641
 7185SOL     OW22453   5.022   1.996   5.560
 7185SOL    HW122454   5.099   1.986   5.496
 7185SOL    HW222455   4.943   2.032   5.511
 7186SOL     OW22456   0.327   6.987   5.388
 7186SOL    HW122457   0.360   0.010   5.470
 7186SOL    HW222458   0.228   6.973   5.396
 7187SOL     OW22459   1.596   4.877   1.059
 7187SOL    HW122460   1.583   4.786   1.020
 7187SOL    HW222461   1.687   4.911   1.034
 7188SOL     OW22462   5.442   6.983   0.517
 7188SOL    HW122463   5.490   6.942   0.439
 7188SOL    HW222464   5.509   0.001   0.579
 7189SOL     OW22465   6.213   1.009   6.878
 7189SOL    HW122466   6.122   1.033   6.843
 7189SOL    HW222467   6.253   0.937   6.821
 7190SOL     OW22468   5.254   3.124   3.123
 7190SOL    HW122469   5.199   3.162   3.197
 7190SOL    HW222470   5.302   3.198   3.077
 7191SOL     OW22471   0.661   4.265   2.462
 7191SOL    HW122472   0.584   4.328   2.479
 7191SOL    HW222473   0.684   4.267   2.365
 7192SOL     OW22474   2.062   5.976   4.579
 7192SOL    HW122475   1.999   5.989   4.656
 7192SOL    HW222476   2.130   6.049   4.578
 7193SOL     OW22477   2.797   1.869   3.158
 7193SOL    HW122478   2.878   1.909   3.115
 7193SOL    HW222479   2.763   1.794   3.101
 7194SOL     OW22480   2.232   2.515   1.341
 7194SOL    HW122481   2.262   2.586   1.403
 7194SOL    HW222482   2.291   2.514   1.260
 7195SOL     OW22483   0.517   5.360   6.732
 7195SOL    HW122484   0.541   5.395   6.641
 7195SOL    HW222485   0.547   5.425   6.801
 7196SOL     OW22486   3.132   3.254   2.237
 7196SOL    HW122487   3.110   3.227   2.331
 7196SOL    HW222488   3.126   3.174   2.178
 7197SOL     OW22489   6.879   2.695   5.885
 7197SOL    HW122490   6.822   2.638   5.945
 7197SOL    HW222491   6.827   2.716   5.802
 7198SOL     OW22492   0.949   0.575   5.189
 7198SOL    HW122493   0.924   0.627   5.271
 7198SOL    HW222494   0.890   0.602   5.113
 7199SOL     OW22495   1.987   0.915   2.156
 7199SOL    HW122496   1.916   0.950   2.095
 7199SOL    HW222497   1.944   0.881   2.240
 7200SOL     OW22498   2.550   0.952   0.033
 7200SOL    HW122499   2.481   0.992   6.996
 7200SOL    HW222500   2.626   0.917   7.003
 7201SOL     OW22501   1.441   5.327   3.499
 7201SOL    HW122502   1.517   5.377   3.457
 7201SOL    HW222503   1.405   5.260   3.435
 7202SOL     OW22504   3.589   0.037   6.585
 7202SOL    HW122505   3.653   0.032   6.508
 7202SOL    HW222506   3.626   0.099   6.654
 7203SOL     OW22507   6.296   1.261   0.895
 7203SOL    HW122508   6.314   1.355   0.868
 7203SOL    HW222509   6.320   1.249   0.992
 7204SOL     OW22510   5.721   6.784   4.786
 7204SOL    HW122511   5.707   6.729   4.869
 7204SOL    HW222512   5.741   6.725   4.709
 7205SOL     OW22513   2.013   6.306   2.954
 7205SOL    HW122514   2.057   6.306   2.864
 7205SOL    HW222515   1.971   6.396   2.970
 7206SOL     OW22516   1.350   0.412   1.381
 7206SOL    HW122517   1.285   0.370   1.317
 7206SOL    HW222518   1.386   0.342   1.442
 7207SOL     OW22519   3.494   6.918   1.473
 7207SOL    HW122520   3.431   6.944   1.401
 7207SOL    HW222521   3.567   6.860   1.434
 7208SOL     OW22522   4.435   6.620   4.601
 7208SOL    HW122523   4.352   6.564   4.613
 7208SOL    HW222524   4.414   6.715   4.625
 7209SOL     OW22525   3.109   3.105   3.079
 7209SOL    HW122526   3.092   3.185   3.023
 7209SOL    HW222527   3.207   3.097   3.098
 7210SOL     OW22528   5.106   0.174   3.557
 7210SOL    HW122529   5.186   0.143   3.610
 7210SOL    HW222530   5.131   0.255   3.504
 7211SOL     OW22531   1.781   5.810   3.762
 7211SOL    HW122532   1.871   5.789   3.726
 7211SOL    HW222533   1.744   5.729   3.809
 7212SOL     OW22534   0.960   6.396   3.585
 7212SOL    HW122535   0.976   6.494   3.597
 7212SOL    HW222536   0.912   6.381   3.498
 7213SOL     OW22537   5.822   0.282   6.007
 7213SOL    HW122538   5.736   0.235   6.026
 7213SOL    HW222539   5.837   0.288   5.909
 7214SOL     OW22540   2.387   5.254   4.163
 7214SOL    HW122541   2.309   5.247   4.100
 7214SOL    HW222542   2.465   5.294   4.114
 7215SOL     OW22543   0.094   3.280   4.169
 7215SOL    HW122544   0.008   3.229   4.163
 7215SOL    HW222545   0.075   3.374   4.196
 7216SOL     OW22546   2.552   6.012   6.744
 7216SOL    HW122547   2.492   6.028   6.665
 7216SOL    HW222548   2.506   6.041   6.828
 7217SOL     OW22549   1.847   4.560   1.714
 7217SOL    HW122550   1.940   4.534   1.740
 7217SOL    HW222551   1.814   4.500   1.641
 7218SOL     OW22552   4.370   3.050   5.516
 7218SOL    HW122553   4.372   2.984   5.591
 7218SOL    HW222554   4.275   3.074   5.496
 7219SOL     OW22555   4.802   5.550   3.175
 7219SOL    HW122556   4.845   5.468   3.138
 7219SOL    HW222557   4.712   5.527   3.212
 7220SOL     OW22558   6.842   5.660   3.499
 7220SOL    HW122559   6.786   5.694   3.575
 7220SOL    HW222560   6.858   5.562   3.510
 7221SOL     OW22561   5.161   5.091   4.749
 7221SOL    HW122562   5.244   5.103   4.804
 7221SOL    HW222563   5.089   5.151   4.784
 7222SOL     OW22564   6.430   6.645   0.538
 7222SOL    HW122565   6.496   6.618   0.468
 7222SOL    HW222566   6.356   6.696   0.495
 7223SOL     OW22567   3.070   1.618   1.705
 7223SOL    HW122568   2.988   1.672   1.725
 7223SOL    HW222569   3.134   1.674   1.653
 7224SOL     OW22570   6.045   2.093   4.820
 7224SOL    HW122571   5.962   2.092   4.876
 7224SOL    HW222572   6.029   2.146   4.737
 7225SOL     OW22573   1.421   5.682   6.440
 7225SOL    HW122574   1.412   5.601   6.499
 7225SOL    HW222575   1.379   5.663   6.351
 7226SOL     OW22576   0.425   0.708   0.399
 7226SOL    HW122577   0.507   0.655   0.377
 7226SOL    HW222578   0.350   0.645   0.421
 7227SOL     OW22579   0.960   2.161   0.488
 7227SOL    HW122580   0.882   2.100   0.475
 7227SOL    HW222581   0.961   2.230   0.415
 7228SOL     OW22582   6.933   0.800   2.052
 7228SOL    HW122583   6.969   0.755   1.970
 7228SOL    HW222584   7.009   0.827   2.112
 7229SOL     OW22585   0.917   0.687   4.052
 7229SOL    HW122586   0.958   0.623   3.988
 7229SOL    HW222587   0.945   0.664   4.145
 7230SOL     OW22588   4.637   5.365   4.703
 7230SOL    HW122589   4.615   5.269   4.716
 7230SOL    HW222590   4.673   5.403   4.788
 7231SOL     OW22591   4.392   0.386   0.067
 7231SOL    HW122592   4.331   0.359   0.142
 7231SOL    HW222593   4.440   0.305   0.032
 7232SOL     OW22594   3.670   4.887   3.451
 7232SOL    HW122595   3.588   4.856   3.403
 7232SOL    HW222596   3.645   4.916   3.544
 7233SOL     OW22597   0.678   3.091   4.860
 7233SOL    HW122598   0.605   3.042   4.814
 7233SOL    HW222599   0.651   3.111   4.954
 7234SOL     OW22600   6.394   3.013   2.031
 7234SOL    HW122601   6.305   2.967   2.028
 7234SOL    HW222602   6.466   2.944   2.029
 7235SOL     OW22603   6.455   3.957   3.380
 7235SOL    HW122604   6.435   3.860   3.370
 7235SOL    HW222605   6.384   4.011   3.335
 7236SOL     OW22606   3.236   1.882   2.819
 7236SOL    HW122607   3.220   1.819   2.895
 7236SOL    HW222608   3.212   1.975   2.848
 7237SOL     OW22609   6.562   6.539   5.150
 7237SOL    HW122610   6.546   6.460   5.092
 7237SOL    HW222611   6.632   6.597   5.108
 7238SOL     OW22612   2.226   2.002   1.338
 7238SOL    HW122613   2.315   2.005   1.293
 7238SOL    HW222614   2.191   2.094   1.351
 7239SOL     OW22615   2.002   1.665   3.260
 7239SOL    HW122616   1.962   1.609   3.332
 7239SOL    HW222617   2.085   1.710   3.294
 7240SOL     OW22618   2.828   4.254   6.978
 7240SOL    HW122619   2.807   4.209   0.040
 7240SOL    HW222620   2.794   4.348   6.980
 7241SOL     OW22621   3.133   0.662   6.372
 7241SOL    HW122622   3.120   0.626   6.464
 7241SOL    HW222623   3.055   0.719   6.347
 7242SOL     OW22624   6.036   4.095   6.699
 7242SOL    HW122625   6.070   4.146   6.778
 7242SOL    HW222626   6.012   4.002   6.728
 7243SOL     OW22627   0.884   4.649   6.422
 7243SOL    HW122628   0.916   4.560   6.454
 7243SOL    HW222629   0.906   4.719   6.490
 7244SOL     OW22630   4.440   0.531   1.247
 7244SOL    HW122631   4.370   0.602   1.250
 7244SOL    HW222632   4.530   0.572   1.233
 7245SOL     OW22633   0.422   2.596   4.795
 7245SOL    HW122634   0.342   2.572   4.850
 7245SOL    HW222635   0.497   2.621   4.856
 7246SOL     OW22636   6.574   6.894   4.555
 7246SOL    HW122637   6.544   6.990   4.547
 7246SOL    HW222638   6.639   6.875   4.482
 7247SOL     OW22639   2.553   6.440   2.792
 7247SOL    HW122640   2.531   6.476   2.882
 7247SOL    HW222641   2.471   6.439   2.735
 7248SOL     OW22642   3.366   1.148   3.749
 7248SOL    HW122643   3.452   1.159   3.701
 7248SOL    HW222644   3.366   1.204   3.832
 7249SOL     OW22645   5.598   4.281   1.307
 7249SOL    HW122646   5.653   4.242   1.381
 7249SOL    HW222647   5.651   4.352   1.261
 7250SOL     OW22648   2.252   4.774   6.402
 7250SOL    HW122649   2.336   4.781   6.456
 7250SOL    HW222650   2.176   4.816   6.453
 7251SOL     OW22651   6.778   0.247   5.519
 7251SOL    HW122652   6.753   0.158   5.481
 7251SOL    HW222653   6.698   0.308   5.515
 7252SOL     OW22654   3.568   3.585   4.603
 7252SOL    HW122655   3.551   3.683   4.603
 7252SOL    HW222656   3.486   3.537   4.635
 7253SOL     OW22657   1.453   6.061   0.466
 7253SOL    HW122658   1.482   6.061   0.562
 7253SOL    HW222659   1.485   6.144   0.421
 7254SOL     OW22660   3.644   5.307   4.738
 7254SOL    HW122661   3.626   5.218   4.694
 7254SOL    HW222662   3.633   5.380   4.670
 7255SOL     OW22663   3.302   3.463   2.195
 7255SOL    HW122664   3.235   3.391   2.182
 7255SOL    HW222665   3.326   3.469   2.292
 7256SOL     OW22666   4.826   4.816   4.545
 7256SOL    HW122667   4.878   4.737   4.577
 7256SOL    HW222668   4.865   4.899   4.585
 7257SOL     OW22669   6.341   2.998   3.416
 7257SOL    HW122670   6.336   2.905   3.378
 7257SOL    HW222671   6.437   3.024   3.427
 7258SOL     OW22672   4.613   0.442   4.343
 7258SOL    HW122673   4.655   0.513   4.287
 7258SOL    HW222674   4.519   0.427   4.314
 7259SOL     OW22675   3.012   4.629   0.288
 7259SOL    HW122676   2.943   4.614   0.358
 7259SOL    HW222677   2.968   4.640   0.199
 7260SOL     OW22678   3.709   1.629   3.099
 7260SOL    HW122679   3.659   1.681   3.169
 7260SOL    HW222680   3.754   1.693   3.036
 7261SOL     OW22681   2.602   3.255   1.679
 7261SOL    HW122682   2.557   3.342   1.697
 7261SOL    HW222683   2.533   3.182   1.674
 7262SOL     OW22684   5.975   2.489   4.226
 7262SOL    HW122685   5.973   2.541   4.140
 7262SOL    HW222686   6.020   2.543   4.297
 7263SOL     OW22687   1.186   5.687   1.794
 7263SOL    HW122688   1.268   5.721   1.748
 7263SOL    HW222689   1.206   5.671   1.890
 7264SOL     OW22690   6.804   1.395   7.006
 7264SOL    HW122691   6.748   1.379   6.924
 7264SOL    HW222692   6.901   1.385   6.983
 7265SOL     OW22693   5.886   5.215   6.094
 7265SOL    HW122694   5.808   5.225   6.031
 7265SOL    HW222695   5.970   5.243   6.048
 7266SOL     OW22696   4.141   0.466   1.365
 7266SOL    HW122697   4.191   0.537   1.413
 7266SOL    HW222698   4.049   0.498   1.344
 7267SOL     OW22699   6.751   4.722   5.021
 7267SOL    HW122700   6.749   4.673   5.109
 7267SOL    HW222701   6.735   4.819   5.037
 7268SOL     OW22702   4.393   5.508   2.241
 7268SOL    HW122703   4.357   5.425   2.197
 7268SOL    HW222704   4.372   5.505   2.339
 7269SOL     OW22705   0.985   5.701   1.309
 7269SOL    HW122706   0.993   5.634   1.383
 7269SOL    HW222707   1.003   5.655   1.222
 7270SOL     OW22708   2.559   2.022   3.148
 7270SOL    HW122709   2.544   2.021   3.049
 7270SOL    HW222710   2.649   1.983   3.168
 7271SOL     OW22711   0.356   4.282   2.814
 7271SOL    HW122712   0.344   4.219   2.736
 7271SOL    HW222713   0.395   4.368   2.781
 7272SOL     OW22714   5.450   2.871   2.550
 7272SOL    HW122715   5.351   2.883   2.565
 7272SOL    HW222716   5.492   2.960   2.532
 7273SOL     OW22717   5.646   3.985   1.625
 7273SOL    HW122718   5.620   3.979   1.529
 7273SOL    HW222719   5.571   4.024   1.678
 7274SOL     OW22720   6.828   5.347   5.801
 7274SOL    HW122721   6.896   5.280   5.829
 7274SOL    HW222722   6.769   5.308   5.731
 7275SOL     OW22723   6.468   0.930   0.215
 7275SOL    HW122724   6.379   0.972   0.200
 7275SOL    HW222725   6.536   0.975   0.157
 7276SOL     OW22726   2.709   2.044   3.773
 7276SOL    HW122727   2.648   2.041   3.694
 7276SOL    HW222728   2.760   1.959   3.779
 7277SOL     OW22729   4.947   1.217   5.392
 7277SOL    HW122730   4.995   1.208   5.480
 7277SOL    HW222731   4.903   1.306   5.387
 7278SOL     OW22732   3.710   1.590   3.597
 7278SOL    HW122733   3.682   1.675   3.642
 7278SOL    HW222734   3.807   1.595   3.574
 7279SOL     OW22735   4.086   4.470   1.143
 7279SOL    HW122736   4.035   4.436   1.222
 7279SOL    HW222737   4.040   4.441   1.059
 7280SOL     OW22738   5.129   2.456   5.221
 7280SOL    HW122739   5.126   2.356   5.221
 7280SOL    HW222740   5.225   2.487   5.225
 7281SOL     OW22741   3.515   7.021   0.720
 7281SOL    HW122742   3.424   6.993   0.749
 7281SOL    HW222743   3.582   6.951   0.747
 7282SOL     OW22744   6.824   5.567   2.206
 7282SOL    HW122745   6.883   5.536   2.132
 7282SOL    HW222746   6.789   5.659   2.184
 7283SOL     OW22747   2.845   6.103   2.016
 7283SOL    HW122748   2.878   6.038   1.947
 7283SOL    HW222749   2.921   6.163   2.042
 7284SOL     OW22750   6.727   2.869   3.657
 7284SOL    HW122751   6.820   2.833   3.643
 7284SOL    HW222752   6.725   2.966   3.631
 7285SOL     OW22753   5.039   2.837   1.487
 7285SOL    HW122754   5.042   2.829   1.388
 7285SOL    HW222755   4.977   2.910   1.514
 7286SOL     OW22756   0.749   1.183   0.598
 7286SOL    HW122757   0.797   1.170   0.511
 7286SOL    HW222758   0.657   1.219   0.580
 7287SOL     OW22759   0.474   2.868   3.914
 7287SOL    HW122760   0.439   2.824   3.831
 7287SOL    HW222761   0.523   2.801   3.969
 7288SOL     OW22762   2.713   2.314   2.751
 7288SOL    HW122763   2.689   2.329   2.655
 7288SOL    HW222764   2.632   2.332   2.808
 7289SOL     OW22765   5.553   2.164   1.820
 7289SOL    HW122766   5.570   2.201   1.729
 7289SOL    HW222767   5.640   2.143   1.864
 7290SOL     OW22768   4.556   0.963   6.172
 7290SOL    HW122769   4.515   1.031   6.233
 7290SOL    HW222770   4.535   0.986   6.077
 7291SOL     OW22771   3.318   0.120   0.230
 7291SOL    HW122772   3.380   0.110   0.308
 7291SOL    HW222773   3.270   0.034   0.213
 7292SOL     OW22774   1.586   0.084   3.116
 7292SOL    HW122775   1.591   7.013   3.146
 7292SOL    HW222776   1.627   0.144   3.185
 7293SOL     OW22777   1.586   0.981   5.206
 7293SOL    HW122778   1.656   0.915   5.177
 7293SOL    HW222779   1.515   0.986   5.135
 7294SOL     OW22780   3.020   4.614   1.626
 7294SOL    HW122781   2.968   4.548   1.681
 7294SOL    HW222782   3.118   4.605   1.648
 7295SOL     OW22783   6.334   4.894   1.544
 7295SOL    HW122784   6.308   4.966   1.480
 7295SOL    HW222785   6.378   4.819   1.494
 7296SOL     OW22786   3.657   4.947   3.175
 7296SOL    HW122787   3.726   4.880   3.147
 7296SOL    HW222788   3.675   5.034   3.129
 7297SOL     OW22789   3.375   6.623   1.566
 7297SOL    HW122790   3.389   6.718   1.541
 7297SOL    HW222791   3.443   6.566   1.520
 7298SOL     OW22792   4.420   5.939   6.476
 7298SOL    HW122793   4.503   5.935   6.532
 7298SOL    HW222794   4.379   6.030   6.484
 7299SOL     OW22795   1.323   2.984   6.914
 7299SOL    HW122796   1.238   2.939   6.940
 7299SOL    HW222797   1.338   2.972   6.816
 7300SOL     OW22798   1.016   5.206   2.182
 7300SOL    HW122799   1.039   5.184   2.087
 7300SOL    HW222800   1.097   5.193   2.239
 7301SOL     OW22801   6.125   0.191   5.772
 7301SOL    HW122802   6.030   0.203   5.741
 7301SOL    HW222803   6.168   0.280   5.783
 7302SOL     OW22804   5.424   3.163   6.147
 7302SOL    HW122805   5.504   3.134   6.094
 7302SOL    HW222806   5.357   3.206   6.085
 7303SOL     OW22807   3.104   1.060   0.748
 7303SOL    HW122808   3.095   0.999   0.670
 7303SOL    HW222809   3.082   1.154   0.721
 7304SOL     OW22810   2.519   5.008   1.264
 7304SOL    HW122811   2.589   5.008   1.335
 7304SOL    HW222812   2.428   5.005   1.307
 7305SOL     OW22813   5.945   2.049   0.132
 7305SOL    HW122814   5.866   1.987   0.134
 7305SOL    HW222815   5.919   2.134   0.086
 7306SOL     OW22816   3.496   1.649   1.090
 7306SOL    HW122817   3.450   1.701   1.162
 7306SOL    HW222818   3.559   1.709   1.040
 7307SOL     OW22819   3.315   6.707   2.170
 7307SOL    HW122820   3.257   6.708   2.089
 7307SOL    HW222821   3.410   6.688   2.144
 7308SOL     OW22822   5.737   1.031   1.905
 7308SOL    HW122823   5.746   0.950   1.847
 7308SOL    HW222824   5.647   1.072   1.891
 7309SOL     OW22825   2.585   6.201   3.386
 7309SOL    HW122826   2.683   6.217   3.399
 7309SOL    HW222827   2.550   6.145   3.461
 7310SOL     OW22828   1.376   3.365   0.125
 7310SOL    HW122829   1.430   3.328   0.050
 7310SOL    HW222830   1.339   3.289   0.180
 7311SOL     OW22831   0.354   0.297   0.269
 7311SOL    HW122832   0.308   0.385   0.252
 7311SOL    HW222833   0.364   0.284   0.368
 7312SOL     OW22834   6.854   1.868   5.569
 7312SOL    HW122835   6.882   1.962   5.587
 7312SOL    HW222836   6.933   1.814   5.539
 7313SOL     OW22837   2.114   0.781   1.297
 7313SOL    HW122838   2.078   0.873   1.313
 7313SOL    HW222839   2.106   0.726   1.380
 7314SOL     OW22840   6.890   4.061   7.015
 7314SOL    HW122841   6.829   4.099   0.061
 7314SOL    HW222842   6.835   4.016   6.945
 7315SOL     OW22843   0.168   5.425   2.535
 7315SOL    HW122844   0.096   5.470   2.483
 7315SOL    HW222845   0.229   5.375   2.473
 7316SOL     OW22846   3.211   2.134   6.168
 7316SOL    HW122847   3.134   2.122   6.106
 7316SOL    HW222848   3.199   2.218   6.221
 7317SOL     OW22849   3.444   1.497   1.892
 7317SOL    HW122850   3.464   1.462   1.984
 7317SOL    HW222851   3.451   1.597   1.893
 7318SOL     OW22852   3.913   6.764   2.183
 7318SOL    HW122853   3.842   6.794   2.119
 7318SOL    HW222854   3.954   6.844   2.227
 7319SOL     OW22855   6.821   4.109   0.380
 7319SOL    HW122856   6.915   4.142   0.373
 7319SOL    HW222857   6.771   4.132   0.296
 7320SOL     OW22858   6.891   3.982   1.118
 7320SOL    HW122859   6.792   3.993   1.129
 7320SOL    HW222860   6.914   3.985   1.021
 7321SOL     OW22861   2.094   5.921   6.004
 7321SOL    HW122862   2.060   5.861   5.931
 7321SOL    HW222863   2.153   5.992   5.964
 7322SOL     OW22864   1.115   1.293   3.081
 7322SOL    HW122865   1.023   1.327   3.061
 7322SOL    HW222866   1.167   1.363   3.129
 7323SOL     OW22867   1.941   1.339   1.022
 7323SOL    HW122868   1.922   1.369   1.115
 7323SOL    HW222869   2.028   1.377   0.992
 7324SOL     OW22870   5.677   4.700   2.813
 7324SOL    HW122871   5.623   4.644   2.876
 7324SOL    HW222872   5.649   4.682   2.719
 7325SOL     OW22873   3.368   0.629   5.559
 7325SOL    HW122874   3.280   0.641   5.514
 7325SOL    HW222875   3.433   0.698   5.527
 7326SOL     OW22876   2.946   1.104   6.349
 7326SOL    HW122877   2.941   1.094   6.448
 7326SOL    HW222878   3.000   1.029   6.310
 7327SOL     OW22879   5.942   3.604   3.198
 7327SOL    HW122880   6.031   3.648   3.182
 7327SOL    HW222881   5.902   3.576   3.111
 7328SOL     OW22882   3.736   5.316   5.710
 7328SOL    HW122883   3.732   5.288   5.806
 7328SOL    HW222884   3.652   5.365   5.686
 7329SOL     OW22885   2.084   3.271   0.308
 7329SOL    HW122886   2.009   3.230   0.257
 7329SOL    HW222887   2.067   3.263   0.406
 7330SOL     OW22888   3.093   2.963   1.443
 7330SOL    HW122889   3.119   3.024   1.368
 7330SOL    HW222890   3.032   2.892   1.409
 7331SOL     OW22891   5.256   0.516   2.209
 7331SOL    HW122892   5.222   0.424   2.225
 7331SOL    HW222893   5.217   0.551   2.124
 7332SOL     OW22894   3.716   3.970   7.010
 7332SOL    HW122895   3.676   4.043   0.041
 7332SOL    HW222896   3.703   3.991   6.913
 7333SOL     OW22897   6.745   3.414   2.364
 7333SOL    HW122898   6.662   3.439   2.314
 7333SOL    HW222899   6.816   3.387   2.299
 7334SOL     OW22900   2.955   6.796   5.788
 7334SOL    HW122901   3.042   6.747   5.795
 7334SOL    HW222902   2.944   6.855   5.868
 7335SOL     OW22903   0.052   3.636   2.951
 7335SOL    HW122904   0.021   3.707   2.888
 7335SOL    HW222905   0.151   3.644   2.964
 7336SOL     OW22906   1.737   6.344   0.738
 7336SOL    HW122907   1.751   6.402   0.818
 7336SOL    HW222908   1.671   6.389   0.677
 7337SOL     OW22909   3.363   2.829   2.104
 7337SOL    HW122910   3.350   2.832   2.203
 7337SOL    HW222911   3.457   2.853   2.082
 7338SOL     OW22912   5.382   2.611   0.983
 7338SOL    HW122913   5.300   2.655   0.947
 7338SOL    HW222914   5.357   2.542   1.050
 7339SOL     OW22915   6.873   6.312   4.997
 7339SOL    HW122916   6.934   6.237   4.972
 7339SOL    HW222917   6.885   6.388   4.933
 7340SOL     OW22918   3.367   1.025   0.114
 7340SOL    HW122919   3.343   0.969   0.034
 7340SOL    HW222920   3.342   1.121   0.096
 7341SOL     OW22921   0.277   4.714   3.964
 7341SOL    HW122922   0.200   4.664   4.004
 7341SOL    HW222923   0.306   4.667   3.880
 7342SOL     OW22924   6.553   0.501   0.320
 7342SOL    HW122925   6.579   0.553   0.401
 7342SOL    HW222926   6.634   0.488   0.262
 7343SOL     OW22927   6.037   4.336   2.202
 7343SOL    HW122928   6.093   4.365   2.279
 7343SOL    HW222929   5.969   4.270   2.233
 7344SOL     OW22930   1.797   6.514   6.450
 7344SOL    HW122931   1.756   6.434   6.406
 7344SOL    HW222932   1.827   6.579   6.380
 7345SOL     OW22933   4.164   5.093   5.494
 7345SOL    HW122934   4.070   5.086   5.526
 7345SOL    HW222935   4.226   5.083   5.571
 7346SOL     OW22936   3.459   4.312   1.437
 7346SOL    HW122937   3.426   4.289   1.346
 7346SOL    HW222938   3.398   4.379   1.479
 7347SOL     OW22939   6.130   2.264   2.094
 7347SOL    HW122940   6.065   2.226   2.159
 7347SOL    HW222941   6.091   2.262   2.002
 7348SOL     OW22942   1.133   3.050   3.845
 7348SOL    HW122943   1.173   2.960   3.862
 7348SOL    HW222944   1.077   3.077   3.923
 7349SOL     OW22945   3.451   2.109   1.487
 7349SOL    HW122946   3.419   2.142   1.398
 7349SOL    HW222947   3.424   2.013   1.498
 7350SOL     OW22948   0.640   2.237   3.283
 7350SOL    HW122949   0.668   2.330   3.258
 7350SOL    HW222950   0.584   2.198   3.209
 7351SOL     OW22951   3.919   4.506   6.714
 7351SOL    HW122952   3.950   4.600   6.707
 7351SOL    HW222953   3.822   4.504   6.738
 7352SOL     OW22954   1.247   1.324   2.517
 7352SOL    HW122955   1.337   1.336   2.475
 7352SOL    HW222956   1.177   1.364   2.458
 7353SOL     OW22957   6.317   2.041   5.173
 7353SOL    HW122958   6.340   2.117   5.112
 7353SOL    HW222959   6.369   2.049   5.258
 7354SOL     OW22960   6.741   1.236   6.039
 7354SOL    HW122961   6.721   1.151   5.989
 7354SOL    HW222962   6.703   1.313   5.988
 7355SOL     OW22963   1.172   6.498   1.075
 7355SOL    HW122964   1.170   6.450   1.163
 7355SOL    HW222965   1.204   6.436   1.004
 7356SOL     OW22966   6.048   2.667   6.119
 7356SOL    HW122967   5.963   2.632   6.158
 7356SOL    HW222968   6.040   2.765   6.104
 7357SOL     OW22969   4.768   0.752   0.857
 7357SOL    HW122970   4.757   0.845   0.891
 7357SOL    HW222971   4.785   0.753   0.759
 7358SOL     OW22972   3.575   2.131   3.682
 7358SOL    HW122973   3.476   2.136   3.687
 7358SOL    HW222974   3.610   2.082   3.762
 7359SOL     OW22975   3.459   3.208   1.997
 7359SOL    HW122976   3.432   3.161   2.081
 7359SOL    HW222977   3.377   3.227   1.942
 7360SOL     OW22978   1.569   3.150   4.958
 7360SOL    HW122979   1.517   3.169   5.041
 7360SOL    HW222980   1.657   3.107   4.982
 7361SOL     OW22981   5.091   6.678   0.782
 7361SOL    HW122982   5.093   6.763   0.731
 7361SOL    HW222983   5.169   6.621   0.756
 7362SOL     OW22984   0.964   0.152   5.029
 7362SOL    HW122985   0.936   0.062   4.995
 7362SOL    HW222986   1.062   0.165   5.014
 7363SOL     OW22987   5.834   2.600   0.442
 7363SOL    HW122988   5.760   2.556   0.492
 7363SOL    HW222989   5.809   2.695   0.423
 7364SOL     OW22990   4.022   6.695   1.051
 7364SOL    HW122991   4.020   6.759   0.974
 7364SOL    HW222992   3.985   6.606   1.022
 7365SOL     OW22993   2.941   6.875   2.397
 7365SOL    HW122994   3.036   6.899   2.379
 7365SOL    HW222995   2.915   6.906   2.489
 7366SOL     OW22996   1.077   5.147   6.967
 7366SOL    HW122997   1.092   5.235   7.011
 7366SOL    HW222998   1.020   5.158   6.886
 7367SOL     OW22999   4.344   4.039   1.454
 7367SOL    HW123000   4.256   4.037   1.406
 7367SOL    HW223001   4.410   4.091   1.400
 7368SOL     OW23002   3.490   3.661   4.331
 7368SOL    HW123003   3.520   3.756   4.337
 7368SOL    HW223004   3.412   3.647   4.391
 7369SOL     OW23005   4.735   3.604   1.362
 7369SOL    HW123006   4.738   3.602   1.262
 7369SOL    HW223007   4.663   3.666   1.392
 7370SOL     OW23008   1.731   0.247   6.635
 7370SOL    HW123009   1.738   0.199   6.723
 7370SOL    HW223010   1.779   0.195   6.565
 7371SOL     OW23011   2.905   5.260   3.753
 7371SOL    HW123012   2.889   5.264   3.851
 7371SOL    HW223013   2.948   5.345   3.722
 7372SOL     OW23014   3.760   0.061   5.274
 7372SOL    HW123015   3.824   0.018   5.211
 7372SOL    HW223016   3.766   0.016   5.364
 7373SOL     OW23017   4.328   0.857   3.426
 7373SOL    HW123018   4.253   0.793   3.439
 7373SOL    HW223019   4.412   0.807   3.407
 7374SOL     OW23020   1.638   2.837   4.986
 7374SOL    HW123021   1.579   2.758   4.970
 7374SOL    HW223022   1.672   2.870   4.898
 7375SOL     OW23023   1.285   1.869   4.169
 7375SOL    HW123024   1.370   1.817   4.162
 7375SOL    HW223025   1.304   1.966   4.158
 7376SOL     OW23026   3.138   2.876   6.998
 7376SOL    HW123027   3.051   2.903   6.958
 7376SOL    HW223028   3.206   2.862   6.926
 7377SOL     OW23029   4.973   5.182   1.772
 7377SOL    HW123030   5.038   5.155   1.701
 7377SOL    HW223031   4.896   5.231   1.731
 7378SOL     OW23032   6.844   2.464   4.499
 7378SOL    HW123033   6.746   2.466   4.482
 7378SOL    HW223034   6.884   2.386   4.452
 7379SOL     OW23035   4.402   1.189   2.719
 7379SOL    HW123036   4.366   1.112   2.667
 7379SOL    HW223037   4.408   1.163   2.816
 7380SOL     OW23038   6.696   3.595   5.734
 7380SOL    HW123039   6.722   3.682   5.777
 7380SOL    HW223040   6.766   3.568   5.668
 7381SOL     OW23041   4.870   2.756   2.346
 7381SOL    HW123042   4.856   2.801   2.258
 7381SOL    HW223043   4.810   2.798   2.415
 7382SOL     OW23044   7.002   5.013   5.267
 7382SOL    HW123045   6.967   5.084   5.327
 7382SOL    HW223046   0.015   5.054   5.184
 7383SOL     OW23047   0.378   6.628   2.594
 7383SOL    HW123048   0.457   6.680   2.562
 7383SOL    HW223049   0.369   6.544   2.540
 7384SOL     OW23050   5.462   0.771   2.307
 7384SOL    HW123051   5.429   0.855   2.264
 7384SOL    HW223052   5.386   0.707   2.318
 7385SOL     OW23053   4.348   5.475   1.958
 7385SOL    HW123054   4.282   5.409   1.992
 7385SOL    HW223055   4.437   5.460   2.001
 7386SOL     OW23056   0.658   2.321   5.474
 7386SOL    HW123057   0.608   2.393   5.521
 7386SOL    HW223058   0.681   2.249   5.539
 7387SOL     OW23059   4.042   5.911   4.313
 7387SOL    HW123060   3.944   5.910   4.292
 7387SOL    HW223061   4.078   6.003   4.296
 7388SOL     OW23062   6.918   5.574   4.088
 7388SOL    HW123063   6.833   5.524   4.108
 7388SOL    HW223064   6.896   5.663   4.049
 7389SOL     OW23065   1.614   4.420   0.055
 7389SOL    HW123066   1.649   4.405   6.986
 7389SOL    HW223067   1.514   4.419   0.053
 7390SOL     OW23068   1.079   2.077   6.404
 7390SOL    HW123069   1.152   2.107   6.465
 7390SOL    HW223070   1.022   2.156   6.379
 7391SOL     OW23071   5.379   4.494   6.161
 7391SOL    HW123072   5.333   4.509   6.074
 7391SOL    HW223073   5.429   4.577   6.187
 7392SOL     OW23074   1.684   5.954   5.690
 7392SOL    HW123075   1.750   5.923   5.621
 7392SOL    HW223076   1.719   5.932   5.781
 7393SOL     OW23077   5.970   5.144   1.989
 7393SOL    HW123078   6.033   5.212   2.027
 7393SOL    HW223079   5.959   5.160   1.891
 7394SOL     OW23080   3.927   3.092   6.032
 7394SOL    HW123081   3.975   3.104   6.119
 7394SOL    HW223082   3.840   3.047   6.047
 7395SOL     OW23083   0.459   0.486   6.113
 7395SOL    HW123084   0.539   0.472   6.170
 7395SOL    HW223085   0.481   0.550   6.040
 7396SOL     OW23086   1.930   0.970   6.352
 7396SOL    HW123087   1.851   0.959   6.412
 7396SOL    HW223088   1.933   1.064   6.318
 7397SOL     OW23089   6.465   4.752   4.500
 7397SOL    HW123090   6.374   4.777   4.465
 7397SOL    HW223091   6.456   4.716   4.592
 7398SOL     OW23092   3.402   5.232   3.851
 7398SOL    HW123093   3.449   5.202   3.768
 7398SOL    HW223094   3.462   5.219   3.929
 7399SOL     OW23095   0.520   4.212   5.527
 7399SOL    HW123096   0.514   4.241   5.432
 7399SOL    HW223097   0.602   4.251   5.569
 7400SOL     OW23098   3.324   4.270   6.772
 7400SOL    HW123099   3.333   4.178   6.733
 7400SOL    HW223100   3.228   4.286   6.796
 7401SOL     OW23101   0.375   0.958   3.470
 7401SOL    HW123102   0.425   0.947   3.556
 7401SOL    HW223103   0.363   0.869   3.426
 7402SOL     OW23104   1.806   0.181   3.960
 7402SOL    HW123105   1.734   0.112   3.973
 7402SOL    HW223106   1.765   0.263   3.919
 7403SOL     OW23107   2.118   2.858   3.759
 7403SOL    HW123108   2.193   2.793   3.744
 7403SOL    HW223109   2.156   2.951   3.763
 7404SOL     OW23110   2.160   0.080   1.428
 7404SOL    HW123111   2.155   0.032   1.516
 7404SOL    HW223112   2.163   0.014   1.353
 7405SOL     OW23113   1.604   4.768   4.684
 7405SOL    HW123114   1.506   4.769   4.666
 7405SOL    HW223115   1.629   4.847   4.740
 7406SOL     OW23116   1.840   3.832   2.381
 7406SOL    HW123117   1.770   3.885   2.428
 7406SOL    HW223118   1.930   3.871   2.399
 7407SOL     OW23119   6.863   6.084   4.589
 7407SOL    HW123120   6.831   6.049   4.501
 7407SOL    HW223121   6.950   6.132   4.575
 7408SOL     OW23122   1.311   4.319   5.896
 7408SOL    HW123123   1.387   4.274   5.941
 7408SOL    HW223124   1.295   4.408   5.937
 7409SOL     OW23125   0.739   1.217   4.646
 7409SOL    HW123126   0.798   1.286   4.688
 7409SOL    HW223127   0.680   1.260   4.578
 7410SOL     OW23128   0.281   4.727   1.224
 7410SOL    HW123129   0.338   4.646   1.236
 7410SOL    HW223130   0.264   4.742   1.127
 7411SOL     OW23131   2.343   0.135   4.361
 7411SOL    HW123132   2.392   0.057   4.321
 7411SOL    HW223133   2.267   0.160   4.302
 7412SOL     OW23134   2.676   0.551   1.300
 7412SOL    HW123135   2.588   0.579   1.340
 7412SOL    HW223136   2.746   0.550   1.371
 7413SOL     OW23137   0.287   3.671   3.751
 7413SOL    HW123138   0.371   3.628   3.717
 7413SOL    HW223139   0.282   3.765   3.718
 7414SOL     OW23140   6.924   0.281   2.357
 7414SOL    HW123141   6.919   0.367   2.406
 7414SOL    HW223142   6.916   0.298   2.259
 7415SOL     OW23143   0.980   3.142   3.090
 7415SOL    HW123144   1.071   3.135   3.047
 7415SOL    HW223145   0.990   3.132   3.189
 7416SOL     OW23146   3.462   1.181   4.166
 7416SOL    HW123147   3.544   1.198   4.221
 7416SOL    HW223148   3.384   1.166   4.226
 7417SOL     OW23149   1.285   6.420   5.551
 7417SOL    HW123150   1.200   6.419   5.498
 7417SOL    HW223151   1.325   6.512   5.546
 7418SOL     OW23152   3.213   4.205   1.325
 7418SOL    HW123153   3.143   4.188   1.395
 7418SOL    HW223154   3.197   4.295   1.284
 7419SOL     OW23155   5.786   1.735   4.674
 7419SOL    HW123156   5.699   1.698   4.642
 7419SOL    HW223157   5.860   1.674   4.647
 7420SOL     OW23158   6.691   6.882   2.235
 7420SOL    HW123159   6.633   6.936   2.173
 7420SOL    HW223160   6.685   6.785   2.209
 7421SOL     OW23161   3.294   3.343   1.165
 7421SOL    HW123162   3.383   3.385   1.179
 7421SOL    HW223163   3.223   3.413   1.170
 7422SOL     OW23164   6.483   3.025   1.720
 7422SOL    HW123165   6.452   3.096   1.657
 7422SOL    HW223166   6.411   2.956   1.731
 7423SOL     OW23167   0.938   4.774   6.039
 7423SOL    HW123168   1.015   4.802   6.097
 7423SOL    HW223169   0.972   4.718   5.964
 7424SOL     OW23170   6.113   1.454   4.078
 7424SOL    HW123171   6.143   1.511   4.155
 7424SOL    HW223172   6.021   1.420   4.096
 7425SOL     OW23173   4.143   4.624   6.910
 7425SOL    HW123174   4.173   4.573   6.991
 7425SOL    HW223175   4.151   4.566   6.829
 7426SOL     OW23176   0.614   2.158   7.010
 7426SOL    HW123177   0.545   2.105   0.035
 7426SOL    HW223178   0.581   2.252   6.997
 7427SOL     OW23179   3.079   5.938   4.670
 7427SOL    HW123180   3.103   5.852   4.715
 7427SOL    HW223181   3.006   5.921   4.603
 7428SOL     OW23182   4.146   2.097   5.256
 7428SOL    HW123183   4.156   2.009   5.303
 7428SOL    HW223184   4.064   2.143   5.287
 7429SOL     OW23185   6.660   6.983   2.751
 7429SOL    HW123186   6.622   6.964   2.661
 7429SOL    HW223187   6.706   0.048   2.751
 7430SOL     OW23188   7.020   4.722   5.597
 7430SOL    HW123189   6.966   4.638   5.594
 7430SOL    HW223190   0.037   4.739   5.507
 7431SOL     OW23191   0.455   3.677   1.299
 7431SOL    HW123192   0.449   3.633   1.389
 7431SOL    HW223193   0.366   3.717   1.276
 7432SOL     OW23194   0.712   6.263   4.044
 7432SOL    HW123195   0.684   6.197   4.113
 7432SOL    HW223196   0.751   6.215   3.965
 7433SOL     OW23197   6.289   5.301   1.052
 7433SOL    HW123198   6.312   5.370   0.983
 7433SOL    HW223199   6.370   5.282   1.108
 7434SOL     OW23200   3.066   1.482   6.757
 7434SOL    HW123201   3.038   1.567   6.801
 7434SOL    HW223202   3.143   1.500   6.696
 7435SOL     OW23203   3.443   6.728   5.835
 7435SOL    HW123204   3.519   6.784   5.803
 7435SOL    HW223205   3.437   6.732   5.935
 7436SOL     OW23206   6.453   2.856   6.645
 7436SOL    HW123207   6.375   2.847   6.584
 7436SOL    HW223208   6.537   2.866   6.592
 7437SOL     OW23209   6.663   5.364   6.805
 7437SOL    HW123210   6.684   5.393   6.898
 7437SOL    HW223211   6.690   5.268   6.793
 7438SOL     OW23212   0.834   4.455   1.634
 7438SOL    HW123213   0.744   4.498   1.629
 7438SOL    HW223214   0.824   4.356   1.624
 7439SOL     OW23215   3.067   6.908   3.913
 7439SOL    HW123216   3.036   6.885   3.820
 7439SOL    HW223217   3.160   6.871   3.926
 7440SOL     OW23218   0.965   3.226   5.030
 7440SOL    HW123219   1.000   3.207   4.938
 7440SOL    HW223220   0.869   3.252   5.025
 7441SOL     OW23221   5.921   6.950   4.242
 7441SOL    HW123222   5.948   6.925   4.335
 7441SOL    HW223223   5.923   6.869   4.183
 7442SOL     OW23224   0.847   0.764   6.642
 7442SOL    HW123225   0.777   0.766   6.714
 7442SOL    HW223226   0.884   0.856   6.629
 7443SOL     OW23227   6.598   2.094   0.521
 7443SOL    HW123228   6.582   2.011   0.466
 7443SOL    HW223229   6.529   2.162   0.498
 7444SOL     OW23230   6.909   3.260   6.138
 7444SOL    HW123231   6.871   3.201   6.209
 7444SOL    HW223232   6.926   3.352   6.176
 7445SOL     OW23233   4.846   1.040   1.456
 7445SOL    HW123234   4.845   1.082   1.547
 7445SOL    HW223235   4.832   1.112   1.387
 7446SOL     OW23236   6.199   4.205   6.890
 7446SOL    HW123237   6.241   4.285   6.847
 7446SOL    HW223238   6.185   4.223   6.987
 7447SOL     OW23239   2.607   4.929   6.208
 7447SOL    HW123240   2.685   4.883   6.165
 7447SOL    HW223241   2.582   4.880   6.292
 7448SOL     OW23242   5.580   6.771   5.901
 7448SOL    HW123243   5.673   6.803   5.918
 7448SOL    HW223244   5.576   6.729   5.810
 7449SOL     OW23245   4.716   2.470   2.050
 7449SOL    HW123246   4.658   2.421   1.985
 7449SOL    HW223247   4.760   2.546   2.003
 7450SOL     OW23248   4.973   2.863   3.855
 7450SOL    HW123249   4.910   2.927   3.899
 7450SOL    HW223250   4.930   2.824   3.774
 7451SOL     OW23251   1.657   0.259   3.301
 7451SOL    HW123252   1.703   0.335   3.254
 7451SOL    HW223253   1.693   0.251   3.394
 7452SOL     OW23254   1.678   0.437   4.662
 7452SOL    HW123255   1.630   0.524   4.656
 7452SOL    HW223256   1.694   0.401   4.570
 7453SOL     OW23257   5.701   6.022   4.833
 7453SOL    HW123258   5.745   6.059   4.914
 7453SOL    HW223259   5.616   5.977   4.859
 7454SOL     OW23260   0.963   3.252   1.525
 7454SOL    HW123261   0.916   3.340   1.522
 7454SOL    HW223262   0.906   3.185   1.573
 7455SOL     OW23263   5.814   1.289   1.377
 7455SOL    HW123264   5.770   1.378   1.362
 7455SOL    HW223265   5.784   1.251   1.464
 7456SOL     OW23266   1.446   2.136   4.548
 7456SOL    HW123267   1.379   2.128   4.622
 7456SOL    HW223268   1.537   2.117   4.583
 7457SOL     OW23269   5.461   0.389   5.892
 7457SOL    HW123270   5.468   0.308   5.834
 7457SOL    HW223271   5.500   0.467   5.843
 7458SOL     OW23272   2.309   6.811   6.662
 7458SOL    HW123273   2.241   6.882   6.646
 7458SOL    HW223274   2.356   6.829   6.748
 7459SOL     OW23275   4.517   0.670   6.764
 7459SOL    HW123276   4.605   0.631   6.790
 7459SOL    HW223277   4.485   0.628   6.679
 7460SOL     OW23278   1.950   5.402   0.349
 7460SOL    HW123279   1.986   5.435   0.262
 7460SOL    HW223280   1.943   5.478   0.414
 7461SOL     OW23281   5.305   1.495   5.430
 7461SOL    HW123282   5.387   1.440   5.440
 7461SOL    HW223283   5.227   1.445   5.467
 7462SOL     OW23284   1.774   2.400   1.606
 7462SOL    HW123285   1.841   2.470   1.631
 7462SOL    HW223286   1.681   2.438   1.614
 7463SOL     OW23287   3.536   3.024   1.661
 7463SOL    HW123288   3.590   2.945   1.686
 7463SOL    HW223289   3.446   3.019   1.704
 7464SOL     OW23290   3.918   5.774   6.450
 7464SOL    HW123291   3.978   5.727   6.515
 7464SOL    HW223292   3.974   5.814   6.377
 7465SOL     OW23293   1.680   0.478   1.183
 7465SOL    HW123294   1.623   0.440   1.110
 7465SOL    HW223295   1.742   0.546   1.144
 7466SOL     OW23296   0.696   0.176   6.317
 7466SOL    HW123297   0.773   0.142   6.371
 7466SOL    HW223298   0.641   0.099   6.285
 7467SOL     OW23299   6.180   2.357   1.136
 7467SOL    HW123300   6.132   2.370   1.049
 7467SOL    HW223301   6.266   2.409   1.134
 7468SOL     OW23302   4.575   2.282   2.387
 7468SOL    HW123303   4.592   2.223   2.308
 7468SOL    HW223304   4.642   2.357   2.387
 7469SOL     OW23305   0.983   0.087   0.138
 7469SOL    HW123306   1.050   0.088   0.064
 7469SOL    HW223307   0.915   0.159   0.123
 7470SOL     OW23308   0.843   2.907   2.521
 7470SOL    HW123309   0.765   2.922   2.581
 7470SOL    HW223310   0.909   2.982   2.531
 7471SOL     OW23311   5.948   6.541   5.012
 7471SOL    HW123312   5.947   6.469   4.943
 7471SOL    HW223313   6.030   6.532   5.069
 7472SOL     OW23314   4.730   6.513   4.049
 7472SOL    HW123315   4.674   6.523   3.967
 7472SOL    HW223316   4.783   6.596   4.064
 7473SOL     OW23317   6.791   4.291   3.144
 7473SOL    HW123318   6.854   4.333   3.209
 7473SOL    HW223319   6.780   4.194   3.167
 7474SOL     OW23320   3.009   0.720   4.392
 7474SOL    HW123321   2.976   0.637   4.435
 7474SOL    HW223322   2.960   0.799   4.428
 7475SOL     OW23323   4.925   0.868   2.345
 7475SOL    HW123324   4.866   0.789   2.326
 7475SOL    HW223325   5.018   0.836   2.361
 7476SOL     OW23326   4.221   6.481   4.683
 7476SOL    HW123327   4.233   6.382   4.669
 7476SOL    HW223328   4.213   6.499   4.781
 7477SOL     OW23329   4.783   0.896   4.239
 7477SOL    HW123330   4.841   0.878   4.319
 7477SOL    HW223331   4.807   0.985   4.201
 7478SOL     OW23332   4.142   4.046   6.247
 7478SOL    HW123333   4.095   4.135   6.247
 7478SOL    HW223334   4.229   4.054   6.197
 7479SOL     OW23335   3.876   1.728   0.866
 7479SOL    HW123336   3.974   1.730   0.844
 7479SOL    HW223337   3.844   1.634   0.868
 7480SOL     OW23338   6.132   5.490   1.348
 7480SOL    HW123339   6.220   5.529   1.375
 7480SOL    HW223340   6.113   5.513   1.252
 7481SOL     OW23341   5.512   5.023   1.220
 7481SOL    HW123342   5.485   5.052   1.129
 7481SOL    HW223343   5.578   5.088   1.258
 7482SOL     OW23344   4.109   1.424   2.017
 7482SOL    HW123345   4.079   1.428   2.112
 7482SOL    HW223346   4.033   1.447   1.957
 7483SOL     OW23347   4.249   1.904   4.750
 7483SOL    HW123348   4.153   1.914   4.722
 7483SOL    HW223349   4.265   1.959   4.832
 7484SOL     OW23350   0.197   0.232   1.859
 7484SOL    HW123351   0.282   0.267   1.899
 7484SOL    HW223352   0.131   0.216   1.932
 7485SOL     OW23353   3.620   6.314   5.141
 7485SOL    HW123354   3.668   6.254   5.204
 7485SOL    HW223355   3.550   6.262   5.092
 7486SOL     OW23356   2.310   6.912   5.569
 7486SOL    HW123357   2.232   6.887   5.512
 7486SOL    HW223358   2.386   6.850   5.550
 7487SOL     OW23359   1.961   6.717   2.086
 7487SOL    HW123360   2.013   6.792   2.047
 7487SOL    HW223361   2.022   6.657   2.138
 7488SOL     OW23362   2.333   0.005   5.224
 7488SOL    HW123363   2.417   6.976   5.211
 7488SOL    HW223364   2.354   0.103   5.220
 7489SOL     OW23365   4.677   2.075   5.120
 7489SOL    HW123366   4.759   2.019   5.132
 7489SOL    HW223367   4.654   2.080   5.023
 7490SOL     OW23368   0.620   0.778   0.848
 7490SOL    HW123369   0.690   0.709   0.826
 7490SOL    HW223370   0.600   0.775   0.946
 7491SOL     OW23371   0.682   4.944   0.036
 7491SOL    HW123372   0.681   4.902   6.970
 7491SOL    HW223373   0.684   5.044   0.027
 7492SOL     OW23374   2.324   1.921   5.000
 7492SOL    HW123375   2.255   1.886   4.937
 7492SOL    HW223376   2.387   1.981   4.951
 7493SOL     OW23377   6.285   4.116   6.128
 7493SOL    HW123378   6.283   4.214   6.109
 7493SOL    HW223379   6.192   4.080   6.129
 7494SOL     OW23380   5.675   0.866   2.420
 7494SOL    HW123381   5.743   0.796   2.399
 7494SOL    HW223382   5.585   0.837   2.387
 7495SOL     OW23383   2.420   1.152   1.378
 7495SOL    HW123384   2.390   1.153   1.282
 7495SOL    HW223385   2.341   1.136   1.437
 7496SOL     OW23386   1.005   4.539   5.867
 7496SOL    HW123387   1.081   4.492   5.911
 7496SOL    HW223388   0.988   4.499   5.777
 7497SOL     OW23389   3.138   4.863   1.434
 7497SOL    HW123390   3.168   4.811   1.514
 7497SOL    HW223391   3.038   4.865   1.431
 7498SOL     OW23392   2.755   1.372   4.211
 7498SOL    HW123393   2.697   1.294   4.189
 7498SOL    HW223394   2.698   1.452   4.230
 7499SOL     OW23395   6.240   0.177   3.277
 7499SOL    HW123396   6.294   0.256   3.306
 7499SOL    HW223397   6.143   0.201   3.276
 7500SOL     OW23398   4.005   6.053   2.558
 7500SOL    HW123399   3.969   5.994   2.630
 7500SOL    HW223400   4.006   6.148   2.590
 7501SOL     OW23401   6.549   4.139   4.380
 7501SOL    HW123402   6.591   4.060   4.335
 7501SOL    HW223403   6.507   4.198   4.311
 7502SOL     OW23404   1.363   1.544   5.382
 7502SOL    HW123405   1.321   1.453   5.391
 7502SOL    HW223406   1.398   1.574   5.471
 7503SOL     OW23407   2.904   0.795   6.562
 7503SOL    HW123408   2.806   0.775   6.570
 7503SOL    HW223409   2.944   0.798   6.654
 7504SOL     OW23410   4.173   6.703   3.671
 7504SOL    HW123411   4.089   6.753   3.689
 7504SOL    HW223412   4.162   6.647   3.589
 7505SOL     OW23413   3.111   0.809   5.187
 7505SOL    HW123414   3.172   0.806   5.107
 7505SOL    HW223415   3.081   0.903   5.202
 7506SOL     OW23416   3.959   1.010   2.670
 7506SOL    HW123417   3.985   0.940   2.736
 7506SOL    HW223418   3.871   0.985   2.628
 7507SOL     OW23419   0.070   6.481   0.186
 7507SOL    HW123420   7.002   6.478   0.227
 7507SOL    HW223421   0.079   6.565   0.133
 7508SOL     OW23422   5.669   6.571   2.670
 7508SOL    HW123423   5.695   6.627   2.749
 7508SOL    HW223424   5.579   6.599   2.637
 7509SOL     OW23425   4.845   4.629   0.549
 7509SOL    HW123426   4.760   4.581   0.568
 7509SOL    HW223427   4.840   4.672   0.459
 7510SOL     OW23428   2.773   3.697   5.227
 7510SOL    HW123429   2.693   3.743   5.265
 7510SOL    HW223430   2.786   3.726   5.132
 7511SOL     OW23431   1.435   0.574   2.272
 7511SOL    HW123432   1.386   0.600   2.355
 7511SOL    HW223433   1.496   0.648   2.244
 7512SOL     OW23434   2.757   4.191   1.200
 7512SOL    HW123435   2.692   4.240   1.258
 7512SOL    HW223436   2.846   4.188   1.246
 7513SOL     OW23437   1.685   2.627   0.155
 7513SOL    HW123438   1.747   2.705   0.151
 7513SOL    HW223439   1.654   2.603   0.063
 7514SOL     OW23440   2.612   5.998   2.099
 7514SOL    HW123441   2.691   6.046   2.060
 7514SOL    HW223442   2.617   5.901   2.074
 7515SOL     OW23443   0.783   0.150   2.818
 7515SOL    HW123444   0.846   0.073   2.814
 7515SOL    HW223445   0.690   0.117   2.836
 7516SOL     OW23446   6.766   5.976   4.334
 7516SOL    HW123447   6.767   6.066   4.290
 7516SOL    HW223448   6.840   5.920   4.296
 7517SOL     OW23449   6.594   3.710   1.355
 7517SOL    HW123450   6.669   3.654   1.391
 7517SOL    HW223451   6.542   3.656   1.289
 7518SOL     OW23452   3.597   5.890   3.729
 7518SOL    HW123453   3.563   5.841   3.649
 7518SOL    HW223454   3.526   5.949   3.765
 7519SOL     OW23455   0.413   6.159   3.989
 7519SOL    HW123456   0.473   6.196   3.918
 7519SOL    HW223457   0.424   6.212   4.073
 7520SOL     OW23458   2.324   0.358   1.963
 7520SOL    HW123459   2.267   0.277   1.948
 7520SOL    HW223460   2.266   0.435   1.988
 7521SOL     OW23461   4.322   4.647   5.398
 7521SOL    HW123462   4.255   4.720   5.386
 7521SOL    HW223463   4.382   4.670   5.475
 7522SOL     OW23464   2.290   0.786   6.452
 7522SOL    HW123465   2.326   0.874   6.420
 7522SOL    HW223466   2.223   0.751   6.386
 7523SOL     OW23467   6.208   1.136   5.662
 7523SOL    HW123468   6.301   1.119   5.628
 7523SOL    HW223469   6.171   1.218   5.620
 7524SOL     OW23470   0.398   2.563   6.068
 7524SOL    HW123471   0.412   2.465   6.079
 7524SOL    HW223472   0.301   2.585   6.081
 7525SOL     OW23473   2.314   0.413   6.103
 7525SOL    HW123474   2.350   0.378   6.189
 7525SOL    HW223475   2.382   0.404   6.031
 7526SOL     OW23476   3.681   2.972   3.274
 7526SOL    HW123477   3.779   2.958   3.264
 7526SOL    HW223478   3.663   3.024   3.358
 7527SOL     OW23479   4.550   4.631   2.623
 7527SOL    HW123480   4.506   4.669   2.541
 7527SOL    HW223481   4.540   4.532   2.623
 7528SOL     OW23482   4.793   2.620   0.249
 7528SOL    HW123483   4.836   2.538   0.285
 7528SOL    HW223484   4.859   2.673   0.196
 7529SOL     OW23485   5.563   1.396   4.077
 7529SOL    HW123486   5.657   1.429   4.088
 7529SOL    HW223487   5.500   1.465   4.113
 7530SOL     OW23488   6.987   3.285   2.257
 7530SOL    HW123489   6.966   3.298   2.161
 7530SOL    HW223490   6.985   3.187   2.279
 7531SOL     OW23491   4.410   2.144   4.352
 7531SOL    HW123492   4.407   2.135   4.252
 7531SOL    HW223493   4.472   2.219   4.377
 7532SOL     OW23494   5.392   5.656   1.768
 7532SOL    HW123495   5.366   5.751   1.751
 7532SOL    HW223496   5.310   5.600   1.779
 7533SOL     OW23497   2.062   1.008   2.889
 7533SOL    HW123498   2.089   0.962   2.974
 7533SOL    HW223499   2.106   1.097   2.884
 7534SOL     OW23500   3.838   6.259   4.902
 7534SOL    HW123501   3.746   6.228   4.879
 7534SOL    HW223502   3.894   6.180   4.927
 7535SOL     OW23503   2.813   1.000   5.753
 7535SOL    HW123504   2.864   1.078   5.789
 7535SOL    HW223505   2.715   1.023   5.748
 7536SOL     OW23506   5.587   4.909   5.269
 7536SOL    HW123507   5.557   4.831   5.215
 7536SOL    HW223508   5.628   4.978   5.210
 7537SOL     OW23509   1.922   4.220   5.515
 7537SOL    HW123510   1.936   4.311   5.476
 7537SOL    HW223511   1.896   4.156   5.442
 7538SOL     OW23512   3.327   3.264   2.645
 7538SOL    HW123513   3.333   3.170   2.679
 7538SOL    HW223514   3.309   3.326   2.721
 7539SOL     OW23515   2.521   2.278   5.082
 7539SOL    HW123516   2.573   2.196   5.106
 7539SOL    HW223517   2.498   2.328   5.165
 7540SOL     OW23518   3.426   0.953   6.165
 7540SOL    HW123519   3.455   0.867   6.206
 7540SOL    HW223520   3.379   0.935   6.079
 7541SOL     OW23521   6.975   4.025   5.007
 7541SOL    HW123522   7.022   4.023   5.095
 7541SOL    HW223523   6.900   3.959   5.007
 7542SOL     OW23524   0.605   6.602   6.423
 7542SOL    HW123525   0.564   6.533   6.483
 7542SOL    HW223526   0.570   6.591   6.331
 7543SOL     OW23527   4.319   1.844   0.606
 7543SOL    HW123528   4.352   1.853   0.512
 7543SOL    HW223529   4.328   1.932   0.653
 7544SOL     OW23530   0.185   1.882   3.164
 7544SOL    HW123531   0.150   1.820   3.094
 7544SOL    HW223532   0.182   1.838   3.254
 7545SOL     OW23533   4.803   6.605   2.943
 7545SOL    HW123534   4.801   6.590   3.042
 7545SOL    HW223535   4.778   6.699   2.922
 7546SOL     OW23536   4.407   0.588   0.852
 7546SOL    HW123537   4.396   0.654   0.778
 7546SOL    HW223538   4.484   0.615   0.910
 7547SOL     OW23539   3.977   6.541   0.644
 7547SOL    HW123540   4.041   6.499   0.708
 7547SOL    HW223541   3.968   6.483   0.563
 7548SOL     OW23542   2.366   1.806   0.593
 7548SOL    HW123543   2.442   1.742   0.585
 7548SOL    HW223544   2.331   1.828   0.502
 7549SOL     OW23545   5.145   2.002   1.979
 7549SOL    HW123546   5.167   1.921   2.034
 7549SOL    HW223547   5.097   1.975   1.896
 7550SOL     OW23548   2.714   5.270   2.792
 7550SOL    HW123549   2.785   5.236   2.731
 7550SOL    HW223550   2.631   5.289   2.740
 7551SOL     OW23551   4.602   3.947   6.300
 7551SOL    HW123552   4.678   3.978   6.357
 7551SOL    HW223553   4.569   3.859   6.334
 7552SOL     OW23554   2.319   5.441   3.823
 7552SOL    HW123555   2.361   5.420   3.734
 7552SOL    HW223556   2.301   5.356   3.872
 7553SOL     OW23557   3.894   5.039   6.028
 7553SOL    HW123558   3.927   4.957   5.981
 7553SOL    HW223559   3.855   5.013   6.117
 7554SOL     OW23560   5.182   1.291   0.711
 7554SOL    HW123561   5.232   1.242   0.640
 7554SOL    HW223562   5.219   1.266   0.801
 7555SOL     OW23563   1.472   5.402   4.792
 7555SOL    HW123564   1.485   5.499   4.814
 7555SOL    HW223565   1.559   5.363   4.761
 7556SOL     OW23566   6.977   2.111   5.676
 7556SOL    HW123567   6.963   2.148   5.768
 7556SOL    HW223568   0.043   2.068   5.671
 7557SOL     OW23569   4.993   3.803   5.691
 7557SOL    HW123570   4.968   3.897   5.714
 7557SOL    HW223571   4.921   3.761   5.636
 7558SOL     OW23572   2.355   2.717   4.159
 7558SOL    HW123573   2.322   2.809   4.139
 7558SOL    HW223574   2.282   2.651   4.141
 7559SOL     OW23575   6.646   5.370   1.422
 7559SOL    HW123576   6.708   5.377   1.344
 7559SOL    HW223577   6.663   5.446   1.484
 7560SOL     OW23578   5.083   6.757   6.957
 7560SOL    HW123579   5.052   6.685   6.894
 7560SOL    HW223580   5.168   6.797   6.922
 7561SOL     OW23581   0.954   3.344   0.249
 7561SOL    HW123582   1.013   3.310   0.177
 7561SOL    HW223583   0.903   3.268   0.291
 7562SOL     OW23584   4.674   5.754   4.430
 7562SOL    HW123585   4.771   5.763   4.452
 7562SOL    HW223586   4.638   5.843   4.400
 7563SOL     OW23587   2.880   7.012   0.905
 7563SOL    HW123588   2.895   0.041   0.822
 7563SOL    HW223589   2.829   6.929   0.883
 7564SOL     OW23590   4.991   1.315   3.675
 7564SOL    HW123591   4.891   1.324   3.676
 7564SOL    HW223592   5.018   1.255   3.600
 7565SOL     OW23593   5.011   4.270   6.383
 7565SOL    HW123594   4.925   4.321   6.392
 7565SOL    HW223595   5.030   4.221   6.468
 7566SOL     OW23596   1.374   4.704   3.834
 7566SOL    HW123597   1.310   4.781   3.839
 7566SOL    HW223598   1.437   4.707   3.911
 7567SOL     OW23599   1.518   2.959   5.601
 7567SOL    HW123600   1.436   2.985   5.652
 7567SOL    HW223601   1.491   2.918   5.514
 7568SOL     OW23602   6.213   5.610   4.225
 7568SOL    HW123603   6.175   5.566   4.143
 7568SOL    HW223604   6.190   5.556   4.305
 7569SOL     OW23605   4.724   5.789   6.212
 7569SOL    HW123606   4.631   5.751   6.214
 7569SOL    HW223607   4.734   5.849   6.132
 7570SOL     OW23608   5.612   5.060   5.547
 7570SOL    HW123609   5.549   5.050   5.625
 7570SOL    HW223610   5.572   5.016   5.467
 7571SOL     OW23611   4.910   4.324   1.720
 7571SOL    HW123612   4.858   4.355   1.800
 7571SOL    HW223613   4.853   4.266   1.663
 7572SOL     OW23614   5.101   0.661   3.777
 7572SOL    HW123615   5.063   0.570   3.761
 7572SOL    HW223616   5.199   0.653   3.794
 7573SOL     OW23617   5.752   5.430   4.456
 7573SOL    HW123618   5.707   5.513   4.425
 7573SOL    HW223619   5.685   5.355   4.461
 7574SOL     OW23620   6.335   1.633   4.548
 7574SOL    HW123621   6.366   1.705   4.485
 7574SOL    HW223622   6.302   1.674   4.633
 7575SOL     OW23623   4.740   0.808   5.870
 7575SOL    HW123624   4.656   0.847   5.908
 7575SOL    HW223625   4.817   0.826   5.931
 7576SOL     OW23626   6.065   5.336   0.115
 7576SOL    HW123627   6.125   5.303   0.188
 7576SOL    HW223628   6.063   5.269   0.041
 7577SOL     OW23629   6.922   0.069   4.918
 7577SOL    HW123630   6.954   0.163   4.911
 7577SOL    HW223631   6.990   0.015   4.968
 7578SOL     OW23632   1.554   6.674   3.852
 7578SOL    HW123633   1.581   6.701   3.945
 7578SOL    HW223634   1.636   6.656   3.798
 7579SOL     OW23635   4.134   2.117   2.413
 7579SOL    HW123636   4.222   2.077   2.387
 7579SOL    HW223637   4.087   2.150   2.332
 7580SOL     OW23638   1.316   3.694   3.971
 7580SOL    HW123639   1.411   3.714   3.992
 7580SOL    HW223640   1.311   3.641   3.886
 7581SOL     OW23641   4.544   1.019   0.940
 7581SOL    HW123642   4.642   1.032   0.927
 7581SOL    HW223643   4.529   0.958   1.018
 7582SOL     OW23644   3.739   1.508   0.545
 7582SOL    HW123645   3.810   1.463   0.601
 7582SOL    HW223646   3.749   1.479   0.450
 7583SOL     OW23647   6.055   3.875   1.996
 7583SOL    HW123648   5.968   3.925   2.001
 7583SOL    HW223649   6.038   3.784   1.958
 7584SOL     OW23650   2.620   6.842   1.170
 7584SOL    HW123651   2.684   6.780   1.124
 7584SOL    HW223652   2.528   6.829   1.133
 7585SOL     OW23653   1.524   3.204   5.976
 7585SOL    HW123654   1.584   3.182   5.899
 7585SOL    HW223655   1.504   3.302   5.977
 7586SOL     OW23656   3.138   0.730   3.022
 7586SOL    HW123657   3.051   0.730   2.974
 7586SOL    HW223658   3.122   0.733   3.120
 7587SOL     OW23659   3.014   1.364   0.006
 7587SOL    HW123660   3.032   1.398   6.937
 7587SOL    HW223661   3.006   1.441   0.069
 7588SOL     OW23662   0.477   3.803   1.831
 7588SOL    HW123663   0.457   3.782   1.736
 7588SOL    HW223664   0.395   3.792   1.887
 7589SOL     OW23665   6.141   6.466   0.458
 7589SOL    HW123666   6.209   6.401   0.492
 7589SOL    HW223667   6.183   6.556   0.449
 7590SOL     OW23668   3.126   1.709   6.367
 7590SOL    HW123669   3.061   1.770   6.323
 7590SOL    HW223670   3.207   1.698   6.310
 7591SOL     OW23671   0.118   5.586   0.472
 7591SOL    HW123672   0.129   5.649   0.549
 7591SOL    HW223673   0.207   5.555   0.442
 7592SOL     OW23674   0.198   4.583   6.745
 7592SOL    HW123675   0.265   4.572   6.818
 7592SOL    HW223676   0.226   4.659   6.685
 7593SOL     OW23677   6.133   2.505   6.499
 7593SOL    HW123678   6.097   2.552   6.580
 7593SOL    HW223679   6.057   2.470   6.444
 7594SOL     OW23680   0.307   4.451   2.212
 7594SOL    HW123681   0.214   4.422   2.234
 7594SOL    HW223682   0.305   4.542   2.171
 7595SOL     OW23683   0.444   2.798   6.469
 7595SOL    HW123684   0.459   2.745   6.553
 7595SOL    HW223685   0.352   2.838   6.471
 7596SOL     OW23686   4.840   5.320   2.588
 7596SOL    HW123687   4.855   5.250   2.657
 7596SOL    HW223688   4.881   5.406   2.619
 7597SOL     OW23689   2.913   5.756   1.565
 7597SOL    HW123690   3.003   5.712   1.554
 7597SOL    HW223691   2.927   5.853   1.586
 7598SOL     OW23692   6.266   0.798   3.004
 7598SOL    HW123693   6.310   0.883   3.035
 7598SOL    HW223694   6.167   0.808   3.010
 7599SOL     OW23695   5.029   1.093   3.874
 7599SOL    HW123696   5.020   1.162   3.803
 7599SOL    HW223697   5.003   1.004   3.837
 7600SOL     OW23698   1.859   0.826   2.429
 7600SOL    HW123699   1.946   0.819   2.479
 7600SOL    HW223700   1.797   0.886   2.479
 7601SOL     OW23701   1.986   5.692   2.993
 7601SOL    HW123702   1.902   5.639   2.987
 7601SOL    HW223703   2.061   5.640   2.953
 7602SOL     OW23704   1.540   3.596   5.377
 7602SOL    HW123705   1.515   3.608   5.281
 7602SOL    HW223706   1.475   3.646   5.435
 7603SOL     OW23707   1.465   6.083   6.255
 7603SOL    HW123708   1.509   6.146   6.191
 7603SOL    HW223709   1.382   6.046   6.214
 7604SOL     OW23710   2.690   5.564   4.064
 7604SOL    HW123711   2.665   5.579   4.160
 7604SOL    HW223712   2.642   5.484   4.029
 7605SOL     OW23713   1.585   6.283   0.354
 7605SOL    HW123714   1.593   6.283   0.255
 7605SOL    HW223715   1.661   6.232   0.394
 7606SOL     OW23716   0.279   2.129   2.151
 7606SOL    HW123717   0.322   2.058   2.095
 7606SOL    HW223718   0.308   2.219   2.118
 7607SOL     OW23719   4.291   6.603   0.624
 7607SOL    HW123720   4.270   6.562   0.535
 7607SOL    HW223721   4.208   6.645   0.662
 7608SOL     OW23722   3.402   3.826   3.329
 7608SOL    HW123723   3.446   3.812   3.418
 7608SOL    HW223724   3.317   3.773   3.325
 7609SOL     OW23725   6.664   3.692   3.202
 7609SOL    HW123726   6.688   3.595   3.203
 7609SOL    HW223727   6.747   3.746   3.217
 7610SOL     OW23728   5.759   0.959   0.012
 7610SOL    HW123729   5.839   0.901   7.021
 7610SOL    HW223730   5.788   1.047   0.049
 7611SOL     OW23731   0.566   1.754   0.117
 7611SOL    HW123732   0.635   1.785   0.181
 7611SOL    HW223733   0.482   1.730   0.166
 7612SOL     OW23734   3.855   2.146   4.339
 7612SOL    HW123735   3.814   2.176   4.425
 7612SOL    HW223736   3.932   2.084   4.358
 7613SOL     OW23737   4.810   1.845   1.930
 7613SOL    HW123738   4.898   1.892   1.942
 7613SOL    HW223739   4.813   1.758   1.979
 7614SOL     OW23740   4.680   2.680   1.510
 7614SOL    HW123741   4.635   2.714   1.592
 7614SOL    HW223742   4.667   2.581   1.504
 7615SOL     OW23743   5.043   4.515   6.145
 7615SOL    HW123744   5.102   4.581   6.098
 7615SOL    HW223745   5.074   4.505   6.240
 7616SOL     OW23746   0.577   4.480   4.293
 7616SOL    HW123747   0.559   4.519   4.203
 7616SOL    HW223748   0.587   4.553   4.360
 7617SOL     OW23749   3.000   5.785   2.553
 7617SOL    HW123750   3.012   5.722   2.477
 7617SOL    HW223751   2.983   5.733   2.637
 7618SOL     OW23752   1.045   1.989   0.144
 7618SOL    HW123753   1.100   1.980   0.228
 7618SOL    HW223754   1.104   1.978   0.064
 7619SOL     OW23755   5.822   3.148   4.677
 7619SOL    HW123756   5.783   3.147   4.769
 7619SOL    HW223757   5.907   3.094   4.677
 7620SOL     OW23758   4.000   5.726   6.850
 7620SOL    HW123759   3.975   5.712   6.946
 7620SOL    HW223760   4.068   5.800   6.845
 7621SOL     OW23761   0.516   1.567   0.564
 7621SOL    HW123762   0.609   1.588   0.596
 7621SOL    HW223763   0.461   1.534   0.641
 7622SOL     OW23764   5.200   3.806   1.695
 7622SOL    HW123765   5.107   3.818   1.731
 7622SOL    HW223766   5.219   3.878   1.628
 7623SOL     OW23767   4.674   4.772   6.279
 7623SOL    HW123768   4.651   4.745   6.373
 7623SOL    HW223769   4.725   4.698   6.235
 7624SOL     OW23770   0.509   2.751   4.457
 7624SOL    HW123771   0.491   2.669   4.512
 7624SOL    HW223772   0.436   2.762   4.389
 7625SOL     OW23773   4.686   0.099   1.212
 7625SOL    HW123774   4.673   0.137   1.121
 7625SOL    HW223775   4.616   0.136   1.274
 7626SOL     OW23776   6.884   6.589   5.212
 7626SOL    HW123777   6.869   6.630   5.302
 7626SOL    HW223778   6.871   6.490   5.217
 7627SOL     OW23779   5.912   3.396   6.870
 7627SOL    HW123780   5.879   3.326   6.933
 7627SOL    HW223781   5.984   3.450   6.915
 7628SOL     OW23782   3.180   0.458   1.191
 7628SOL    HW123783   3.145   0.366   1.206
 7628SOL    HW223784   3.278   0.454   1.171
 7629SOL     OW23785   6.322   6.751   2.685
 7629SOL    HW123786   6.399   6.794   2.638
 7629SOL    HW223787   6.323   6.776   2.781
 7630SOL     OW23788   6.024   6.201   1.927
 7630SOL    HW123789   6.091   6.255   1.978
 7630SOL    HW223790   5.941   6.190   1.981
 7631SOL     OW23791   0.630   1.748   5.291
 7631SOL    HW123792   0.714   1.718   5.335
 7631SOL    HW223793   0.620   1.847   5.302
 7632SOL     OW23794   3.669   2.217   1.609
 7632SOL    HW123795   3.571   2.210   1.591
 7632SOL    HW223796   3.683   2.246   1.704
 7633SOL     OW23797   5.223   2.958   0.016
 7633SOL    HW123798   5.298   2.926   0.074
 7633SOL    HW223799   5.222   2.907   6.954
 7634SOL     OW23800   1.248   1.309   1.866
 7634SOL    HW123801   1.208   1.380   1.809
 7634SOL    HW223802   1.328   1.345   1.913
 7635SOL     OW23803   2.513   5.033   5.304
 7635SOL    HW123804   2.451   5.053   5.380
 7635SOL    HW223805   2.603   5.007   5.339
 7636SOL     OW23806   0.798   1.325   2.999
 7636SOL    HW123807   0.803   1.424   3.014
 7636SOL    HW223808   0.727   1.286   3.057
 7637SOL     OW23809   1.996   6.375   2.399
 7637SOL    HW123810   2.047   6.289   2.395
 7637SOL    HW223811   2.046   6.446   2.350
 7638SOL     OW23812   4.723   5.945   2.354
 7638SOL    HW123813   4.703   5.848   2.350
 7638SOL    HW223814   4.679   5.992   2.277
 7639SOL     OW23815   1.397   2.133   0.570
 7639SOL    HW123816   1.465   2.070   0.606
 7639SOL    HW223817   1.307   2.108   0.607
 7640SOL     OW23818   2.889   2.331   0.328
 7640SOL    HW123819   2.900   2.314   0.230
 7640SOL    HW223820   2.929   2.256   0.380
 7641SOL     OW23821   0.608   4.586   1.527
 7641SOL    HW123822   0.540   4.525   1.569
 7641SOL    HW223823   0.592   4.680   1.558
 7642SOL     OW23824   2.558   1.657   3.289
 7642SOL    HW123825   2.589   1.623   3.200
 7642SOL    HW223826   2.630   1.711   3.331
 7643SOL     OW23827   4.628   1.689   4.041
 7643SOL    HW123828   4.645   1.717   3.947
 7643SOL    HW223829   4.534   1.655   4.049
 7644SOL     OW23830   6.291   1.873   2.885
 7644SOL    HW123831   6.381   1.914   2.897
 7644SOL    HW223832   6.221   1.944   2.880
 7645SOL     OW23833   4.532   4.531   5.986
 7645SOL    HW123834   4.472   4.457   6.016
 7645SOL    HW223835   4.602   4.548   6.057
 7646SOL     OW23836   1.824   2.717   2.305
 7646SOL    HW123837   1.824   2.744   2.208
 7646SOL    HW223838   1.909   2.749   2.348
 7647SOL     OW23839   1.298   2.881   1.196
 7647SOL    HW123840   1.234   2.806   1.178
 7647SOL    HW223841   1.379   2.870   1.139
 7648SOL     OW23842   3.867   2.187   3.662
 7648SOL    HW123843   3.774   2.200   3.696
 7648SOL    HW223844   3.932   2.192   3.738
 7649SOL     OW23845   1.797   0.972   2.674
 7649SOL    HW123846   1.726   0.905   2.697
 7649SOL    HW223847   1.877   0.955   2.731
 7650SOL     OW23848   5.743   3.483   1.076
 7650SOL    HW123849   5.734   3.398   1.127
 7650SOL    HW223850   5.822   3.478   1.015
 7651SOL     OW23851   2.797   6.967   4.707
 7651SOL    HW123852   2.786   6.943   4.611
 7651SOL    HW223853   2.787   0.042   4.718
 7652SOL     OW23854   0.299   4.174   4.261
 7652SOL    HW123855   0.387   4.201   4.222
 7652SOL    HW223856   0.313   4.136   4.352
 7653SOL     OW23857   2.557   1.513   0.901
 7653SOL    HW123858   2.548   1.460   0.985
 7653SOL    HW223859   2.470   1.514   0.853
 7654SOL     OW23860   4.864   2.955   3.354
 7654SOL    HW123861   4.954   2.915   3.339
 7654SOL    HW223862   4.870   3.025   3.426
 7655SOL     OW23863   3.951   0.315   3.834
 7655SOL    HW123864   3.951   0.398   3.889
 7655SOL    HW223865   3.904   0.332   3.747
 7656SOL     OW23866   1.612   5.674   5.871
 7656SOL    HW123867   1.705   5.708   5.885
 7656SOL    HW223868   1.601   5.586   5.918
 7657SOL     OW23869   2.558   2.334   3.060
 7657SOL    HW123870   2.585   2.272   3.134
 7657SOL    HW223871   2.534   2.423   3.098
 7658SOL     OW23872   4.403   6.486   5.893
 7658SOL    HW123873   4.348   6.494   5.809
 7658SOL    HW223874   4.483   6.429   5.875
 7659SOL     OW23875   5.598   5.995   6.814
 7659SOL    HW123876   5.574   5.957   6.903
 7659SOL    HW223877   5.682   6.049   6.823
 7660SOL     OW23878   6.280   5.348   3.984
 7660SOL    HW123879   6.378   5.347   3.963
 7660SOL    HW223880   6.247   5.443   3.981
 7661SOL     OW23881   6.252   1.906   4.771
 7661SOL    HW123882   6.197   1.981   4.807
 7661SOL    HW223883   6.228   1.889   4.675
 7662SOL     OW23884   1.089   1.910   2.309
 7662SOL    HW123885   1.134   1.831   2.351
 7662SOL    HW223886   0.998   1.885   2.278
 7663SOL     OW23887   6.070   6.659   6.131
 7663SOL    HW123888   6.121   6.635   6.214
 7663SOL    HW223889   6.048   6.756   6.133
 7664SOL     OW23890   3.504   0.574   2.564
 7664SOL    HW123891   3.542   0.501   2.507
 7664SOL    HW223892   3.478   0.652   2.507
 7665SOL     OW23893   4.250   0.538   3.605
 7665SOL    HW123894   4.277   0.443   3.589
 7665SOL    HW223895   4.304   0.577   3.680
 7666SOL     OW23896   0.154   0.174   1.233
 7666SOL    HW123897   0.109   0.236   1.169
 7666SOL    HW223898   0.169   0.221   1.320
 7667SOL     OW23899   4.976   5.857   1.437
 7667SOL    HW123900   4.888   5.902   1.450
 7667SOL    HW223901   4.985   5.829   1.341
 7668SOL     OW23902   2.764   4.481   0.896
 7668SOL    HW123903   2.716   4.561   0.933
 7668SOL    HW223904   2.853   4.472   0.941
 7669SOL     OW23905   5.622   1.915   5.001
 7669SOL    HW123906   5.598   1.911   5.098
 7669SOL    HW223907   5.695   1.849   4.982
 7670SOL     OW23908   1.612   6.122   6.006
 7670SOL    HW123909   1.568   6.031   6.007
 7670SOL    HW223910   1.711   6.111   6.012
 7671SOL     OW23911   4.422   0.993   5.209
 7671SOL    HW123912   4.506   1.010   5.259
 7671SOL    HW223913   4.358   1.068   5.223
 7672SOL     OW23914   5.681   6.246   3.743
 7672SOL    HW123915   5.754   6.313   3.741
 7672SOL    HW223916   5.697   6.177   3.672
 7673SOL     OW23917   2.278   5.261   0.026
 7673SOL    HW123918   2.306   5.279   0.120
 7673SOL    HW223919   2.359   5.250   6.993
 7674SOL     OW23920   6.713   2.347   4.076
 7674SOL    HW123921   6.706   2.438   4.036
 7674SOL    HW223922   6.681   2.349   4.171
 7675SOL     OW23923   5.076   0.824   2.693
 7675SOL    HW123924   5.153   0.873   2.734
 7675SOL    HW223925   5.051   0.747   2.751
 7676SOL     OW23926   1.167   1.949   0.416
 7676SOL    HW123927   1.105   1.916   0.487
 7676SOL    HW223928   1.166   2.048   0.413
 7677SOL     OW23929   0.801   3.892   1.615
 7677SOL    HW123930   0.769   3.803   1.584
 7677SOL    HW223931   0.837   3.884   1.708
 7678SOL     OW23932   1.962   1.322   5.662
 7678SOL    HW123933   1.876   1.285   5.630
 7678SOL    HW223934   2.019   1.248   5.698
 7679SOL     OW23935   1.586   6.552   5.087
 7679SOL    HW123936   1.640   6.635   5.073
 7679SOL    HW223937   1.516   6.568   5.156
 7680SOL     OW23938   1.975   2.632   6.835
 7680SOL    HW123939   1.956   2.580   6.918
 7680SOL    HW223940   2.043   2.582   6.780
 7681SOL     OW23941   2.784   0.104   0.415
 7681SOL    HW123942   2.720   0.051   0.360
 7681SOL    HW223943   2.744   0.124   0.504
 7682SOL     OW23944   2.781   0.062   2.053
 7682SOL    HW123945   2.695   0.111   2.043
 7682SOL    HW223946   2.818   0.077   2.144
 7683SOL     OW23947   6.866   2.230   4.346
 7683SOL    HW123948   6.767   2.244   4.343
 7683SOL    HW223949   6.886   2.142   4.389
 7684SOL     OW23950   5.579   2.094   0.152
 7684SOL    HW123951   5.553   2.080   0.247
 7684SOL    HW223952   5.563   2.010   0.101
 7685SOL     OW23953   3.377   3.470   0.075
 7685SOL    HW123954   3.310   3.451   0.146
 7685SOL    HW223955   3.335   3.458   7.009
 7686SOL     OW23956   4.888   0.545   3.485
 7686SOL    HW123957   4.905   0.459   3.436
 7686SOL    HW223958   4.857   0.525   3.578
 7687SOL     OW23959   5.880   5.511   5.582
 7687SOL    HW123960   5.816   5.444   5.544
 7687SOL    HW223961   5.840   5.602   5.577
 7688SOL     OW23962   0.361   0.743   6.293
 7688SOL    HW123963   0.340   0.835   6.259
 7688SOL    HW223964   0.460   0.731   6.297
 7689SOL     OW23965   5.087   5.675   3.454
 7689SOL    HW123966   5.113   5.639   3.544
 7689SOL    HW223967   5.153   5.644   3.385
 7690SOL     OW23968   5.937   5.281   1.349
 7690SOL    HW123969   5.876   5.338   1.294
 7690SOL    HW223970   6.012   5.337   1.385
 7691SOL     OW23971   4.732   2.656   4.523
 7691SOL    HW123972   4.708   2.640   4.427
 7691SOL    HW223973   4.803   2.726   4.528
 7692SOL     OW23974   0.706   0.092   1.448
 7692SOL    HW123975   0.743   0.131   1.532
 7692SOL    HW223976   0.744   0.001   1.434
 7693SOL     OW23977   4.437   6.890   0.761
 7693SOL    HW123978   4.422   6.804   0.810
 7693SOL    HW223979   4.532   6.918   0.770
 7694SOL     OW23980   0.626   4.215   4.297
 7694SOL    HW123981   0.599   4.309   4.315
 7694SOL    HW223982   0.666   4.208   4.206
 7695SOL     OW23983   3.904   6.814   0.665
 7695SOL    HW123984   3.862   6.820   0.756
 7695SOL    HW223985   3.948   6.725   0.654
 7696SOL     OW23986   6.844   1.880   4.881
 7696SOL    HW123987   6.866   1.967   4.838
 7696SOL    HW223988   6.862   1.805   4.816
 7697SOL     OW23989   2.927   0.474   2.425
 7697SOL    HW123990   2.962   0.556   2.472
 7697SOL    HW223991   2.976   0.463   2.339
 7698SOL     OW23992   0.523   2.887   4.711
 7698SOL    HW123993   0.545   2.843   4.624
 7698SOL    HW223994   0.494   2.818   4.777
 7699SOL     OW23995   3.727   5.798   6.780
 7699SOL    HW123996   3.712   5.810   6.682
 7699SOL    HW223997   3.824   5.780   6.796
 7700SOL     OW23998   4.785   6.467   5.372
 7700SOL    HW123999   4.793   6.387   5.311
 7700SOL    HW224000   4.876   6.496   5.401
 7701SOL     OW24001   6.342   1.661   6.829
 7701SOL    HW124002   6.264   1.608   6.797
 7701SOL    HW224003   6.417   1.599   6.853
 7702SOL     OW24004   3.196   6.670   5.721
 7702SOL    HW124005   3.196   6.627   5.631
 7702SOL    HW224006   3.288   6.667   5.759
 7703SOL     OW24007   6.898   1.341   4.670
 7703SOL    HW124008   6.928   1.356   4.576
 7703SOL    HW224009   6.972   1.365   4.733
 7704SOL     OW24010   4.731   4.687   5.560
 7704SOL    HW124011   4.705   4.766   5.616
 7704SOL    HW224012   4.752   4.610   5.620
 7705SOL     OW24013   3.726   5.057   6.333
 7705SOL    HW124014   3.694   4.969   6.299
 7705SOL    HW224015   3.668   5.087   6.409
 7706SOL     OW24016   4.853   1.501   5.659
 7706SOL    HW124017   4.940   1.484   5.703
 7706SOL    HW224018   4.868   1.523   5.562
 7707SOL     OW24019   1.090   6.130   6.618
 7707SOL    HW124020   1.100   6.088   6.709
 7707SOL    HW224021   1.077   6.228   6.628
 7708SOL     OW24022   4.902   6.144   5.448
 7708SOL    HW124023   4.862   6.156   5.357
 7708SOL    HW224024   4.835   6.104   5.510
 7709SOL     OW24025   5.072   3.755   2.017
 7709SOL    HW124026   5.024   3.771   1.931
 7709SOL    HW224027   5.068   3.658   2.041
 7710SOL     OW24028   2.604   0.697   1.060
 7710SOL    HW124029   2.638   0.644   1.138
 7710SOL    HW224030   2.658   0.780   1.050
 7711SOL     OW24031   6.292   6.072   4.980
 7711SOL    HW124032   6.262   5.976   4.981
 7711SOL    HW224033   6.364   6.084   5.049
 7712SOL     OW24034   6.532   4.126   1.544
 7712SOL    HW124035   6.465   4.100   1.475
 7712SOL    HW224036   6.613   4.164   1.499
 7713SOL     OW24037   1.802   4.367   0.462
 7713SOL    HW124038   1.834   4.455   0.426
 7713SOL    HW224039   1.704   4.359   0.446
 7714SOL     OW24040   6.472   5.723   5.114
 7714SOL    HW124041   6.536   5.702   5.187
 7714SOL    HW224042   6.479   5.654   5.042
 7715SOL     OW24043   4.855   1.293   1.019
 7715SOL    HW124044   4.850   1.309   1.117
 7715SOL    HW224045   4.909   1.364   0.975
 7716SOL     OW24046   5.996   3.480   3.461
 7716SOL    HW124047   5.950   3.510   3.377
 7716SOL    HW224048   5.982   3.549   3.532
 7717SOL     OW24049   2.659   1.227   4.751
 7717SOL    HW124050   2.738   1.212   4.811
 7717SOL    HW224051   2.578   1.187   4.794
 7718SOL     OW24052   2.098   2.462   2.454
 7718SOL    HW124053   2.082   2.534   2.521
 7718SOL    HW224054   2.195   2.456   2.433
 7719SOL     OW24055   7.010   3.676   3.702
 7719SOL    HW124056   0.041   3.594   3.687
 7719SOL    HW224057   0.016   3.748   3.639
 7720SOL     OW24058   0.153   6.740   0.378
 7720SOL    HW124059   0.191   6.755   0.469
 7720SOL    HW224060   0.148   6.642   0.359
 7721SOL     OW24061   1.515   4.352   2.959
 7721SOL    HW124062   1.519   4.256   2.931
 7721SOL    HW224063   1.590   4.371   3.021
 7722SOL     OW24064   0.575   5.308   2.348
 7722SOL    HW124065   0.556   5.362   2.429
 7722SOL    HW224066   0.665   5.264   2.358
 7723SOL     OW24067   6.402   4.123   0.560
 7723SOL    HW124068   6.319   4.169   0.593
 7723SOL    HW224069   6.385   4.087   0.468
 7724SOL     OW24070   2.460   4.435   2.156
 7724SOL    HW124071   2.480   4.528   2.126
 7724SOL    HW224072   2.525   4.372   2.114
 7725SOL     OW24073   5.531   2.570   3.174
 7725SOL    HW124074   5.611   2.570   3.233
 7725SOL    HW224075   5.555   2.607   3.084
 7726SOL     OW24076   0.460   5.412   3.937
 7726SOL    HW124077   0.408   5.428   4.021
 7726SOL    HW224078   0.558   5.427   3.955
 7727SOL     OW24079   6.300   1.794   3.395
 7727SOL    HW124080   6.318   1.887   3.364
 7727SOL    HW224081   6.386   1.752   3.425
 7728SOL     OW24082   1.080   3.674   3.704
 7728SOL    HW124083   1.028   3.672   3.790
 7728SOL    HW224084   1.157   3.610   3.710
 7729SOL     OW24085   5.946   2.670   1.609
 7729SOL    HW124086   5.957   2.749   1.670
 7729SOL    HW224087   5.906   2.701   1.523
 7730SOL     OW24088   5.699   5.357   1.999
 7730SOL    HW124089   5.681   5.313   1.912
 7730SOL    HW224090   5.759   5.436   1.985
 7731SOL     OW24091   5.833   1.114   1.143
 7731SOL    HW124092   5.741   1.078   1.159
 7731SOL    HW224093   5.841   1.205   1.183
 7732SOL     OW24094   4.551   5.909   0.835
 7732SOL    HW124095   4.576   6.003   0.860
 7732SOL    HW224096   4.452   5.904   0.822
 7733SOL     OW24097   4.380   6.190   1.895
 7733SOL    HW124098   4.359   6.258   1.965
 7733SOL    HW224099   4.471   6.152   1.911
 7734SOL     OW24100   1.835   4.208   3.803
 7734SOL    HW124101   1.835   4.265   3.722
 7734SOL    HW224102   1.745   4.213   3.848
 7735SOL     OW24103   3.841   5.421   6.548
 7735SOL    HW124104   3.921   5.435   6.606
 7735SOL    HW224105   3.865   5.362   6.470
 7736SOL     OW24106   5.056   4.592   6.857
 7736SOL    HW124107   5.086   4.530   6.785
 7736SOL    HW224108   5.042   4.540   6.942
 7737SOL     OW24109   4.252   0.738   1.197
 7737SOL    HW124110   4.306   0.773   1.273
 7737SOL    HW224111   4.154   0.747   1.219
 7738SOL     OW24112   1.800   5.662   6.592
 7738SOL    HW124113   1.766   5.755   6.579
 7738SOL    HW224114   1.725   5.604   6.624
 7739SOL     OW24115   0.413   0.959   2.089
 7739SOL    HW124116   0.331   0.903   2.098
 7739SOL    HW224117   0.477   0.915   2.026
 7740SOL     OW24118   0.964   0.449   2.877
 7740SOL    HW124119   0.883   0.448   2.819
 7740SOL    HW224120   0.956   0.379   2.948
 7741SOL     OW24121   1.423   5.999   4.436
 7741SOL    HW124122   1.439   6.049   4.350
 7741SOL    HW224123   1.496   5.933   4.451
 7742SOL     OW24124   6.585   2.187   3.379
 7742SOL    HW124125   6.526   2.239   3.442
 7742SOL    HW224126   6.670   2.163   3.426
 7743SOL     OW24127   4.588   2.258   6.293
 7743SOL    HW124128   4.606   2.336   6.233
 7743SOL    HW224129   4.675   2.219   6.323
 7744SOL     OW24130   0.352   5.809   4.194
 7744SOL    HW124131   0.344   5.882   4.262
 7744SOL    HW224132   0.425   5.833   4.129
 7745SOL     OW24133   3.370   2.087   5.574
 7745SOL    HW124134   3.319   2.156   5.524
 7745SOL    HW224135   3.335   2.080   5.668
 7746SOL     OW24136   2.698   6.874   6.746
 7746SOL    HW124137   2.612   6.913   6.714
 7746SOL    HW224138   2.773   6.912   6.693
 7747SOL     OW24139   4.056   5.801   1.276
 7747SOL    HW124140   3.979   5.862   1.296
 7747SOL    HW224141   4.120   5.847   1.215
 7748SOL     OW24142   3.039   3.782   5.741
 7748SOL    HW124143   3.078   3.822   5.824
 7748SOL    HW224144   3.106   3.721   5.699
 7749SOL     OW24145   4.184   3.556   6.057
 7749SOL    HW124146   4.245   3.635   6.066
 7749SOL    HW224147   4.089   3.587   6.052
 7750SOL     OW24148   0.314   6.009   1.545
 7750SOL    HW124149   0.376   5.936   1.515
 7750SOL    HW224150   0.226   5.999   1.498
 7751SOL     OW24151   1.036   1.137   1.924
 7751SOL    HW124152   0.967   1.190   1.973
 7751SOL    HW224153   1.116   1.195   1.906
 7752SOL     OW24154   5.128   0.280   5.362
 7752SOL    HW124155   5.137   0.319   5.271
 7752SOL    HW224156   5.054   0.213   5.363
 7753SOL     OW24157   2.073   1.650   4.757
 7753SOL    HW124158   2.097   1.599   4.674
 7753SOL    HW224159   2.129   1.732   4.763
 7754SOL     OW24160   3.661   5.974   1.427
 7754SOL    HW124161   3.625   5.885   1.399
 7754SOL    HW224162   3.721   6.010   1.356
 7755SOL     OW24163   1.038   3.042   6.321
 7755SOL    HW124164   1.045   3.117   6.256
 7755SOL    HW224165   0.981   3.070   6.399
 7756SOL     OW24166   2.959   6.482   1.895
 7756SOL    HW124167   2.903   6.560   1.922
 7756SOL    HW224168   2.990   6.494   1.801
 7757SOL     OW24169   6.368   4.261   1.314
 7757SOL    HW124170   6.351   4.327   1.387
 7757SOL    HW224171   6.452   4.285   1.266
 7758SOL     OW24172   1.928   6.687   6.269
 7758SOL    HW124173   2.005   6.689   6.206
 7758SOL    HW224174   1.843   6.704   6.219
 7759SOL     OW24175   3.174   2.287   5.848
 7759SOL    HW124176   3.095   2.243   5.891
 7759SOL    HW224177   3.248   2.220   5.840
 7760SOL     OW24178   5.115   2.214   2.303
 7760SOL    HW124179   5.119   2.120   2.339
 7760SOL    HW224180   5.039   2.222   2.239
 7761SOL     OW24181   5.419   6.121   4.993
 7761SOL    HW124182   5.450   6.026   4.996
 7761SOL    HW224183   5.469   6.175   5.061
 7762SOL     OW24184   1.517   0.488   3.831
 7762SOL    HW124185   1.535   0.576   3.788
 7762SOL    HW224186   1.550   0.414   3.772
 7763SOL     OW24187   2.234   0.161   5.540
 7763SOL    HW124188   2.284   0.076   5.555
 7763SOL    HW224189   2.210   0.202   5.628
 7764SOL     OW24190   3.296   4.155   5.553
 7764SOL    HW124191   3.293   4.218   5.630
 7764SOL    HW224192   3.222   4.088   5.563
 7765SOL     OW24193   6.282   3.808   4.245
 7765SOL    HW124194   6.376   3.839   4.227
 7765SOL    HW224195   6.265   3.722   4.197
 7766SOL     OW24196   0.814   4.115   0.486
 7766SOL    HW124197   0.834   4.050   0.412
 7766SOL    HW224198   0.889   4.113   0.552
 7767SOL     OW24199   4.278   6.878   2.552
 7767SOL    HW124200   4.316   6.844   2.638
 7767SOL    HW224201   4.331   6.956   2.520
 7768SOL     OW24202   4.978   4.528   3.621
 7768SOL    HW124203   4.939   4.489   3.705
 7768SOL    HW224204   5.035   4.607   3.645
 7769SOL     OW24205   3.785   1.800   5.043
 7769SOL    HW124206   3.725   1.878   5.060
 7769SOL    HW224207   3.880   1.829   5.044
 7770SOL     OW24208   0.206   3.569   4.892
 7770SOL    HW124209   0.156   3.613   4.966
 7770SOL    HW224210   0.273   3.632   4.854
 7771SOL     OW24211   3.032   1.971   6.292
 7771SOL    HW124212   3.111   2.027   6.268
 7771SOL    HW224213   2.960   1.984   6.223
 7772SOL     OW24214   5.048   0.703   0.889
 7772SOL    HW124215   4.949   0.705   0.875
 7772SOL    HW224216   5.080   0.608   0.883
 7773SOL     OW24217   2.470   5.713   6.868
 7773SOL    HW124218   2.439   5.734   6.775
 7773SOL    HW224219   2.535   5.637   6.865
 7774SOL     OW24220   4.532   2.370   4.128
 7774SOL    HW124221   4.566   2.420   4.048
 7774SOL    HW224222   4.550   2.272   4.116
 7775SOL     OW24223   4.085   0.465   6.775
 7775SOL    HW124224   4.031   0.430   6.851
 7775SOL    HW224225   4.158   0.523   6.810
 7776SOL     OW24226   0.091   6.688   5.999
 7776SOL    HW124227   0.116   6.763   6.060
 7776SOL    HW224228   0.167   6.623   5.994
 7777SOL     OW24229   6.191   5.463   4.454
 7777SOL    HW124230   6.270   5.403   4.440
 7777SOL    HW224231   6.188   5.493   4.550
 7778SOL     OW24232   5.970   4.114   2.631
 7778SOL    HW124233   5.879   4.076   2.647
 7778SOL    HW224234   6.010   4.072   2.549
 7779SOL     OW24235   3.692   0.359   2.746
 7779SOL    HW124236   3.669   0.456   2.737
 7779SOL    HW224237   3.609   0.307   2.765
 7780SOL     OW24238   0.082   6.233   6.288
 7780SOL    HW124239   0.138   6.242   6.206
 7780SOL    HW224240   7.012   6.260   6.268
 7781SOL     OW24241   1.703   3.878   0.123
 7781SOL    HW124242   1.797   3.908   0.108
 7781SOL    HW224243   1.640   3.946   0.085
 7782SOL     OW24244   5.898   4.703   3.152
 7782SOL    HW124245   5.934   4.748   3.071
 7782SOL    HW224246   5.927   4.754   3.234
 7783SOL     OW24247   0.344   0.086   5.622
 7783SOL    HW124248   0.283   0.159   5.653
 7783SOL    HW224249   0.428   0.087   5.678
 7784SOL     OW24250   2.905   2.346   1.633
 7784SOL    HW124251   2.924   2.376   1.727
 7784SOL    HW224252   2.891   2.426   1.575
 7785SOL     OW24253   1.356   6.445   3.433
 7785SOL    HW124254   1.317   6.383   3.365
 7785SOL    HW224255   1.455   6.437   3.433
 7786SOL     OW24256   4.407   1.229   6.949
 7786SOL    HW124257   4.430   1.132   6.942
 7786SOL    HW224258   4.385   1.251   0.020
 7787SOL     OW24259   2.507   3.363   1.186
 7787SOL    HW124260   2.521   3.384   1.089
 7787SOL    HW224261   2.539   3.440   1.242
 7788SOL     OW24262   1.488   6.051   1.519
 7788SOL    HW124263   1.393   6.023   1.534
 7788SOL    HW224264   1.491   6.124   1.451
 7789SOL     OW24265   3.357   6.832   6.359
 7789SOL    HW124266   3.313   6.818   6.447
 7789SOL    HW224267   3.350   6.929   6.333
 7790SOL     OW24268   6.616   4.986   2.238
 7790SOL    HW124269   6.572   5.056   2.183
 7790SOL    HW224270   6.715   5.001   2.239
 7791SOL     OW24271   2.091   5.533   1.700
 7791SOL    HW124272   2.124   5.440   1.682
 7791SOL    HW224273   2.095   5.551   1.798
 7792SOL     OW24274   0.237   0.977   2.740
 7792SOL    HW124275   0.290   1.061   2.727
 7792SOL    HW224276   0.231   0.957   2.838
 7793SOL     OW24277   4.983   1.588   6.341
 7793SOL    HW124278   4.886   1.610   6.348
 7793SOL    HW224279   5.030   1.661   6.292
 7794SOL     OW24280   0.552   5.408   2.100
 7794SOL    HW124281   0.554   5.376   2.195
 7794SOL    HW224282   0.634   5.461   2.081
 7795SOL     OW24283   3.280   5.168   5.516
 7795SOL    HW124284   3.355   5.106   5.540
 7795SOL    HW224285   3.193   5.127   5.543
 7796SOL     OW24286   3.693   3.611   5.434
 7796SOL    HW124287   3.675   3.678   5.505
 7796SOL    HW224288   3.784   3.626   5.395
 7797SOL     OW24289   1.423   5.208   2.175
 7797SOL    HW124290   1.432   5.160   2.088
 7797SOL    HW224291   1.348   5.168   2.227
 7798SOL     OW24292   0.849   1.173   1.727
 7798SOL    HW124293   0.758   1.137   1.750
 7798SOL    HW224294   0.908   1.170   1.807
 7799SOL     OW24295   2.628   5.715   2.864
 7799SOL    HW124296   2.529   5.709   2.875
 7799SOL    HW224297   2.673   5.702   2.953
 7800SOL     OW24298   0.791   5.795   1.456
 7800SOL    HW124299   0.813   5.766   1.550
 7800SOL    HW224300   0.867   5.773   1.396
 7801SOL     OW24301   1.681   2.172   2.441
 7801SOL    HW124302   1.745   2.102   2.473
 7801SOL    HW224303   1.594   2.128   2.416
 7802SOL     OW24304   0.034   4.673   6.448
 7802SOL    HW124305   0.120   4.660   6.399
 7802SOL    HW224306   0.010   4.589   6.497
 7803SOL     OW24307   5.508   2.372   6.641
 7803SOL    HW124308   5.529   2.416   6.553
 7803SOL    HW224309   5.590   2.371   6.698
 7804SOL     OW24310   3.099   1.942   3.904
 7804SOL    HW124311   3.073   2.027   3.858
 7804SOL    HW224312   3.083   1.952   4.003
 7805SOL     OW24313   5.068   2.977   1.858
 7805SOL    HW124314   4.972   2.950   1.853
 7805SOL    HW224315   5.123   2.900   1.891
 7806SOL     OW24316   6.504   2.450   6.387
 7806SOL    HW124317   6.426   2.391   6.405
 7806SOL    HW224318   6.560   2.411   6.314
 7807SOL     OW24319   1.488   4.401   6.356
 7807SOL    HW124320   1.444   4.317   6.387
 7807SOL    HW224321   1.570   4.378   6.304
 7808SOL     OW24322   4.577   4.351   2.550
 7808SOL    HW124323   4.583   4.383   2.455
 7808SOL    HW224324   4.537   4.259   2.551
 7809SOL     OW24325   5.050   5.019   4.491
 7809SOL    HW124326   5.088   5.077   4.419
 7809SOL    HW224327   5.089   5.045   4.579
 7810SOL     OW24328   3.817   6.635   4.834
 7810SOL    HW124329   3.907   6.678   4.831
 7810SOL    HW224330   3.817   6.555   4.774
 7811SOL     OW24331   0.944   5.628   2.946
 7811SOL    HW124332   1.038   5.613   2.976
 7811SOL    HW224333   0.888   5.657   3.024
 7812SOL     OW24334   2.443   3.103   5.433
 7812SOL    HW124335   2.519   3.145   5.483
 7812SOL    HW224336   2.475   3.074   5.342
 7813SOL     OW24337   4.668   2.368   1.450
 7813SOL    HW124338   4.715   2.357   1.537
 7813SOL    HW224339   4.733   2.356   1.375
 7814SOL     OW24340   6.766   3.255   2.614
 7814SOL    HW124341   6.780   3.305   2.530
 7814SOL    HW224342   6.753   3.158   2.593
 7815SOL     OW24343   5.768   2.303   5.195
 7815SOL    HW124344   5.757   2.226   5.258
 7815SOL    HW224345   5.768   2.389   5.247
 7816SOL     OW24346   0.342   1.559   5.984
 7816SOL    HW124347   0.335   1.486   5.917
 7816SOL    HW224348   0.263   1.556   6.045
 7817SOL     OW24349   3.847   3.895   6.061
 7817SOL    HW124350   3.777   3.951   6.105
 7817SOL    HW224351   3.827   3.888   5.963
 7818SOL     OW24352   4.368   1.251   2.426
 7818SOL    HW124353   4.356   1.204   2.514
 7818SOL    HW224354   4.355   1.349   2.439
 7819SOL     OW24355   0.498   3.825   4.084
 7819SOL    HW124356   0.529   3.830   4.179
 7819SOL    HW224357   0.489   3.917   4.046
 7820SOL     OW24358   1.993   0.949   5.470
 7820SOL    HW124359   2.046   1.005   5.533
 7820SOL    HW224360   1.951   1.008   5.400
 7821SOL     OW24361   6.292   5.496   6.875
 7821SOL    HW124362   6.365   5.439   6.911
 7821SOL    HW224363   6.241   5.538   6.950
 7822SOL     OW24364   1.058   1.456   5.595
 7822SOL    HW124365   1.134   1.432   5.535
 7822SOL    HW224366   0.972   1.424   5.553
 7823SOL     OW24367   1.352   4.173   6.410
 7823SOL    HW124368   1.372   4.108   6.483
 7823SOL    HW224369   1.342   4.124   6.323
 7824SOL     OW24370   5.696   0.955   4.029
 7824SOL    HW124371   5.653   0.985   4.114
 7824SOL    HW224372   5.671   0.861   4.009
 7825SOL     OW24373   2.430   3.033   1.678
 7825SOL    HW124374   2.338   3.044   1.716
 7825SOL    HW224375   2.470   2.948   1.712
 7826SOL     OW24376   5.597   1.351   7.003
 7826SOL    HW124377   5.541   1.308   6.934
 7826SOL    HW224378   5.602   1.450   6.986
 7827SOL     OW24379   3.654   4.507   1.272
 7827SOL    HW124380   3.745   4.539   1.246
 7827SOL    HW224381   3.622   4.560   1.351
 7828SOL     OW24382   0.555   6.010   1.267
 7828SOL    HW124383   0.591   5.967   1.185
 7828SOL    HW224384   0.476   5.959   1.299
 7829SOL     OW24385   2.408   3.586   1.387
 7829SOL    HW124386   2.447   3.551   1.472
 7829SOL    HW224387   2.473   3.648   1.343
 7830SOL     OW24388   5.600   3.857   5.872
 7830SOL    HW124389   5.634   3.801   5.796
 7830SOL    HW224390   5.602   3.804   5.956
 7831SOL     OW24391   1.523   4.339   0.426
 7831SOL    HW124392   1.467   4.415   0.392
 7831SOL    HW224393   1.501   4.322   0.522
 7832SOL     OW24394   3.248   1.616   4.983
 7832SOL    HW124395   3.211   1.595   5.073
 7832SOL    HW224396   3.321   1.684   4.992
 7833SOL     OW24397   1.153   0.658   0.786
 7833SOL    HW124398   1.086   0.712   0.735
 7833SOL    HW224399   1.113   0.569   0.810
 7834SOL     OW24400   0.112   1.157   2.317
 7834SOL    HW124401   0.191   1.187   2.264
 7834SOL    HW224402   0.137   1.151   2.414
 7835SOL     OW24403   2.257   3.000   4.773
 7835SOL    HW124404   2.305   2.977   4.857
 7835SOL    HW224405   2.199   3.080   4.789
 7836SOL     OW24406   3.063   0.135   6.634
 7836SOL    HW124407   3.074   0.210   6.568
 7836SOL    HW224408   3.152   0.091   6.649
 7837SOL     OW24409   5.896   6.631   1.903
 7837SOL    HW124410   5.945   6.583   1.830
 7837SOL    HW224411   5.939   6.609   1.991
 7838SOL     OW24412   4.940   6.417   5.736
 7838SOL    HW124413   4.857   6.389   5.688
 7838SOL    HW224414   5.018   6.410   5.673
 7839SOL     OW24415   6.129   3.898   4.473
 7839SOL    HW124416   6.163   3.843   4.549
 7839SOL    HW224417   6.181   3.878   4.390
 7840SOL     OW24418   4.900   2.200   4.406
 7840SOL    HW124419   4.823   2.153   4.449
 7840SOL    HW224420   4.960   2.237   4.476
 7841SOL     OW24421   5.478   2.484   6.385
 7841SOL    HW124422   5.451   2.460   6.292
 7841SOL    HW224423   5.400   2.526   6.433
 7842SOL     OW24424   1.481   1.413   3.509
 7842SOL    HW124425   1.504   1.368   3.423
 7842SOL    HW224426   1.470   1.511   3.493
 7843SOL     OW24427   5.564   3.970   1.224
 7843SOL    HW124428   5.582   4.039   1.153
 7843SOL    HW224429   5.634   3.899   1.218
 7844SOL     OW24430   4.672   0.823   3.693
 7844SOL    HW124431   4.621   0.737   3.693
 7844SOL    HW224432   4.671   0.862   3.786
 7845SOL     OW24433   1.049   0.983   3.939
 7845SOL    HW124434   1.054   0.895   3.891
 7845SOL    HW224435   0.961   0.989   3.987
 7846SOL     OW24436   2.697   1.106   1.445
 7846SOL    HW124437   2.603   1.122   1.415
 7846SOL    HW224438   2.746   1.193   1.449
 7847SOL     OW24439   0.281   1.036   0.830
 7847SOL    HW124440   0.306   1.020   0.735
 7847SOL    HW224441   0.283   0.950   0.880
 7848SOL     OW24442   3.418   4.387   0.978
 7848SOL    HW124443   3.380   4.442   1.052
 7848SOL    HW224444   3.503   4.429   0.946
 7849SOL     OW24445   5.268   3.815   3.537
 7849SOL    HW124446   5.243   3.738   3.596
 7849SOL    HW224447   5.275   3.784   3.443
 7850SOL     OW24448   6.722   0.673   3.858
 7850SOL    HW124449   6.794   0.604   3.852
 7850SOL    HW224450   6.735   0.728   3.940
 7851SOL     OW24451   6.022   6.395   0.200
 7851SOL    HW124452   6.065   6.341   0.273
 7851SOL    HW224453   5.923   6.386   0.207
 7852SOL     OW24454   2.906   6.311   6.800
 7852SOL    HW124455   2.928   6.215   6.821
 7852SOL    HW224456   2.812   6.317   6.767
 7853SOL     OW24457   2.936   1.109   0.069
 7853SOL    HW124458   2.844   1.133   0.100
 7853SOL    HW224459   2.977   1.188   0.024
 7854SOL     OW24460   3.875   3.717   1.237
 7854SOL    HW124461   3.873   3.664   1.321
 7854SOL    HW224462   3.820   3.800   1.249
 7855SOL     OW24463   4.083   5.967   6.298
 7855SOL    HW124464   4.161   5.954   6.236
 7855SOL    HW224465   4.013   6.022   6.253
 7856SOL     OW24466   6.439   4.716   4.805
 7856SOL    HW124467   6.430   4.696   4.902
 7856SOL    HW224468   6.533   4.698   4.776
 7857SOL     OW24469   6.570   2.532   5.731
 7857SOL    HW124470   6.511   2.478   5.792
 7857SOL    HW224471   6.645   2.475   5.698
 7858SOL     OW24472   5.202   4.636   3.305
 7858SOL    HW124473   5.174   4.543   3.331
 7858SOL    HW224474   5.260   4.674   3.377
 7859SOL     OW24475   0.540   4.035   6.509
 7859SOL    HW124476   0.502   4.119   6.549
 7859SOL    HW224477   0.555   4.048   6.411
 7860SOL     OW24478   3.982   6.278   2.716
 7860SOL    HW124479   3.934   6.248   2.799
 7860SOL    HW224480   3.955   6.371   2.694
 7861SOL     OW24481   4.203   5.120   1.680
 7861SOL    HW124482   4.265   5.197   1.693
 7861SOL    HW224483   4.112   5.144   1.713
 7862SOL     OW24484   2.934   4.203   1.749
 7862SOL    HW124485   2.900   4.289   1.788
 7862SOL    HW224486   2.856   4.145   1.724
 7863SOL     OW24487   6.539   6.198   3.269
 7863SOL    HW124488   6.526   6.280   3.324
 7863SOL    HW224489   6.499   6.120   3.316
 7864SOL     OW24490   0.036   6.268   5.451
 7864SOL    HW124491   0.095   6.224   5.384
 7864SOL    HW224492   6.975   6.297   5.408
 7865SOL     OW24493   4.252   6.297   3.871
 7865SOL    HW124494   4.164   6.250   3.861
 7865SOL    HW224495   4.295   6.270   3.957
 7866SOL     OW24496   2.641   1.311   2.280
 7866SOL    HW124497   2.700   1.235   2.257
 7866SOL    HW224498   2.585   1.335   2.200
 7867SOL     OW24499   5.475   5.730   2.322
 7867SOL    HW124500   5.500   5.636   2.299
 7867SOL    HW224501   5.556   5.778   2.358
 7868SOL     OW24502   5.180   6.422   1.755
 7868SOL    HW124503   5.098   6.406   1.810
 7868SOL    HW224504   5.249   6.353   1.779
 7869SOL     OW24505   6.422   3.820   1.092
 7869SOL    HW124506   6.442   3.725   1.116
 7869SOL    HW224507   6.506   3.866   1.066
 7870SOL     OW24508   5.959   5.211   3.302
 7870SOL    HW124509   5.892   5.283   3.285
 7870SOL    HW224510   5.994   5.220   3.395
 7871SOL     OW24511   5.693   3.579   3.316
 7871SOL    HW124512   5.780   3.612   3.279
 7871SOL    HW224513   5.661   3.643   3.386
 7872SOL     OW24514   1.171   4.211   2.391
 7872SOL    HW124515   1.270   4.210   2.380
 7872SOL    HW224516   1.137   4.118   2.403
 7873SOL     OW24517   6.739   0.593   5.361
 7873SOL    HW124518   6.694   0.525   5.419
 7873SOL    HW224519   6.834   0.605   5.390
 7874SOL     OW24520   6.424   1.264   6.823
 7874SOL    HW124521   6.325   1.275   6.813
 7874SOL    HW224522   6.459   1.206   6.750
 7875SOL     OW24523   4.484   4.191   6.873
 7875SOL    HW124524   4.451   4.175   6.780
 7875SOL    HW224525   4.565   4.135   6.889
 7876SOL     OW24526   6.669   0.507   4.897
 7876SOL    HW124527   6.702   0.473   4.985
 7876SOL    HW224528   6.680   0.607   4.894
 7877SOL     OW24529   0.454   2.387   2.575
 7877SOL    HW124530   0.526   2.439   2.530
 7877SOL    HW224531   0.379   2.371   2.511
 7878SOL     OW24532   5.027   4.469   2.706
 7878SOL    HW124533   5.115   4.453   2.752
 7878SOL    HW224534   4.961   4.506   2.771
 7879SOL     OW24535   4.402   5.851   3.212
 7879SOL    HW124536   4.339   5.926   3.233
 7879SOL    HW224537   4.489   5.866   3.258
 7880SOL     OW24538   0.539   6.251   0.727
 7880SOL    HW124539   0.455   6.231   0.779
 7880SOL    HW224540   0.607   6.290   0.789
 7881SOL     OW24541   0.342   4.083   4.514
 7881SOL    HW124542   0.276   4.076   4.589
 7881SOL    HW224543   0.412   4.012   4.525
 7882SOL     OW24544   1.437   2.641   2.577
 7882SOL    HW124545   1.450   2.695   2.494
 7882SOL    HW224546   1.348   2.662   2.617
 7883SOL     OW24547   2.054   0.621   1.537
 7883SOL    HW124548   2.119   0.582   1.602
 7883SOL    HW224549   2.014   0.705   1.574
 7884SOL     OW24550   1.446   4.317   3.732
 7884SOL    HW124551   1.367   4.368   3.765
 7884SOL    HW224552   1.530   4.365   3.758
 7885SOL     OW24553   5.744   5.783   2.863
 7885SOL    HW124554   5.787   5.738   2.942
 7885SOL    HW224555   5.651   5.749   2.851
 7886SOL     OW24556   5.445   3.645   1.418
 7886SOL    HW124557   5.517   3.613   1.479
 7886SOL    HW224558   5.465   3.616   1.325
 7887SOL     OW24559   3.221   2.878   5.287
 7887SOL    HW124560   3.204   2.959   5.230
 7887SOL    HW224561   3.273   2.905   5.368
 7888SOL     OW24562   7.019   1.740   4.158
 7888SOL    HW124563   0.033   1.653   4.127
 7888SOL    HW224564   6.935   1.760   4.108
 7889SOL     OW24565   0.369   5.473   6.980
 7889SOL    HW124566   0.373   5.387   0.007
 7889SOL    HW224567   0.462   5.504   6.961
 7890SOL     OW24568   1.532   2.828   4.128
 7890SOL    HW124569   1.595   2.760   4.091
 7890SOL    HW224570   1.541   2.832   4.227
 7891SOL     OW24571   0.720   3.309   4.169
 7891SOL    HW124572   0.705   3.317   4.267
 7891SOL    HW224573   0.698   3.216   4.139
 7892SOL     OW24574   1.351   2.139   4.253
 7892SOL    HW124575   1.255   2.118   4.272
 7892SOL    HW224576   1.406   2.120   4.334
 7893SOL     OW24577   6.153   6.049   1.688
 7893SOL    HW124578   6.105   6.098   1.761
 7893SOL    HW224579   6.165   5.953   1.714
 7894SOL     OW24580   2.069   1.708   6.947
 7894SOL    HW124581   2.141   1.742   6.887
 7894SOL    HW224582   2.084   1.612   6.967
 7895SOL     OW24583   3.780   5.885   4.263
 7895SOL    HW124584   3.740   5.811   4.317
 7895SOL    HW224585   3.749   5.878   4.169
 7896SOL     OW24586   4.667   3.289   1.415
 7896SOL    HW124587   4.638   3.343   1.495
 7896SOL    HW224588   4.667   3.192   1.439
 7897SOL     OW24589   3.333   3.987   6.508
 7897SOL    HW124590   3.237   3.985   6.480
 7897SOL    HW224591   3.339   3.967   6.606
 7898SOL     OW24592   4.924   0.165   4.596
 7898SOL    HW124593   4.853   0.183   4.528
 7898SOL    HW224594   4.994   0.105   4.557
 7899SOL     OW24595   5.582   5.663   1.568
 7899SOL    HW124596   5.527   5.623   1.641
 7899SOL    HW224597   5.644   5.731   1.606
 7900SOL     OW24598   0.286   4.109   0.643
 7900SOL    HW124599   0.372   4.117   0.592
 7900SOL    HW224600   0.307   4.085   0.738
 7901SOL     OW24601   5.158   1.299   5.664
 7901SOL    HW124602   5.175   1.384   5.714
 7901SOL    HW224603   5.072   1.258   5.695
 7902SOL     OW24604   0.251   6.186   3.326
 7902SOL    HW124605   0.342   6.169   3.362
 7902SOL    HW224606   0.186   6.121   3.365
 7903SOL     OW24607   3.979   1.591   3.884
 7903SOL    HW124608   3.929   1.676   3.897
 7903SOL    HW224609   4.011   1.585   3.789
 7904SOL     OW24610   6.018   0.090   3.068
 7904SOL    HW124611   6.102   0.099   3.014
 7904SOL    HW224612   5.948   0.149   3.030
 7905SOL     OW24613   5.352   0.761   0.665
 7905SOL    HW124614   5.447   0.770   0.696
 7905SOL    HW224615   5.300   0.843   0.690
 7906SOL     OW24616   1.427   4.863   1.264
 7906SOL    HW124617   1.374   4.948   1.257
 7906SOL    HW224618   1.468   4.842   1.176
 7907SOL     OW24619   5.955   0.514   3.140
 7907SOL    HW124620   6.049   0.538   3.117
 7907SOL    HW224621   5.923   0.573   3.214
 7908SOL     OW24622   0.757   2.307   6.558
 7908SOL    HW124623   0.715   2.226   6.597
 7908SOL    HW224624   0.753   2.382   6.623
 7909SOL     OW24625   5.258   4.185   3.020
 7909SOL    HW124626   5.332   4.161   2.957
 7909SOL    HW224627   5.279   4.149   3.111
 7910SOL     OW24628   1.157   3.372   0.917
 7910SOL    HW124629   1.134   3.391   1.012
 7910SOL    HW224630   1.180   3.275   0.908
 7911SOL     OW24631   0.807   4.131   1.200
 7911SOL    HW124632   0.754   4.199   1.251
 7911SOL    HW224633   0.759   4.043   1.200
 7912SOL     OW24634   5.428   5.073   0.553
 7912SOL    HW124635   5.331   5.077   0.531
 7912SOL    HW224636   5.447   5.131   0.632
 7913SOL     OW24637   2.251   4.156   0.834
 7913SOL    HW124638   2.350   4.140   0.831
 7913SOL    HW224639   2.218   4.176   0.742
 7914SOL     OW24640   0.108   5.543   6.498
 7914SOL    HW124641   0.140   5.558   6.592
 7914SOL    HW224642   0.036   5.609   6.475
 7915SOL     OW24643   3.945   1.282   2.769
 7915SOL    HW124644   3.884   1.296   2.847
 7915SOL    HW224645   3.961   1.184   2.757
 7916SOL     OW24646   0.268   0.703   4.369
 7916SOL    HW124647   0.322   0.692   4.286
 7916SOL    HW224648   0.244   0.613   4.405
 7917SOL     OW24649   4.253   2.492   6.059
 7917SOL    HW124650   4.296   2.560   6.120
 7917SOL    HW224651   4.177   2.535   6.010
 7918SOL     OW24652   1.302   1.258   5.074
 7918SOL    HW124653   1.380   1.320   5.069
 7918SOL    HW224654   1.329   1.168   5.038
 7919SOL     OW24655   1.240   4.824   2.960
 7919SOL    HW124656   1.215   4.801   2.866
 7919SOL    HW224657   1.173   4.785   3.023
 7920SOL     OW24658   4.961   1.074   1.743
 7920SOL    HW124659   5.027   1.039   1.809
 7920SOL    HW224660   4.872   1.083   1.787
 7921SOL     OW24661   5.695   1.783   1.306
 7921SOL    HW124662   5.661   1.877   1.313
 7921SOL    HW224663   5.783   1.776   1.354
 7922SOL     OW24664   0.550   6.513   6.707
 7922SOL    HW124665   0.452   6.514   6.688
 7922SOL    HW224666   0.570   6.443   6.776
 7923SOL     OW24667   3.008   2.374   6.546
 7923SOL    HW124668   3.082   2.388   6.612
 7923SOL    HW224669   3.040   2.401   6.455
 7924SOL     OW24670   5.406   6.615   1.115
 7924SOL    HW124671   5.476   6.546   1.135
 7924SOL    HW224672   5.317   6.570   1.107
 7925SOL     OW24673   1.914   6.597   0.656
 7925SOL    HW124674   1.977   6.576   0.731
 7925SOL    HW224675   1.887   6.693   0.660
 7926SOL     OW24676   5.248   1.098   6.710
 7926SOL    HW124677   5.317   1.106   6.638
 7926SOL    HW224678   5.203   1.186   6.724
 7927SOL     OW24679   5.183   0.262   2.249
 7927SOL    HW124680   5.162   0.209   2.167
 7927SOL    HW224681   5.115   0.242   2.319
 7928SOL     OW24682   6.728   1.119   3.333
 7928SOL    HW124683   6.764   1.178   3.261
 7928SOL    HW224684   6.684   1.039   3.292
 7929SOL     OW24685   4.323   3.934   6.569
 7929SOL    HW124686   4.234   3.892   6.586
 7929SOL    HW224687   4.311   4.029   6.542
 7930SOL     OW24688   3.428   5.505   5.910
 7930SOL    HW124689   3.473   5.521   5.823
 7930SOL    HW224690   3.484   5.543   5.984
 7931SOL     OW24691   3.396   2.550   0.760
 7931SOL    HW124692   3.330   2.551   0.685
 7931SOL    HW224693   3.354   2.510   0.842
 7932SOL     OW24694   0.046   5.065   0.882
 7932SOL    HW124695   0.110   5.085   0.956
 7932SOL    HW224696   0.041   4.967   0.868
 7933SOL     OW24697   6.755   0.928   5.888
 7933SOL    HW124698   6.794   0.873   5.962
 7933SOL    HW224699   6.820   0.932   5.812
 7934SOL     OW24700   1.582   4.623   0.589
 7934SOL    HW124701   1.522   4.617   0.509
 7934SOL    HW224702   1.605   4.531   0.621
 7935SOL     OW24703   5.053   4.148   2.734
 7935SOL    HW124704   5.006   4.202   2.665
 7935SOL    HW224705   5.100   4.210   2.798
 7936SOL     OW24706   2.531   5.894   3.359
 7936SOL    HW124707   2.536   5.979   3.413
 7936SOL    HW224708   2.580   5.907   3.273
 7937SOL     OW24709   1.646   5.494   4.457
 7937SOL    HW124710   1.549   5.494   4.483
 7937SOL    HW224711   1.667   5.411   4.406
 7938SOL     OW24712   5.516   6.908   5.213
 7938SOL    HW124713   5.493   6.917   5.116
 7938SOL    HW224714   5.592   6.970   5.234
 7939SOL     OW24715   0.468   2.016   5.479
 7939SOL    HW124716   0.521   1.934   5.461
 7939SOL    HW224717   0.437   2.055   5.392
 7940SOL     OW24718   3.406   1.632   2.224
 7940SOL    HW124719   3.497   1.626   2.266
 7940SOL    HW224720   3.362   1.718   2.252
 7941SOL     OW24721   4.589   6.512   3.181
 7941SOL    HW124722   4.629   6.422   3.164
 7941SOL    HW224723   4.579   6.525   3.280
 7942SOL     OW24724   0.885   2.175   2.147
 7942SOL    HW124725   0.843   2.140   2.231
 7942SOL    HW224726   0.983   2.159   2.149
 7943SOL     OW24727   1.294   4.798   5.889
 7943SOL    HW124728   1.361   4.792   5.816
 7943SOL    HW224729   1.267   4.893   5.902
 7944SOL     OW24730   0.698   2.187   1.949
 7944SOL    HW124731   0.775   2.213   2.007
 7944SOL    HW224732   0.721   2.208   1.853
 7945SOL     OW24733   6.602   5.201   2.942
 7945SOL    HW124734   6.624   5.185   2.846
 7945SOL    HW224735   6.580   5.114   2.986
 7946SOL     OW24736   3.875   0.446   5.687
 7946SOL    HW124737   3.815   0.522   5.710
 7946SOL    HW224738   3.837   0.394   5.611
 7947SOL     OW24739   2.082   2.428   5.065
 7947SOL    HW124740   2.028   2.445   4.983
 7947SOL    HW224741   2.173   2.468   5.053
 7948SOL     OW24742   1.013   5.125   1.215
 7948SOL    HW124743   0.991   5.033   1.182
 7948SOL    HW224744   1.112   5.135   1.221
 7949SOL     OW24745   4.262   4.394   5.719
 7949SOL    HW124746   4.282   4.455   5.796
 7949SOL    HW224747   4.176   4.422   5.677
 7950SOL     OW24748   5.703   6.280   5.528
 7950SOL    HW124749   5.739   6.371   5.506
 7950SOL    HW224750   5.614   6.289   5.573
 7951SOL     OW24751   1.924   4.893   3.111
 7951SOL    HW124752   1.856   4.846   3.054
 7951SOL    HW224753   2.002   4.918   3.055
 7952SOL     OW24754   6.519   3.337   6.759
 7952SOL    HW124755   6.580   3.403   6.714
 7952SOL    HW224756   6.426   3.349   6.725
 7953SOL     OW24757   4.598   1.886   1.385
 7953SOL    HW124758   4.561   1.828   1.312
 7953SOL    HW224759   4.524   1.938   1.428
 7954SOL     OW24760   4.341   3.744   6.161
 7954SOL    HW124761   4.358   3.839   6.136
 7954SOL    HW224762   4.386   3.723   6.248
 7955SOL     OW24763   2.198   1.738   6.287
 7955SOL    HW124764   2.243   1.812   6.337
 7955SOL    HW224765   2.224   1.743   6.190
 7956SOL     OW24766   5.675   1.641   1.728
 7956SOL    HW124767   5.675   1.695   1.812
 7956SOL    HW224768   5.762   1.593   1.719
 7957SOL     OW24769   3.583   0.666   6.169
 7957SOL    HW124770   3.513   0.658   6.098
 7957SOL    HW224771   3.538   0.687   6.257
 7958SOL     OW24772   5.631   4.317   6.320
 7958SOL    HW124773   5.555   4.255   6.341
 7958SOL    HW224774   5.640   4.326   6.221
 7959SOL     OW24775   4.848   0.838   6.532
 7959SOL    HW124776   4.940   0.866   6.505
 7959SOL    HW224777   4.853   0.781   6.615
 7960SOL     OW24778   0.666   1.721   6.371
 7960SOL    HW124779   0.586   1.779   6.360
 7960SOL    HW224780   0.656   1.640   6.312
 7961SOL     OW24781   6.736   6.964   0.845
 7961SOL    HW124782   6.815   6.967   0.784
 7961SOL    HW224783   6.653   6.980   0.793
 7962SOL     OW24784   6.912   1.849   5.961
 7962SOL    HW124785   6.948   1.942   5.951
 7962SOL    HW224786   6.960   1.803   6.035
 7963SOL     OW24787   6.351   4.939   3.912
 7963SOL    HW124788   6.431   4.893   3.873
 7963SOL    HW224789   6.269   4.911   3.863
 7964SOL     OW24790   6.680   2.592   1.852
 7964SOL    HW124791   6.685   2.493   1.847
 7964SOL    HW224792   6.755   2.627   1.907
 7965SOL     OW24793   4.566   3.068   0.012
 7965SOL    HW124794   4.554   3.157   0.055
 7965SOL    HW224795   4.528   2.997   0.071
 7966SOL     OW24796   3.847   3.625   5.948
 7966SOL    HW124797   3.836   3.689   6.025
 7966SOL    HW224798   3.821   3.533   5.977
 7967SOL     OW24799   2.285   5.123   2.460
 7967SOL    HW124800   2.264   5.176   2.377
 7967SOL    HW224801   2.200   5.088   2.500
 7968SOL     OW24802   6.096   2.005   5.394
 7968SOL    HW124803   6.059   1.963   5.477
 7968SOL    HW224804   6.195   1.998   5.393
 7969SOL     OW24805   4.789   6.268   0.401
 7969SOL    HW124806   4.777   6.199   0.472
 7969SOL    HW224807   4.801   6.358   0.444
 7970SOL     OW24808   5.931   2.771   2.568
 7970SOL    HW124809   5.973   2.684   2.595
 7970SOL    HW224810   5.845   2.783   2.619
 7971SOL     OW24811   2.966   1.312   1.615
 7971SOL    HW124812   3.029   1.359   1.678
 7971SOL    HW224813   3.015   1.240   1.567
 7972SOL     OW24814   3.208   3.202   1.842
 7972SOL    HW124815   3.192   3.156   1.929
 7972SOL    HW224816   3.217   3.134   1.769
 7973SOL     OW24817   5.427   4.146   4.119
 7973SOL    HW124818   5.348   4.112   4.068
 7973SOL    HW224819   5.397   4.217   4.183
 7974SOL     OW24820   6.363   1.286   5.195
 7974SOL    HW124821   6.417   1.265   5.276
 7974SOL    HW224822   6.278   1.235   5.196
 7975SOL     OW24823   4.653   0.424   0.737
 7975SOL    HW124824   4.558   0.414   0.709
 7975SOL    HW224825   4.698   0.491   0.677
 7976SOL     OW24826   0.882   0.016   6.062
 7976SOL    HW124827   0.892   6.952   6.016
 7976SOL    HW224828   0.906   0.090   5.999
 7977SOL     OW24829   5.748   6.107   2.272
 7977SOL    HW124830   5.806   6.030   2.247
 7977SOL    HW224831   5.782   6.190   2.226
 7978SOL     OW24832   0.349   3.466   6.902
 7978SOL    HW124833   0.364   3.387   6.843
 7978SOL    HW224834   0.332   3.436   6.995
 7979SOL     OW24835   2.143   4.475   5.915
 7979SOL    HW124836   2.199   4.521   5.845
 7979SOL    HW224837   2.173   4.381   5.925
 7980SOL     OW24838   3.238   5.470   6.281
 7980SOL    HW124839   3.193   5.444   6.367
 7980SOL    HW224840   3.224   5.398   6.213
 7981SOL     OW24841   0.969   4.924   2.021
 7981SOL    HW124842   0.981   4.910   2.119
 7981SOL    HW224843   1.058   4.921   1.976
 7982SOL     OW24844   1.595   1.590   6.049
 7982SOL    HW124845   1.578   1.688   6.035
 7982SOL    HW224846   1.512   1.538   6.029
 7983SOL     OW24847   5.639   1.509   1.340
 7983SOL    HW124848   5.557   1.547   1.383
 7983SOL    HW224849   5.713   1.576   1.345
 7984SOL     OW24850   0.751   1.445   0.825
 7984SOL    HW124851   0.780   1.525   0.771
 7984SOL    HW224852   0.732   1.369   0.763
 7985SOL     OW24853   2.674   1.856   4.838
 7985SOL    HW124854   2.582   1.874   4.802
 7985SOL    HW224855   2.735   1.833   4.763
 7986SOL     OW24856   3.900   1.459   5.418
 7986SOL    HW124857   3.808   1.486   5.388
 7986SOL    HW224858   3.964   1.534   5.402
 7987SOL     OW24859   2.524   3.815   0.669
 7987SOL    HW124860   2.524   3.889   0.737
 7987SOL    HW224861   2.565   3.733   0.709
 7988SOL     OW24862   0.687   0.885   1.574
 7988SOL    HW124863   0.781   0.879   1.538
 7988SOL    HW224864   0.682   0.834   1.660
 7989SOL     OW24865   2.047   4.204   0.151
 7989SOL    HW124866   2.064   4.271   0.079
 7989SOL    HW224867   1.987   4.132   0.117
 7990SOL     OW24868   2.592   5.925   4.468
 7990SOL    HW124869   2.566   5.898   4.375
 7990SOL    HW224870   2.685   5.894   4.487
 7991SOL     OW24871   5.525   1.678   4.549
 7991SOL    HW124872   5.492   1.586   4.529
 7991SOL    HW224873   5.447   1.738   4.569
 7992SOL     OW24874   2.044   0.297   0.253
 7992SOL    HW124875   1.972   0.296   0.323
 7992SOL    HW224876   2.076   0.391   0.240
 7993SOL     OW24877   0.101   6.895   1.973
 7993SOL    HW124878   0.013   6.939   1.955
 7993SOL    HW224879   0.087   6.815   2.031
 7994SOL     OW24880   4.996   0.667   2.911
 7994SOL    HW124881   5.081   0.634   2.953
 7994SOL    HW224882   4.959   0.743   2.964
 7995SOL     OW24883   5.745   4.470   3.082
 7995SOL    HW124884   5.731   4.419   3.166
 7995SOL    HW224885   5.810   4.545   3.099
 7996SOL     OW24886   4.432   0.108   4.070
 7996SOL    HW124887   4.438   0.204   4.045
 7996SOL    HW224888   4.423   0.052   3.987
 7997SOL     OW24889   0.214   1.952   0.570
 7997SOL    HW124890   0.155   1.990   0.642
 7997SOL    HW224891   0.290   1.903   0.612
 7998SOL     OW24892   2.822   6.395   0.028
 7998SOL    HW124893   2.845   6.491   0.015
 7998SOL    HW224894   2.831   6.347   6.965
 7999SOL     OW24895   1.172   1.680   5.810
 7999SOL    HW124896   1.264   1.701   5.843
 7999SOL    HW224897   1.150   1.585   5.831
 8000SOL     OW24898   5.822   0.392   6.466
 8000SOL    HW124899   5.797   0.300   6.498
 8000SOL    HW224900   5.802   0.401   6.369
 8001SOL     OW24901   4.381   6.240   1.615
 8001SOL    HW124902   4.355   6.173   1.684
 8001SOL    HW224903   4.456   6.203   1.560
 8002SOL     OW24904   0.573   1.768   5.851
 8002SOL    HW124905   0.626   1.692   5.812
 8002SOL    HW224906   0.554   1.835   5.779
 8003SOL     OW24907   1.578   6.156   1.797
 8003SOL    HW124908   1.491   6.180   1.840
 8003SOL    HW224909   1.562   6.122   1.704
 8004SOL     OW24910   1.837   3.124   3.371
 8004SOL    HW124911   1.819   3.081   3.282
 8004SOL    HW224912   1.936   3.131   3.385
 8005SOL     OW24913   2.555   0.313   3.791
 8005SOL    HW124914   2.474   0.302   3.848
 8005SOL    HW224915   2.544   0.393   3.732
 8006SOL     OW24916   3.218   5.821   5.676
 8006SOL    HW124917   3.241   5.890   5.608
 8006SOL    HW224918   3.180   5.741   5.631
 8007SOL     OW24919   5.509   2.046   6.311
 8007SOL    HW124920   5.598   2.078   6.342
 8007SOL    HW224921   5.504   1.946   6.320
 8008SOL     OW24922   3.390   5.851   0.098
 8008SOL    HW124923   3.479   5.870   0.056
 8008SOL    HW224924   3.336   5.936   0.100
 8009SOL     OW24925   4.593   1.208   1.161
 8009SOL    HW124926   4.517   1.263   1.126
 8009SOL    HW224927   4.679   1.243   1.124
 8010SOL     OW24928   2.972   2.491   5.348
 8010SOL    HW124929   3.045   2.453   5.290
 8010SOL    HW224930   2.958   2.587   5.325
 8011SOL     OW24931   3.578   1.952   1.689
 8011SOL    HW124932   3.519   1.960   1.769
 8011SOL    HW224933   3.604   2.043   1.657
 8012SOL     OW24934   0.846   2.767   6.610
 8012SOL    HW124935   0.943   2.757   6.634
 8012SOL    HW224936   0.838   2.791   6.513
 8013SOL     OW24937   0.668   2.889   3.509
 8013SOL    HW124938   0.653   2.987   3.493
 8013SOL    HW224939   0.756   2.875   3.555
 8014SOL     OW24940   1.595   0.447   4.411
 8014SOL    HW124941   1.518   0.388   4.434
 8014SOL    HW224942   1.574   0.496   4.326
 8015SOL     OW24943   2.279   0.161   5.824
 8015SOL    HW124944   2.370   0.126   5.803
 8015SOL    HW224945   2.282   0.216   5.907
 8016SOL     OW24946   4.197   1.453   4.868
 8016SOL    HW124947   4.231   1.361   4.850
 8016SOL    HW224948   4.194   1.470   4.966
 8017SOL     OW24949   6.464   0.035   0.012
 8017SOL    HW124950   6.391   0.101   7.017
 8017SOL    HW224951   6.453   0.000   0.106
 8018SOL     OW24952   3.704   2.601   0.180
 8018SOL    HW124953   3.746   2.560   0.100
 8018SOL    HW224954   3.738   2.694   0.192
 8019SOL     OW24955   2.296   3.522   0.774
 8019SOL    HW124956   2.275   3.574   0.857
 8019SOL    HW224957   2.291   3.582   0.695
 8020SOL     OW24958   5.925   0.722   6.252
 8020SOL    HW124959   5.927   0.738   6.351
 8020SOL    HW224960   5.859   0.648   6.233
 8021SOL     OW24961   1.949   2.572   1.266
 8021SOL    HW124962   1.888   2.495   1.284
 8021SOL    HW224963   2.034   2.560   1.317
 8022SOL     OW24964   5.986   0.538   1.757
 8022SOL    HW124965   5.911   0.514   1.820
 8022SOL    HW224966   6.064   0.478   1.773
 8023SOL     OW24967   5.958   5.288   2.802
 8023SOL    HW124968   5.906   5.356   2.751
 8023SOL    HW224969   5.900   5.210   2.824
 8024SOL     OW24970   1.497   5.880   6.003
 8024SOL    HW124971   1.523   5.795   5.959
 8024SOL    HW224972   1.419   5.921   5.955
 8025SOL     OW24973   1.459   5.078   0.938
 8025SOL    HW124974   1.504   5.167   0.935
 8025SOL    HW224975   1.522   5.010   0.976
 8026SOL     OW24976   0.011   4.497   0.841
 8026SOL    HW124977   0.027   4.579   0.786
 8026SOL    HW224978   6.961   4.443   0.799
 8027SOL     OW24979   3.494   6.467   5.344
 8027SOL    HW124980   3.404   6.485   5.305
 8027SOL    HW224981   3.546   6.408   5.283
 8028SOL     OW24982   2.439   5.925   4.233
 8028SOL    HW124983   2.340   5.934   4.234
 8028SOL    HW224984   2.471   5.919   4.138
 8029SOL     OW24985   4.974   2.229   1.858
 8029SOL    HW124986   5.061   2.271   1.834
 8029SOL    HW224987   4.949   2.253   1.951
 8030SOL     OW24988   6.066   5.277   0.417
 8030SOL    HW124989   6.085   5.373   0.400
 8030SOL    HW224990   6.018   5.267   0.504
 8031SOL     OW24991   6.124   6.568   3.293
 8031SOL    HW124992   6.147   6.621   3.212
 8031SOL    HW224993   6.198   6.504   3.313
 8032SOL     OW24994   4.952   3.620   1.526
 8032SOL    HW124995   5.022   3.639   1.458
 8032SOL    HW224996   4.861   3.632   1.485
 8033SOL     OW24997   4.585   3.649   7.016
 8033SOL    HW124998   4.574   3.575   6.950
 8033SOL    HW224999   4.496   3.667   0.036
 8034SOL     OW25000   5.462   0.171   5.727
 8034SOL    HW125001   5.385   0.107   5.733
 8034SOL    HW225002   5.522   0.143   5.651
 8035SOL     OW25003   4.594   1.105   2.229
 8035SOL    HW125004   4.692   1.126   2.223
 8035SOL    HW225005   4.544   1.186   2.260
 8036SOL     OW25006   6.899   3.320   3.606
 8036SOL    HW125007   6.987   3.331   3.561
 8036SOL    HW225008   6.839   3.396   3.581
 8037SOL     OW25009   1.500   3.329   6.913
 8037SOL    HW125010   1.546   3.241   6.909
 8037SOL    HW225011   1.542   3.392   6.847
 8038SOL     OW25012   5.086   6.034   2.118
 8038SOL    HW125013   5.022   6.048   2.194
 8038SOL    HW225014   5.166   5.983   2.150
 8039SOL     OW25015   0.253   2.460   4.953
 8039SOL    HW125016   0.156   2.440   4.940
 8039SOL    HW225017   0.303   2.375   4.972
 8040SOL     OW25018   1.862   6.134   6.737
 8040SOL    HW125019   1.797   6.192   6.786
 8040SOL    HW225020   1.906   6.188   6.664
 8041SOL     OW25021   3.424   0.834   2.709
 8041SOL    HW125022   3.405   0.784   2.624
 8041SOL    HW225023   3.467   0.921   2.686
 8042SOL     OW25024   4.269   4.262   5.357
 8042SOL    HW125025   4.276   4.315   5.272
 8042SOL    HW225026   4.173   4.243   5.377
 8043SOL     OW25027   3.823   4.843   0.551
 8043SOL    HW125028   3.744   4.807   0.502
 8043SOL    HW225029   3.831   4.800   0.640
 8044SOL     OW25030   2.986   3.071   0.883
 8044SOL    HW125031   3.068   3.127   0.892
 8044SOL    HW225032   2.988   2.998   0.952
 8045SOL     OW25033   7.010   1.812   2.642
 8045SOL    HW125034   6.920   1.845   2.669
 8045SOL    HW225035   0.046   1.810   2.722
 8046SOL     OW25036   0.684   5.002   2.184
 8046SOL    HW125037   0.645   5.059   2.112
 8046SOL    HW225038   0.672   4.905   2.161
 8047SOL     OW25039   4.087   6.995   7.010
 8047SOL    HW125040   4.019   7.015   6.939
 8047SOL    HW225041   4.043   6.998   0.076
 8048SOL     OW25042   3.424   3.177   6.741
 8048SOL    HW125043   3.376   3.253   6.697
 8048SOL    HW225044   3.499   3.147   6.683
 8049SOL     OW25045   1.299   6.660   0.187
 8049SOL    HW125046   1.228   6.730   0.184
 8049SOL    HW225047   1.273   6.588   0.251
 8050SOL     OW25048   2.150   3.379   4.552
 8050SOL    HW125049   2.163   3.345   4.459
 8050SOL    HW225050   2.052   3.389   4.570
 8051SOL     OW25051   5.004   5.618   4.328
 8051SOL    HW125052   5.006   5.533   4.380
 8051SOL    HW225053   5.041   5.602   4.236
 8052SOL     OW25054   2.245   1.996   1.920
 8052SOL    HW125055   2.224   1.937   1.842
 8052SOL    HW225056   2.328   2.049   1.901
 8053SOL     OW25057   2.955   2.791   5.311
 8053SOL    HW125058   3.041   2.837   5.290
 8053SOL    HW225059   2.880   2.856   5.308
 8054SOL     OW25060   6.040   3.862   4.765
 8054SOL    HW125061   6.127   3.814   4.753
 8054SOL    HW225062   5.981   3.845   4.686
 8055SOL     OW25063   0.265   1.074   5.606
 8055SOL    HW125064   0.226   0.985   5.580
 8055SOL    HW225065   0.358   1.061   5.639
 8056SOL     OW25066   3.613   6.929   3.510
 8056SOL    HW125067   3.552   6.892   3.441
 8056SOL    HW225068   3.705   6.937   3.472
 8057SOL     OW25069   2.700   2.058   2.399
 8057SOL    HW125070   2.764   2.086   2.471
 8057SOL    HW225071   2.749   2.047   2.313
 8058SOL     OW25072   3.318   6.174   3.175
 8058SOL    HW125073   3.305   6.228   3.258
 8058SOL    HW225074   3.274   6.220   3.098
 8059SOL     OW25075   3.014   0.851   5.854
 8059SOL    HW125076   3.019   0.764   5.806
 8059SOL    HW225077   2.946   0.909   5.809
 8060SOL     OW25078   0.106   1.799   6.157
 8060SOL    HW125079   0.187   1.841   6.117
 8060SOL    HW225080   0.116   1.796   6.257
 8061SOL     OW25081   0.146   0.693   3.040
 8061SOL    HW125082   0.063   0.673   3.092
 8061SOL    HW225083   0.136   0.658   2.947
 8062SOL     OW25084   4.175   5.485   4.732
 8062SOL    HW125085   4.085   5.525   4.750
 8062SOL    HW225086   4.194   5.416   4.802
 8063SOL     OW25087   2.810   1.387   3.228
 8063SOL    HW125088   2.868   1.467   3.209
 8063SOL    HW225089   2.717   1.406   3.195
 8064SOL     OW25090   6.354   3.267   0.060
 8064SOL    HW125091   6.365   3.362   0.033
 8064SOL    HW225092   6.288   3.260   0.135
 8065SOL     OW25093   3.636   6.761   4.353
 8065SOL    HW125094   3.631   6.678   4.409
 8065SOL    HW225095   3.595   6.838   4.403
 8066SOL     OW25096   6.355   0.300   4.383
 8066SOL    HW125097   6.319   0.260   4.299
 8066SOL    HW225098   6.280   0.327   4.442
 8067SOL     OW25099   4.821   2.524   3.733
 8067SOL    HW125100   4.819   2.618   3.700
 8067SOL    HW225101   4.894   2.514   3.801
 8068SOL     OW25102   0.545   4.625   0.595
 8068SOL    HW125103   0.608   4.664   0.663
 8068SOL    HW225104   0.531   4.528   0.615
 8069SOL     OW25105   2.530   5.011   1.890
 8069SOL    HW125106   2.600   5.019   1.819
 8069SOL    HW225107   2.573   5.006   1.980
 8070SOL     OW25108   4.033   3.285   0.819
 8070SOL    HW125109   4.030   3.340   0.903
 8070SOL    HW225110   4.109   3.317   0.762
 8071SOL     OW25111   3.632   6.828   4.959
 8071SOL    HW125112   3.540   6.824   4.998
 8071SOL    HW225113   3.626   6.845   4.861
 8072SOL     OW25114   3.061   2.320   0.901
 8072SOL    HW125115   3.053   2.258   0.979
 8072SOL    HW225116   2.988   2.300   0.835
 8073SOL     OW25117   2.878   6.186   5.026
 8073SOL    HW125118   2.816   6.121   4.982
 8073SOL    HW225119   2.830   6.234   5.100
 8074SOL     OW25120   2.739   0.908   0.985
 8074SOL    HW125121   2.701   0.966   0.913
 8074SOL    HW225122   2.837   0.926   0.994
 8075SOL     OW25123   0.217   0.084   0.551
 8075SOL    HW125124   0.286   0.059   0.620
 8075SOL    HW225125   0.263   0.108   0.466
 8076SOL     OW25126   7.020   0.541   5.461
 8076SOL    HW125127   6.976   0.600   5.529
 8076SOL    HW225128   0.066   0.484   5.505
 8077SOL     OW25129   4.254   6.184   2.462
 8077SOL    HW125130   4.173   6.191   2.403
 8077SOL    HW225131   4.250   6.098   2.513
 8078SOL     OW25132   0.954   1.816   1.000
 8078SOL    HW125133   0.925   1.776   1.087
 8078SOL    HW225134   1.032   1.876   1.015
 8079SOL     OW25135   6.826   1.512   3.809
 8079SOL    HW125136   6.746   1.460   3.779
 8079SOL    HW225137   6.864   1.470   3.891
 8080SOL     OW25138   1.456   2.648   1.972
 8080SOL    HW125139   1.501   2.612   1.891
 8080SOL    HW225140   1.359   2.623   1.971
 8081SOL     OW25141   6.320   5.143   5.867
 8081SOL    HW125142   6.401   5.186   5.827
 8081SOL    HW225143   6.281   5.078   5.801
 8082SOL     OW25144   3.564   0.342   2.135
 8082SOL    HW125145   3.469   0.372   2.130
 8082SOL    HW225146   3.624   0.418   2.110
 8083SOL     OW25147   5.133   2.777   4.443
 8083SOL    HW125148   5.186   2.816   4.367
 8083SOL    HW225149   5.196   2.733   4.507
 8084SOL     OW25150   2.885   0.795   6.272
 8084SOL    HW125151   2.797   0.825   6.235
 8084SOL    HW225152   2.877   0.785   6.371
 8085SOL     OW25153   6.375   6.190   2.775
 8085SOL    HW125154   6.278   6.200   2.795
 8085SOL    HW225155   6.428   6.198   2.860
 8086SOL     OW25156   0.399   1.189   1.035
 8086SOL    HW125157   0.346   1.165   1.116
 8086SOL    HW225158   0.371   1.132   0.958
 8087SOL     OW25159   1.910   0.369   6.297
 8087SOL    HW125160   1.846   0.433   6.254
 8087SOL    HW225161   1.959   0.415   6.371
 8088SOL     OW25162   5.746   0.383   0.072
 8088SOL    HW125163   5.752   0.406   6.999
 8088SOL    HW225164   5.833   0.345   0.103
 8089SOL     OW25165   6.034   3.066   6.428
 8089SOL    HW125166   6.027   3.054   6.527
 8089SOL    HW225167   6.073   3.156   6.407
 8090SOL     OW25168   4.071   1.339   6.278
 8090SOL    HW125169   4.084   1.330   6.180
 8090SOL    HW225170   4.125   1.270   6.326
 8091SOL     OW25171   1.317   4.433   5.238
 8091SOL    HW125172   1.254   4.505   5.265
 8091SOL    HW225173   1.286   4.345   5.274
 8092SOL     OW25174   4.789   1.980   5.448
 8092SOL    HW125175   4.777   1.973   5.349
 8092SOL    HW225176   4.775   1.890   5.490
 8093SOL     OW25177   2.855   5.490   3.309
 8093SOL    HW125178   2.946   5.448   3.311
 8093SOL    HW225179   2.801   5.456   3.386
 8094SOL     OW25180   0.508   3.126   5.577
 8094SOL    HW125181   0.419   3.170   5.565
 8094SOL    HW225182   0.497   3.027   5.565
 8095SOL     OW25183   0.620   4.750   4.738
 8095SOL    HW125184   0.678   4.827   4.710
 8095SOL    HW225185   0.672   4.690   4.800
 8096SOL     OW25186   2.054   0.608   2.775
 8096SOL    HW125187   2.084   0.518   2.745
 8096SOL    HW225188   2.028   0.604   2.871
 8097SOL     OW25189   4.354   0.407   4.296
 8097SOL    HW125190   4.298   0.458   4.361
 8097SOL    HW225191   4.301   0.331   4.258
 8098SOL     OW25192   2.614   6.370   4.089
 8098SOL    HW125193   2.640   6.426   4.010
 8098SOL    HW225194   2.522   6.334   4.076
 8099SOL     OW25195   4.555   6.334   4.742
 8099SOL    HW125196   4.589   6.252   4.788
 8099SOL    HW225197   4.631   6.379   4.695
 8100SOL     OW25198   6.566   1.493   6.909
 8100SOL    HW125199   6.591   1.496   7.006
 8100SOL    HW225200   6.548   1.398   6.882
 8101SOL     OW25201   1.112   5.377   0.598
 8101SOL    HW125202   1.124   5.440   0.521
 8101SOL    HW225203   1.186   5.310   0.598
 8102SOL     OW25204   0.588   3.873   3.357
 8102SOL    HW125205   0.663   3.836   3.302
 8102SOL    HW225206   0.503   3.868   3.306
 8103SOL     OW25207   3.716   0.158   1.996
 8103SOL    HW125208   3.665   0.202   2.069
 8103SOL    HW225209   3.781   0.223   1.957
 8104SOL     OW25210   1.618   0.425   5.296
 8104SOL    HW125211   1.577   0.516   5.298
 8104SOL    HW225212   1.552   0.358   5.329
 8105SOL     OW25213   0.244   2.650   2.223
 8105SOL    HW125214   0.322   2.656   2.160
 8105SOL    HW225215   0.225   2.554   2.244
 8106SOL     OW25216   2.953   6.271   2.818
 8106SOL    HW125217   2.896   6.322   2.882
 8106SOL    HW225218   2.908   6.268   2.729
 8107SOL     OW25219   1.498   5.863   4.093
 8107SOL    HW125220   1.532   5.902   4.008
 8107SOL    HW225221   1.483   5.765   4.081
 8108SOL     OW25222   6.608   1.995   6.747
 8108SOL    HW125223   6.512   1.967   6.738
 8108SOL    HW225224   6.637   2.042   6.664
 8109SOL     OW25225   0.406   3.646   6.709
 8109SOL    HW125226   0.347   3.612   6.636
 8109SOL    HW225227   0.399   3.585   6.788
 8110SOL     OW25228   4.002   5.104   1.881
 8110SOL    HW125229   4.086   5.059   1.913
 8110SOL    HW225230   3.989   5.189   1.932
 8111SOL     OW25231   4.904   0.813   4.479
 8111SOL    HW125232   4.852   0.829   4.563
 8111SOL    HW225233   5.001   0.833   4.495
 8112SOL     OW25234   2.404   2.655   4.605
 8112SOL    HW125235   2.478   2.587   4.614
 8112SOL    HW225236   2.383   2.692   4.695
 8113SOL     OW25237   6.825   3.689   1.067
 8113SOL    HW125238   6.827   3.786   1.091
 8113SOL    HW225239   6.776   3.677   0.981
 8114SOL     OW25240   1.737   3.567   2.375
 8114SOL    HW125241   1.745   3.490   2.312
 8114SOL    HW225242   1.794   3.643   2.343
 8115SOL     OW25243   2.883   6.557   5.777
 8115SOL    HW125244   2.907   6.654   5.771
 8115SOL    HW225245   2.963   6.502   5.755
 8116SOL     OW25246   4.073   4.833   0.060
 8116SOL    HW125247   4.066   4.752   0.002
 8116SOL    HW225248   4.030   4.815   0.148
 8117SOL     OW25249   2.452   0.174   3.389
 8117SOL    HW125250   2.399   0.155   3.306
 8117SOL    HW225251   2.411   0.250   3.438
 8118SOL     OW25252   5.296   4.308   6.377
 8118SOL    HW125253   5.312   4.380   6.310
 8118SOL    HW225254   5.199   4.302   6.396
 8119SOL     OW25255   5.335   6.774   6.359
 8119SOL    HW125256   5.425   6.779   6.403
 8119SOL    HW225257   5.347   6.771   6.260
 8120SOL     OW25258   2.955   5.067   0.627
 8120SOL    HW125259   2.894   5.069   0.707
 8120SOL    HW225260   3.030   5.004   0.644
 8121SOL     OW25261   0.522   4.819   0.993
 8121SOL    HW125262   0.609   4.806   0.945
 8121SOL    HW225263   0.502   4.738   1.048
 8122SOL     OW25264   0.878   4.020   3.171
 8122SOL    HW125265   0.920   3.933   3.145
 8122SOL    HW225266   0.872   4.026   3.270
 8123SOL     OW25267   0.062   2.120   0.128
 8123SOL    HW125268   0.131   2.064   0.176
 8123SOL    HW225269   6.995   2.083   0.146
 8124SOL     OW25270   5.098   6.030   3.215
 8124SOL    HW125271   5.088   6.006   3.312
 8124SOL    HW225272   5.177   6.090   3.204
 8125SOL     OW25273   1.028   0.965   2.797
 8125SOL    HW125274   1.034   0.919   2.886
 8125SOL    HW225275   1.001   1.060   2.811
 8126SOL     OW25276   4.925   5.038   3.477
 8126SOL    HW125277   4.848   5.003   3.423
 8126SOL    HW225278   5.009   5.031   3.423
 8127SOL     OW25279   2.666   3.414   6.601
 8127SOL    HW125280   2.611   3.361   6.665
 8127SOL    HW225281   2.689   3.358   6.521
 8128SOL     OW25282   2.947   2.110   2.229
 8128SOL    HW125283   2.928   2.174   2.304
 8128SOL    HW225284   2.955   2.161   2.143
 8129SOL     OW25285   3.901   2.031   6.513
 8129SOL    HW125286   3.903   2.014   6.612
 8129SOL    HW225287   3.896   2.130   6.497
 8130SOL     OW25288   0.508   6.054   6.877
 8130SOL    HW125289   0.412   6.054   6.848
 8130SOL    HW225290   0.534   6.146   6.907
 8131SOL     OW25291   2.985   1.332   1.934
 8131SOL    HW125292   3.071   1.329   1.884
 8131SOL    HW225293   2.998   1.379   2.021
 8132SOL     OW25294   5.611   6.514   4.939
 8132SOL    HW125295   5.528   6.562   4.913
 8132SOL    HW225296   5.628   6.528   5.037
 8133SOL     OW25297   3.607   5.500   2.370
 8133SOL    HW125298   3.609   5.494   2.270
 8133SOL    HW225299   3.551   5.426   2.406
 8134SOL     OW25300   0.119   1.763   6.442
 8134SOL    HW125301   0.128   1.724   6.534
 8134SOL    HW225302   0.089   1.858   6.449
 8135SOL     OW25303   2.150   1.075   1.486
 8135SOL    HW125304   2.091   1.118   1.554
 8135SOL    HW225305   2.106   1.081   1.396
 8136SOL     OW25306   5.260   5.030   2.156
 8136SOL    HW125307   5.334   4.997   2.097
 8136SOL    HW225308   5.201   5.092   2.103
 8137SOL     OW25309   3.172   1.230   5.160
 8137SOL    HW125310   3.078   1.263   5.173
 8137SOL    HW225311   3.235   1.288   5.212
 8138SOL     OW25312   5.454   1.250   1.315
 8138SOL    HW125313   5.476   1.336   1.267
 8138SOL    HW225314   5.372   1.263   1.370
 8139SOL     OW25315   0.197   0.765   2.053
 8139SOL    HW125316   0.158   0.748   1.963
 8139SOL    HW225317   0.182   0.685   2.112
 8140SOL     OW25318   5.674   0.572   5.438
 8140SOL    HW125319   5.592   0.609   5.392
 8140SOL    HW225320   5.743   0.644   5.445
 8141SOL     OW25321   4.798   5.231   5.878
 8141SOL    HW125322   4.862   5.224   5.954
 8141SOL    HW225323   4.840   5.280   5.802
 8142SOL     OW25324   6.666   5.054   0.651
 8142SOL    HW125325   6.752   5.078   0.696
 8142SOL    HW225326   6.615   5.138   0.631
 8143SOL     OW25327   6.132   4.456   0.458
 8143SOL    HW125328   6.034   4.471   0.462
 8143SOL    HW225329   6.179   4.520   0.519
 8144SOL     OW25330   5.721   6.510   6.947
 8144SOL    HW125331   5.659   6.434   6.966
 8144SOL    HW225332   5.733   6.520   6.848
 8145SOL     OW25333   5.733   5.772   1.850
 8145SOL    HW125334   5.715   5.870   1.853
 8145SOL    HW225335   5.652   5.722   1.880
 8146SOL     OW25336   3.913   1.454   5.069
 8146SOL    HW125337   3.909   1.530   5.004
 8146SOL    HW225338   3.838   1.462   5.135
 8147SOL     OW25339   6.103   2.064   3.447
 8147SOL    HW125340   6.139   2.097   3.534
 8147SOL    HW225341   6.004   2.072   3.447
 8148SOL     OW25342   5.237   3.919   2.153
 8148SOL    HW125343   5.171   3.870   2.095
 8148SOL    HW225344   5.300   3.853   2.195
 8149SOL     OW25345   2.552   5.427   1.941
 8149SOL    HW125346   2.650   5.409   1.946
 8149SOL    HW225347   2.508   5.393   2.024
 8150SOL     OW25348   0.007   5.381   0.046
 8150SOL    HW125349   0.064   5.398   0.127
 8150SOL    HW225350   0.065   5.353   6.993
 8151SOL     OW25351   0.144   2.528   3.018
 8151SOL    HW125352   0.237   2.501   3.040
 8151SOL    HW225353   0.086   2.519   3.100
 8152SOL     OW25354   0.735   2.263   2.496
 8152SOL    HW125355   0.769   2.327   2.426
 8152SOL    HW225356   0.672   2.198   2.454
 8153SOL     OW25357   3.484   0.212   3.514
 8153SOL    HW125358   3.472   0.309   3.532
 8153SOL    HW225359   3.571   0.181   3.552
 8154SOL     OW25360   2.095   6.215   3.786
 8154SOL    HW125361   2.083   6.254   3.695
 8154SOL    HW225362   2.191   6.188   3.799
 8155SOL     OW25363   2.960   3.755   1.890
 8155SOL    HW125364   2.948   3.658   1.913
 8155SOL    HW225365   3.027   3.795   1.952
 8156SOL     OW25366   5.569   0.173   5.985
 8156SOL    HW125367   5.510   0.247   6.017
 8156SOL    HW225368   5.530   0.133   5.902
 8157SOL     OW25369   5.879   5.542   6.429
 8157SOL    HW125370   5.845   5.573   6.340
 8157SOL    HW225371   5.971   5.576   6.443
 8158SOL     OW25372   0.751   5.577   0.732
 8158SOL    HW125373   0.664   5.600   0.776
 8158SOL    HW225374   0.766   5.478   0.738
 8159SOL     OW25375   2.524   5.743   2.265
 8159SOL    HW125376   2.532   5.839   2.291
 8159SOL    HW225377   2.450   5.733   2.198
 8160SOL     OW25378   4.470   1.512   1.791
 8160SOL    HW125379   4.498   1.580   1.723
 8160SOL    HW225380   4.408   1.555   1.857
 8161SOL     OW25381   4.992   0.388   1.106
 8161SOL    HW125382   5.039   0.376   1.019
 8161SOL    HW225383   4.980   0.299   1.151
 8162SOL     OW25384   6.249   6.937   6.155
 8162SOL    HW125385   6.177   6.969   6.217
 8162SOL    HW225386   6.288   6.853   6.191
 8163SOL     OW25387   2.291   4.361   5.704
 8163SOL    HW125388   2.380   4.317   5.699
 8163SOL    HW225389   2.219   4.293   5.685
 8164SOL     OW25390   5.748   3.815   0.432
 8164SOL    HW125391   5.670   3.775   0.481
 8164SOL    HW225392   5.719   3.900   0.388
 8165SOL     OW25393   1.450   4.599   0.337
 8165SOL    HW125394   1.361   4.623   0.299
 8165SOL    HW225395   1.522   4.622   0.271
 8166SOL     OW25396   2.261   1.108   1.930
 8166SOL    HW125397   2.309   1.140   1.849
 8166SOL    HW225398   2.319   1.121   2.011
 8167SOL     OW25399   5.401   1.595   4.284
 8167SOL    HW125400   5.395   1.540   4.367
 8167SOL    HW225401   5.448   1.681   4.305
 8168SOL     OW25402   3.195   1.681   2.557
 8168SOL    HW125403   3.211   1.600   2.613
 8168SOL    HW225404   3.204   1.763   2.613
 8169SOL     OW25405   4.914   3.191   1.036
 8169SOL    HW125406   4.824   3.186   0.994
 8169SOL    HW225407   4.908   3.242   1.122
 8170SOL     OW25408   1.896   6.018   3.540
 8170SOL    HW125409   1.890   6.043   3.637
 8170SOL    HW225410   1.987   6.040   3.505
 8171SOL     OW25411   0.683   2.091   6.659
 8171SOL    HW125412   0.734   2.101   6.745
 8171SOL    HW225413   0.736   2.034   6.596
 8172SOL     OW25414   0.052   0.825   1.130
 8172SOL    HW125415   0.054   0.744   1.188
 8172SOL    HW225416   0.142   0.838   1.088
 8173SOL     OW25417   3.240   2.381   0.374
 8173SOL    HW125418   3.337   2.361   0.384
 8173SOL    HW225419   3.189   2.296   0.365
 8174SOL     OW25420   5.380   1.892   1.095
 8174SOL    HW125421   5.349   1.945   1.016
 8174SOL    HW225422   5.431   1.812   1.063
 8175SOL     OW25423   0.193   2.945   6.432
 8175SOL    HW125424   0.116   2.927   6.493
 8175SOL    HW225425   0.199   3.044   6.415
 8176SOL     OW25426   2.352   5.781   2.055
 8176SOL    HW125427   2.296   5.730   1.990
 8176SOL    HW225428   2.380   5.868   2.014
 8177SOL     OW25429   1.572   6.138   3.996
 8177SOL    HW125430   1.671   6.123   3.995
 8177SOL    HW225431   1.530   6.093   3.918
 8178SOL     OW25432   1.595   0.256   5.968
 8178SOL    HW125433   1.526   0.187   5.988
 8178SOL    HW225434   1.668   0.252   6.036
 8179SOL     OW25435   3.722   3.405   0.339
 8179SOL    HW125436   3.795   3.380   0.276
 8179SOL    HW225437   3.668   3.480   0.300
 8180SOL     OW25438   6.342   6.733   3.806
 8180SOL    HW125439   6.350   6.687   3.718
 8180SOL    HW225440   6.362   6.830   3.795
 8181SOL     OW25441   2.337   1.672   3.110
 8181SOL    HW125442   2.329   1.753   3.053
 8181SOL    HW225443   2.400   1.690   3.185
 8182SOL     OW25444   3.492   1.675   6.588
 8182SOL    HW125445   3.579   1.639   6.621
 8182SOL    HW225446   3.508   1.748   6.522
 8183SOL     OW25447   0.475   2.914   5.219
 8183SOL    HW125448   0.499   2.887   5.312
 8183SOL    HW225449   0.414   2.845   5.178
 8184SOL     OW25450   5.900   1.399   5.948
 8184SOL    HW125451   5.987   1.420   5.904
 8184SOL    HW225452   5.905   1.426   6.044
 8185SOL     OW25453   2.757   0.562   0.391
 8185SOL    HW125454   2.833   0.541   0.453
 8185SOL    HW225455   2.727   0.478   0.345
 8186SOL     OW25456   3.413   6.458   5.884
 8186SOL    HW125457   3.441   6.404   5.804
 8186SOL    HW225458   3.423   6.555   5.864
 8187SOL     OW25459   1.196   1.648   5.172
 8187SOL    HW125460   1.269   1.679   5.112
 8187SOL    HW225461   1.235   1.609   5.255
 8188SOL     OW25462   4.756   1.861   2.532
 8188SOL    HW125463   4.777   1.958   2.545
 8188SOL    HW225464   4.753   1.816   2.621
 8189SOL     OW25465   4.847   4.177   2.517
 8189SOL    HW125466   4.829   4.113   2.592
 8189SOL    HW225467   4.822   4.134   2.430
 8190SOL     OW25468   5.669   4.297   4.281
 8190SOL    HW125469   5.661   4.198   4.272
 8190SOL    HW225470   5.716   4.334   4.201
 8191SOL     OW25471   1.951   5.371   4.023
 8191SOL    HW125472   1.921   5.282   4.057
 8191SOL    HW225473   1.932   5.442   4.091
 8192SOL     OW25474   3.013   5.692   0.683
 8192SOL    HW125475   2.981   5.785   0.698
 8192SOL    HW225476   3.079   5.667   0.754
 8193SOL     OW25477   6.123   6.233   5.095
 8193SOL    HW125478   6.204   6.201   5.045
 8193SOL    HW225479   6.143   6.320   5.140
 8194SOL     OW25480   6.423   2.669   6.828
 8194SOL    HW125481   6.378   2.592   6.781
 8194SOL    HW225482   6.432   2.746   6.764
 8195SOL     OW25483   0.364   0.364   0.527
 8195SOL    HW125484   0.448   0.417   0.517
 8195SOL    HW225485   0.333   0.368   0.622
 8196SOL     OW25486   4.116   6.770   5.693
 8196SOL    HW125487   4.125   6.793   5.596
 8196SOL    HW225488   4.104   6.854   5.747
 8197SOL     OW25489   5.807   1.331   6.483
 8197SOL    HW125490   5.849   1.418   6.510
 8197SOL    HW225491   5.875   1.258   6.489
 8198SOL     OW25492   3.052   6.506   2.583
 8198SOL    HW125493   3.062   6.523   2.485
 8198SOL    HW225494   2.958   6.524   2.610
 8199SOL     OW25495   0.080   3.966   0.273
 8199SOL    HW125496   0.051   3.894   0.210
 8199SOL    HW225497   0.129   4.037   0.223
 8200SOL     OW25498   4.320   5.083   1.428
 8200SOL    HW125499   4.412   5.045   1.443
 8200SOL    HW225500   4.267   5.075   1.513
 8201SOL     OW25501   5.159   0.876   4.539
 8201SOL    HW125502   5.187   0.780   4.530
 8201SOL    HW225503   5.240   0.933   4.555
 8202SOL     OW25504   1.612   4.934   4.407
 8202SOL    HW125505   1.683   4.867   4.430
 8202SOL    HW225506   1.574   4.912   4.317
 8203SOL     OW25507   4.671   3.525   0.922
 8203SOL    HW125508   4.740   3.494   0.856
 8203SOL    HW225509   4.684   3.477   1.008
 8204SOL     OW25510   3.553   6.470   1.435
 8204SOL    HW125511   3.645   6.431   1.447
 8204SOL    HW225512   3.486   6.397   1.430
 8205SOL     OW25513   5.412   5.124   1.567
 8205SOL    HW125514   5.505   5.151   1.542
 8205SOL    HW225515   5.408   5.024   1.577
 8206SOL     OW25516   3.494   2.616   6.218
 8206SOL    HW125517   3.465   2.540   6.276
 8206SOL    HW225518   3.594   2.624   6.221
 8207SOL     OW25519   2.950   4.549   5.526
 8207SOL    HW125520   2.894   4.574   5.606
 8207SOL    HW225521   2.935   4.615   5.453
 8208SOL     OW25522   2.662   5.865   1.841
 8208SOL    HW125523   2.761   5.881   1.844
 8208SOL    HW225524   2.620   5.934   1.782
 8209SOL     OW25525   1.454   0.864   5.556
 8209SOL    HW125526   1.393   0.828   5.627
 8209SOL    HW225527   1.549   0.844   5.581
 8210SOL     OW25528   2.716   0.830   0.338
 8210SOL    HW125529   2.617   0.839   0.329
 8210SOL    HW225530   2.739   0.738   0.369
 8211SOL     OW25531   3.644   4.107   4.559
 8211SOL    HW125532   3.744   4.106   4.564
 8211SOL    HW225533   3.605   4.090   4.650
 8212SOL     OW25534   2.406   0.065   0.805
 8212SOL    HW125535   2.449   6.999   0.805
 8212SOL    HW225536   2.420   0.108   0.895
 8213SOL     OW25537   4.286   5.398   3.151
 8213SOL    HW125538   4.217   5.380   3.222
 8213SOL    HW225539   4.266   5.343   3.070
 8214SOL     OW25540   2.526   5.661   4.297
 8214SOL    HW125541   2.481   5.750   4.298
 8214SOL    HW225542   2.480   5.601   4.231
 8215SOL     OW25543   4.278   6.624   6.823
 8215SOL    HW125544   4.313   6.538   6.860
 8215SOL    HW225545   4.285   6.695   6.893
 8216SOL     OW25546   4.949   6.092   2.879
 8216SOL    HW125547   5.046   6.107   2.862
 8216SOL    HW225548   4.916   6.017   2.821
 8217SOL     OW25549   2.299   4.191   2.886
 8217SOL    HW125550   2.282   4.172   2.789
 8217SOL    HW225551   2.379   4.250   2.895
 8218SOL     OW25552   2.117   0.449   4.768
 8218SOL    HW125553   2.173   0.366   4.772
 8218SOL    HW225554   2.107   0.478   4.672
 8219SOL     OW25555   3.338   3.970   1.664
 8219SOL    HW125556   3.293   3.919   1.591
 8219SOL    HW225557   3.302   3.940   1.753
 8220SOL     OW25558   3.443   4.151   5.304
 8220SOL    HW125559   3.517   4.215   5.281
 8220SOL    HW225560   3.401   4.180   5.390
 8221SOL     OW25561   5.945   4.270   3.126
 8221SOL    HW125562   5.871   4.247   3.064
 8221SOL    HW225563   5.959   4.195   3.191
 8222SOL     OW25564   6.064   3.106   1.002
 8222SOL    HW125565   6.157   3.087   0.971
 8222SOL    HW225566   6.043   3.047   1.080
 8223SOL     OW25567   6.994   5.498   4.912
 8223SOL    HW125568   6.975   5.433   4.986
 8223SOL    HW225569   6.952   5.464   4.828
 8224SOL     OW25570   5.108   1.794   0.654
 8224SOL    HW125571   5.136   1.728   0.585
 8224SOL    HW225572   5.133   1.886   0.624
 8225SOL     OW25573   4.182   0.306   0.236
 8225SOL    HW125574   4.112   0.362   0.279
 8225SOL    HW225575   4.153   0.211   0.235
 8226SOL     OW25576   3.794   0.590   7.004
 8226SOL    HW125577   3.799   0.491   6.993
 8226SOL    HW225578   3.764   0.612   0.073
 8227SOL     OW25579   5.263   1.457   3.100
 8227SOL    HW125580   5.177   1.507   3.110
 8227SOL    HW225581   5.291   1.459   3.004
 8228SOL     OW25582   0.618   1.332   4.951
 8228SOL    HW125583   0.636   1.413   5.007
 8228SOL    HW225584   0.578   1.361   4.863
 8229SOL     OW25585   3.495   4.646   1.041
 8229SOL    HW125586   3.494   4.745   1.027
 8229SOL    HW225587   3.585   4.617   1.072
 8230SOL     OW25588   4.378   0.150   5.520
 8230SOL    HW125589   4.458   0.189   5.564
 8230SOL    HW225590   4.319   0.224   5.486
 8231SOL     OW25591   3.285   1.150   2.358
 8231SOL    HW125592   3.215   1.127   2.291
 8231SOL    HW225593   3.244   1.204   2.432
 8232SOL     OW25594   4.209   1.088   2.222
 8232SOL    HW125595   4.263   1.153   2.275
 8232SOL    HW225596   4.225   0.996   2.256
 8233SOL     OW25597   0.778   0.941   5.446
 8233SOL    HW125598   0.803   0.845   5.445
 8233SOL    HW225599   0.787   0.979   5.354
 8234SOL     OW25600   2.888   3.576   7.005
 8234SOL    HW125601   2.967   3.587   6.944
 8234SOL    HW225602   2.860   3.666   0.015
 8235SOL     OW25603   6.930   5.248   6.529
 8235SOL    HW125604   6.973   5.195   6.602
 8235SOL    HW225605   6.994   5.318   6.496
 8236SOL     OW25606   0.367   6.168   5.819
 8236SOL    HW125607   0.335   6.102   5.751
 8236SOL    HW225608   0.448   6.132   5.866
 8237SOL     OW25609   4.797   5.748   6.474
 8237SOL    HW125610   4.760   5.753   6.381
 8237SOL    HW225611   4.896   5.731   6.470
 8238SOL     OW25612   2.148   5.689   0.193
 8238SOL    HW125613   2.190   5.735   0.270
 8238SOL    HW225614   2.156   5.746   0.111
 8239SOL     OW25615   0.613   1.911   4.631
 8239SOL    HW125616   0.685   1.856   4.588
 8239SOL    HW225617   0.534   1.853   4.651
 8240SOL     OW25618   3.841   3.013   3.986
 8240SOL    HW125619   3.869   3.006   3.890
 8240SOL    HW225620   3.823   2.921   4.022
 8241SOL     OW25621   1.656   3.156   6.676
 8241SOL    HW125622   1.700   3.150   6.587
 8241SOL    HW225623   1.575   3.097   6.679
 8242SOL     OW25624   1.159   3.699   4.633
 8242SOL    HW125625   1.258   3.705   4.649
 8242SOL    HW225626   1.112   3.675   4.718
 8243SOL     OW25627   0.632   5.290   6.140
 8243SOL    HW125628   0.666   5.384   6.131
 8243SOL    HW225629   0.683   5.243   6.212
 8244SOL     OW25630   0.470   0.417   3.630
 8244SOL    HW125631   0.423   0.499   3.661
 8244SOL    HW225632   0.523   0.438   3.547
 8245SOL     OW25633   5.188   1.472   4.126
 8245SOL    HW125634   5.272   1.514   4.161
 8245SOL    HW225635   5.212   1.410   4.051
 8246SOL     OW25636   1.240   3.993   6.716
 8246SOL    HW125637   1.181   3.914   6.735
 8246SOL    HW225638   1.316   3.963   6.657
 8247SOL     OW25639   2.926   4.967   3.411
 8247SOL    HW125640   2.865   5.027   3.360
 8247SOL    HW225641   2.889   4.874   3.412
 8248SOL     OW25642   0.746   5.336   3.162
 8248SOL    HW125643   0.784   5.366   3.074
 8248SOL    HW225644   0.699   5.249   3.150
 8249SOL     OW25645   2.346   2.011   5.717
 8249SOL    HW125646   2.384   2.095   5.678
 8249SOL    HW225647   2.298   1.960   5.646
 8250SOL     OW25648   2.360   1.730   0.315
 8250SOL    HW125649   2.397   1.784   0.240
 8250SOL    HW225650   2.433   1.676   0.357
 8251SOL     OW25651   6.920   3.033   4.694
 8251SOL    HW125652   6.887   3.127   4.690
 8251SOL    HW225653   7.000   3.028   4.754
 8252SOL     OW25654   2.424   1.966   6.757
 8252SOL    HW125655   2.440   1.955   6.855
 8252SOL    HW225656   2.410   2.062   6.736
 8253SOL     OW25657   3.458   5.937   6.400
 8253SOL    HW125658   3.534   5.889   6.445
 8253SOL    HW225659   3.414   5.877   6.335
 8254SOL     OW25660   6.050   4.879   0.529
 8254SOL    HW125661   6.088   4.795   0.567
 8254SOL    HW225662   5.990   4.922   0.596
 8255SOL     OW25663   0.352   0.260   5.977
 8255SOL    HW125664   0.376   0.181   6.033
 8255SOL    HW225665   0.416   0.335   5.996
 8256SOL     OW25666   1.473   6.149   2.374
 8256SOL    HW125667   1.440   6.083   2.442
 8256SOL    HW225668   1.464   6.110   2.282
 8257SOL     OW25669   5.599   4.010   4.293
 8257SOL    HW125670   5.663   3.944   4.254
 8257SOL    HW225671   5.528   4.031   4.226
 8258SOL     OW25672   5.738   2.787   1.437
 8258SOL    HW125673   5.710   2.804   1.532
 8258SOL    HW225674   5.695   2.702   1.405
 8259SOL     OW25675   4.216   2.164   4.554
 8259SOL    HW125676   4.276   2.167   4.475
 8259SOL    HW225677   4.146   2.094   4.541
 8260SOL     OW25678   2.585   0.214   0.606
 8260SOL    HW125679   2.544   0.149   0.669
 8260SOL    HW225680   2.515   0.252   0.545
 8261SOL     OW25681   5.463   6.250   2.970
 8261SOL    HW125682   5.432   6.239   3.064
 8261SOL    HW225683   5.554   6.292   2.969
 8262SOL     OW25684   0.231   4.595   0.545
 8262SOL    HW125685   0.220   4.495   0.541
 8262SOL    HW225686   0.317   4.620   0.500
 8263SOL     OW25687   0.061   2.305   6.661
 8263SOL    HW125688   0.140   2.360   6.690
 8263SOL    HW225689   7.005   2.364   6.650
 8264SOL     OW25690   1.914   0.068   2.031
 8264SOL    HW125691   1.989   0.014   2.068
 8264SOL    HW225692   1.864   0.014   1.963
 8265SOL     OW25693   4.481   0.125   1.417
 8265SOL    HW125694   4.454   0.216   1.450
 8265SOL    HW225695   4.460   0.057   1.487
 8266SOL     OW25696   2.647   6.953   3.735
 8266SOL    HW125697   2.685   0.022   3.737
 8266SOL    HW225698   2.722   6.886   3.733
 8267SOL     OW25699   1.277   4.538   2.740
 8267SOL    HW125700   1.331   4.582   2.812
 8267SOL    HW225701   1.311   4.445   2.726
 8268SOL     OW25702   3.178   3.661   6.491
 8268SOL    HW125703   3.129   3.748   6.490
 8268SOL    HW225704   3.269   3.674   6.531
 8269SOL     OW25705   4.469   2.443   3.371
 8269SOL    HW125706   4.391   2.482   3.421
 8269SOL    HW225707   4.487   2.351   3.404
 8270SOL     OW25708   3.833   6.986   5.885
 8270SOL    HW125709   3.748   6.964   5.837
 8270SOL    HW225710   3.849   6.919   5.957
 8271SOL     OW25711   5.132   6.174   4.455
 8271SOL    HW125712   5.150   6.259   4.406
 8271SOL    HW225713   5.063   6.121   4.405
 8272SOL     OW25714   0.696   0.616   2.119
 8272SOL    HW125715   0.756   0.694   2.101
 8272SOL    HW225716   0.738   0.556   2.187
 8273SOL     OW25717   2.167   6.662   6.950
 8273SOL    HW125718   2.196   6.738   6.891
 8273SOL    HW225719   2.173   6.691   0.022
 8274SOL     OW25720   5.052   5.520   6.956
 8274SOL    HW125721   5.082   5.510   6.862
 8274SOL    HW225722   5.045   5.429   6.998
 8275SOL     OW25723   6.822   0.506   4.229
 8275SOL    HW125724   6.917   0.490   4.203
 8275SOL    HW225725   6.811   0.491   4.327
 8276SOL     OW25726   0.130   2.689   5.930
 8276SOL    HW125727   0.150   2.766   5.990
 8276SOL    HW225728   0.031   2.678   5.920
 8277SOL     OW25729   1.586   6.210   5.692
 8277SOL    HW125730   1.654   6.283   5.681
 8277SOL    HW225731   1.633   6.121   5.691
 8278SOL     OW25732   3.803   2.323   6.797
 8278SOL    HW125733   3.890   2.278   6.778
 8278SOL    HW225734   3.779   2.383   6.721
 8279SOL     OW25735   4.723   6.020   6.509
 8279SOL    HW125736   4.697   6.076   6.430
 8279SOL    HW225737   4.757   5.931   6.478
 8280SOL     OW25738   5.280   2.530   0.644
 8280SOL    HW125739   5.206   2.595   0.658
 8280SOL    HW225740   5.355   2.574   0.594
 8281SOL     OW25741   1.357   5.294   0.535
 8281SOL    HW125742   1.443   5.338   0.507
 8281SOL    HW225743   1.324   5.236   0.461
 8282SOL     OW25744   2.695   2.516   1.297
 8282SOL    HW125745   2.648   2.562   1.372
 8282SOL    HW225746   2.753   2.581   1.248
 8283SOL     OW25747   0.530   4.727   4.108
 8283SOL    HW125748   0.528   4.802   4.174
 8283SOL    HW225749   0.444   4.725   4.057
 8284SOL     OW25750   2.634   2.367   2.478
 8284SOL    HW125751   2.654   2.312   2.397
 8284SOL    HW225752   2.551   2.421   2.461
 8285SOL     OW25753   3.012   4.103   5.928
 8285SOL    HW125754   3.087   4.042   5.954
 8285SOL    HW225755   3.047   4.176   5.870
 8286SOL     OW25756   5.346   0.964   4.950
 8286SOL    HW125757   5.425   1.019   4.976
 8286SOL    HW225758   5.376   0.873   4.921
 8287SOL     OW25759   1.123   0.294   3.737
 8287SOL    HW125760   1.220   0.309   3.719
 8287SOL    HW225761   1.077   0.271   3.651
 8288SOL     OW25762   2.161   2.099   2.431
 8288SOL    HW125763   2.073   2.144   2.442
 8288SOL    HW225764   2.226   2.135   2.498
 8289SOL     OW25765   6.047   2.263   5.291
 8289SOL    HW125766   5.953   2.272   5.258
 8289SOL    HW225767   6.068   2.166   5.305
 8290SOL     OW25768   3.671   2.546   1.676
 8290SOL    HW125769   3.627   2.479   1.734
 8290SOL    HW225770   3.611   2.569   1.600
 8291SOL     OW25771   5.528   6.764   6.732
 8291SOL    HW125772   5.563   6.671   6.731
 8291SOL    HW225773   5.476   6.779   6.817
 8292SOL     OW25774   0.842   5.036   5.882
 8292SOL    HW125775   0.806   4.964   5.941
 8292SOL    HW225776   0.942   5.030   5.878
 8293SOL     OW25777   2.601   5.099   2.151
 8293SOL    HW125778   2.672   5.029   2.145
 8293SOL    HW225779   2.617   5.155   2.232
 8294SOL     OW25780   0.038   4.070   6.092
 8294SOL    HW125781   0.118   4.036   6.140
 8294SOL    HW225782   0.065   4.100   6.000
 8295SOL     OW25783   5.352   3.835   2.844
 8295SOL    HW125784   5.326   3.868   2.753
 8295SOL    HW225785   5.273   3.837   2.905
 8296SOL     OW25786   3.133   5.744   0.417
 8296SOL    HW125787   3.111   5.712   0.509
 8296SOL    HW225788   3.050   5.782   0.375
 8297SOL     OW25789   6.949   4.477   2.481
 8297SOL    HW125790   6.949   4.447   2.386
 8297SOL    HW225791   6.897   4.562   2.489
 8298SOL     OW25792   0.717   1.114   6.765
 8298SOL    HW125793   0.741   1.208   6.787
 8298SOL    HW225794   0.742   1.054   6.841
 8299SOL     OW25795   0.261   3.740   1.997
 8299SOL    HW125796   0.188   3.796   1.957
 8299SOL    HW225797   0.275   3.766   2.092
 8300SOL     OW25798   6.531   5.436   3.911
 8300SOL    HW125799   6.516   5.534   3.903
 8300SOL    HW225800   6.613   5.410   3.859
 8301SOL     OW25801   3.693   6.931   0.148
 8301SOL    HW125802   3.740   6.855   0.192
 8301SOL    HW225803   3.595   6.923   0.162
 8302SOL     OW25804   3.539   6.334   4.352
 8302SOL    HW125805   3.498   6.421   4.327
 8302SOL    HW225806   3.587   6.296   4.273
 8303SOL     OW25807   6.127   0.186   2.165
 8303SOL    HW125808   6.156   0.259   2.226
 8303SOL    HW225809   6.177   0.102   2.186
 8304SOL     OW25810   5.972   3.221   3.596
 8304SOL    HW125811   5.979   3.315   3.563
 8304SOL    HW225812   5.968   3.222   3.696
 8305SOL     OW25813   4.517   5.468   4.102
 8305SOL    HW125814   4.449   5.492   4.171
 8305SOL    HW225815   4.609   5.471   4.142
 8306SOL     OW25816   6.359   0.998   2.140
 8306SOL    HW125817   6.307   1.077   2.172
 8306SOL    HW225818   6.371   0.933   2.215
 8307SOL     OW25819   1.785   4.973   2.193
 8307SOL    HW125820   1.785   4.973   2.093
 8307SOL    HW225821   1.805   4.880   2.226
 8308SOL     OW25822   1.107   4.570   0.013
 8308SOL    HW125823   1.083   4.644   6.975
 8308SOL    HW225824   1.066   4.484   7.004
 8309SOL     OW25825   6.707   4.678   4.738
 8309SOL    HW125826   6.730   4.583   4.718
 8309SOL    HW225827   6.740   4.702   4.829
 8310SOL     OW25828   0.405   0.021   0.717
 8310SOL    HW125829   0.500   0.004   0.691
 8310SOL    HW225830   0.403   0.087   0.792
 8311SOL     OW25831   5.516   6.414   4.082
 8311SOL    HW125832   5.464   6.403   4.166
 8311SOL    HW225833   5.588   6.344   4.077
 8312SOL     OW25834   4.961   0.154   6.996
 8312SOL    HW125835   5.016   0.225   6.951
 8312SOL    HW225836   4.889   0.198   0.025
 8313SOL     OW25837   4.272   0.371   5.406
 8313SOL    HW125838   4.182   0.329   5.393
 8313SOL    HW225839   4.273   0.462   5.365
 8314SOL     OW25840   5.278   6.467   6.022
 8314SOL    HW125841   5.246   6.411   6.099
 8314SOL    HW225842   5.369   6.437   5.995
 8315SOL     OW25843   3.669   3.238   4.653
 8315SOL    HW125844   3.698   3.213   4.561
 8315SOL    HW225845   3.675   3.159   4.714
 8316SOL     OW25846   1.042   2.960   0.437
 8316SOL    HW125847   1.031   2.930   0.531
 8316SOL    HW225848   1.020   2.884   0.375
 8317SOL     OW25849   2.211   1.870   4.701
 8317SOL    HW125850   2.161   1.936   4.758
 8317SOL    HW225851   2.161   1.856   4.616
 8318SOL     OW25852   3.979   0.286   6.574
 8318SOL    HW125853   4.046   0.332   6.632
 8318SOL    HW225854   3.972   0.334   6.486
 8319SOL     OW25855   1.346   0.467   6.360
 8319SOL    HW125856   1.414   0.402   6.394
 8319SOL    HW225857   1.309   0.520   6.436
 8320SOL     OW25858   3.637   3.892   4.402
 8320SOL    HW125859   3.733   3.883   4.375
 8320SOL    HW225860   3.620   3.986   4.432
 8321SOL     OW25861   0.277   0.508   0.106
 8321SOL    HW125862   0.181   0.530   0.120
 8321SOL    HW225863   0.330   0.592   0.101
 8322SOL     OW25864   6.809   1.007   0.427
 8322SOL    HW125865   6.866   0.948   0.370
 8322SOL    HW225866   6.721   0.962   0.444
 8323SOL     OW25867   4.875   4.645   0.979
 8323SOL    HW125868   4.947   4.577   0.994
 8323SOL    HW225869   4.909   4.716   0.918
 8324SOL     OW25870   6.089   0.443   6.584
 8324SOL    HW125871   6.136   0.444   6.496
 8324SOL    HW225872   5.991   0.459   6.570
 8325SOL     OW25873   1.586   5.945   4.773
 8325SOL    HW125874   1.608   5.956   4.676
 8325SOL    HW225875   1.574   5.848   4.794
 8326SOL     OW25876   2.620   3.795   0.183
 8326SOL    HW125877   2.630   3.845   0.269
 8326SOL    HW225878   2.688   3.828   0.117
 8327SOL     OW25879   0.608   0.662   5.165
 8327SOL    HW125880   0.646   0.584   5.214
 8327SOL    HW225881   0.667   0.685   5.088
 8328SOL     OW25882   0.740   6.395   5.843
 8328SOL    HW125883   0.734   6.347   5.930
 8328SOL    HW225884   0.741   6.494   5.860
 8329SOL     OW25885   0.644   2.714   4.895
 8329SOL    HW125886   0.712   2.681   4.829
 8329SOL    HW225887   0.686   2.784   4.953
 8330SOL     OW25888   3.958   1.074   6.573
 8330SOL    HW125889   4.012   1.031   6.645
 8330SOL    HW225890   3.863   1.082   6.603
 8331SOL     OW25891   1.923   2.002   0.252
 8331SOL    HW125892   1.840   1.952   0.278
 8331SOL    HW225893   2.004   1.954   0.287
 8332SOL     OW25894   5.436   4.850   1.672
 8332SOL    HW125895   5.394   4.760   1.663
 8332SOL    HW225896   5.535   4.842   1.668
 8333SOL     OW25897   2.193   5.022   0.899
 8333SOL    HW125898   2.141   4.983   0.823
 8333SOL    HW225899   2.141   5.012   0.984
 8334SOL     OW25900   3.206   2.380   6.740
 8334SOL    HW125901   3.186   2.327   6.823
 8334SOL    HW225902   3.210   2.477   6.764
 8335SOL     OW25903   4.747   3.221   6.633
 8335SOL    HW125904   4.720   3.127   6.613
 8335SOL    HW225905   4.741   3.277   6.550
 8336SOL     OW25906   1.313   3.394   2.883
 8336SOL    HW125907   1.221   3.425   2.860
 8336SOL    HW225908   1.363   3.468   2.928
 8337SOL     OW25909   0.862   1.697   4.560
 8337SOL    HW125910   0.896   1.603   4.562
 8337SOL    HW225911   0.903   1.749   4.635
 8338SOL     OW25912   3.811   4.914   2.117
 8338SOL    HW125913   3.815   5.004   2.074
 8338SOL    HW225914   3.725   4.869   2.090
 8339SOL     OW25915   0.177   0.624   0.492
 8339SOL    HW125916   0.206   0.651   0.584
 8339SOL    HW225917   0.153   0.527   0.492
 8340SOL     OW25918   5.060   2.125   0.622
 8340SOL    HW125919   5.084   2.183   0.544
 8340SOL    HW225920   4.962   2.110   0.624
 8341SOL     OW25921   3.410   0.386   0.151
 8341SOL    HW125922   3.375   0.292   0.141
 8341SOL    HW225923   3.455   0.414   0.067
 8342SOL     OW25924   3.589   6.418   6.798
 8342SOL    HW125925   3.579   6.473   6.715
 8342SOL    HW225926   3.579   6.322   6.775
 8343SOL     OW25927   6.505   4.364   3.790
 8343SOL    HW125928   6.474   4.314   3.871
 8343SOL    HW225929   6.604   4.353   3.781
 8344SOL     OW25930   0.764   5.180   4.431
 8344SOL    HW125931   0.779   5.091   4.473
 8344SOL    HW225932   0.775   5.252   4.500
 8345SOL     OW25933   5.235   0.745   3.063
 8345SOL    HW125934   5.317   0.773   3.113
 8345SOL    HW225935   5.232   0.794   2.976
 8346SOL     OW25936   4.531   3.258   6.042
 8346SOL    HW125937   4.493   3.306   5.963
 8346SOL    HW225938   4.523   3.160   6.029
 8347SOL     OW25939   2.537   0.061   6.120
 8347SOL    HW125940   2.501   6.997   6.090
 8347SOL    HW225941   2.567   0.115   6.041
 8348SOL     OW25942   3.532   6.532   1.094
 8348SOL    HW125943   3.490   6.610   1.047
 8348SOL    HW225944   3.515   6.539   1.193
 8349SOL     OW25945   0.467   6.389   2.200
 8349SOL    HW125946   0.545   6.433   2.245
 8349SOL    HW225947   0.443   6.440   2.117
 8350SOL     OW25948   2.747   6.948   6.263
 8350SOL    HW125949   2.691   6.883   6.314
 8350SOL    HW225950   2.692   0.004   6.240
 8351SOL     OW25951   6.679   4.931   4.399
 8351SOL    HW125952   6.637   4.972   4.318
 8351SOL    HW225953   6.608   4.887   4.454
 8352SOL     OW25954   2.679   6.281   1.910
 8352SOL    HW125955   2.712   6.312   1.821
 8352SOL    HW225956   2.743   6.214   1.948
 8353SOL     OW25957   0.981   3.790   1.800
 8353SOL    HW125958   0.968   3.715   1.865
 8353SOL    HW225959   1.048   3.855   1.837
 8354SOL     OW25960   3.574   6.424   4.058
 8354SOL    HW125961   3.540   6.489   4.125
 8354SOL    HW225962   3.670   6.443   4.038
 8355SOL     OW25963   1.293   6.901   6.225
 8355SOL    HW125964   1.392   6.908   6.215
 8355SOL    HW225965   1.254   6.993   6.237
 8356SOL     OW25966   1.843   5.529   1.565
 8356SOL    HW125967   1.792   5.583   1.633
 8356SOL    HW225968   1.929   5.497   1.605
 8357SOL     OW25969   4.105   5.386   5.836
 8357SOL    HW125970   4.091   5.442   5.754
 8357SOL    HW225971   4.163   5.308   5.813
 8358SOL     OW25972   1.265   2.427   5.384
 8358SOL    HW125973   1.281   2.328   5.392
 8358SOL    HW225974   1.178   2.450   5.428
 8359SOL     OW25975   2.824   0.914   4.868
 8359SOL    HW125976   2.828   0.822   4.909
 8359SOL    HW225977   2.897   0.970   4.906
 8360SOL     OW25978   4.615   6.410   0.871
 8360SOL    HW125979   4.544   6.481   0.877
 8360SOL    HW225980   4.704   6.453   0.860
 8361SOL     OW25981   2.058   6.922   6.632
 8361SOL    HW125982   2.033   6.926   6.729
 8361SOL    HW225983   1.990   6.867   6.583
 8362SOL     OW25984   6.474   2.946   0.388
 8362SOL    HW125985   6.455   2.990   0.300
 8362SOL    HW225986   6.415   2.865   0.397
 8363SOL     OW25987   4.136   2.262   0.807
 8363SOL    HW125988   4.165   2.339   0.749
 8363SOL    HW225989   4.202   2.249   0.880
 8364SOL     OW25990   0.518   2.680   3.438
 8364SOL    HW125991   0.566   2.767   3.448
 8364SOL    HW225992   0.479   2.652   3.526
 8365SOL     OW25993   1.755   2.526   1.910
 8365SOL    HW125994   1.714   2.435   1.913
 8365SOL    HW225995   1.810   2.535   1.826
 8366SOL     OW25996   4.150   5.414   1.037
 8366SOL    HW125997   4.220   5.418   0.966
 8366SOL    HW225998   4.189   5.370   1.119
 8367SOL     OW25999   3.184   5.167   4.756
 8367SOL    HW126000   3.197   5.091   4.692
 8367SOL    HW226001   3.146   5.131   4.842
 8368SOL     OW26002   0.937   6.513   0.401
 8368SOL    HW126003   0.904   6.505   0.307
 8368SOL    HW226004   0.900   6.438   0.456
 8369SOL     OW26005   1.062   1.657   0.791
 8369SOL    HW126006   1.053   1.736   0.730
 8369SOL    HW226007   1.047   1.686   0.885
 8370SOL     OW26008   2.977   1.741   6.825
 8370SOL    HW126009   3.050   1.788   6.874
 8370SOL    HW226010   2.959   1.789   6.739
 8371SOL     OW26011   1.491   2.820   5.361
 8371SOL    HW126012   1.414   2.878   5.335
 8371SOL    HW226013   1.576   2.860   5.324
 8372SOL     OW26014   2.530   6.674   2.151
 8372SOL    HW126015   2.485   6.654   2.238
 8372SOL    HW226016   2.629   6.673   2.164
 8373SOL     OW26017   1.108   1.835   4.376
 8373SOL    HW126018   1.126   1.736   4.384
 8373SOL    HW226019   1.179   1.877   4.320
 8374SOL     OW26020   1.083   1.038   4.256
 8374SOL    HW126021   0.991   1.057   4.220
 8374SOL    HW226022   1.146   1.024   4.180
 8375SOL     OW26023   4.493   0.936   5.889
 8375SOL    HW126024   4.401   0.900   5.906
 8375SOL    HW226025   4.504   0.951   5.790
 8376SOL     OW26026   1.673   1.079   3.515
 8376SOL    HW126027   1.692   0.995   3.464
 8376SOL    HW226028   1.668   1.156   3.452
 8377SOL     OW26029   5.647   4.952   6.969
 8377SOL    HW126030   5.652   5.041   7.016
 8377SOL    HW226031   5.570   4.900   7.006
 8378SOL     OW26032   5.280   5.421   3.543
 8378SOL    HW126033   5.311   5.353   3.609
 8378SOL    HW226034   5.191   5.395   3.507
 8379SOL     OW26035   4.892   1.638   1.707
 8379SOL    HW126036   4.865   1.734   1.710
 8379SOL    HW226037   4.980   1.630   1.660
 8380SOL     OW26038   0.137   5.978   6.560
 8380SOL    HW126039   0.093   6.049   6.505
 8380SOL    HW226040   0.235   5.978   6.541
 8381SOL     OW26041   0.232   2.250   2.820
 8381SOL    HW126042   0.208   2.250   2.723
 8381SOL    HW226043   0.253   2.343   2.850
 8382SOL     OW26044   2.456   0.055   6.735
 8382SOL    HW126045   2.458   0.059   6.635
 8382SOL    HW226046   2.496   0.139   6.772
 8383SOL     OW26047   2.584   0.264   4.476
 8383SOL    HW126048   2.512   0.216   4.426
 8383SOL    HW226049   2.666   0.270   4.420
 8384SOL     OW26050   6.560   1.800   1.324
 8384SOL    HW126051   6.511   1.856   1.257
 8384SOL    HW226052   6.512   1.712   1.334
 8385SOL     OW26053   4.608   3.280   0.574
 8385SOL    HW126054   4.570   3.216   0.641
 8385SOL    HW226055   4.688   3.326   0.613
 8386SOL     OW26056   2.167   6.617   1.361
 8386SOL    HW126057   2.079   6.599   1.406
 8386SOL    HW226058   2.207   6.531   1.330
 8387SOL     OW26059   2.573   1.496   1.503
 8387SOL    HW126060   2.474   1.497   1.489
 8387SOL    HW226061   2.600   1.577   1.556
 8388SOL     OW26062   1.497   6.941   0.631
 8388SOL    HW126063   1.568   7.006   0.658
 8388SOL    HW226064   1.536   6.849   0.628
 8389SOL     OW26065   1.573   3.259   4.286
 8389SOL    HW126066   1.497   3.237   4.224
 8389SOL    HW226067   1.611   3.174   4.323
 8390SOL     OW26068   2.743   0.763   5.850
 8390SOL    HW126069   2.774   0.852   5.817
 8390SOL    HW226070   2.727   0.767   5.948
 8391SOL     OW26071   5.077   5.577   1.868
 8391SOL    HW126072   5.070   5.643   1.944
 8391SOL    HW226073   5.125   5.496   1.899
 8392SOL     OW26074   6.176   5.833   4.731
 8392SOL    HW126075   6.167   5.927   4.697
 8392SOL    HW226076   6.150   5.831   4.828
 8393SOL     OW26077   6.474   6.997   3.731
 8393SOL    HW126078   6.479   0.053   3.790
 8393SOL    HW226079   6.552   6.937   3.749
 8394SOL     OW26080   0.828   1.340   2.505
 8394SOL    HW126081   0.899   1.372   2.444
 8394SOL    HW226082   0.866   1.325   2.596
 8395SOL     OW26083   0.333   6.427   4.195
 8395SOL    HW126084   0.254   6.413   4.135
 8395SOL    HW226085   0.407   6.469   4.143
 8396SOL     OW26086   4.244   4.778   2.665
 8396SOL    HW126087   4.307   4.768   2.587
 8396SOL    HW226088   4.151   4.791   2.631
 8397SOL     OW26089   2.267   6.719   2.739
 8397SOL    HW126090   2.290   6.727   2.836
 8397SOL    HW226091   2.175   6.756   2.724
 8398SOL     OW26092   4.100   1.675   0.514
 8398SOL    HW126093   4.033   1.701   0.445
 8398SOL    HW226094   4.159   1.753   0.534
 8399SOL     OW26095   5.728   5.657   0.446
 8399SOL    HW126096   5.630   5.659   0.464
 8399SOL    HW226097   5.759   5.562   0.445
 8400SOL     OW26098   6.910   0.216   2.895
 8400SOL    HW126099   6.870   0.159   2.967
 8400SOL    HW226100   6.852   0.214   2.814
 8401SOL     OW26101   4.522   2.980   5.948
 8401SOL    HW126102   4.431   2.995   5.910
 8401SOL    HW226103   4.582   2.945   5.877
 8402SOL     OW26104   3.679   2.355   5.750
 8402SOL    HW126105   3.612   2.340   5.822
 8402SOL    HW226106   3.655   2.301   5.669
 8403SOL     OW26107   0.405   1.408   3.382
 8403SOL    HW126108   0.317   1.454   3.387
 8403SOL    HW226109   0.478   1.476   3.388
 8404SOL     OW26110   5.584   6.873   6.475
 8404SOL    HW126111   5.678   6.904   6.483
 8404SOL    HW226112   5.552   6.840   6.564
 8405SOL     OW26113   1.853   2.021   6.500
 8405SOL    HW126114   1.835   2.100   6.441
 8405SOL    HW226115   1.791   2.023   6.578
 8406SOL     OW26116   4.533   1.849   0.931
 8406SOL    HW126117   4.562   1.820   0.840
 8406SOL    HW226118   4.434   1.848   0.937
 8407SOL     OW26119   5.994   4.506   4.931
 8407SOL    HW126120   6.038   4.416   4.926
 8407SOL    HW226121   5.967   4.534   4.839
 8408SOL     OW26122   5.390   0.285   4.074
 8408SOL    HW126123   5.339   0.243   4.149
 8408SOL    HW226124   5.328   0.308   4.000
 8409SOL     OW26125   0.863   2.007   3.788
 8409SOL    HW126126   0.898   2.100   3.776
 8409SOL    HW226127   0.777   2.009   3.838
 8410SOL     OW26128   4.990   0.739   2.094
 8410SOL    HW126129   5.080   0.702   2.072
 8410SOL    HW226130   4.919   0.675   2.065
 8411SOL     OW26131   1.505   5.098   3.826
 8411SOL    HW126132   1.549   5.117   3.738
 8411SOL    HW226133   1.411   5.131   3.823
 8412SOL     OW26134   4.629   2.091   1.041
 8412SOL    HW126135   4.709   2.128   0.993
 8412SOL    HW226136   4.594   2.012   0.991
 8413SOL     OW26137   4.151   5.116   0.634
 8413SOL    HW126138   4.115   5.210   0.637
 8413SOL    HW226139   4.242   5.117   0.592
 8414SOL     OW26140   3.890   0.017   2.465
 8414SOL    HW126141   3.809   6.983   2.465
 8414SOL    HW226142   3.903   0.057   2.556
 8415SOL     OW26143   6.953   4.787   3.822
 8415SOL    HW126144   6.868   4.797   3.873
 8415SOL    HW226145   0.003   4.836   3.868
 8416SOL     OW26146   5.074   3.928   2.862
 8416SOL    HW126147   5.055   3.865   2.787
 8416SOL    HW226148   5.069   4.022   2.829
 8417SOL     OW26149   2.903   6.453   5.328
 8417SOL    HW126150   2.805   6.440   5.343
 8417SOL    HW226151   2.927   6.430   5.234
 8418SOL     OW26152   5.319   5.396   1.917
 8418SOL    HW126153   5.315   5.308   1.869
 8418SOL    HW226154   5.346   5.380   2.012
 8419SOL     OW26155   4.879   1.060   2.166
 8419SOL    HW126156   4.879   0.978   2.223
 8419SOL    HW226157   4.928   1.133   2.213
 8420SOL     OW26158   4.026   6.834   0.409
 8420SOL    HW126159   3.961   6.777   0.358
 8420SOL    HW226160   4.004   6.830   0.506
 8421SOL     OW26161   2.454   6.466   1.338
 8421SOL    HW126162   2.538   6.504   1.377
 8421SOL    HW226163   2.436   6.508   1.249
 8422SOL     OW26164   5.435   6.136   0.936
 8422SOL    HW126165   5.482   6.053   0.967
 8422SOL    HW226166   5.502   6.209   0.922
 8423SOL     OW26167   4.310   4.919   6.954
 8423SOL    HW126168   4.324   4.830   6.911
 8423SOL    HW226169   4.223   4.918   7.004
 8424SOL     OW26170   3.312   2.062   2.315
 8424SOL    HW126171   3.220   2.099   2.332
 8424SOL    HW226172   3.372   2.087   2.391
 8425SOL     OW26173   6.864   5.400   1.117
 8425SOL    HW126174   6.922   5.378   1.195
 8425SOL    HW226175   6.905   5.476   1.065
 8426SOL     OW26176   3.859   3.189   3.420
 8426SOL    HW126177   3.886   3.132   3.342
 8426SOL    HW226178   3.911   3.274   3.417
 8427SOL     OW26179   1.717   4.112   5.667
 8427SOL    HW126180   1.781   4.161   5.608
 8427SOL    HW226181   1.767   4.056   5.733
 8428SOL     OW26182   6.597   4.699   2.103
 8428SOL    HW126183   6.696   4.688   2.117
 8428SOL    HW226184   6.571   4.794   2.116
 8429SOL     OW26185   2.824   4.758   4.372
 8429SOL    HW126186   2.773   4.676   4.346
 8429SOL    HW226187   2.803   4.781   4.467
 8430SOL     OW26188   4.503   5.546   2.770
 8430SOL    HW126189   4.594   5.585   2.755
 8430SOL    HW226190   4.513   5.452   2.804
 8431SOL     OW26191   2.414   5.261   1.515
 8431SOL    HW126192   2.505   5.263   1.557
 8431SOL    HW226193   2.383   5.166   1.507
 8432SOL     OW26194   4.341   5.199   5.957
 8432SOL    HW126195   4.266   5.146   5.997
 8432SOL    HW226196   4.409   5.219   6.027
 8433SOL     OW26197   0.743   2.690   0.102
 8433SOL    HW126198   0.786   2.756   0.041
 8433SOL    HW226199   0.713   2.610   0.050
 8434SOL     OW26200   3.837   6.986   5.035
 8434SOL    HW126201   3.887   7.013   4.953
 8434SOL    HW226202   3.752   6.940   5.008
 8435SOL     OW26203   4.747   1.474   1.519
 8435SOL    HW126204   4.838   1.453   1.557
 8435SOL    HW226205   4.697   1.532   1.583
 8436SOL     OW26206   3.623   5.874   3.433
 8436SOL    HW126207   3.593   5.962   3.469
 8436SOL    HW226208   3.614   5.874   3.334
 8437SOL     OW26209   0.470   0.365   1.655
 8437SOL    HW126210   0.474   0.281   1.710
 8437SOL    HW226211   0.560   0.382   1.614
 8438SOL     OW26212   2.850   4.761   2.822
 8438SOL    HW126213   2.823   4.713   2.738
 8438SOL    HW226214   2.813   4.711   2.901
 8439SOL     OW26215   6.390   5.738   2.050
 8439SOL    HW126216   6.418   5.646   2.079
 8439SOL    HW226217   6.469   5.788   2.015
 8440SOL     OW26218   6.651   1.020   2.580
 8440SOL    HW126219   6.631   1.112   2.614
 8440SOL    HW226220   6.745   1.016   2.546
 8441SOL     OW26221   5.828   6.130   0.438
 8441SOL    HW126222   5.920   6.162   0.414
 8441SOL    HW226223   5.822   6.117   0.536
 8442SOL     OW26224   3.600   3.422   6.694
 8442SOL    HW126225   3.506   3.458   6.698
 8442SOL    HW226226   3.602   3.343   6.633
 8443SOL     OW26227   1.296   7.005   2.910
 8443SOL    HW126228   1.231   6.929   2.901
 8443SOL    HW226229   1.280   0.047   2.837
 8444SOL     OW26230   3.172   6.195   3.444
 8444SOL    HW126231   3.212   6.279   3.405
 8444SOL    HW226232   3.092   6.219   3.498
 8445SOL     OW26233   3.168   4.895   2.546
 8445SOL    HW126234   3.225   4.881   2.627
 8445SOL    HW226235   3.212   4.961   2.486
 8446SOL     OW26236   4.961   5.657   2.352
 8446SOL    HW126237   4.931   5.736   2.406
 8446SOL    HW226238   4.881   5.601   2.328
 8447SOL     OW26239   5.695   2.480   2.773
 8447SOL    HW126240   5.660   2.474   2.679
 8447SOL    HW226241   5.698   2.576   2.801
 8448SOL     OW26242   0.286   3.974   6.177
 8448SOL    HW126243   0.314   4.065   6.207
 8448SOL    HW226244   0.365   3.926   6.139
 8449SOL     OW26245   0.401   3.533   4.615
 8449SOL    HW126246   0.466   3.480   4.560
 8449SOL    HW226247   0.314   3.485   4.618
 8450SOL     OW26248   1.851   5.757   2.609
 8450SOL    HW126249   1.856   5.815   2.690
 8450SOL    HW226250   1.779   5.791   2.548
 8451SOL     OW26251   3.649   2.476   1.129
 8451SOL    HW126252   3.564   2.523   1.153
 8451SOL    HW226253   3.676   2.416   1.204
 8452SOL     OW26254   6.875   0.079   1.244
 8452SOL    HW126255   6.846   0.021   1.320
 8452SOL    HW226256   6.970   0.106   1.257
 8453SOL     OW26257   0.061   4.833   6.135
 8453SOL    HW126258   6.998   4.833   6.186
 8453SOL    HW226259   0.109   4.919   6.152
 8454SOL     OW26260   1.705   6.075   2.117
 8454SOL    HW126261   1.770   6.110   2.050
 8454SOL    HW226262   1.744   6.084   2.209
 8455SOL     OW26263   4.933   1.297   1.293
 8455SOL    HW126264   5.017   1.348   1.274
 8455SOL    HW226265   4.917   1.294   1.391
 8456SOL     OW26266   6.007   5.763   3.638
 8456SOL    HW126267   6.061   5.796   3.561
 8456SOL    HW226268   5.940   5.697   3.606
 8457SOL     OW26269   6.740   6.989   5.776
 8457SOL    HW126270   6.837   6.970   5.789
 8457SOL    HW226271   6.720   6.999   5.679
 8458SOL     OW26272   1.743   1.071   6.723
 8458SOL    HW126273   1.683   1.124   6.663
 8458SOL    HW226274   1.693   0.993   6.760
 8459SOL     OW26275   3.699   6.628   1.687
 8459SOL    HW126276   3.604   6.659   1.694
 8459SOL    HW226277   3.753   6.669   1.761
 8460SOL     OW26278   3.846   2.932   6.959
 8460SOL    HW126279   3.900   2.887   0.006
 8460SOL    HW226280   3.897   3.011   6.924
 8461SOL     OW26281   0.508   3.352   1.685
 8461SOL    HW126282   0.518   3.268   1.632
 8461SOL    HW226283   0.434   3.341   1.752
 8462SOL     OW26284   3.868   3.288   0.024
 8462SOL    HW126285   3.879   3.233   0.106
 8462SOL    HW226286   3.782   3.263   7.002
 8463SOL     OW26287   0.437   2.069   0.184
 8463SOL    HW126288   0.402   1.985   0.225
 8463SOL    HW226289   0.377   2.145   0.209
 8464SOL     OW26290   0.146   4.136   5.346
 8464SOL    HW126291   0.212   4.062   5.361
 8464SOL    HW226292   0.182   4.221   5.385
 8465SOL     OW26293   2.584   2.088   0.986
 8465SOL    HW126294   2.540   2.099   0.897
 8465SOL    HW226295   2.634   2.172   1.009
 8466SOL     OW26296   6.549   0.445   5.516
 8466SOL    HW126297   6.538   0.458   5.615
 8466SOL    HW226298   6.461   0.458   5.471
 8467SOL     OW26299   4.023   0.690   0.730
 8467SOL    HW126300   4.076   0.754   0.784
 8467SOL    HW226301   3.933   0.729   0.710
 8468SOL     OW26302   5.987   3.917   6.248
 8468SOL    HW126303   5.889   3.934   6.261
 8468SOL    HW226304   6.039   3.965   6.319
 8469SOL     OW26305   2.981   2.711   5.590
 8469SOL    HW126306   2.973   2.764   5.506
 8469SOL    HW226307   3.061   2.651   5.584
 8470SOL     OW26308   0.985   4.919   0.528
 8470SOL    HW126309   1.082   4.940   0.540
 8470SOL    HW226310   0.939   4.995   0.482
 8471SOL     OW26311   3.750   0.300   5.400
 8471SOL    HW126312   3.739   0.206   5.368
 8471SOL    HW226313   3.661   0.345   5.399
 8472SOL     OW26314   5.688   1.729   5.494
 8472SOL    HW126315   5.590   1.718   5.509
 8472SOL    HW226316   5.706   1.817   5.450
 8473SOL     OW26317   4.175   4.654   0.455
 8473SOL    HW126318   4.182   4.624   0.551
 8473SOL    HW226319   4.160   4.575   0.396
 8474SOL     OW26320   2.928   3.768   2.574
 8474SOL    HW126321   2.913   3.685   2.520
 8474SOL    HW226322   2.865   3.769   2.651
 8475SOL     OW26323   0.007   3.269   1.726
 8475SOL    HW126324   0.013   3.340   1.656
 8475SOL    HW226325   0.015   3.179   1.682
 8476SOL     OW26326   0.196   0.782   1.618
 8476SOL    HW126327   0.138   0.712   1.660
 8476SOL    HW226328   0.141   0.835   1.553
 8477SOL     OW26329   5.440   5.910   1.957
 8477SOL    HW126330   5.411   5.989   2.012
 8477SOL    HW226331   5.433   5.827   2.013
 8478SOL     OW26332   0.883   1.270   5.904
 8478SOL    HW126333   0.828   1.207   5.850
 8478SOL    HW226334   0.851   1.269   5.999
 8479SOL     OW26335   1.123   2.696   1.669
 8479SOL    HW126336   1.140   2.614   1.615
 8479SOL    HW226337   1.047   2.748   1.630
 8480SOL     OW26338   4.936   2.852   6.789
 8480SOL    HW126339   4.909   2.756   6.782
 8480SOL    HW226340   4.886   2.896   6.864
 8481SOL     OW26341   4.199   2.192   4.980
 8481SOL    HW126342   4.117   2.141   4.953
 8481SOL    HW226343   4.183   2.290   4.968
 8482SOL     OW26344   4.449   0.283   1.152
 8482SOL    HW126345   4.422   0.222   1.227
 8482SOL    HW226346   4.423   0.377   1.174
 8483SOL     OW26347   2.489   5.602   3.428
 8483SOL    HW126348   2.389   5.599   3.430
 8483SOL    HW226349   2.519   5.696   3.407
 8484SOL     OW26350   6.844   5.825   4.720
 8484SOL    HW126351   6.756   5.796   4.758
 8484SOL    HW226352   6.834   5.914   4.676
 8485SOL     OW26353   3.807   2.430   0.399
 8485SOL    HW126354   3.759   2.500   0.347
 8485SOL    HW226355   3.743   2.360   0.428
 8486SOL     OW26356   1.531   1.168   2.735
 8486SOL    HW126357   1.439   1.142   2.707
 8486SOL    HW226358   1.588   1.086   2.743
 8487SOL     OW26359   5.465   1.791   6.387
 8487SOL    HW126360   5.536   1.754   6.447
 8487SOL    HW226361   5.375   1.764   6.420
 8488SOL     OW26362   5.244   5.772   3.255
 8488SOL    HW126363   5.207   5.820   3.334
 8488SOL    HW226364   5.172   5.761   3.186
 8489SOL     OW26365   6.855   0.165   1.602
 8489SOL    HW126366   6.944   0.204   1.578
 8489SOL    HW226367   6.783   0.232   1.586
 8490SOL     OW26368   3.555   6.845   5.447
 8490SOL    HW126369   3.520   6.910   5.379
 8490SOL    HW226370   3.600   6.769   5.401
 8491SOL     OW26371   2.172   5.551   2.892
 8491SOL    HW126372   2.247   5.616   2.881
 8491SOL    HW226373   2.191   5.469   2.838
 8492SOL     OW26374   6.158   4.852   3.706
 8492SOL    HW126375   6.097   4.897   3.770
 8492SOL    HW226376   6.154   4.899   3.617
 8493SOL     OW26377   2.672   1.165   0.142
 8493SOL    HW126378   2.608   1.242   0.144
 8493SOL    HW226379   2.631   1.089   0.093
 8494SOL     OW26380   4.916   4.953   1.937
 8494SOL    HW126381   5.009   4.921   1.954
 8494SOL    HW226382   4.913   5.052   1.942
 8495SOL     OW26383   0.140   5.747   0.701
 8495SOL    HW126384   0.157   5.846   0.702
 8495SOL    HW226385   0.180   5.706   0.783
 8496SOL     OW26386   5.023   1.290   2.189
 8496SOL    HW126387   4.988   1.378   2.220
 8496SOL    HW226388   5.078   1.303   2.106
 8497SOL     OW26389   0.516   6.895   3.877
 8497SOL    HW126390   0.505   6.939   3.788
 8497SOL    HW226391   0.568   6.955   3.938
 8498SOL     OW26392   5.939   6.442   3.456
 8498SOL    HW126393   6.015   6.487   3.409
 8498SOL    HW226394   5.854   6.459   3.406
 8499SOL     OW26395   0.963   4.869   0.012
 8499SOL    HW126396   0.865   4.885   0.007
 8499SOL    HW226397   1.012   4.956   0.008
 8500SOL     OW26398   2.163   6.433   6.371
 8500SOL    HW126399   2.213   6.382   6.442
 8500SOL    HW226400   2.121   6.368   6.308
 8501SOL     OW26401   0.800   2.471   0.365
 8501SOL    HW126402   0.805   2.380   0.323
 8501SOL    HW226403   0.707   2.487   0.399
 8502SOL     OW26404   0.777   2.578   0.659
 8502SOL    HW126405   0.822   2.616   0.740
 8502SOL    HW226406   0.678   2.574   0.675
 8503SOL     OW26407   6.278   5.823   5.259
 8503SOL    HW126408   6.354   5.807   5.196
 8503SOL    HW226409   6.308   5.802   5.353
 8504SOL     OW26410   1.823   5.403   2.152
 8504SOL    HW126411   1.898   5.345   2.180
 8504SOL    HW226412   1.797   5.381   2.058
 8505SOL     OW26413   5.495   3.510   2.619
 8505SOL    HW126414   5.496   3.415   2.651
 8505SOL    HW226415   5.404   3.549   2.632
 8506SOL     OW26416   0.778   0.960   6.984
 8506SOL    HW126417   0.804   0.885   0.021
 8506SOL    HW226418   0.827   1.043   7.011
 8507SOL     OW26419   4.547   0.174   4.595
 8507SOL    HW126420   4.536   0.273   4.595
 8507SOL    HW226421   4.598   0.145   4.514
 8508SOL     OW26422   3.969   1.758   5.658
 8508SOL    HW126423   4.001   1.756   5.563
 8508SOL    HW226424   3.924   1.671   5.679
 8509SOL     OW26425   5.859   6.392   4.087
 8509SOL    HW126426   5.811   6.314   4.047
 8509SOL    HW226427   5.811   6.476   4.062
 8510SOL     OW26428   5.259   3.338   3.531
 8510SOL    HW126429   5.329   3.383   3.476
 8510SOL    HW226430   5.272   3.239   3.527
 8511SOL     OW26431   6.652   3.023   2.533
 8511SOL    HW126432   6.561   3.049   2.565
 8511SOL    HW226433   6.645   2.942   2.474
 8512SOL     OW26434   2.420   7.021   2.767
 8512SOL    HW126435   2.402   0.040   2.678
 8512SOL    HW226436   2.363   6.939   2.776
 8513SOL     OW26437   6.844   5.991   0.802
 8513SOL    HW126438   6.813   6.072   0.851
 8513SOL    HW226439   6.783   5.914   0.823
 8514SOL     OW26440   3.598   7.019   3.074
 8514SOL    HW126441   3.590   0.095   3.066
 8514SOL    HW226442   3.569   6.991   3.165
 8515SOL     OW26443   4.794   2.292   0.920
 8515SOL    HW126444   4.725   2.362   0.934
 8515SOL    HW226445   4.860   2.293   0.995
 8516SOL     OW26446   6.448   1.574   2.596
 8516SOL    HW126447   6.371   1.612   2.647
 8516SOL    HW226448   6.530   1.630   2.612
 8517SOL     OW26449   1.147   2.794   6.675
 8517SOL    HW126450   1.155   2.806   6.576
 8517SOL    HW226451   1.125   2.699   6.696
 8518SOL     OW26452   4.603   4.837   0.224
 8518SOL    HW126453   4.540   4.785   0.167
 8518SOL    HW226454   4.573   4.932   0.230
 8519SOL     OW26455   1.985   5.694   2.089
 8519SOL    HW126456   1.892   5.673   2.120
 8519SOL    HW226457   2.042   5.612   2.096
 8520SOL     OW26458   3.977   1.076   0.393
 8520SOL    HW126459   3.979   1.034   0.302
 8520SOL    HW226460   3.888   1.118   0.408
 8521SOL     OW26461   1.338   6.136   5.762
 8521SOL    HW126462   1.432   6.147   5.730
 8521SOL    HW226463   1.318   6.203   5.833
 8522SOL     OW26464   1.715   5.857   2.353
 8522SOL    HW126465   1.759   5.937   2.311
 8522SOL    HW226466   1.739   5.775   2.302
 8523SOL     OW26467   2.196   0.428   5.660
 8523SOL    HW126468   2.157   0.513   5.698
 8523SOL    HW226469   2.237   0.447   5.571
 8524SOL     OW26470   1.119   3.426   4.464
 8524SOL    HW126471   1.098   3.524   4.472
 8524SOL    HW226472   1.196   3.404   4.524
 8525SOL     OW26473   6.150   3.516   2.682
 8525SOL    HW126474   6.219   3.444   2.681
 8525SOL    HW226475   6.172   3.582   2.753
 8526SOL     OW26476   2.877   3.204   1.632
 8526SOL    HW126477   2.784   3.241   1.637
 8526SOL    HW226478   2.927   3.249   1.558
 8527SOL     OW26479   4.352   0.571   4.038
 8527SOL    HW126480   4.339   0.528   4.127
 8527SOL    HW226481   4.299   0.655   4.034
 8528SOL     OW26482   5.124   4.146   6.166
 8528SOL    HW126483   5.099   4.190   6.252
 8528SOL    HW226484   5.093   4.051   6.167
 8529SOL     OW26485   1.204   6.026   0.206
 8529SOL    HW126486   1.301   6.041   0.187
 8529SOL    HW226487   1.150   6.097   0.161
 8530SOL     OW26488   1.406   5.253   5.175
 8530SOL    HW126489   1.333   5.233   5.240
 8530SOL    HW226490   1.481   5.299   5.222
 8531SOL     OW26491   5.758   4.241   2.921
 8531SOL    HW126492   5.736   4.314   2.985
 8531SOL    HW226493   5.713   4.258   2.834
 8532SOL     OW26494   4.240   5.077   4.720
 8532SOL    HW126495   4.293   5.082   4.635
 8532SOL    HW226496   4.286   5.130   4.791
 8533SOL     OW26497   2.139   1.252   5.209
 8533SOL    HW126498   2.210   1.236   5.278
 8533SOL    HW226499   2.132   1.349   5.189
 8534SOL     OW26500   0.774   4.558   2.770
 8534SOL    HW126501   0.835   4.637   2.763
 8534SOL    HW226502   0.827   4.474   2.761
 8535SOL     OW26503   1.101   2.222   4.388
 8535SOL    HW126504   1.129   2.298   4.448
 8535SOL    HW226505   1.091   2.139   4.443
 8536SOL     OW26506   6.628   2.710   4.869
 8536SOL    HW126507   6.598   2.623   4.829
 8536SOL    HW226508   6.714   2.739   4.827
 8537SOL     OW26509   6.205   1.168   0.623
 8537SOL    HW126510   6.187   1.210   0.712
 8537SOL    HW226511   6.301   1.139   0.619
 8538SOL     OW26512   0.183   0.754   4.825
 8538SOL    HW126513   0.174   0.682   4.756
 8538SOL    HW226514   0.279   0.775   4.839
 8539SOL     OW26515   6.649   2.419   2.606
 8539SOL    HW126516   6.688   2.434   2.697
 8539SOL    HW226517   6.722   2.412   2.539
 8540SOL     OW26518   3.278   1.166   0.904
 8540SOL    HW126519   3.193   1.131   0.865
 8540SOL    HW226520   3.356   1.123   0.859
 8541SOL     OW26521   2.931   1.352   5.211
 8541SOL    HW126522   2.900   1.311   5.297
 8541SOL    HW226523   2.852   1.382   5.158
 8542SOL     OW26524   2.941   4.574   6.578
 8542SOL    HW126525   2.968   4.478   6.582
 8542SOL    HW226526   2.938   4.604   6.483
 8543SOL     OW26527   2.602   1.862   5.688
 8543SOL    HW126528   2.520   1.916   5.708
 8543SOL    HW226529   2.683   1.919   5.699
 8544SOL     OW26530   4.983   3.630   5.323
 8544SOL    HW126531   5.064   3.622   5.382
 8544SOL    HW226532   4.966   3.543   5.277
 8545SOL     OW26533   3.467   6.620   4.789
 8545SOL    HW126534   3.488   6.718   4.781
 8545SOL    HW226535   3.414   6.591   4.709
 8546SOL     OW26536   5.644   0.527   1.123
 8546SOL    HW126537   5.545   0.510   1.116
 8546SOL    HW226538   5.659   0.602   1.188
 8547SOL     OW26539   6.986   0.245   5.332
 8547SOL    HW126540   6.934   0.277   5.411
 8547SOL    HW226541   0.058   0.232   5.358
 8548SOL     OW26542   0.678   2.737   5.766
 8548SOL    HW126543   0.614   2.771   5.835
 8548SOL    HW226544   0.699   2.641   5.784
 8549SOL     OW26545   1.492   2.088   3.755
 8549SOL    HW126546   1.579   2.091   3.707
 8549SOL    HW226547   1.440   2.171   3.735
 8550SOL     OW26548   0.776   4.304   6.441
 8550SOL    HW126549   0.733   4.338   6.357
 8550SOL    HW226550   0.837   4.228   6.418
 8551SOL     OW26551   2.189   2.365   6.396
 8551SOL    HW126552   2.168   2.412   6.310
 8551SOL    HW226553   2.125   2.290   6.409
 8552SOL     OW26554   3.370   0.569   2.058
 8552SOL    HW126555   3.341   0.575   1.962
 8552SOL    HW226556   3.417   0.653   2.083
 8553SOL     OW26557   3.880   3.085   0.861
 8553SOL    HW126558   3.894   3.041   0.949
 8553SOL    HW226559   3.947   3.158   0.849
 8554SOL     OW26560   0.883   6.882   1.319
 8554SOL    HW126561   0.897   6.953   1.250
 8554SOL    HW226562   0.961   6.880   1.382
 8555SOL     OW26563   3.907   1.282   3.586
 8555SOL    HW126564   3.941   1.195   3.550
 8555SOL    HW226565   3.954   1.357   3.540
 8556SOL     OW26566   2.023   6.293   6.150
 8556SOL    HW126567   2.012   6.367   6.084
 8556SOL    HW226568   1.954   6.223   6.133
 8557SOL     OW26569   6.565   0.869   0.463
 8557SOL    HW126570   6.513   0.926   0.527
 8557SOL    HW226571   6.537   0.889   0.369
 8558SOL     OW26572   2.211   4.458   3.056
 8558SOL    HW126573   2.144   4.384   3.049
 8558SOL    HW226574   2.300   4.424   3.026
 8559SOL     OW26575   0.435   6.306   2.558
 8559SOL    HW126576   0.366   6.329   2.490
 8559SOL    HW226577   0.410   6.347   2.646
 8560SOL     OW26578   1.739   5.284   1.177
 8560SOL    HW126579   1.834   5.312   1.161
 8560SOL    HW226580   1.714   5.305   1.272
 8561SOL     OW26581   3.814   0.672   2.975
 8561SOL    HW126582   3.790   0.641   3.067
 8561SOL    HW226583   3.737   0.655   2.913
 8562SOL     OW26584   3.789   1.398   0.309
 8562SOL    HW126585   3.870   1.359   0.264
 8562SOL    HW226586   3.712   1.392   0.246
 8563SOL     OW26587   1.319   5.620   2.737
 8563SOL    HW126588   1.328   5.719   2.723
 8563SOL    HW226589   1.378   5.572   2.672
 8564SOL     OW26590   4.088   6.367   0.013
 8564SOL    HW126591   4.079   6.382   6.938
 8564SOL    HW226592   4.127   6.277   0.030
 8565SOL     OW26593   3.312   5.549   1.641
 8565SOL    HW126594   3.275   5.635   1.604
 8565SOL    HW226595   3.246   5.476   1.626
 8566SOL     OW26596   2.617   1.021   2.675
 8566SOL    HW126597   2.616   1.001   2.577
 8566SOL    HW226598   2.526   1.009   2.713
 8567SOL     OW26599   1.206   1.764   1.588
 8567SOL    HW126600   1.215   1.667   1.611
 8567SOL    HW226601   1.272   1.788   1.516
 8568SOL     OW26602   0.010   1.278   0.598
 8568SOL    HW126603   0.074   1.220   0.549
 8568SOL    HW226604   6.945   1.277   0.552
 8569SOL     OW26605   5.296   2.372   5.889
 8569SOL    HW126606   5.303   2.285   5.839
 8569SOL    HW226607   5.387   2.408   5.907
 8570SOL     OW26608   1.769   1.744   4.426
 8570SOL    HW126609   1.772   1.829   4.479
 8570SOL    HW226610   1.674   1.724   4.401
 8571SOL     OW26611   1.737   1.442   4.512
 8571SOL    HW126612   1.743   1.525   4.457
 8571SOL    HW226613   1.652   1.394   4.491
 8572SOL     OW26614   2.919   4.130   5.315
 8572SOL    HW126615   2.858   4.209   5.323
 8572SOL    HW226616   2.988   4.148   5.245
 8573SOL     OW26617   2.827   6.043   6.801
 8573SOL    HW126618   2.729   6.025   6.788
 8573SOL    HW226619   2.879   5.999   6.728
 8574SOL     OW26620   6.718   0.137   6.069
 8574SOL    HW126621   6.743   0.101   6.159
 8574SOL    HW226622   6.651   0.211   6.080
 8575SOL     OW26623   3.627   0.349   2.428
 8575SOL    HW126624   3.633   0.348   2.328
 8575SOL    HW226625   3.716   0.324   2.467
 8576SOL     OW26626   0.941   4.061   4.246
 8576SOL    HW126627   1.014   4.128   4.256
 8576SOL    HW226628   0.862   4.103   4.202
 8577SOL     OW26629   1.782   0.829   6.126
 8577SOL    HW126630   1.859   0.869   6.177
 8577SOL    HW226631   1.805   0.735   6.099
 8578SOL     OW26632   6.632   6.383   5.755
 8578SOL    HW126633   6.560   6.317   5.738
 8578SOL    HW226634   6.649   6.437   5.672
 8579SOL     OW26635   2.234   6.299   2.180
 8579SOL    HW126636   2.328   6.310   2.149
 8579SOL    HW226637   2.222   6.208   2.220
 8580SOL     OW26638   0.903   6.323   1.374
 8580SOL    HW126639   0.867   6.409   1.407
 8580SOL    HW226640   1.001   6.333   1.354
 8581SOL     OW26641   3.554   5.364   1.748
 8581SOL    HW126642   3.473   5.397   1.699
 8581SOL    HW226643   3.634   5.416   1.720
 8582SOL     OW26644   4.038   4.654   5.575
 8582SOL    HW126645   3.976   4.730   5.554
 8582SOL    HW226646   4.123   4.691   5.613
 8583SOL     OW26647   4.204   0.369   3.153
 8583SOL    HW126648   4.148   0.292   3.181
 8583SOL    HW226649   4.162   0.415   3.074
 8584SOL     OW26650   6.794   1.070   4.664
 8584SOL    HW126651   6.829   1.163   4.653
 8584SOL    HW226652   6.735   1.047   4.587
 8585SOL     OW26653   5.910   2.003   1.122
 8585SOL    HW126654   5.827   1.971   1.076
 8585SOL    HW226655   5.969   1.924   1.142
 8586SOL     OW26656   5.624   6.546   1.390
 8586SOL    HW126657   5.554   6.532   1.459
 8586SOL    HW226658   5.599   6.497   1.306
 8587SOL     OW26659   1.064   2.015   4.575
 8587SOL    HW126660   1.046   1.948   4.503
 8587SOL    HW226661   1.131   1.977   4.639
 8588SOL     OW26662   4.037   1.651   0.063
 8588SOL    HW126663   4.051   1.561   0.105
 8588SOL    HW226664   4.077   1.721   0.122
 8589SOL     OW26665   6.600   2.802   5.139
 8589SOL    HW126666   6.622   2.899   5.132
 8589SOL    HW226667   6.594   2.763   5.047
 8590SOL     OW26668   6.815   0.010   3.054
 8590SOL    HW126669   6.736   6.981   3.025
 8590SOL    HW226670   6.895   6.974   3.058
 8591SOL     OW26671   6.232   4.593   0.692
 8591SOL    HW126672   6.296   4.667   0.715
 8591SOL    HW226673   6.226   4.530   0.769
 8592SOL     OW26674   0.443   2.373   6.972
 8592SOL    HW126675   0.356   2.325   6.984
 8592SOL    HW226676   0.441   2.423   6.886
 8593SOL     OW26677   3.088   0.554   6.670
 8593SOL    HW126678   3.085   0.540   6.769
 8593SOL    HW226679   3.001   0.529   6.629
 8594SOL     OW26680   6.247   2.787   5.806
 8594SOL    HW126681   6.195   2.702   5.812
 8594SOL    HW226682   6.194   2.862   5.846
 8595SOL     OW26683   5.380   6.908   3.303
 8595SOL    HW126684   5.389   7.006   3.321
 8595SOL    HW226685   5.346   6.894   3.210
 8596SOL     OW26686   1.443   3.842   3.338
 8596SOL    HW126687   1.418   3.858   3.242
 8596SOL    HW226688   1.363   3.858   3.396
 8597SOL     OW26689   6.378   2.601   0.529
 8597SOL    HW126690   6.370   2.566   0.435
 8597SOL    HW226691   6.336   2.692   0.534
 8598SOL     OW26692   5.646   0.858   4.871
 8598SOL    HW126693   5.710   0.885   4.943
 8598SOL    HW226694   5.645   0.929   4.800
 8599SOL     OW26695   1.695   3.117   3.814
 8599SOL    HW126696   1.706   3.155   3.905
 8599SOL    HW226697   1.731   3.024   3.812
 8600SOL     OW26698   4.974   3.687   1.044
 8600SOL    HW126699   4.961   3.753   1.117
 8600SOL    HW226700   5.017   3.604   1.080
 8601SOL     OW26701   0.454   0.703   3.690
 8601SOL    HW126702   0.401   0.782   3.720
 8601SOL    HW226703   0.551   0.725   3.689
 8602SOL     OW26704   2.400   6.787   3.119
 8602SOL    HW126705   2.384   6.688   3.114
 8602SOL    HW226706   2.313   6.835   3.110
 8603SOL     OW26707   5.610   1.320   6.707
 8603SOL    HW126708   5.642   1.248   6.647
 8603SOL    HW226709   5.511   1.328   6.700
 8604SOL     OW26710   0.849   2.817   6.348
 8604SOL    HW126711   0.921   2.881   6.323
 8604SOL    HW226712   0.823   2.762   6.269
 8605SOL     OW26713   0.930   4.527   4.334
 8605SOL    HW126714   1.012   4.582   4.348
 8605SOL    HW226715   0.893   4.544   4.242
 8606SOL     OW26716   2.813   2.324   6.718
 8606SOL    HW126717   2.736   2.271   6.681
 8606SOL    HW226718   2.886   2.328   6.651
 8607SOL     OW26719   1.768   4.831   0.377
 8607SOL    HW126720   1.847   4.885   0.346
 8607SOL    HW226721   1.697   4.892   0.411
 8608SOL     OW26722   2.016   4.700   2.457
 8608SOL    HW126723   1.948   4.709   2.384
 8608SOL    HW226724   2.061   4.611   2.448
 8609SOL     OW26725   4.938   0.887   3.684
 8609SOL    HW126726   4.982   0.802   3.713
 8609SOL    HW226727   4.840   0.871   3.670
 8610SOL     OW26728   6.923   6.491   3.066
 8610SOL    HW126729   6.859   6.568   3.072
 8610SOL    HW226730   6.926   6.444   3.153
 8611SOL     OW26731   2.936   0.713   4.120
 8611SOL    HW126732   2.966   0.741   4.211
 8611SOL    HW226733   2.884   0.787   4.077
 8612SOL     OW26734   3.065   3.229   2.510
 8612SOL    HW126735   2.982   3.193   2.552
 8612SOL    HW226736   3.142   3.219   2.573
 8613SOL     OW26737   2.546   2.570   1.529
 8613SOL    HW126738   2.589   2.535   1.612
 8613SOL    HW226739   2.457   2.610   1.552
 8614SOL     OW26740   1.004   2.739   2.691
 8614SOL    HW126741   1.048   2.666   2.638
 8614SOL    HW226742   0.922   2.771   2.644
 8615SOL     OW26743   5.007   2.013   4.615
 8615SOL    HW126744   4.946   1.937   4.638
 8615SOL    HW226745   5.018   2.018   4.516
 8616SOL     OW26746   2.899   4.824   2.430
 8616SOL    HW126747   2.989   4.832   2.471
 8616SOL    HW226748   2.908   4.795   2.335
 8617SOL     OW26749   5.591   0.197   3.843
 8617SOL    HW126750   5.606   0.102   3.814
 8617SOL    HW226751   5.540   0.198   3.929
 8618SOL     OW26752   6.402   3.815   0.793
 8618SOL    HW126753   6.414   3.873   0.873
 8618SOL    HW226754   6.465   3.845   0.721
 8619SOL     OW26755   4.354   5.202   2.888
 8619SOL    HW126756   4.327   5.107   2.904
 8619SOL    HW226757   4.450   5.205   2.860
 8620SOL     OW26758   1.372   0.265   4.416
 8620SOL    HW126759   1.353   0.321   4.497
 8620SOL    HW226760   1.294   0.270   4.353
 8621SOL     OW26761   4.875   2.856   2.067
 8621SOL    HW126762   4.971   2.878   2.083
 8621SOL    HW226763   4.824   2.940   2.049
 8622SOL     OW26764   6.394   5.101   2.073
 8622SOL    HW126765   6.342   5.035   2.127
 8622SOL    HW226766   6.369   5.194   2.101
 8623SOL     OW26767   6.990   3.474   4.732
 8623SOL    HW126768   0.042   3.483   4.797
 8623SOL    HW226769   6.941   3.388   4.750
 8624SOL     OW26770   3.637   3.415   6.361
 8624SOL    HW126771   3.617   3.328   6.407
 8624SOL    HW226772   3.730   3.443   6.383
 8625SOL     OW26773   4.303   1.152   6.075
 8625SOL    HW126774   4.321   1.089   6.150
 8625SOL    HW226775   4.389   1.186   6.038
 8626SOL     OW26776   3.842   2.677   0.746
 8626SOL    HW126777   3.936   2.694   0.717
 8626SOL    HW226778   3.838   2.673   0.846
 8627SOL     OW26779   1.915   1.630   2.387
 8627SOL    HW126780   1.897   1.598   2.480
 8627SOL    HW226781   1.976   1.710   2.390
 8628SOL     OW26782   6.637   6.922   0.318
 8628SOL    HW126783   6.680   6.896   0.232
 8628SOL    HW226784   6.557   6.979   0.300
 8629SOL     OW26785   0.918   6.750   4.727
 8629SOL    HW126786   0.950   6.676   4.786
 8629SOL    HW226787   0.838   6.720   4.676
 8630SOL     OW26788   4.893   3.417   3.492
 8630SOL    HW126789   4.988   3.388   3.489
 8630SOL    HW226790   4.882   3.488   3.561
 8631SOL     OW26791   2.264   6.122   6.277
 8631SOL    HW126792   2.324   6.070   6.216
 8631SOL    HW226793   2.190   6.062   6.309
 8632SOL     OW26794   4.040   4.564   5.291
 8632SOL    HW126795   4.040   4.600   5.385
 8632SOL    HW226796   4.134   4.560   5.258
 8633SOL     OW26797   5.523   3.666   5.654
 8633SOL    HW126798   5.478   3.738   5.601
 8633SOL    HW226799   5.535   3.585   5.597
 8634SOL     OW26800   5.306   4.766   0.335
 8634SOL    HW126801   5.357   4.814   0.407
 8634SOL    HW226802   5.371   4.730   0.268
 8635SOL     OW26803   6.345   2.435   6.710
 8635SOL    HW126804   6.269   2.476   6.660
 8635SOL    HW226805   6.381   2.357   6.658
 8636SOL     OW26806   4.162   5.689   0.158
 8636SOL    HW126807   4.065   5.696   0.133
 8636SOL    HW226808   4.214   5.756   0.107
 8637SOL     OW26809   2.211   1.368   5.952
 8637SOL    HW126810   2.248   1.390   6.043
 8637SOL    HW226811   2.151   1.442   5.922
 8638SOL     OW26812   3.988   2.662   5.312
 8638SOL    HW126813   4.037   2.591   5.261
 8638SOL    HW226814   4.048   2.740   5.328
 8639SOL     OW26815   5.005   3.486   6.932
 8639SOL    HW126816   4.950   3.455   6.855
 8639SOL    HW226817   4.950   3.484   7.015
 8640SOL     OW26818   4.008   3.210   1.528
 8640SOL    HW126819   4.081   3.165   1.476
 8640SOL    HW226820   3.929   3.150   1.533
 8641SOL     OW26821   4.289   5.048   3.622
 8641SOL    HW126822   4.355   5.058   3.697
 8641SOL    HW226823   4.327   5.088   3.539
 8642SOL     OW26824   7.009   6.741   3.623
 8642SOL    HW126825   7.020   6.735   3.722
 8642SOL    HW226826   0.066   6.782   3.582
 8643SOL     OW26827   1.951   6.873   0.440
 8643SOL    HW126828   2.027   6.830   0.488
 8643SOL    HW226829   1.980   6.962   0.405
 8644SOL     OW26830   6.176   2.388   6.176
 8644SOL    HW126831   6.135   2.337   6.100
 8644SOL    HW226832   6.111   2.392   6.251
 8645SOL     OW26833   4.858   4.761   1.548
 8645SOL    HW126834   4.886   4.816   1.470
 8645SOL    HW226835   4.908   4.674   1.547
 8646SOL     OW26836   0.460   2.092   6.524
 8646SOL    HW126837   0.551   2.073   6.558
 8646SOL    HW226838   0.397   2.108   6.600
 8647SOL     OW26839   2.828   5.624   1.026
 8647SOL    HW126840   2.749   5.578   0.986
 8647SOL    HW226841   2.809   5.722   1.033
 8648SOL     OW26842   5.597   6.414   1.148
 8648SOL    HW126843   5.578   6.378   1.056
 8648SOL    HW226844   5.689   6.453   1.150
 8649SOL     OW26845   4.583   6.549   6.919
 8649SOL    HW126846   4.647   6.543   6.843
 8649SOL    HW226847   4.562   6.645   6.937
 8650SOL     OW26848   1.390   6.910   4.213
 8650SOL    HW126849   1.390   6.899   4.114
 8650SOL    HW226850   1.404   6.821   4.257
 8651SOL     OW26851   3.001   1.485   1.035
 8651SOL    HW126852   3.036   1.443   0.951
 8651SOL    HW226853   3.041   1.576   1.045
 8652SOL     OW26854   0.869   4.870   4.179
 8652SOL    HW126855   0.901   4.964   4.181
 8652SOL    HW226856   0.817   4.850   4.262
 8653SOL     OW26857   6.255   1.547   5.623
 8653SOL    HW126858   6.205   1.560   5.538
 8653SOL    HW226859   6.340   1.600   5.620
 8654SOL     OW26860   0.809   4.941   1.036
 8654SOL    HW126861   0.760   4.898   1.112
 8654SOL    HW226862   0.812   4.877   0.959
 8655SOL     OW26863   6.296   0.915   5.171
 8655SOL    HW126864   6.279   0.821   5.143
 8655SOL    HW226865   6.393   0.936   5.158
 8656SOL     OW26866   5.559   0.449   2.214
 8656SOL    HW126867   5.569   0.532   2.160
 8656SOL    HW226868   5.471   0.452   2.263
 8657SOL     OW26869   6.169   6.002   0.198
 8657SOL    HW126870   6.098   5.964   0.138
 8657SOL    HW226871   6.129   6.073   0.256
 8658SOL     OW26872   5.486   5.487   0.798
 8658SOL    HW126873   5.560   5.532   0.848
 8658SOL    HW226874   5.457   5.546   0.722
 8659SOL     OW26875   4.528   2.573   3.124
 8659SOL    HW126876   4.559   2.662   3.156
 8659SOL    HW226877   4.487   2.523   3.200
 8660SOL     OW26878   0.394   2.338   1.999
 8660SOL    HW126879   0.468   2.340   1.932
 8660SOL    HW226880   0.309   2.311   1.953
 8661SOL     OW26881   5.895   3.401   2.669
 8661SOL    HW126882   5.989   3.435   2.673
 8661SOL    HW226883   5.849   3.441   2.589
 8662SOL     OW26884   3.259   6.273   2.141
 8662SOL    HW126885   3.206   6.273   2.226
 8662SOL    HW226886   3.356   6.267   2.163
 8663SOL     OW26887   2.651   5.358   3.040
 8663SOL    HW126888   2.623   5.287   3.105
 8663SOL    HW226889   2.673   5.316   2.952
 8664SOL     OW26890   2.472   5.576   3.123
 8664SOL    HW126891   2.522   5.499   3.083
 8664SOL    HW226892   2.532   5.626   3.186
 8665SOL     OW26893   6.651   5.433   5.488
 8665SOL    HW126894   6.750   5.442   5.474
 8665SOL    HW226895   6.631   5.339   5.518
 8666SOL     OW26896   5.644   0.000   4.366
 8666SOL    HW126897   5.669   0.081   4.419
 8666SOL    HW226898   5.725   6.988   4.320
 8667SOL     OW26899   5.033   0.998   4.801
 8667SOL    HW126900   5.107   1.055   4.837
 8667SOL    HW226901   5.056   0.970   4.708
 8668SOL     OW26902   5.250   3.056   4.809
 8668SOL    HW126903   5.281   3.061   4.904
 8668SOL    HW226904   5.278   2.968   4.769
 8669SOL     OW26905   6.645   6.921   6.555
 8669SOL    HW126906   6.716   6.855   6.580
 8669SOL    HW226907   6.666   7.010   6.596
 8670SOL     OW26908   5.645   5.243   5.964
 8670SOL    HW126909   5.565   5.250   6.024
 8670SOL    HW226910   5.624   5.183   5.887
 8671SOL     OW26911   0.666   1.617   2.161
 8671SOL    HW126912   0.618   1.622   2.248
 8671SOL    HW226913   0.600   1.624   2.086
 8672SOL     OW26914   0.113   6.998   3.812
 8672SOL    HW126915   0.129   0.027   3.895
 8672SOL    HW226916   0.181   7.022   3.743
 8673SOL     OW26917   6.839   1.617   0.299
 8673SOL    HW126918   6.813   1.686   0.231
 8673SOL    HW226919   6.822   1.526   0.262
 8674SOL     OW26920   6.582   4.070   2.878
 8674SOL    HW126921   6.544   3.979   2.862
 8674SOL    HW226922   6.670   4.078   2.832
 8675SOL     OW26923   4.088   1.088   5.790
 8675SOL    HW126924   4.115   1.165   5.847
 8675SOL    HW226925   4.074   1.120   5.696
 8676SOL     OW26926   5.580   1.025   1.225
 8676SOL    HW126927   5.526   1.095   1.272
 8676SOL    HW226928   5.522   0.977   1.159
 8677SOL     OW26929   2.027   6.251   5.768
 8677SOL    HW126930   2.037   6.156   5.738
 8677SOL    HW226931   2.117   6.290   5.786
 8678SOL     OW26932   0.919   6.858   0.696
 8678SOL    HW126933   0.975   6.861   0.614
 8678SOL    HW226934   0.823   6.874   0.672
 8679SOL     OW26935   1.795   1.474   4.100
 8679SOL    HW126936   1.834   1.389   4.135
 8679SOL    HW226937   1.744   1.455   4.016
 8680SOL     OW26938   6.596   2.698   6.385
 8680SOL    HW126939   6.556   2.606   6.391
 8680SOL    HW226940   6.678   2.701   6.443
 8681SOL     OW26941   4.266   5.487   1.478
 8681SOL    HW126942   4.337   5.487   1.407
 8681SOL    HW226943   4.291   5.421   1.549
 8682SOL     OW26944   6.712   0.255   1.119
 8682SOL    HW126945   6.749   0.348   1.114
 8682SOL    HW226946   6.782   0.193   1.153
 8683SOL     OW26947   1.399   3.363   4.561
 8683SOL    HW126948   1.487   3.393   4.524
 8683SOL    HW226949   1.415   3.292   4.630
 8684SOL     OW26950   0.071   3.564   4.490
 8684SOL    HW126951   0.033   3.506   4.562
 8684SOL    HW226952   0.063   3.660   4.517
 8685SOL     OW26953   5.444   2.676   6.737
 8685SOL    HW126954   5.345   2.671   6.724
 8685SOL    HW226955   5.486   2.717   6.657
 8686SOL     OW26956   6.158   6.591   3.017
 8686SOL    HW126957   6.072   6.625   2.980
 8686SOL    HW226958   6.161   6.491   3.010
 8687SOL     OW26959   6.165   4.166   2.816
 8687SOL    HW126960   6.199   4.102   2.885
 8687SOL    HW226961   6.096   4.121   2.760
 8688SOL     OW26962   1.888   4.376   6.610
 8688SOL    HW126963   1.870   4.423   6.524
 8688SOL    HW226964   1.820   4.303   6.623
 8689SOL     OW26965   4.610   3.228   0.256
 8689SOL    HW126966   4.592   3.153   0.320
 8689SOL    HW226967   4.550   3.305   0.277
 8690SOL     OW26968   1.188   2.388   2.790
 8690SOL    HW126969   1.206   2.308   2.847
 8690SOL    HW226970   1.107   2.435   2.824
 8691SOL     OW26971   3.723   1.602   5.246
 8691SOL    HW126972   3.686   1.636   5.333
 8691SOL    HW226973   3.741   1.679   5.185
 8692SOL     OW26974   3.910   2.028   5.522
 8692SOL    HW126975   3.976   2.082   5.574
 8692SOL    HW226976   3.872   1.957   5.581
 8693SOL     OW26977   6.727   1.356   6.587
 8693SOL    HW126978   6.713   1.298   6.506
 8693SOL    HW226979   6.654   1.340   6.653
 8694SOL     OW26980   6.072   2.366   4.984
 8694SOL    HW126981   6.066   2.282   4.929
 8694SOL    HW226982   6.010   2.358   5.062
 8695SOL     OW26983   4.232   3.171   6.529
 8695SOL    HW126984   4.296   3.220   6.588
 8695SOL    HW226985   4.200   3.089   6.576
 8696SOL     OW26986   2.357   6.051   5.069
 8696SOL    HW126987   2.364   5.971   5.009
 8696SOL    HW226988   2.273   6.101   5.048
 8697SOL     OW26989   1.250   4.559   6.022
 8697SOL    HW126990   1.266   4.636   5.961
 8697SOL    HW226991   1.265   4.587   6.117
 8698SOL     OW26992   5.166   5.862   6.161
 8698SOL    HW126993   5.155   5.941   6.222
 8698SOL    HW226994   5.102   5.790   6.188
 8699SOL     OW26995   2.062   3.245   6.439
 8699SOL    HW126996   2.097   3.197   6.359
 8699SOL    HW226997   2.096   3.339   6.438
 8700SOL     OW26998   1.134   0.844   5.516
 8700SOL    HW126999   1.140   0.783   5.437
 8700SOL    HW227000   1.134   0.789   5.600
 8701SOL     OW27001   1.649   1.487   6.782
 8701SOL    HW127002   1.699   1.573   6.770
 8701SOL    HW227003   1.565   1.489   6.728
 8702SOL     OW27004   5.094   5.202   2.040
 8702SOL    HW127005   5.020   5.255   2.082
 8702SOL    HW227006   5.082   5.203   1.940
 8703SOL     OW27007   2.994   4.633   6.838
 8703SOL    HW127008   3.072   4.689   6.867
 8703SOL    HW227009   2.980   4.644   6.740
 8704SOL     OW27010   6.981   2.938   4.111
 8704SOL    HW127011   0.055   2.924   4.099
 8704SOL    HW227012   6.958   2.933   4.208
 8705SOL     OW27013   4.814   2.147   6.692
 8705SOL    HW127014   4.865   2.174   6.774
 8705SOL    HW227015   4.718   2.135   6.716
 8706SOL     OW27016   5.723   2.648   0.112
 8706SOL    HW127017   5.683   2.683   0.028
 8706SOL    HW227018   5.816   2.682   0.122
 8707SOL     OW27019   0.927   2.254   3.717
 8707SOL    HW127020   0.946   2.349   3.744
 8707SOL    HW227021   0.833   2.248   3.682
 8708SOL     OW27022   4.769   1.911   4.251
 8708SOL    HW127023   4.813   1.862   4.176
 8708SOL    HW227024   4.727   1.995   4.215
 8709SOL     OW27025   6.926   0.220   6.829
 8709SOL    HW127026   6.855   0.183   6.890
 8709SOL    HW227027   6.889   0.227   6.736
 8710SOL     OW27028   2.084   2.013   3.590
 8710SOL    HW127029   2.122   1.921   3.575
 8710SOL    HW227030   2.113   2.046   3.680
 8711SOL     OW27031   0.962   0.803   1.564
 8711SOL    HW127032   1.000   0.869   1.629
 8711SOL    HW227033   1.032   0.736   1.540
 8712SOL     OW27034   2.918   1.617   4.970
 8712SOL    HW127035   2.846   1.684   4.988
 8712SOL    HW227036   2.945   1.575   5.056
 8713SOL     OW27037   0.579   4.248   1.362
 8713SOL    HW127038   0.528   4.249   1.277
 8713SOL    HW227039   0.571   4.159   1.406
 8714SOL     OW27040   0.530   6.790   0.365
 8714SOL    HW127041   0.468   6.795   0.287
 8714SOL    HW227042   0.510   6.708   0.419
 8715SOL     OW27043   3.156   1.870   6.958
 8715SOL    HW127044   3.229   1.938   6.971
 8715SOL    HW227045   3.167   1.797   0.001
 8716SOL     OW27046   0.279   6.588   1.097
 8716SOL    HW127047   0.186   6.595   1.061
 8716SOL    HW227048   0.289   6.504   1.150
 8717SOL     OW27049   2.447   3.431   6.290
 8717SOL    HW127050   2.410   3.488   6.363
 8717SOL    HW227051   2.473   3.342   6.328
 8718SOL     OW27052   1.461   2.887   6.330
 8718SOL    HW127053   1.538   2.875   6.267
 8718SOL    HW227054   1.432   2.983   6.330
 8719SOL     OW27055   4.388   1.356   0.182
 8719SOL    HW127056   4.367   1.431   0.246
 8719SOL    HW227057   4.449   1.291   0.226
 8720SOL     OW27058   6.902   5.476   5.403
 8720SOL    HW127059   6.926   5.529   5.322
 8720SOL    HW227060   6.962   5.502   5.479
 8721SOL     OW27061   6.376   6.987   6.704
 8721SOL    HW127062   6.437   0.040   6.726
 8721SOL    HW227063   6.412   6.938   6.624
 8722SOL     OW27064   2.916   0.484   0.604
 8722SOL    HW127065   2.939   0.399   0.651
 8722SOL    HW227066   3.000   0.528   0.571
 8723SOL     OW27067   5.362   6.778   2.038
 8723SOL    HW127068   5.296   6.772   2.113
 8723SOL    HW227069   5.453   6.794   2.076
 8724SOL     OW27070   5.381   6.996   4.558
 8724SOL    HW127071   5.443   7.017   4.483
 8724SOL    HW227072   5.403   6.907   4.596
 8725SOL     OW27073   0.058   6.407   4.550
 8725SOL    HW127074   0.080   6.504   4.561
 8725SOL    HW227075   0.140   6.358   4.520
 8726SOL     OW27076   6.817   1.274   0.393
 8726SOL    HW127077   6.797   1.177   0.407
 8726SOL    HW227078   6.735   1.328   0.416
 8727SOL     OW27079   6.185   0.366   6.925
 8727SOL    HW127080   6.265   0.329   6.972
 8727SOL    HW227081   6.184   0.334   6.830
 8728SOL     OW27082   5.393   1.518   2.553
 8728SOL    HW127083   5.293   1.520   2.551
 8728SOL    HW227084   5.425   1.426   2.531
 8729SOL     OW27085   2.894   5.042   5.267
 8729SOL    HW127086   2.932   5.132   5.248
 8729SOL    HW227087   2.911   5.018   5.363
 8730SOL     OW27088   5.578   4.178   3.144
 8730SOL    HW127089   5.552   4.162   3.049
 8730SOL    HW227090   5.509   4.139   3.206
 8731SOL     OW27091   0.356   2.732   2.761
 8731SOL    HW127092   0.305   2.791   2.825
 8731SOL    HW227093   0.296   2.705   2.686
 8732SOL     OW27094   4.982   4.475   1.261
 8732SOL    HW127095   4.883   4.482   1.249
 8732SOL    HW227096   5.006   4.497   1.355
 8733SOL     OW27097   0.604   5.693   1.264
 8733SOL    HW127098   0.668   5.722   1.336
 8733SOL    HW227099   0.642   5.614   1.216
 8734SOL     OW27100   6.805   3.401   1.834
 8734SOL    HW127101   6.816   3.462   1.912
 8734SOL    HW227102   6.883   3.339   1.828
 8735SOL     OW27103   1.371   3.612   5.164
 8735SOL    HW127104   1.328   3.525   5.184
 8735SOL    HW227105   1.311   3.667   5.106
 8736SOL     OW27106   0.724   5.511   1.891
 8736SOL    HW127107   0.632   5.545   1.907
 8736SOL    HW227108   0.733   5.483   1.795
 8737SOL     OW27109   2.922   5.545   6.161
 8737SOL    HW127110   2.891   5.490   6.238
 8737SOL    HW227111   3.021   5.538   6.153
 8738SOL     OW27112   1.568   3.881   3.698
 8738SOL    HW127113   1.566   3.880   3.798
 8738SOL    HW227114   1.658   3.909   3.666
 8739SOL     OW27115   5.229   4.101   5.178
 8739SOL    HW127116   5.293   4.037   5.137
 8739SOL    HW227117   5.278   4.184   5.207
 8740SOL     OW27118   3.929   2.175   2.859
 8740SOL    HW127119   3.987   2.235   2.913
 8740SOL    HW227120   3.934   2.201   2.763
 8741SOL     OW27121   2.183   6.963   2.375
 8741SOL    HW127122   2.144   6.935   2.463
 8741SOL    HW227123   2.257   0.004   2.390
 8742SOL     OW27124   3.707   0.799   2.529
 8742SOL    HW127125   3.656   0.730   2.581
 8742SOL    HW227126   3.679   0.890   2.559
 8743SOL     OW27127   1.824   1.059   1.695
 8743SOL    HW127128   1.868   0.970   1.703
 8743SOL    HW227129   1.880   1.119   1.638
 8744SOL     OW27130   4.838   2.998   7.002
 8744SOL    HW127131   4.744   3.020   0.007
 8744SOL    HW227132   4.893   3.081   7.004
 8745SOL     OW27133   6.674   2.081   6.505
 8745SOL    HW127134   6.727   2.013   6.454
 8745SOL    HW227135   6.624   2.140   6.440
 8746SOL     OW27136   4.883   4.822   4.257
 8746SOL    HW127137   4.967   4.808   4.205
 8746SOL    HW227138   4.904   4.826   4.354
 8747SOL     OW27139   6.414   1.101   2.457
 8747SOL    HW127140   6.514   1.106   2.454
 8747SOL    HW227141   6.385   1.050   2.537
 8748SOL     OW27142   1.096   1.522   3.902
 8748SOL    HW127143   1.072   1.428   3.875
 8748SOL    HW227144   1.083   1.583   3.823
 8749SOL     OW27145   2.297   1.231   5.439
 8749SOL    HW127146   2.313   1.277   5.527
 8749SOL    HW227147   2.362   1.156   5.429
 8750SOL     OW27148   4.184   2.830   5.974
 8750SOL    HW127149   4.136   2.757   5.926
 8750SOL    HW227150   4.128   2.861   6.051
 8751SOL     OW27151   6.704   0.047   0.580
 8751SOL    HW127152   6.704   0.020   0.484
 8751SOL    HW227153   6.612   0.074   0.607
 8752SOL     OW27154   5.404   3.148   6.900
 8752SOL    HW127155   5.344   3.102   6.965
 8752SOL    HW227156   5.451   3.223   6.946
 8753SOL     OW27157   2.221   3.339   6.833
 8753SOL    HW127158   2.271   3.373   6.912
 8753SOL    HW227159   2.152   3.273   6.863
 8754SOL     OW27160   2.857   5.065   6.100
 8754SOL    HW127161   2.902   5.102   6.019
 8754SOL    HW227162   2.760   5.048   6.079
 8755SOL     OW27163   1.104   1.109   0.843
 8755SOL    HW127164   1.157   1.034   0.883
 8755SOL    HW227165   1.094   1.094   0.745
 8756SOL     OW27166   2.198   3.110   3.721
 8756SOL    HW127167   2.265   3.148   3.657
 8756SOL    HW227168   2.130   3.180   3.742
 8757SOL     OW27169   4.929   6.246   5.947
 8757SOL    HW127170   4.942   6.275   6.042
 8757SOL    HW227171   4.943   6.324   5.886
 8758SOL     OW27172   4.319   0.013   3.360
 8758SOL    HW127173   4.222   7.014   3.354
 8758SOL    HW227174   4.367   6.966   3.412
 8759SOL     OW27175   6.431   1.776   0.043
 8759SOL    HW127176   6.522   1.785   0.004
 8759SOL    HW227177   6.366   1.754   6.994
 8760SOL     OW27178   2.230   2.043   3.815
 8760SOL    HW127179   2.221   2.054   3.914
 8760SOL    HW227180   2.317   1.997   3.795
 8761SOL     OW27181   5.159   1.742   2.109
 8761SOL    HW127182   5.246   1.695   2.098
 8761SOL    HW227183   5.084   1.681   2.084
 8762SOL     OW27184   1.843   6.122   4.042
 8762SOL    HW127185   1.929   6.074   4.025
 8762SOL    HW227186   1.803   6.088   4.127
 8763SOL     OW27187   6.588   1.045   4.861
 8763SOL    HW127188   6.628   1.056   4.770
 8763SOL    HW227189   6.555   1.133   4.894
 8764SOL     OW27190   4.276   5.907   6.067
 8764SOL    HW127191   4.202   5.879   6.005
 8764SOL    HW227192   4.301   6.001   6.048
 8765SOL     OW27193   6.111   1.216   5.227
 8765SOL    HW127194   6.032   1.277   5.213
 8765SOL    HW227195   6.088   1.144   5.292
 8766SOL     OW27196   4.329   4.150   5.645
 8766SOL    HW127197   4.279   4.234   5.662
 8766SOL    HW227198   4.348   4.142   5.547
 8767SOL     OW27199   3.270   0.146   3.699
 8767SOL    HW127200   3.319   0.061   3.718
 8767SOL    HW227201   3.331   0.211   3.655
 8768SOL     OW27202   0.870   2.166   6.946
 8768SOL    HW127203   0.775   2.176   6.977
 8768SOL    HW227204   0.894   2.069   6.943
 8769SOL     OW27205   6.396   1.291   1.487
 8769SOL    HW127206   6.467   1.253   1.546
 8769SOL    HW227207   6.332   1.219   1.459
 8770SOL     OW27208   5.400   4.137   2.153
 8770SOL    HW127209   5.323   4.075   2.137
 8770SOL    HW227210   5.365   4.230   2.166
 8771SOL     OW27211   0.490   3.334   6.531
 8771SOL    HW127212   0.580   3.377   6.520
 8771SOL    HW227213   0.492   3.243   6.488
 8772SOL     OW27214   5.328   0.731   4.742
 8772SOL    HW127215   5.373   0.653   4.698
 8772SOL    HW227216   5.232   0.709   4.758
 8773SOL     OW27217   5.765   2.515   3.803
 8773SOL    HW127218   5.813   2.561   3.728
 8773SOL    HW227219   5.671   2.550   3.809
 8774SOL     OW27220   0.459   6.849   6.914
 8774SOL    HW127221   0.453   6.847   6.814
 8774SOL    HW227222   0.539   6.902   6.942
 8775SOL     OW27223   5.794   1.706   4.933
 8775SOL    HW127224   5.839   1.617   4.945
 8775SOL    HW227225   5.799   1.733   4.837
 8776SOL     OW27226   4.678   3.413   1.165
 8776SOL    HW127227   4.705   3.420   1.261
 8776SOL    HW227228   4.591   3.364   1.158
 8777SOL     OW27229   0.861   3.328   2.935
 8777SOL    HW127230   0.821   3.272   2.863
 8777SOL    HW227231   0.904   3.270   3.004
 8778SOL     OW27232   4.188   4.218   5.961
 8778SOL    HW127233   4.195   4.280   5.883
 8778SOL    HW227234   4.254   4.244   6.031
 8779SOL     OW27235   3.069   5.097   2.315
 8779SOL    HW127236   3.039   5.073   2.223
 8779SOL    HW227237   2.991   5.093   2.377
 8780SOL     OW27238   0.332   5.556   2.313
 8780SOL    HW127239   0.242   5.534   2.277
 8780SOL    HW227240   0.345   5.655   2.312
 8781SOL     OW27241   4.585   0.169   2.814
 8781SOL    HW127242   4.521   0.197   2.885
 8781SOL    HW227243   4.584   0.236   2.740
 8782SOL     OW27244   5.536   1.415   1.782
 8782SOL    HW127245   5.587   1.476   1.720
 8782SOL    HW227246   5.590   1.400   1.865
 8783SOL     OW27247   5.770   2.760   4.230
 8783SOL    HW127248   5.804   2.686   4.288
 8783SOL    HW227249   5.832   2.771   4.152
 8784SOL     OW27250   6.200   6.018   0.813
 8784SOL    HW127251   6.185   5.988   0.718
 8784SOL    HW227252   6.247   6.106   0.813
 8785SOL     OW27253   0.746   5.539   6.127
 8785SOL    HW127254   0.725   5.590   6.210
 8785SOL    HW227255   0.696   5.577   6.050
 8786SOL     OW27256   3.912   2.098   2.574
 8786SOL    HW127257   4.002   2.112   2.533
 8786SOL    HW227258   3.845   2.083   2.501
 8787SOL     OW27259   3.525   0.665   1.382
 8787SOL    HW127260   3.563   0.583   1.338
 8787SOL    HW227261   3.476   0.720   1.314
 8788SOL     OW27262   6.854   1.077   5.022
 8788SOL    HW127263   6.885   0.986   5.050
 8788SOL    HW227264   6.765   1.069   4.977
 8789SOL     OW27265   0.028   3.909   5.246
 8789SOL    HW127266   6.986   3.881   5.315
 8789SOL    HW227267   0.094   3.973   5.286
 8790SOL     OW27268   6.366   2.148   0.364
 8790SOL    HW127269   6.279   2.183   0.400
 8790SOL    HW227270   6.356   2.052   0.339
 8791SOL     OW27271   4.753   6.216   5.214
 8791SOL    HW127272   4.783   6.144   5.151
 8791SOL    HW227273   4.656   6.205   5.234
 8792SOL     OW27274   3.994   5.399   2.046
 8792SOL    HW127275   3.894   5.407   2.050
 8792SOL    HW227276   4.035   5.476   2.095
 8793SOL     OW27277   1.004   5.078   4.602
 8793SOL    HW127278   1.094   5.077   4.557
 8793SOL    HW227279   0.973   5.172   4.611
 8794SOL     OW27280   5.941   1.239   3.269
 8794SOL    HW127281   5.879   1.234   3.347
 8794SOL    HW227282   5.899   1.196   3.189
 8795SOL     OW27283   1.238   5.148   5.407
 8795SOL    HW127284   1.256   5.131   5.504
 8795SOL    HW227285   1.153   5.104   5.380
 8796SOL     OW27286   6.117   3.794   2.848
 8796SOL    HW127287   6.159   3.782   2.938
 8796SOL    HW227288   6.150   3.878   2.806
 8797SOL     OW27289   0.020   0.135   4.065
 8797SOL    HW127290   6.996   0.069   4.123
 8797SOL    HW227291   0.113   0.148   4.099
 8798SOL     OW27292   4.674   6.700   5.313
 8798SOL    HW127293   4.718   6.614   5.339
 8798SOL    HW227294   4.591   6.713   5.367
 8799SOL     OW27295   2.151   4.580   2.042
 8799SOL    HW127296   2.099   4.515   1.987
 8799SOL    HW227297   2.225   4.619   1.987
 8800SOL     OW27298   6.488   6.176   5.175
 8800SOL    HW127299   6.549   6.189   5.097
 8800SOL    HW227300   6.522   6.100   5.231
 8801SOL     OW27301   5.884   1.939   5.193
 8801SOL    HW127302   5.883   1.861   5.130
 8801SOL    HW227303   5.977   1.951   5.228
 8802SOL     OW27304   1.438   5.843   5.624
 8802SOL    HW127305   1.511   5.900   5.661
 8802SOL    HW227306   1.467   5.748   5.623
 8803SOL     OW27307   6.779   0.725   0.195
 8803SOL    HW127308   6.694   0.754   0.237
 8803SOL    HW227309   6.827   0.661   0.255
 8804SOL     OW27310   1.799   5.993   1.477
 8804SOL    HW127311   1.803   5.984   1.377
 8804SOL    HW227312   1.759   5.910   1.516
 8805SOL     OW27313   4.305   5.596   3.857
 8805SOL    HW127314   4.314   5.501   3.826
 8805SOL    HW227315   4.396   5.634   3.876
 8806SOL     OW27316   2.328   6.134   0.455
 8806SOL    HW127317   2.319   6.137   0.356
 8806SOL    HW227318   2.333   6.228   0.490
 8807SOL     OW27319   4.882   2.306   0.200
 8807SOL    HW127320   4.899   2.210   0.218
 8807SOL    HW227321   4.784   2.322   0.188
 8808SOL     OW27322   1.673   2.533   0.524
 8808SOL    HW127323   1.590   2.513   0.576
 8808SOL    HW227324   1.742   2.462   0.542
 8809SOL     OW27325   2.075   3.970   3.483
 8809SOL    HW127326   2.133   4.024   3.422
 8809SOL    HW227327   2.114   3.971   3.575
 8810SOL     OW27328   5.987   1.522   4.890
 8810SOL    HW127329   6.084   1.513   4.912
 8810SOL    HW227330   5.962   1.453   4.822
 8811SOL     OW27331   4.474   0.011   2.430
 8811SOL    HW127332   4.448   0.098   2.390
 8811SOL    HW227333   4.565   0.018   2.471
 8812SOL     OW27334   3.396   0.495   6.676
 8812SOL    HW127335   3.370   0.430   6.604
 8812SOL    HW227336   3.322   0.561   6.689
 8813SOL     OW27337   2.322   4.286   2.614
 8813SOL    HW127338   2.305   4.360   2.679
 8813SOL    HW227339   2.387   4.316   2.545
 8814SOL     OW27340   5.838   7.007   0.666
 8814SOL    HW127341   5.779   0.055   0.702
 8814SOL    HW227342   5.782   6.933   0.629
 8815SOL     OW27343   5.728   0.995   0.545
 8815SOL    HW127344   5.809   0.960   0.593
 8815SOL    HW227345   5.753   1.018   0.452
 8816SOL     OW27346   0.184   6.300   6.534
 8816SOL    HW127347   0.161   6.247   6.451
 8816SOL    HW227348   0.109   6.291   6.600
 8817SOL     OW27349   0.884   3.744   4.558
 8817SOL    HW127350   0.891   3.741   4.459
 8817SOL    HW227351   0.974   3.729   4.599
 8818SOL     OW27352   1.638   6.849   3.543
 8818SOL    HW127353   1.558   6.883   3.495
 8818SOL    HW227354   1.609   6.798   3.624
 8819SOL     OW27355   5.703   4.222   5.497
 8819SOL    HW127356   5.629   4.282   5.467
 8819SOL    HW227357   5.665   4.133   5.522
 8820SOL     OW27358   3.642   1.112   4.414
 8820SOL    HW127359   3.666   1.168   4.493
 8820SOL    HW227360   3.640   1.015   4.440
 8821SOL     OW27361   0.832   5.076   0.348
 8821SOL    HW127362   0.846   5.175   0.342
 8821SOL    HW227363   0.735   5.055   0.333
 8822SOL     OW27364   6.976   0.079   3.495
 8822SOL    HW127365   6.892   0.050   3.541
 8822SOL    HW227366   7.016   0.156   3.544
 8823SOL     OW27367   2.716   0.677   2.682
 8823SOL    HW127368   2.640   0.724   2.638
 8823SOL    HW227369   2.681   0.598   2.732
 8824SOL     OW27370   1.456   0.179   1.490
 8824SOL    HW127371   1.549   0.176   1.453
 8824SOL    HW227372   1.398   0.115   1.439
 8825SOL     OW27373   0.437   0.660   1.711
 8825SOL    HW127374   0.347   0.700   1.691
 8825SOL    HW227375   0.432   0.560   1.702
 8826SOL     OW27376   0.771   3.574   0.630
 8826SOL    HW127377   0.865   3.562   0.661
 8826SOL    HW227378   0.713   3.503   0.669
 8827SOL     OW27379   3.905   0.292   2.462
 8827SOL    HW127380   3.897   0.291   2.561
 8827SOL    HW227381   3.897   0.199   2.426
 8828SOL     OW27382   4.028   4.459   6.280
 8828SOL    HW127383   4.018   4.538   6.341
 8828SOL    HW227384   3.938   4.427   6.252
 8829SOL     OW27385   6.433   1.741   2.151
 8829SOL    HW127386   6.415   1.678   2.225
 8829SOL    HW227387   6.378   1.824   2.162
 8830SOL     OW27388   2.328   1.479   1.728
 8830SOL    HW127389   2.310   1.502   1.633
 8830SOL    HW227390   2.366   1.387   1.734
 8831SOL     OW27391   0.328   3.050   2.192
 8831SOL    HW127392   0.262   2.982   2.160
 8831SOL    HW227393   0.351   3.031   2.288
 8832SOL     OW27394   0.046   6.420   4.190
 8832SOL    HW127395   0.014   6.438   4.097
 8832SOL    HW227396   7.006   6.359   4.236
 8833SOL     OW27397   3.868   2.969   1.109
 8833SOL    HW127398   3.957   2.921   1.110
 8833SOL    HW227399   3.797   2.907   1.143
 8834SOL     OW27400   5.984   3.874   5.031
 8834SOL    HW127401   5.998   3.872   4.932
 8834SOL    HW227402   5.891   3.905   5.052
 8835SOL     OW27403   5.893   0.994   6.086
 8835SOL    HW127404   5.971   0.972   6.027
 8835SOL    HW227405   5.877   0.917   6.149
 8836SOL     OW27406   5.972   2.778   0.094
 8836SOL    HW127407   6.033   2.706   0.059
 8836SOL    HW227408   6.016   2.824   0.171
 8837SOL     OW27409   6.939   6.470   2.061
 8837SOL    HW127410   6.929   6.372   2.048
 8837SOL    HW227411   6.889   6.498   2.143
 8838SOL     OW27412   0.908   3.609   2.967
 8838SOL    HW127413   0.893   3.511   2.978
 8838SOL    HW227414   0.822   3.653   2.942
 8839SOL     OW27415   5.142   5.310   2.446
 8839SOL    HW127416   5.191   5.272   2.367
 8839SOL    HW227417   5.142   5.410   2.439
 8840SOL     OW27418   6.216   0.662   2.074
 8840SOL    HW127419   6.172   0.747   2.046
 8840SOL    HW227420   6.200   0.591   2.005
 8841SOL     OW27421   3.904   1.013   2.169
 8841SOL    HW127422   3.837   1.025   2.241
 8841SOL    HW227423   3.986   1.066   2.191
 8842SOL     OW27424   3.132   3.971   4.026
 8842SOL    HW127425   3.196   4.003   4.096
 8842SOL    HW227426   3.091   3.885   4.056
 8843SOL     OW27427   2.136   3.415   5.013
 8843SOL    HW127428   2.085   3.437   5.096
 8843SOL    HW227429   2.203   3.343   5.032
 8844SOL     OW27430   6.457   2.203   5.441
 8844SOL    HW127431   6.438   2.135   5.511
 8844SOL    HW227432   6.555   2.224   5.441
 8845SOL     OW27433   2.255   5.500   1.111
 8845SOL    HW127434   2.282   5.452   1.027
 8845SOL    HW227435   2.294   5.592   1.110
 8846SOL     OW27436   5.608   4.599   4.401
 8846SOL    HW127437   5.681   4.554   4.349
 8846SOL    HW227438   5.526   4.606   4.345
 8847SOL     OW27439   1.504   1.342   2.428
 8847SOL    HW127440   1.535   1.369   2.337
 8847SOL    HW227441   1.569   1.374   2.496
 8848SOL     OW27442   3.446   1.758   1.870
 8848SOL    HW127443   3.366   1.775   1.928
 8848SOL    HW227444   3.443   1.818   1.790
 8849SOL     OW27445   2.596   5.322   3.954
 8849SOL    HW127446   2.680   5.277   3.984
 8849SOL    HW227447   2.562   5.278   3.871
 8850SOL     OW27448   2.607   1.389   0.479
 8850SOL    HW127449   2.630   1.303   0.434
 8850SOL    HW227450   2.652   1.394   0.568
 8851SOL     OW27451   0.498   4.507   2.876
 8851SOL    HW127452   0.532   4.518   2.969
 8851SOL    HW227453   0.566   4.542   2.811
 8852SOL     OW27454   5.296   2.949   6.292
 8852SOL    HW127455   5.199   2.974   6.288
 8852SOL    HW227456   5.349   3.009   6.231
 8853SOL     OW27457   3.313   0.822   4.987
 8853SOL    HW127458   3.395   0.777   4.951
 8853SOL    HW227459   3.333   0.918   5.006
 8854SOL     OW27460   2.025   0.232   5.829
 8854SOL    HW127461   2.122   0.209   5.835
 8854SOL    HW227462   2.005   0.305   5.894
 8855SOL     OW27463   5.843   5.438   6.880
 8855SOL    HW127464   5.856   5.348   6.840
 8855SOL    HW227465   5.803   5.428   6.972
 8856SOL     OW27466   6.558   0.298   4.786
 8856SOL    HW127467   6.587   0.380   4.836
 8856SOL    HW227468   6.584   0.216   4.837
 8857SOL     OW27469   6.128   1.928   3.150
 8857SOL    HW127470   6.066   1.927   3.227
 8857SOL    HW227471   6.217   1.964   3.179
 8858SOL     OW27472   1.239   3.603   5.924
 8858SOL    HW127473   1.292   3.642   5.849
 8858SOL    HW227474   1.260   3.651   6.009
 8859SOL     OW27475   1.154   6.846   5.222
 8859SOL    HW127476   1.077   6.806   5.174
 8859SOL    HW227477   1.129   6.937   5.257
 8860SOL     OW27478   1.502   3.708   2.427
 8860SOL    HW127479   1.457   3.653   2.497
 8860SOL    HW227480   1.591   3.667   2.405
 8861SOL     OW27481   3.217   2.760   6.236
 8861SOL    HW127482   3.178   2.798   6.152
 8861SOL    HW227483   3.299   2.707   6.213
 8862SOL     OW27484   5.811   1.625   4.320
 8862SOL    HW127485   5.755   1.666   4.248
 8862SOL    HW227486   5.907   1.646   4.304
 8863SOL     OW27487   2.163   5.757   4.498
 8863SOL    HW127488   2.134   5.676   4.547
 8863SOL    HW227489   2.135   5.839   4.548
 8864SOL     OW27490   2.200   3.129   6.213
 8864SOL    HW127491   2.285   3.079   6.231
 8864SOL    HW227492   2.195   3.153   6.116
 8865SOL     OW27493   3.178   0.953   4.346
 8865SOL    HW127494   3.125   0.868   4.349
 8865SOL    HW227495   3.148   1.013   4.420
 8866SOL     OW27496   4.362   6.710   3.219
 8866SOL    HW127497   4.424   6.720   3.296
 8866SOL    HW227498   4.413   6.685   3.137
 8867SOL     OW27499   5.475   2.354   2.874
 8867SOL    HW127500   5.434   2.432   2.826
 8867SOL    HW227501   5.573   2.350   2.854
 8868SOL     OW27502   5.264   3.247   0.162
 8868SOL    HW127503   5.304   3.256   0.254
 8868SOL    HW227504   5.305   3.315   0.101
 8869SOL     OW27505   4.693   4.267   3.092
 8869SOL    HW127506   4.620   4.331   3.072
 8869SOL    HW227507   4.685   4.186   3.033
 8870SOL     OW27508   3.433   0.383   1.086
 8870SOL    HW127509   3.415   0.285   1.073
 8870SOL    HW227510   3.492   0.415   1.013
 8871SOL     OW27511   2.773   1.757   3.825
 8871SOL    HW127512   2.717   1.683   3.788
 8871SOL    HW227513   2.868   1.744   3.796
 8872SOL     OW27514   1.734   4.188   4.494
 8872SOL    HW127515   1.700   4.100   4.526
 8872SOL    HW227516   1.834   4.191   4.507
 8873SOL     OW27517   6.608   5.830   2.615
 8873SOL    HW127518   6.535   5.776   2.572
 8873SOL    HW227519   6.679   5.850   2.547
 8874SOL     OW27520   2.003   0.077   1.150
 8874SOL    HW127521   2.076   0.008   1.146
 8874SOL    HW227522   1.917   0.034   1.174
 8875SOL     OW27523   1.339   2.913   4.493
 8875SOL    HW127524   1.294   2.837   4.540
 8875SOL    HW227525   1.277   2.950   4.423
 8876SOL     OW27526   6.941   0.191   4.518
 8876SOL    HW127527   6.875   0.264   4.538
 8876SOL    HW227528   6.909   0.105   4.557
 8877SOL     OW27529   2.727   0.526   4.409
 8877SOL    HW127530   2.789   0.517   4.331
 8877SOL    HW227531   2.768   0.587   4.477
 8878SOL     OW27532   0.353   5.035   0.987
 8878SOL    HW127533   0.307   5.071   1.069
 8878SOL    HW227534   0.433   4.982   1.015
 8879SOL     OW27535   5.279   5.355   1.132
 8879SOL    HW127536   5.222   5.365   1.050
 8879SOL    HW227537   5.221   5.348   1.213
 8880SOL     OW27538   0.553   5.563   4.661
 8880SOL    HW127539   0.489   5.498   4.703
 8880SOL    HW227540   0.606   5.608   4.733
 8881SOL     OW27541   5.815   0.667   3.327
 8881SOL    HW127542   5.821   0.653   3.426
 8881SOL    HW227543   5.796   0.763   3.308
 8882SOL     OW27544   5.255   0.659   0.144
 8882SOL    HW127545   5.333   0.701   0.191
 8882SOL    HW227546   5.194   0.730   0.110
 8883SOL     OW27547   0.553   1.311   6.041
 8883SOL    HW127548   0.530   1.271   5.952
 8883SOL    HW227549   0.549   1.241   6.112
 8884SOL     OW27550   5.741   6.567   6.678
 8884SOL    HW127551   5.795   6.636   6.631
 8884SOL    HW227552   5.701   6.505   6.611
 8885SOL     OW27553   6.139   3.787   1.339
 8885SOL    HW127554   6.230   3.830   1.334
 8885SOL    HW227555   6.102   3.798   1.431
 8886SOL     OW27556   2.856   5.862   5.360
 8886SOL    HW127557   2.799   5.782   5.375
 8886SOL    HW227558   2.816   5.941   5.407
 8887SOL     OW27559   3.015   0.903   0.976
 8887SOL    HW127560   3.053   0.967   0.909
 8887SOL    HW227561   3.037   0.809   0.949
 8888SOL     OW27562   1.181   1.974   1.059
 8888SOL    HW127563   1.161   1.995   1.155
 8888SOL    HW227564   1.169   2.057   1.004
 8889SOL     OW27565   5.164   6.458   5.565
 8889SOL    HW127566   5.159   6.503   5.476
 8889SOL    HW227567   5.179   6.527   5.636
 8890SOL     OW27568   6.657   6.154   4.928
 8890SOL    HW127569   6.611   6.210   4.859
 8890SOL    HW227570   6.743   6.198   4.954
 8891SOL     OW27571   6.059   3.041   5.880
 8891SOL    HW127572   5.996   3.084   5.944
 8891SOL    HW227573   6.145   3.019   5.928
 8892SOL     OW27574   3.086   6.594   3.585
 8892SOL    HW127575   3.184   6.608   3.595
 8892SOL    HW227576   3.041   6.682   3.574
 8893SOL     OW27577   0.287   0.751   2.410
 8893SOL    HW127578   0.380   0.765   2.443
 8893SOL    HW227579   0.224   0.749   2.488
 8894SOL     OW27580   4.329   2.932   6.358
 8894SOL    HW127581   4.328   3.015   6.414
 8894SOL    HW227582   4.422   2.916   6.324
 8895SOL     OW27583   0.129   0.590   2.248
 8895SOL    HW127584   0.203   0.649   2.281
 8895SOL    HW227585   0.136   0.500   2.291
 8896SOL     OW27586   1.234   3.414   4.816
 8896SOL    HW127587   1.183   3.340   4.772
 8896SOL    HW227588   1.327   3.417   4.778
 8897SOL     OW27589   1.592   1.670   1.858
 8897SOL    HW127590   1.633   1.731   1.926
 8897SOL    HW227591   1.656   1.596   1.836
 8898SOL     OW27592   6.249   3.243   4.672
 8898SOL    HW127593   6.216   3.242   4.767
 8898SOL    HW227594   6.194   3.306   4.618
 8899SOL     OW27595   1.730   4.161   6.583
 8899SOL    HW127596   1.777   4.102   6.649
 8899SOL    HW227597   1.636   4.130   6.572
 8900SOL     OW27598   5.605   3.063   3.180
 8900SOL    HW127599   5.675   3.100   3.119
 8900SOL    HW227600   5.516   3.099   3.153
 8901SOL     OW27601   2.395   0.775   3.682
 8901SOL    HW127602   2.455   0.833   3.738
 8901SOL    HW227603   2.338   0.833   3.624
 8902SOL     OW27604   3.011   5.798   5.991
 8902SOL    HW127605   2.935   5.796   6.056
 8902SOL    HW227606   3.066   5.716   6.003
 8903SOL     OW27607   2.397   1.465   3.785
 8903SOL    HW127608   2.358   1.389   3.734
 8903SOL    HW227609   2.480   1.498   3.739
 8904SOL     OW27610   6.949   5.019   3.618
 8904SOL    HW127611   6.954   4.932   3.667
 8904SOL    HW227612   6.864   5.066   3.642
 8905SOL     OW27613   1.940   4.269   4.822
 8905SOL    HW127614   1.991   4.184   4.830
 8905SOL    HW227615   1.973   4.321   4.744
 8906SOL     OW27616   6.845   0.264   6.571
 8906SOL    HW127617   6.892   0.290   6.487
 8906SOL    HW227618   6.760   0.217   6.549
 8907SOL     OW27619   3.385   2.147   5.134
 8907SOL    HW127620   3.377   2.172   5.230
 8907SOL    HW227621   3.328   2.208   5.078
 8908SOL     OW27622   1.554   2.790   0.603
 8908SOL    HW127623   1.472   2.733   0.599
 8908SOL    HW227624   1.635   2.732   0.594
 8909SOL     OW27625   2.201   0.542   5.000
 8909SOL    HW127626   2.125   0.543   5.064
 8909SOL    HW227627   2.168   0.514   4.910
 8910SOL     OW27628   2.049   3.030   5.874
 8910SOL    HW127629   2.075   2.997   5.783
 8910SOL    HW227630   2.127   3.079   5.914
 8911SOL     OW27631   3.681   2.131   4.844
 8911SOL    HW127632   3.691   2.225   4.874
 8911SOL    HW227633   3.651   2.075   4.921
 8912SOL     OW27634   4.010   1.739   6.810
 8912SOL    HW127635   4.070   1.688   6.748
 8912SOL    HW227636   4.005   1.692   6.898
 8913SOL     OW27637   5.168   4.224   1.786
 8913SOL    HW127638   5.172   4.159   1.710
 8913SOL    HW227639   5.087   4.282   1.775
 8914SOL     OW27640   4.520   1.294   5.924
 8914SOL    HW127641   4.608   1.249   5.939
 8914SOL    HW227642   4.519   1.334   5.832
 8915SOL     OW27643   1.430   2.585   3.861
 8915SOL    HW127644   1.410   2.502   3.912
 8915SOL    HW227645   1.524   2.614   3.879
 8916SOL     OW27646   0.234   3.695   1.636
 8916SOL    HW127647   0.154   3.642   1.662
 8916SOL    HW227648   0.205   3.774   1.582
 8917SOL     OW27649   6.169   4.734   6.115
 8917SOL    HW127650   6.266   4.736   6.094
 8917SOL    HW227651   6.155   4.748   6.213
 8918SOL     OW27652   6.660   6.144   0.216
 8918SOL    HW127653   6.644   6.235   0.179
 8918SOL    HW227654   6.660   6.077   0.141
 8919SOL     OW27655   4.316   3.724   0.511
 8919SOL    HW127656   4.293   3.659   0.584
 8919SOL    HW227657   4.403   3.698   0.470
 8920SOL     OW27658   6.767   6.316   6.467
 8920SOL    HW127659   6.670   6.297   6.483
 8920SOL    HW227660   6.787   6.310   6.369
 8921SOL     OW27661   1.412   1.566   2.904
 8921SOL    HW127662   1.454   1.637   2.960
 8921SOL    HW227663   1.482   1.501   2.874
 8922SOL     OW27664   2.140   5.321   0.692
 8922SOL    HW127665   2.105   5.227   0.691
 8922SOL    HW227666   2.186   5.341   0.606
 8923SOL     OW27667   2.462   3.856   6.316
 8923SOL    HW127668   2.390   3.926   6.316
 8923SOL    HW227669   2.523   3.871   6.238
 8924SOL     OW27670   3.151   5.690   5.405
 8924SOL    HW127671   3.122   5.697   5.310
 8924SOL    HW227672   3.228   5.627   5.412
 8925SOL     OW27673   0.894   0.867   2.320
 8925SOL    HW127674   0.942   0.877   2.233
 8925SOL    HW227675   0.797   0.888   2.307
 8926SOL     OW27676   5.736   2.361   1.398
 8926SOL    HW127677   5.810   2.411   1.353
 8926SOL    HW227678   5.746   2.263   1.381
 8927SOL     OW27679   2.710   2.375   4.833
 8927SOL    HW127680   2.665   2.360   4.922
 8927SOL    HW227681   2.792   2.319   4.828
 8928SOL     OW27682   7.005   1.151   5.252
 8928SOL    HW127683   6.941   1.171   5.177
 8928SOL    HW227684   0.074   1.169   5.221
 8929SOL     OW27685   0.138   3.349   3.921
 8929SOL    HW127686   0.134   3.301   4.009
 8929SOL    HW227687   0.158   3.446   3.937
 8930SOL     OW27688   1.781   5.119   5.001
 8930SOL    HW127689   1.782   5.058   4.922
 8930SOL    HW227690   1.765   5.066   5.084
 8931SOL     OW27691   4.237   2.739   0.822
 8931SOL    HW127692   4.174   2.765   0.895
 8931SOL    HW227693   4.190   2.746   0.734
 8932SOL     OW27694   5.253   7.009   6.879
 8932SOL    HW127695   5.183   0.039   6.926
 8932SOL    HW227696   5.292   0.039   6.804
 8933SOL     OW27697   0.873   1.663   5.425
 8933SOL    HW127698   0.934   1.696   5.497
 8933SOL    HW227699   0.864   1.563   5.432
 8934SOL     OW27700   3.195   5.354   3.014
 8934SOL    HW127701   3.211   5.376   3.111
 8934SOL    HW227702   3.103   5.382   2.989
 8935SOL     OW27703   4.907   3.515   2.276
 8935SOL    HW127704   4.873   3.443   2.337
 8935SOL    HW227705   4.892   3.488   2.181
 8936SOL     OW27706   0.668   3.381   0.792
 8936SOL    HW127707   0.688   3.288   0.762
 8936SOL    HW227708   0.614   3.378   0.876
 8937SOL     OW27709   0.603   0.789   4.016
 8937SOL    HW127710   0.685   0.800   4.072
 8937SOL    HW227711   0.590   0.870   3.959
 8938SOL     OW27712   6.010   1.288   0.460
 8938SOL    HW127713   6.071   1.248   0.529
 8938SOL    HW227714   6.063   1.310   0.378
 8939SOL     OW27715   6.273   2.991   4.904
 8939SOL    HW127716   6.194   3.050   4.920
 8939SOL    HW227717   6.262   2.942   4.817
 8940SOL     OW27718   6.208   2.876   0.238
 8940SOL    HW127719   6.239   2.783   0.215
 8940SOL    HW227720   6.272   2.942   0.199
 8941SOL     OW27721   5.019   1.971   1.752
 8941SOL    HW127722   5.008   2.066   1.783
 8941SOL    HW227723   4.933   1.922   1.764
 8942SOL     OW27724   0.098   4.592   4.125
 8942SOL    HW127725   0.105   4.519   4.193
 8942SOL    HW227726   0.042   4.667   4.162
 8943SOL     OW27727   4.185   4.477   0.118
 8943SOL    HW127728   4.265   4.418   0.118
 8943SOL    HW227729   4.133   4.464   0.202
 8944SOL     OW27730   4.625   4.777   4.302
 8944SOL    HW127731   4.724   4.792   4.308
 8944SOL    HW227732   4.586   4.783   4.394
 8945SOL     OW27733   6.465   3.088   5.052
 8945SOL    HW127734   6.522   3.094   4.970
 8945SOL    HW227735   6.382   3.036   5.031
 8946SOL     OW27736   4.429   0.501   4.757
 8946SOL    HW127737   4.385   0.585   4.728
 8946SOL    HW227738   4.515   0.489   4.706
 8947SOL     OW27739   1.466   4.478   6.628
 8947SOL    HW127740   1.503   4.467   6.536
 8947SOL    HW227741   1.371   4.509   6.623
 8948SOL     OW27742   6.677   5.955   3.936
 8948SOL    HW127743   6.705   6.051   3.945
 8948SOL    HW227744   6.758   5.898   3.924
 8949SOL     OW27745   4.062   6.048   0.167
 8949SOL    HW127746   4.120   6.068   0.246
 8949SOL    HW227747   3.971   6.087   0.182
 8950SOL     OW27748   4.891   4.119   1.110
 8950SOL    HW127749   4.797   4.151   1.116
 8950SOL    HW227750   4.895   4.023   1.137
 8951SOL     OW27751   2.158   0.964   3.859
 8951SOL    HW127752   2.127   1.046   3.907
 8951SOL    HW227753   2.258   0.962   3.858
 8952SOL     OW27754   2.163   4.241   3.608
 8952SOL    HW127755   2.187   4.193   3.523
 8952SOL    HW227756   2.071   4.278   3.600
 8953SOL     OW27757   2.837   5.301   1.439
 8953SOL    HW127758   2.772   5.315   1.514
 8953SOL    HW227759   2.895   5.223   1.460
 8954SOL     OW27760   1.049   6.071   4.265
 8954SOL    HW127761   1.121   6.034   4.207
 8954SOL    HW227762   1.013   6.155   4.225
 8955SOL     OW27763   6.379   2.968   2.686
 8955SOL    HW127764   6.383   3.027   2.767
 8955SOL    HW227765   6.398   2.873   2.713
 8956SOL     OW27766   0.189   6.719   6.822
 8956SOL    HW127767   0.139   6.785   6.767
 8956SOL    HW227768   0.276   6.759   6.851
 8957SOL     OW27769   1.655   5.404   1.891
 8957SOL    HW127770   1.660   5.317   1.841
 8957SOL    HW227771   1.653   5.480   1.826
 8958SOL     OW27772   1.469   3.227   5.221
 8958SOL    HW127773   1.410   3.294   5.176
 8958SOL    HW227774   1.516   3.271   5.299
 8959SOL     OW27775   0.982   3.585   2.000
 8959SOL    HW127776   0.929   3.605   2.083
 8959SOL    HW227777   0.942   3.508   1.952
 8960SOL     OW27778   6.702   4.207   4.107
 8960SOL    HW127779   6.615   4.190   4.061
 8960SOL    HW227780   6.729   4.302   4.094
 8961SOL     OW27781   3.104   0.166   4.289
 8961SOL    HW127782   3.027   0.157   4.226
 8961SOL    HW227783   3.189   0.147   4.240
 8962SOL     OW27784   1.028   6.174   1.579
 8962SOL    HW127785   1.094   6.101   1.567
 8962SOL    HW227786   0.988   6.198   1.491
 8963SOL     OW27787   3.479   5.567   4.639
 8963SOL    HW127788   3.402   5.559   4.703
 8963SOL    HW227789   3.449   5.617   4.558
 8964SOL     OW27790   5.607   3.821   3.010
 8964SOL    HW127791   5.636   3.761   2.935
 8964SOL    HW227792   5.517   3.860   2.988
 8965SOL     OW27793   3.596   4.723   0.402
 8965SOL    HW127794   3.560   4.637   0.438
 8965SOL    HW227795   3.556   4.799   0.454
 8966SOL     OW27796   6.411   5.417   6.044
 8966SOL    HW127797   6.326   5.462   6.072
 8966SOL    HW227798   6.488   5.455   6.094
 8967SOL     OW27799   3.690   0.660   3.403
 8967SOL    HW127800   3.602   0.643   3.447
 8967SOL    HW227801   3.682   0.737   3.341
 8968SOL     OW27802   2.462   4.636   1.592
 8968SOL    HW127803   2.412   4.653   1.676
 8968SOL    HW227804   2.539   4.576   1.610
 8969SOL     OW27805   0.160   6.925   3.472
 8969SOL    HW127806   0.225   6.974   3.414
 8969SOL    HW227807   0.077   6.980   3.483
 8970SOL     OW27808   1.461   2.422   5.856
 8970SOL    HW127809   1.504   2.443   5.769
 8970SOL    HW227810   1.522   2.450   5.931
 8971SOL     OW27811   4.296   6.693   1.094
 8971SOL    HW127812   4.325   6.757   1.164
 8971SOL    HW227813   4.196   6.696   1.084
 8972SOL     OW27814   5.664   4.729   0.430
 8972SOL    HW127815   5.732   4.800   0.413
 8972SOL    HW227816   5.668   4.660   0.358
 8973SOL     OW27817   0.655   2.678   2.137
 8973SOL    HW127818   0.568   2.643   2.102
 8973SOL    HW227819   0.725   2.670   2.066
 8974SOL     OW27820   1.995   3.691   4.472
 8974SOL    HW127821   1.971   3.597   4.497
 8974SOL    HW227822   2.006   3.745   4.555
 8975SOL     OW27823   0.420   6.851   6.660
 8975SOL    HW127824   0.424   6.760   6.617
 8975SOL    HW227825   0.328   6.888   6.648
 8976SOL     OW27826   5.849   6.108   0.930
 8976SOL    HW127827   5.787   6.052   0.984
 8976SOL    HW227828   5.908   6.162   0.990
 8977SOL     OW27829   0.138   5.456   6.096
 8977SOL    HW127830   0.171   5.550   6.104
 8977SOL    HW227831   0.131   5.416   6.188
 8978SOL     OW27832   5.854   6.162   5.041
 8978SOL    HW127833   5.950   6.185   5.060
 8978SOL    HW227834   5.795   6.218   5.098
 8979SOL     OW27835   0.991   5.349   6.324
 8979SOL    HW127836   0.953   5.442   6.322
 8979SOL    HW227837   0.921   5.284   6.294
 8980SOL     OW27838   4.603   2.029   6.000
 8980SOL    HW127839   4.533   2.095   6.029
 8980SOL    HW227840   4.632   1.974   6.078
 8981SOL     OW27841   4.664   2.259   5.779
 8981SOL    HW127842   4.637   2.174   5.733
 8981SOL    HW227843   4.593   2.285   5.844
 8982SOL     OW27844   5.909   1.467   1.742
 8982SOL    HW127845   5.980   1.483   1.674
 8982SOL    HW227846   5.853   1.388   1.715
 8983SOL     OW27847   1.239   5.088   2.312
 8983SOL    HW127848   1.226   5.140   2.396
 8983SOL    HW227849   1.288   5.003   2.332
 8984SOL     OW27850   5.744   0.247   4.469
 8984SOL    HW127851   5.681   0.323   4.451
 8984SOL    HW227852   5.827   0.259   4.414
 8985SOL     OW27853   4.883   1.870   0.814
 8985SOL    HW127854   4.968   1.857   0.763
 8985SOL    HW227855   4.872   1.794   0.879
 8986SOL     OW27856   5.610   4.298   1.681
 8986SOL    HW127857   5.635   4.323   1.775
 8986SOL    HW227858   5.692   4.270   1.631
 8987SOL     OW27859   2.619   0.275   1.233
 8987SOL    HW127860   2.648   0.371   1.230
 8987SOL    HW227861   2.570   0.258   1.318
 8988SOL     OW27862   1.841   5.583   0.972
 8988SOL    HW127863   1.916   5.649   0.961
 8988SOL    HW227864   1.764   5.611   0.914
 8989SOL     OW27865   5.128   2.915   3.048
 8989SOL    HW127866   5.187   2.994   3.068
 8989SOL    HW227867   5.176   2.853   2.987
 8990SOL     OW27868   2.937   6.147   0.456
 8990SOL    HW127869   2.845   6.122   0.425
 8990SOL    HW227870   2.933   6.178   0.551
 8991SOL     OW27871   2.139   2.784   0.905
 8991SOL    HW127872   2.083   2.794   0.987
 8991SOL    HW227873   2.202   2.860   0.898
 8992SOL     OW27874   0.449   3.191   0.643
 8992SOL    HW127875   0.544   3.198   0.673
 8992SOL    HW227876   0.422   3.277   0.600
 8993SOL     OW27877   5.091   2.145   3.743
 8993SOL    HW127878   5.112   2.203   3.821
 8993SOL    HW227879   5.109   2.049   3.766
 8994SOL     OW27880   1.662   5.212   4.398
 8994SOL    HW127881   1.648   5.117   4.369
 8994SOL    HW227882   1.694   5.213   4.493
 8995SOL     OW27883   1.013   2.758   4.881
 8995SOL    HW127884   0.950   2.815   4.933
 8995SOL    HW227885   0.975   2.740   4.790
 8996SOL     OW27886   0.218   3.851   1.202
 8996SOL    HW127887   0.180   3.799   1.125
 8996SOL    HW227888   0.290   3.912   1.169
 8997SOL     OW27889   4.900   1.168   5.740
 8997SOL    HW127890   4.924   1.090   5.681
 8997SOL    HW227891   4.819   1.145   5.794
 8998SOL     OW27892   0.396   2.522   5.311
 8998SOL    HW127893   0.449   2.465   5.248
 8998SOL    HW227894   0.304   2.534   5.275
 8999SOL     OW27895   4.606   1.406   6.476
 8999SOL    HW127896   4.595   1.424   6.378
 8999SOL    HW227897   4.569   1.316   6.497
 9000SOL     OW27898   3.258   3.808   6.915
 9000SOL    HW127899   3.277   3.793   7.012
 9000SOL    HW227900   3.215   3.726   6.876
 9001SOL     OW27901   1.672   4.967   3.398
 9001SOL    HW127902   1.664   5.022   3.315
 9001SOL    HW227903   1.656   4.870   3.376
 9002SOL     OW27904   6.724   5.152   5.637
 9002SOL    HW127905   6.665   5.071   5.628
 9002SOL    HW227906   6.817   5.127   5.612
 9003SOL     OW27907   6.296   2.550   0.292
 9003SOL    HW127908   6.232   2.506   0.229
 9003SOL    HW227909   6.384   2.561   0.245
 9004SOL     OW27910   5.179   6.639   1.327
 9004SOL    HW127911   5.258   6.580   1.316
 9004SOL    HW227912   5.144   6.664   1.236
 9005SOL     OW27913   4.856   1.930   3.963
 9005SOL    HW127914   4.921   1.855   3.978
 9005SOL    HW227915   4.823   1.927   3.868
 9006SOL     OW27916   1.372   5.423   1.424
 9006SOL    HW127917   1.294   5.362   1.420
 9006SOL    HW227918   1.402   5.446   1.331
 9007SOL     OW27919   2.763   5.063   3.659
 9007SOL    HW127920   2.809   5.124   3.724
 9007SOL    HW227921   2.820   5.051   3.578
 9008SOL     OW27922   6.752   4.355   2.226
 9008SOL    HW127923   6.715   4.287   2.162
 9008SOL    HW227924   6.677   4.412   2.261
 9009SOL     OW27925   2.374   6.929   1.083
 9009SOL    HW127926   2.364   0.004   1.095
 9009SOL    HW227927   2.389   6.908   0.987
 9010SOL     OW27928   0.971   6.493   4.804
 9010SOL    HW127929   1.009   6.469   4.715
 9010SOL    HW227930   0.890   6.437   4.822
 9011SOL     OW27931   4.001   2.012   1.291
 9011SOL    HW127932   3.950   2.000   1.377
 9011SOL    HW227933   4.052   2.098   1.293
 9012SOL     OW27934   1.126   4.875   1.114
 9012SOL    HW127935   1.180   4.866   1.030
 9012SOL    HW227936   1.093   4.786   1.143
 9013SOL     OW27937   6.602   5.766   4.429
 9013SOL    HW127938   6.648   5.760   4.517
 9013SOL    HW227939   6.625   5.854   4.386
 9014SOL     OW27940   1.259   1.359   6.819
 9014SOL    HW127941   1.286   1.392   6.728
 9014SOL    HW227942   1.337   1.368   6.881
 9015SOL     OW27943   0.177   1.421   6.466
 9015SOL    HW127944   0.234   1.339   6.454
 9015SOL    HW227945   0.234   1.497   6.497
 9016SOL     OW27946   6.704   6.591   5.910
 9016SOL    HW127947   6.667   6.521   5.848
 9016SOL    HW227948   6.629   6.642   5.952
 9017SOL     OW27949   6.300   2.008   4.131
 9017SOL    HW127950   6.263   2.077   4.194
 9017SOL    HW227951   6.253   1.921   4.147
 9018SOL     OW27952   3.816   0.827   4.807
 9018SOL    HW127953   3.829   0.789   4.715
 9018SOL    HW227954   3.871   0.910   4.816
 9019SOL     OW27955   2.667   6.299   6.675
 9019SOL    HW127956   2.646   6.211   6.634
 9019SOL    HW227957   2.595   6.365   6.652
 9020SOL     OW27958   1.721   4.539   2.439
 9020SOL    HW127959   1.725   4.439   2.432
 9020SOL    HW227960   1.694   4.564   2.532
 9021SOL     OW27961   6.516   6.593   3.933
 9021SOL    HW127962   6.433   6.642   3.906
 9021SOL    HW227963   6.504   6.495   3.917
 9022SOL     OW27964   2.435   0.295   0.397
 9022SOL    HW127965   2.408   0.228   0.327
 9022SOL    HW227966   2.393   0.383   0.375
 9023SOL     OW27967   3.181   3.384   3.664
 9023SOL    HW127968   3.257   3.318   3.662
 9023SOL    HW227969   3.215   3.472   3.696
 9024SOL     OW27970   1.870   6.078   6.087
 9024SOL    HW127971   1.847   6.084   6.184
 9024SOL    HW227972   1.963   6.040   6.077
 9025SOL     OW27973   6.451   5.248   1.275
 9025SOL    HW127974   6.521   5.283   1.337
 9025SOL    HW227975   6.380   5.201   1.329
 9026SOL     OW27976   3.816   3.023   4.481
 9026SOL    HW127977   3.833   2.945   4.421
 9026SOL    HW227978   3.831   2.995   4.576
 9027SOL     OW27979   2.946   2.123   3.112
 9027SOL    HW127980   2.902   2.201   3.158
 9027SOL    HW227981   3.045   2.130   3.123
 9028SOL     OW27982   2.052   4.558   6.179
 9028SOL    HW127983   2.149   4.549   6.201
 9028SOL    HW227984   2.039   4.549   6.080
 9029SOL     OW27985   4.198   4.807   4.637
 9029SOL    HW127986   4.217   4.902   4.664
 9029SOL    HW227987   4.254   4.745   4.692
 9030SOL     OW27988   2.309   1.019   2.614
 9030SOL    HW127989   2.295   1.038   2.517
 9030SOL    HW227990   2.284   1.099   2.668
 9031SOL     OW27991   2.655   6.106   5.415
 9031SOL    HW127992   2.668   6.094   5.513
 9031SOL    HW227993   2.648   6.203   5.394
 9032SOL     OW27994   2.947   2.583   1.504
 9032SOL    HW127995   3.038   2.625   1.511
 9032SOL    HW227996   2.880   2.654   1.482
 9033SOL     OW27997   2.082   3.325   4.267
 9033SOL    HW127998   2.103   3.287   4.177
 9033SOL    HW227999   2.010   3.393   4.259
 9034SOL     OW28000   3.022   6.964   5.226
 9034SOL    HW128001   3.067   0.022   5.258
 9034SOL    HW228002   3.008   6.970   5.127
 9035SOL     OW28003   0.062   6.908   5.082
 9035SOL    HW128004   0.160   6.898   5.099
 9035SOL    HW228005   0.020   6.960   5.155
 9036SOL     OW28006   2.192   2.670   5.343
 9036SOL    HW128007   2.262   2.672   5.271
 9036SOL    HW228008   2.226   2.617   5.421
 9037SOL     OW28009   2.232   4.062   6.357
 9037SOL    HW128010   2.170   3.996   6.313
 9037SOL    HW228011   2.195   4.088   6.446
 9038SOL     OW28012   5.156   1.037   6.233
 9038SOL    HW128013   5.113   1.125   6.217
 9038SOL    HW228014   5.154   0.983   6.149
 9039SOL     OW28015   1.376   4.521   5.568
 9039SOL    HW128016   1.340   4.578   5.494
 9039SOL    HW228017   1.439   4.575   5.624
 9040SOL     OW28018   2.894   0.847   2.894
 9040SOL    HW128019   2.799   0.839   2.863
 9040SOL    HW228020   2.927   0.939   2.875
 9041SOL     OW28021   0.333   1.952   1.938
 9041SOL    HW128022   0.357   1.932   1.844
 9041SOL    HW228023   0.251   2.010   1.940
 9042SOL     OW28024   2.597   6.464   3.291
 9042SOL    HW128025   2.522   6.489   3.352
 9042SOL    HW228026   2.620   6.368   3.304
 9043SOL     OW28027   1.824   2.094   6.011
 9043SOL    HW128028   1.762   2.112   5.934
 9043SOL    HW228029   1.918   2.120   5.984
 9044SOL     OW28030   6.011   0.716   0.790
 9044SOL    HW128031   6.109   0.707   0.778
 9044SOL    HW228032   5.963   0.657   0.725
 9045SOL     OW28033   3.783   0.439   3.145
 9045SOL    HW128034   3.800   0.433   3.244
 9045SOL    HW228035   3.684   0.434   3.128
 9046SOL     OW28036   3.383   4.431   5.366
 9046SOL    HW128037   3.421   4.520   5.391
 9046SOL    HW228038   3.284   4.438   5.359
 9047SOL     OW28039   1.768   4.327   5.212
 9047SOL    HW128040   1.770   4.235   5.250
 9047SOL    HW228041   1.722   4.325   5.123
 9048SOL     OW28042   1.458   3.728   5.779
 9048SOL    HW128043   1.423   3.749   5.688
 9048SOL    HW228044   1.500   3.810   5.818
 9049SOL     OW28045   5.259   6.358   6.520
 9049SOL    HW128046   5.287   6.422   6.592
 9049SOL    HW228047   5.183   6.303   6.553
 9050SOL     OW28048   0.644   5.229   0.077
 9050SOL    HW128049   0.630   5.274   0.165
 9050SOL    HW228050   0.659   5.299   0.006
 9051SOL     OW28051   4.279   5.964   0.789
 9051SOL    HW128052   4.301   6.060   0.801
 9051SOL    HW228053   4.233   5.951   0.701
 9052SOL     OW28054   2.797   4.803   4.638
 9052SOL    HW128055   2.881   4.826   4.688
 9052SOL    HW228056   2.721   4.796   4.703
 9053SOL     OW28057   2.323   2.689   3.723
 9053SOL    HW128058   2.333   2.616   3.791
 9053SOL    HW228059   2.413   2.725   3.700
 9054SOL     OW28060   1.621   0.487   1.873
 9054SOL    HW128061   1.710   0.467   1.832
 9054SOL    HW228062   1.553   0.424   1.837
 9055SOL     OW28063   0.500   3.137   3.791
 9055SOL    HW128064   0.519   3.206   3.860
 9055SOL    HW228065   0.492   3.047   3.834
 9056SOL     OW28066   5.347   0.531   1.731
 9056SOL    HW128067   5.325   0.464   1.660
 9056SOL    HW228068   5.390   0.611   1.688
 9057SOL     OW28069   6.102   4.834   6.873
 9057SOL    HW128070   6.178   4.898   6.865
 9057SOL    HW228071   6.136   4.740   6.874
 9058SOL     OW28072   1.731   1.949   4.606
 9058SOL    HW128073   1.713   1.912   4.697
 9058SOL    HW228074   1.766   2.043   4.614
 9059SOL     OW28075   6.033   0.986   3.409
 9059SOL    HW128076   6.052   1.079   3.378
 9059SOL    HW228077   5.940   0.981   3.445
 9060SOL     OW28078   6.500   3.541   2.255
 9060SOL    HW128079   6.410   3.512   2.223
 9060SOL    HW228080   6.532   3.619   2.202
 9061SOL     OW28081   4.529   5.476   3.265
 9061SOL    HW128082   4.521   5.532   3.348
 9061SOL    HW228083   4.438   5.463   3.224
 9062SOL     OW28084   1.416   4.756   2.055
 9062SOL    HW128085   1.323   4.720   2.062
 9062SOL    HW228086   1.469   4.725   2.133
 9063SOL     OW28087   2.856   1.701   2.661
 9063SOL    HW128088   2.765   1.725   2.628
 9063SOL    HW228089   2.853   1.612   2.706
 9064SOL     OW28090   6.811   4.451   4.078
 9064SOL    HW128091   6.853   4.436   4.168
 9064SOL    HW228092   6.876   4.428   4.006
 9065SOL     OW28093   2.608   6.369   5.365
 9065SOL    HW128094   2.579   6.425   5.443
 9065SOL    HW228095   2.551   6.392   5.286
 9066SOL     OW28096   6.329   0.135   5.994
 9066SOL    HW128097   6.277   0.148   5.911
 9066SOL    HW228098   6.296   0.053   6.042
 9067SOL     OW28099   6.706   6.286   4.694
 9067SOL    HW128100   6.768   6.218   4.655
 9067SOL    HW228101   6.759   6.351   4.749
 9068SOL     OW28102   4.235   0.255   4.723
 9068SOL    HW128103   4.239   0.185   4.795
 9068SOL    HW228104   4.316   0.314   4.731
 9069SOL     OW28105   5.093   2.564   2.299
 9069SOL    HW128106   5.023   2.636   2.294
 9069SOL    HW228107   5.174   2.594   2.249
 9070SOL     OW28108   1.763   2.187   6.313
 9070SOL    HW128109   1.790   2.170   6.219
 9070SOL    HW228110   1.759   2.285   6.330
 9071SOL     OW28111   4.924   0.867   6.063
 9071SOL    HW128112   5.023   0.864   6.047
 9071SOL    HW228113   4.898   0.958   6.094
 9072SOL     OW28114   5.119   6.887   1.595
 9072SOL    HW128115   5.111   6.790   1.571
 9072SOL    HW228116   5.095   6.899   1.691
 9073SOL     OW28117   4.180   6.804   0.802
 9073SOL    HW128118   4.114   6.878   0.813
 9073SOL    HW228119   4.267   6.842   0.770
 9074SOL     OW28120   1.527   0.714   0.969
 9074SOL    HW128121   1.482   0.653   0.903
 9074SOL    HW228122   1.485   0.703   1.059
 9075SOL     OW28123   6.807   0.693   2.359
 9075SOL    HW128124   6.797   0.679   2.458
 9075SOL    HW228125   6.888   0.748   2.341
 9076SOL     OW28126   4.716   1.465   3.721
 9076SOL    HW128127   4.690   1.562   3.728
 9076SOL    HW228128   4.653   1.419   3.658
 9077SOL     OW28129   4.635   1.475   6.188
 9077SOL    HW128130   4.684   1.559   6.211
 9077SOL    HW228131   4.560   1.496   6.126
 9078SOL     OW28132   5.749   4.950   6.228
 9078SOL    HW128133   5.823   4.978   6.165
 9078SOL    HW228134   5.729   5.025   6.291
 9079SOL     OW28135   1.324   0.383   5.175
 9079SOL    HW128136   1.331   0.288   5.145
 9079SOL    HW228137   1.392   0.438   5.127
 9080SOL     OW28138   6.418   3.068   6.847
 9080SOL    HW128139   6.434   2.990   6.786
 9080SOL    HW228140   6.477   3.144   6.821
 9081SOL     OW28141   3.751   1.751   1.532
 9081SOL    HW128142   3.721   1.823   1.595
 9081SOL    HW228143   3.711   1.664   1.561
 9082SOL     OW28144   2.920   6.530   4.552
 9082SOL    HW128145   2.911   6.469   4.474
 9082SOL    HW228146   2.840   6.519   4.612
 9083SOL     OW28147   4.750   4.556   6.154
 9083SOL    HW128148   4.733   4.488   6.225
 9083SOL    HW228149   4.846   4.552   6.126
 9084SOL     OW28150   0.436   2.284   6.109
 9084SOL    HW128151   0.507   2.311   6.175
 9084SOL    HW228152   0.475   2.223   6.041
 9085SOL     OW28153   2.585   5.505   0.946
 9085SOL    HW128154   2.583   5.463   1.036
 9085SOL    HW228155   2.587   5.434   0.876
 9086SOL     OW28156   6.071   4.368   1.032
 9086SOL    HW128157   5.985   4.370   0.981
 9086SOL    HW228158   6.148   4.382   0.970
 9087SOL     OW28159   5.621   3.104   2.550
 9087SOL    HW128160   5.631   3.165   2.628
 9087SOL    HW228161   5.684   3.131   2.477
 9088SOL     OW28162   5.634   6.784   1.866
 9088SOL    HW128163   5.703   6.727   1.912
 9088SOL    HW228164   5.627   6.872   1.913
 9089SOL     OW28165   4.571   5.528   4.520
 9089SOL    HW128166   4.609   5.465   4.587
 9089SOL    HW228167   4.637   5.601   4.502
 9090SOL     OW28168   5.084   6.301   4.765
 9090SOL    HW128169   5.164   6.260   4.723
 9090SOL    HW228170   5.103   6.321   4.861
 9091SOL     OW28171   2.811   2.394   0.808
 9091SOL    HW128172   2.878   2.424   0.740
 9091SOL    HW228173   2.722   2.436   0.788
 9092SOL     OW28174   1.486   0.798   6.131
 9092SOL    HW128175   1.448   0.706   6.121
 9092SOL    HW228176   1.584   0.796   6.109
 9093SOL     OW28177   1.651   6.285   6.839
 9093SOL    HW128178   1.640   6.382   6.817
 9093SOL    HW228179   1.567   6.236   6.814
 9094SOL     OW28180   0.790   5.416   2.909
 9094SOL    HW128181   0.867   5.480   2.914
 9094SOL    HW228182   0.728   5.445   2.836
 9095SOL     OW28183   5.465   4.102   6.370
 9095SOL    HW128184   5.435   4.013   6.334
 9095SOL    HW228185   5.388   4.164   6.375
 9096SOL     OW28186   5.088   3.312   2.752
 9096SOL    HW128187   5.006   3.362   2.781
 9096SOL    HW228188   5.102   3.325   2.654
 9097SOL     OW28189   0.083   3.062   6.905
 9097SOL    HW128190   0.082   3.034   7.001
 9097SOL    HW228191   0.010   3.128   6.889
 9098SOL     OW28192   3.490   3.037   0.898
 9098SOL    HW128193   3.527   2.947   0.876
 9098SOL    HW228194   3.539   3.106   0.845
 9099SOL     OW28195   3.041   3.279   0.518
 9099SOL    HW128196   3.002   3.187   0.519
 9099SOL    HW228197   3.138   3.275   0.542
 9100SOL     OW28198   1.017   2.300   2.470
 9100SOL    HW128199   0.989   2.249   2.551
 9100SOL    HW228200   1.107   2.268   2.440
 9101SOL     OW28201   1.984   3.057   2.486
 9101SOL    HW128202   2.040   3.138   2.471
 9101SOL    HW228203   1.889   3.077   2.462
 9102SOL     OW28204   3.630   6.252   1.905
 9102SOL    HW128205   3.650   6.179   1.840
 9102SOL    HW228206   3.705   6.258   1.972
 9103SOL     OW28207   0.014   3.648   0.442
 9103SOL    HW128208   0.046   3.648   0.347
 9103SOL    HW228209   0.011   3.743   0.475
 9104SOL     OW28210   3.816   6.230   2.115
 9104SOL    HW128211   3.912   6.207   2.098
 9104SOL    HW228212   3.810   6.294   2.191
 9105SOL     OW28213   1.583   0.901   0.287
 9105SOL    HW128214   1.598   0.914   0.189
 9105SOL    HW228215   1.493   0.936   0.311
 9106SOL     OW28216   5.248   3.947   6.778
 9106SOL    HW128217   5.208   3.876   6.720
 9106SOL    HW228218   5.348   3.947   6.767
 9107SOL     OW28219   4.268   0.332   6.399
 9107SOL    HW128220   4.258   0.256   6.335
 9107SOL    HW228221   4.207   0.406   6.371
 9108SOL     OW28222   4.747   4.553   5.815
 9108SOL    HW128223   4.802   4.473   5.840
 9108SOL    HW228224   4.673   4.565   5.881
 9109SOL     OW28225   1.324   2.645   3.078
 9109SOL    HW128226   1.416   2.654   3.041
 9109SOL    HW228227   1.324   2.576   3.151
 9110SOL     OW28228   2.099   4.311   4.051
 9110SOL    HW128229   2.136   4.279   3.964
 9110SOL    HW228230   2.077   4.233   4.110
 9111SOL     OW28231   4.576   3.619   0.391
 9111SOL    HW128232   4.673   3.594   0.390
 9111SOL    HW228233   4.557   3.685   0.319
 9112SOL     OW28234   0.557   4.621   4.529
 9112SOL    HW128235   0.466   4.637   4.490
 9112SOL    HW228236   0.573   4.686   4.603
 9113SOL     OW28237   4.346   6.228   0.819
 9113SOL    HW128238   4.376   6.307   0.871
 9113SOL    HW228239   4.379   6.234   0.725
 9114SOL     OW28240   1.976   5.242   1.834
 9114SOL    HW128241   2.006   5.291   1.916
 9114SOL    HW228242   2.049   5.240   1.767
 9115SOL     OW28243   0.841   5.733   5.711
 9115SOL    HW128244   0.894   5.776   5.637
 9115SOL    HW228245   0.746   5.762   5.704
 9116SOL     OW28246   6.295   2.417   0.730
 9116SOL    HW128247   6.330   2.487   0.668
 9116SOL    HW228248   6.268   2.336   0.677
 9117SOL     OW28249   5.848   2.822   6.888
 9117SOL    HW128250   5.883   2.809   6.981
 9117SOL    HW228251   5.919   2.865   6.832
 9118SOL     OW28252   6.461   5.811   0.595
 9118SOL    HW128253   6.482   5.858   0.681
 9118SOL    HW228254   6.520   5.845   0.523
 9119SOL     OW28255   5.136   1.599   2.553
 9119SOL    HW128256   5.098   1.511   2.582
 9119SOL    HW228257   5.122   1.667   2.626
 9120SOL     OW28258   5.462   3.284   5.741
 9120SOL    HW128259   5.425   3.370   5.776
 9120SOL    HW228260   5.402   3.248   5.670
 9121SOL     OW28261   1.749   2.873   6.839
 9121SOL    HW128262   1.791   2.950   6.790
 9121SOL    HW228263   1.806   2.792   6.826
 9122SOL     OW28264   1.519   3.014   1.918
 9122SOL    HW128265   1.605   3.065   1.913
 9122SOL    HW228266   1.485   2.996   1.826
 9123SOL     OW28267   4.082   0.044   4.595
 9123SOL    HW128268   4.132   0.122   4.633
 9123SOL    HW228269   4.134   0.003   4.521
 9124SOL     OW28270   5.554   6.911   5.578
 9124SOL    HW128271   5.563   6.854   5.496
 9124SOL    HW228272   5.458   6.936   5.591
 9125SOL     OW28273   5.186   3.592   2.273
 9125SOL    HW128274   5.212   3.537   2.194
 9125SOL    HW228275   5.096   3.562   2.307
 9126SOL     OW28276   5.748   2.365   2.321
 9126SOL    HW128277   5.709   2.288   2.272
 9126SOL    HW228278   5.687   2.393   2.395
 9127SOL     OW28279   6.460   0.919   5.871
 9127SOL    HW128280   6.404   0.956   5.945
 9127SOL    HW228281   6.553   0.906   5.904
 9128SOL     OW28282   4.189   1.508   5.139
 9128SOL    HW128283   4.090   1.497   5.146
 9128SOL    HW228284   4.214   1.603   5.154
 9129SOL     OW28285   0.712   2.877   1.346
 9129SOL    HW128286   0.624   2.831   1.357
 9129SOL    HW228287   0.723   2.907   1.252
 9130SOL     OW28288   6.718   3.313   0.613
 9130SOL    HW128289   6.642   3.252   0.591
 9130SOL    HW228290   6.691   3.408   0.597
 9131SOL     OW28291   0.193   3.466   5.974
 9131SOL    HW128292   0.190   3.553   5.925
 9131SOL    HW228293   0.285   3.451   6.009
 9132SOL     OW28294   0.356   5.055   4.910
 9132SOL    HW128295   0.403   4.976   4.950
 9132SOL    HW228296   0.404   5.085   4.828
 9133SOL     OW28297   3.411   6.074   1.496
 9133SOL    HW128298   3.399   6.111   1.588
 9133SOL    HW228299   3.507   6.045   1.484
 9134SOL     OW28300   4.162   5.932   6.922
 9134SOL    HW128301   4.199   6.003   6.862
 9134SOL    HW228302   4.126   5.974   7.005
 9135SOL     OW28303   6.556   6.100   2.140
 9135SOL    HW128304   6.538   6.192   2.106
 9135SOL    HW228305   6.521   6.091   2.233
 9136SOL     OW28306   5.289   5.191   5.572
 9136SOL    HW128307   5.209   5.198   5.632
 9136SOL    HW228308   5.372   5.182   5.627
 9137SOL     OW28309   5.102   2.153   1.360
 9137SOL    HW128310   5.198   2.157   1.388
 9137SOL    HW228311   5.096   2.123   1.264
 9138SOL     OW28312   6.359   5.437   5.771
 9138SOL    HW128313   6.386   5.415   5.864
 9138SOL    HW228314   6.272   5.486   5.771
 9139SOL     OW28315   2.481   1.883   4.660
 9139SOL    HW128316   2.519   1.819   4.593
 9139SOL    HW228317   2.382   1.873   4.663
 9140SOL     OW28318   6.111   2.944   2.693
 9140SOL    HW128319   6.209   2.928   2.696
 9140SOL    HW228320   6.067   2.873   2.637
 9141SOL     OW28321   5.756   0.127   6.602
 9141SOL    HW128322   5.676   0.141   6.544
 9141SOL    HW228323   5.737   0.165   6.693
 9142SOL     OW28324   1.046   2.201   0.969
 9142SOL    HW128325   0.998   2.258   0.902
 9142SOL    HW228326   0.991   2.193   1.052
 9143SOL     OW28327   5.277   2.959   1.120
 9143SOL    HW128328   5.342   3.033   1.101
 9143SOL    HW228329   5.258   2.909   1.036
 9144SOL     OW28330   2.737   5.386   5.511
 9144SOL    HW128331   2.664   5.354   5.571
 9144SOL    HW228332   2.731   5.339   5.423
 9145SOL     OW28333   6.389   5.305   0.033
 9145SOL    HW128334   6.469   5.265   0.078
 9145SOL    HW228335   6.353   5.380   0.088
 9146SOL     OW28336   5.210   2.700   2.878
 9146SOL    HW128337   5.194   2.608   2.842
 9146SOL    HW228338   5.191   2.767   2.807
 9147SOL     OW28339   6.148   0.245   3.712
 9147SOL    HW128340   6.200   0.281   3.789
 9147SOL    HW228341   6.203   0.176   3.665
 9148SOL     OW28342   4.803   6.502   0.511
 9148SOL    HW128343   4.704   6.513   0.511
 9148SOL    HW228344   4.847   6.589   0.492
 9149SOL     OW28345   5.293   3.037   3.498
 9149SOL    HW128346   5.273   2.971   3.571
 9149SOL    HW228347   5.261   3.000   3.411
 9150SOL     OW28348   2.970   5.219   2.649
 9150SOL    HW128349   3.036   5.178   2.713
 9150SOL    HW228350   2.946   5.151   2.579
 9151SOL     OW28351   1.669   4.779   3.704
 9151SOL    HW128352   1.657   4.760   3.802
 9151SOL    HW228353   1.579   4.793   3.662
 9152SOL     OW28354   2.351   4.566   4.949
 9152SOL    HW128355   2.331   4.510   4.868
 9152SOL    HW228356   2.391   4.508   5.020
 9153SOL     OW28357   0.888   3.148   1.032
 9153SOL    HW128358   0.968   3.102   1.070
 9153SOL    HW228359   0.867   3.230   1.085
 9154SOL     OW28360   4.471   5.262   6.212
 9154SOL    HW128361   4.395   5.275   6.275
 9154SOL    HW228362   4.520   5.178   6.235
 9155SOL     OW28363   1.167   3.463   1.775
 9155SOL    HW128364   1.110   3.541   1.803
 9155SOL    HW228365   1.167   3.456   1.675
 9156SOL     OW28366   1.600   2.605   0.948
 9156SOL    HW128367   1.679   2.615   0.888
 9156SOL    HW228368   1.531   2.675   0.925
 9157SOL     OW28369   6.765   4.564   6.254
 9157SOL    HW128370   6.717   4.538   6.338
 9157SOL    HW228371   6.846   4.507   6.242
 9158SOL     OW28372   5.629   3.520   4.232
 9158SOL    HW128373   5.573   3.577   4.293
 9158SOL    HW228374   5.645   3.569   4.147
 9159SOL     OW28375   1.791   7.019   2.469
 9159SOL    HW128376   1.794   6.950   2.541
 9159SOL    HW228377   1.884   0.019   2.442
 9160SOL     OW28378   6.277   0.641   4.860
 9160SOL    HW128379   6.285   0.546   4.830
 9160SOL    HW228380   6.368   0.677   4.880
 9161SOL     OW28381   4.605   4.361   4.910
 9161SOL    HW128382   4.623   4.353   5.008
 9161SOL    HW228383   4.528   4.423   4.895
 9162SOL     OW28384   4.744   0.703   4.750
 9162SOL    HW128385   4.727   0.616   4.704
 9162SOL    HW228386   4.687   0.774   4.709
 9163SOL     OW28387   1.748   3.042   4.337
 9163SOL    HW128388   1.694   2.958   4.341
 9163SOL    HW228389   1.835   3.028   4.386
 9164SOL     OW28390   2.451   1.153   6.551
 9164SOL    HW128391   2.503   1.233   6.580
 9164SOL    HW228392   2.511   1.073   6.548
 9165SOL     OW28393   5.775   1.994   5.429
 9165SOL    HW128394   5.830   1.985   5.345
 9165SOL    HW228395   5.804   2.075   5.479
 9166SOL     OW28396   3.873   6.160   0.749
 9166SOL    HW128397   3.801   6.225   0.723
 9166SOL    HW228398   3.884   6.092   0.677
 9167SOL     OW28399   2.379   2.619   7.021
 9167SOL    HW128400   2.293   2.646   0.040
 9167SOL    HW228401   2.452   2.680   0.028
 9168SOL     OW28402   0.038   0.283   6.404
 9168SOL    HW128403   0.118   0.291   6.464
 9168SOL    HW228404   0.042   0.353   6.333
 9169SOL     OW28405   6.017   1.287   4.476
 9169SOL    HW128406   6.014   1.257   4.571
 9169SOL    HW228407   6.079   1.229   4.425
 9170SOL     OW28408   1.414   5.406   6.839
 9170SOL    HW128409   1.354   5.432   6.763
 9170SOL    HW228410   1.505   5.444   6.824
 9171SOL     OW28411   3.795   5.337   1.015
 9171SOL    HW128412   3.835   5.381   0.935
 9171SOL    HW228413   3.797   5.237   1.003
 9172SOL     OW28414   3.404   0.729   3.942
 9172SOL    HW128415   3.351   0.782   3.875
 9172SOL    HW228416   3.456   0.792   4.000
 9173SOL     OW28417   6.469   3.777   4.808
 9173SOL    HW128418   6.564   3.794   4.781
 9173SOL    HW228419   6.428   3.863   4.839
 9174SOL     OW28420   5.460   3.323   1.621
 9174SOL    HW128421   5.431   3.228   1.610
 9174SOL    HW228422   5.383   3.384   1.601
 9175SOL     OW28423   0.320   0.531   4.720
 9175SOL    HW128424   0.281   0.439   4.710
 9175SOL    HW228425   0.420   0.525   4.719
 9176SOL     OW28426   2.974   1.036   5.359
 9176SOL    HW128427   2.943   1.112   5.416
 9176SOL    HW228428   3.049   0.987   5.405
 9177SOL     OW28429   0.772   5.161   5.157
 9177SOL    HW128430   0.699   5.098   5.130
 9177SOL    HW228431   0.731   5.242   5.200
 9178SOL     OW28432   1.716   5.271   0.335
 9178SOL    HW128433   1.705   5.242   0.240
 9178SOL    HW228434   1.809   5.307   0.348
 9179SOL     OW28435   2.982   5.146   4.448
 9179SOL    HW128436   3.010   5.051   4.440
 9179SOL    HW228437   2.911   5.155   4.518
 9180SOL     OW28438   6.337   2.626   3.044
 9180SOL    HW128439   6.398   2.683   2.990
 9180SOL    HW228440   6.269   2.584   2.984
 9181SOL     OW28441   4.308   1.948   5.019
 9181SOL    HW128442   4.279   2.043   5.030
 9181SOL    HW228443   4.341   1.913   5.107
 9182SOL     OW28444   2.419   6.984   2.017
 9182SOL    HW128445   2.443   0.055   2.036
 9182SOL    HW228446   2.492   6.923   2.049
 9183SOL     OW28447   4.649   5.698   0.652
 9183SOL    HW128448   4.748   5.690   0.646
 9183SOL    HW228449   4.625   5.764   0.724
 9184SOL     OW28450   4.980   1.455   0.802
 9184SOL    HW128451   5.042   1.389   0.760
 9184SOL    HW228452   4.925   1.499   0.731
 9185SOL     OW28453   4.228   6.840   4.440
 9185SOL    HW128454   4.278   6.761   4.406
 9185SOL    HW228455   4.140   6.811   4.476
 9186SOL     OW28456   5.911   5.832   4.371
 9186SOL    HW128457   5.873   5.924   4.364
 9186SOL    HW228458   6.011   5.837   4.362
 9187SOL     OW28459   2.741   1.426   0.721
 9187SOL    HW128460   2.793   1.502   0.681
 9187SOL    HW228461   2.688   1.460   0.799
 9188SOL     OW28462   1.486   6.493   1.553
 9188SOL    HW128463   1.576   6.451   1.569
 9188SOL    HW228464   1.498   6.591   1.538
 9189SOL     OW28465   4.566   5.791   1.542
 9189SOL    HW128466   4.622   5.848   1.602
 9189SOL    HW228467   4.470   5.820   1.549
 9190SOL     OW28468   2.864   4.633   6.323
 9190SOL    HW128469   2.771   4.640   6.360
 9190SOL    HW228470   2.860   4.634   6.223
 9191SOL     OW28471   6.711   2.752   5.651
 9191SOL    HW128472   6.646   2.680   5.677
 9191SOL    HW228473   6.691   2.783   5.558
 9192SOL     OW28474   0.789   3.253   6.175
 9192SOL    HW128475   0.728   3.193   6.228
 9192SOL    HW228476   0.811   3.209   6.088
 9193SOL     OW28477   4.436   4.337   0.101
 9193SOL    HW128478   4.453   4.299   0.010
 9193SOL    HW228479   4.478   4.278   0.170
 9194SOL     OW28480   3.161   0.808   3.513
 9194SOL    HW128481   3.197   0.832   3.423
 9194SOL    HW228482   3.062   0.820   3.513
 9195SOL     OW28483   1.611   1.736   3.768
 9195SOL    HW128484   1.576   1.792   3.844
 9195SOL    HW228485   1.642   1.796   3.694
 9196SOL     OW28486   5.221   6.824   2.444
 9196SOL    HW128487   5.183   6.842   2.535
 9196SOL    HW228488   5.147   6.803   2.380
 9197SOL     OW28489   1.657   5.222   1.666
 9197SOL    HW128490   1.741   5.168   1.663
 9197SOL    HW228491   1.645   5.268   1.579
 9198SOL     OW28492   6.658   4.993   6.842
 9198SOL    HW128493   6.568   4.980   6.885
 9198SOL    HW228494   6.646   4.999   6.743
 9199SOL     OW28495   1.034   4.230   5.870
 9199SOL    HW128496   1.027   4.210   5.968
 9199SOL    HW228497   1.125   4.266   5.850
 9200SOL     OW28498   2.749   6.603   6.803
 9200SOL    HW128499   2.809   6.550   6.742
 9200SOL    HW228500   2.725   6.690   6.759
 9201SOL     OW28501   0.316   2.322   0.656
 9201SOL    HW128502   0.244   2.381   0.694
 9201SOL    HW228503   0.350   2.361   0.570
 9202SOL     OW28504   1.306   6.562   2.238
 9202SOL    HW128505   1.393   6.512   2.237
 9202SOL    HW228506   1.231   6.496   2.238
 9203SOL     OW28507   0.776   4.005   6.714
 9203SOL    HW128508   0.700   3.994   6.649
 9203SOL    HW228509   0.852   4.052   6.669
 9204SOL     OW28510   5.032   2.800   6.080
 9204SOL    HW128511   4.941   2.760   6.088
 9204SOL    HW228512   5.027   2.897   6.106
 9205SOL     OW28513   5.804   4.458   3.351
 9205SOL    HW128514   5.811   4.557   3.366
 9205SOL    HW228515   5.895   4.418   3.354
 9206SOL     OW28516   3.925   5.906   2.763
 9206SOL    HW128517   3.961   5.860   2.844
 9206SOL    HW228518   3.825   5.899   2.762
 9207SOL     OW28519   5.155   3.826   5.987
 9207SOL    HW128520   5.081   3.825   5.920
 9207SOL    HW228521   5.212   3.907   5.973
 9208SOL     OW28522   5.817   4.386   3.679
 9208SOL    HW128523   5.844   4.452   3.749
 9208SOL    HW228524   5.743   4.425   3.624
 9209SOL     OW28525   4.092   0.694   6.629
 9209SOL    HW128526   4.089   0.599   6.659
 9209SOL    HW228527   4.033   0.749   6.688
 9210SOL     OW28528   7.002   0.563   2.790
 9210SOL    HW128529   0.009   0.494   2.856
 9210SOL    HW228530   6.904   0.554   2.776
 9211SOL     OW28531   0.575   2.078   5.979
 9211SOL    HW128532   0.541   2.066   5.886
 9211SOL    HW228533   0.623   1.996   6.008
 9212SOL     OW28534   5.335   5.275   4.098
 9212SOL    HW128535   5.428   5.263   4.062
 9212SOL    HW228536   5.294   5.357   4.058
 9213SOL     OW28537   5.287   3.454   5.205
 9213SOL    HW128538   5.244   3.364   5.214
 9213SOL    HW228539   5.280   3.503   5.292
 9214SOL     OW28540   6.849   3.379   6.615
 9214SOL    HW128541   6.810   3.317   6.683
 9214SOL    HW228542   6.788   3.382   6.535
 9215SOL     OW28543   0.880   2.570   1.232
 9215SOL    HW128544   0.820   2.535   1.160
 9215SOL    HW228545   0.832   2.564   1.320
 9216SOL     OW28546   3.228   0.359   2.146
 9216SOL    HW128547   3.272   0.428   2.089
 9216SOL    HW228548   3.214   0.275   2.092
 9217SOL     OW28549   0.245   2.516   0.385
 9217SOL    HW128550   0.225   2.422   0.358
 9217SOL    HW228551   0.191   2.579   0.329
 9218SOL     OW28552   1.900   0.189   0.036
 9218SOL    HW128553   1.952   0.232   0.110
 9218SOL    HW228554   1.817   0.242   0.018
 9219SOL     OW28555   6.316   3.025   0.948
 9219SOL    HW128556   6.373   3.068   1.018
 9219SOL    HW228557   6.308   2.927   0.968
 9220SOL     OW28558   1.288   6.331   1.553
 9220SOL    HW128559   1.370   6.387   1.548
 9220SOL    HW228560   1.235   6.357   1.634
 9221SOL     OW28561   3.319   0.531   2.946
 9221SOL    HW128562   3.276   0.455   2.897
 9221SOL    HW228563   3.254   0.607   2.954
 9222SOL     OW28564   2.152   6.666   6.103
 9222SOL    HW128565   2.226   6.620   6.152
 9222SOL    HW228566   2.118   6.607   6.030
 9223SOL     OW28567   0.731   1.052   3.816
 9223SOL    HW128568   0.774   1.097   3.737
 9223SOL    HW228569   0.663   1.113   3.856
 9224SOL     OW28570   1.311   4.971   5.124
 9224SOL    HW128571   1.318   5.069   5.145
 9224SOL    HW228572   1.389   4.943   5.069
 9225SOL     OW28573   3.122   6.761   6.113
 9225SOL    HW128574   3.161   6.825   6.047
 9225SOL    HW228575   3.195   6.717   6.165
 9226SOL     OW28576   5.985   6.451   0.903
 9226SOL    HW128577   6.081   6.475   0.908
 9226SOL    HW228578   5.962   6.387   0.978
 9227SOL     OW28579   0.908   5.368   0.306
 9227SOL    HW128580   0.817   5.396   0.338
 9227SOL    HW228581   0.977   5.394   0.373
 9228SOL     OW28582   1.153   1.906   5.393
 9228SOL    HW128583   1.115   1.861   5.473
 9228SOL    HW228584   1.088   1.900   5.317
 9229SOL     OW28585   0.656   5.666   4.887
 9229SOL    HW128586   0.662   5.764   4.907
 9229SOL    HW228587   0.737   5.619   4.923
 9230SOL     OW28588   4.384   1.109   3.587
 9230SOL    HW128589   4.438   1.062   3.656
 9230SOL    HW228590   4.348   1.042   3.522
 9231SOL     OW28591   0.444   4.416   4.705
 9231SOL    HW128592   0.490   4.327   4.699
 9231SOL    HW228593   0.468   4.472   4.626
 9232SOL     OW28594   3.884   5.121   0.503
 9232SOL    HW128595   3.971   5.121   0.552
 9232SOL    HW228596   3.837   5.034   0.520
 9233SOL     OW28597   5.455   5.413   2.190
 9233SOL    HW128598   5.435   5.374   2.280
 9233SOL    HW228599   5.524   5.357   2.145
 9234SOL     OW28600   3.701   6.072   5.738
 9234SOL    HW128601   3.798   6.058   5.753
 9234SOL    HW228602   3.652   5.987   5.759
 9235SOL     OW28603   1.559   3.311   3.414
 9235SOL    HW128604   1.624   3.306   3.489
 9235SOL    HW228605   1.607   3.328   3.328
 9236SOL     OW28606   2.612   4.328   5.562
 9236SOL    HW128607   2.597   4.230   5.553
 9236SOL    HW228608   2.685   4.356   5.500
 9237SOL     OW28609   1.817   5.688   4.537
 9237SOL    HW128610   1.752   5.617   4.512
 9237SOL    HW228611   1.904   5.647   4.565
 9238SOL     OW28612   3.565   1.391   0.143
 9238SOL    HW128613   3.558   1.488   0.120
 9238SOL    HW228614   3.474   1.355   0.163
 9239SOL     OW28615   6.652   4.553   0.626
 9239SOL    HW128616   6.726   4.592   0.571
 9239SOL    HW228617   6.648   4.454   0.610
 9240SOL     OW28618   5.277   1.583   1.407
 9240SOL    HW128619   5.241   1.640   1.333
 9240SOL    HW228620   5.351   1.632   1.453
 9241SOL     OW28621   0.330   4.861   5.540
 9241SOL    HW128622   0.253   4.908   5.497
 9241SOL    HW228623   0.310   4.846   5.636
 9242SOL     OW28624   0.339   5.483   0.328
 9242SOL    HW128625   0.370   5.578   0.323
 9242SOL    HW228626   0.417   5.423   0.341
 9243SOL     OW28627   5.739   6.632   1.634
 9243SOL    HW128628   5.672   6.656   1.565
 9243SOL    HW228629   5.733   6.697   1.710
 9244SOL     OW28630   4.236   5.681   6.541
 9244SOL    HW128631   4.294   5.759   6.564
 9244SOL    HW228632   4.257   5.649   6.449
 9245SOL     OW28633   1.111   4.831   3.460
 9245SOL    HW128634   1.104   4.773   3.541
 9245SOL    HW228635   1.137   4.775   3.381
 9246SOL     OW28636   0.393   5.184   2.683
 9246SOL    HW128637   0.309   5.135   2.706
 9246SOL    HW228638   0.440   5.138   2.608
 9247SOL     OW28639   1.378   6.517   2.802
 9247SOL    HW128640   1.362   6.615   2.794
 9247SOL    HW228641   1.354   6.472   2.716
 9248SOL     OW28642   1.538   2.404   4.988
 9248SOL    HW128643   1.492   2.481   5.032
 9248SOL    HW228644   1.563   2.335   5.057
 9249SOL     OW28645   4.792   4.035   6.909
 9249SOL    HW128646   4.867   3.972   6.889
 9249SOL    HW228647   4.710   3.983   6.934
 9250SOL     OW28648   5.744   3.087   4.427
 9250SOL    HW128649   5.739   3.086   4.527
 9250SOL    HW228650   5.754   3.181   4.395
 9251SOL     OW28651   4.000   2.200   3.161
 9251SOL    HW128652   4.018   2.167   3.254
 9251SOL    HW228653   3.909   2.172   3.132
 9252SOL     OW28654   5.946   0.421   4.353
 9252SOL    HW128655   5.889   0.503   4.354
 9252SOL    HW228656   6.005   0.422   4.273
 9253SOL     OW28657   5.959   6.339   5.937
 9253SOL    HW128658   5.922   6.294   5.856
 9253SOL    HW228659   6.040   6.391   5.912
 9254SOL     OW28660   6.437   4.297   2.845
 9254SOL    HW128661   6.496   4.220   2.869
 9254SOL    HW228662   6.346   4.264   2.821
 9255SOL     OW28663   4.655   3.905   0.319
 9255SOL    HW128664   4.708   3.844   0.260
 9255SOL    HW228665   4.708   3.928   0.400
 9256SOL     OW28666   4.242   6.634   2.438
 9256SOL    HW128667   4.247   6.726   2.477
 9256SOL    HW228668   4.221   6.568   2.510
 9257SOL     OW28669   1.049   3.810   3.134
 9257SOL    HW128670   1.053   3.754   3.052
 9257SOL    HW228671   1.109   3.771   3.204
 9258SOL     OW28672   3.469   3.509   3.567
 9258SOL    HW128673   3.384   3.538   3.611
 9258SOL    HW228674   3.477   3.409   3.571
 9259SOL     OW28675   1.391   2.473   0.029
 9259SOL    HW128676   1.465   2.503   6.993
 9259SOL    HW228677   1.401   2.515   0.119
 9260SOL     OW28678   4.994   1.899   5.047
 9260SOL    HW128679   5.054   1.826   5.013
 9260SOL    HW228680   5.015   1.984   4.998
 9261SOL     OW28681   4.745   0.462   6.486
 9261SOL    HW128682   4.786   0.530   6.425
 9261SOL    HW228683   4.656   0.495   6.518
 9262SOL     OW28684   0.348   3.538   5.612
 9262SOL    HW128685   0.359   3.569   5.517
 9262SOL    HW228686   0.252   3.549   5.639
 9263SOL     OW28687   5.697   5.225   1.729
 9263SOL    HW128688   5.669   5.177   1.646
 9263SOL    HW228689   5.769   5.291   1.707
 9264SOL     OW28690   5.592   4.306   0.310
 9264SOL    HW128691   5.668   4.367   0.287
 9264SOL    HW228692   5.553   4.267   0.226
 9265SOL     OW28693   3.556   1.700   0.031
 9265SOL    HW128694   3.635   1.744   0.074
 9265SOL    HW228695   3.535   1.746   6.969
 9266SOL     OW28696   2.255   6.601   1.939
 9266SOL    HW128697   2.253   6.700   1.926
 9266SOL    HW228698   2.342   6.574   1.980
 9267SOL     OW28699   0.511   3.946   5.552
 9267SOL    HW128700   0.526   4.044   5.544
 9267SOL    HW228701   0.594   3.897   5.525
 9268SOL     OW28702   1.361   4.817   1.516
 9268SOL    HW128703   1.402   4.748   1.576
 9268SOL    HW228704   1.413   4.820   1.430
 9269SOL     OW28705   3.112   1.582   6.062
 9269SOL    HW128706   3.037   1.647   6.056
 9269SOL    HW228707   3.195   1.630   6.092
 9270SOL     OW28708   4.605   6.706   5.803
 9270SOL    HW128709   4.554   6.791   5.811
 9270SOL    HW228710   4.543   6.631   5.783
 9271SOL     OW28711   1.281   6.605   6.746
 9271SOL    HW128712   1.329   6.603   6.834
 9271SOL    HW228713   1.347   6.609   6.672
 9272SOL     OW28714   1.810   5.380   5.034
 9272SOL    HW128715   1.782   5.286   5.014
 9272SOL    HW228716   1.802   5.397   5.132
 9273SOL     OW28717   5.425   6.084   3.643
 9273SOL    HW128718   5.350   6.017   3.651
 9273SOL    HW228719   5.410   6.159   3.707
 9274SOL     OW28720   6.661   2.810   0.180
 9274SOL    HW128721   6.655   2.736   0.247
 9274SOL    HW228722   6.654   2.898   0.228
 9275SOL     OW28723   6.816   2.136   0.167
 9275SOL    HW128724   6.778   2.212   0.220
 9275SOL    HW228725   6.791   2.147   0.071
 9276SOL     OW28726   1.832   4.426   2.795
 9276SOL    HW128727   1.858   4.515   2.757
 9276SOL    HW228728   1.793   4.369   2.723
 9277SOL     OW28729   5.477   3.100   0.567
 9277SOL    HW128730   5.441   3.067   0.654
 9277SOL    HW228731   5.577   3.094   0.568
 9278SOL     OW28732   1.249   0.551   5.468
 9278SOL    HW128733   1.226   0.466   5.421
 9278SOL    HW228734   1.189   0.562   5.547
 9279SOL     OW28735   5.190   0.769   2.319
 9279SOL    HW128736   5.176   0.678   2.280
 9279SOL    HW228737   5.157   0.838   2.255
 9280SOL     OW28738   1.271   1.112   2.667
 9280SOL    HW128739   1.259   1.177   2.591
 9280SOL    HW228740   1.185   1.065   2.684
 9281SOL     OW28741   3.069   4.568   0.979
 9281SOL    HW128742   3.151   4.564   0.922
 9281SOL    HW228743   3.082   4.509   1.059
 9282SOL     OW28744   5.350   1.055   4.595
 9282SOL    HW128745   5.447   1.034   4.600
 9282SOL    HW228746   5.321   1.100   4.680
 9283SOL     OW28747   5.902   0.080   3.727
 9283SOL    HW128748   5.894   0.110   3.822
 9283SOL    HW228749   5.961   0.144   3.678
 9284SOL     OW28750   3.400   4.774   6.231
 9284SOL    HW128751   3.341   4.754   6.153
 9284SOL    HW228752   3.347   4.769   6.315
 9285SOL     OW28753   5.118   2.743   0.929
 9285SOL    HW128754   5.074   2.831   0.911
 9285SOL    HW228755   5.072   2.672   0.876
 9286SOL     OW28756   5.181   6.699   6.576
 9286SOL    HW128757   5.230   6.723   6.492
 9286SOL    HW228758   5.152   6.783   6.623
 9287SOL     OW28759   3.046   5.127   6.720
 9287SOL    HW128760   2.950   5.146   6.696
 9287SOL    HW228761   3.089   5.077   6.645
 9288SOL     OW28762   3.751   1.433   4.247
 9288SOL    HW128763   3.693   1.450   4.167
 9288SOL    HW228764   3.836   1.391   4.218
 9289SOL     OW28765   3.464   1.496   2.559
 9289SOL    HW128766   3.370   1.515   2.531
 9289SOL    HW228767   3.527   1.522   2.485
 9290SOL     OW28768   4.623   1.313   3.503
 9290SOL    HW128769   4.595   1.401   3.465
 9290SOL    HW228770   4.542   1.257   3.521
 9291SOL     OW28771   1.916   6.972   4.216
 9291SOL    HW128772   1.835   6.919   4.191
 9291SOL    HW228773   1.958   6.932   4.297
 9292SOL     OW28774   0.958   3.531   6.572
 9292SOL    HW128775   0.893   3.518   6.496
 9292SOL    HW228776   0.932   3.472   6.648
 9293SOL     OW28777   5.212   4.136   6.945
 9293SOL    HW128778   5.119   4.164   6.967
 9293SOL    HW228779   5.210   4.056   6.886
 9294SOL     OW28780   3.311   6.854   4.738
 9294SOL    HW128781   3.365   6.842   4.655
 9294SOL    HW228782   3.220   6.814   4.725
 9295SOL     OW28783   5.291   2.509   4.070
 9295SOL    HW128784   5.335   2.505   4.160
 9295SOL    HW228785   5.242   2.596   4.061
 9296SOL     OW28786   0.704   6.811   6.318
 9296SOL    HW128787   0.673   6.723   6.353
 9296SOL    HW228788   0.778   6.846   6.376
 9297SOL     OW28789   6.325   1.499   0.403
 9297SOL    HW128790   6.251   1.543   0.353
 9297SOL    HW228791   6.305   1.499   0.501
 9298SOL     OW28792   1.780   0.680   4.572
 9298SOL    HW128793   1.715   0.673   4.497
 9298SOL    HW228794   1.810   0.775   4.581
 9299SOL     OW28795   0.818   2.465   4.090
 9299SOL    HW128796   0.877   2.392   4.126
 9299SOL    HW228797   0.736   2.424   4.051
 9300SOL     OW28798   1.024   4.420   5.622
 9300SOL    HW128799   0.974   4.452   5.542
 9300SOL    HW228800   1.117   4.394   5.595
 9301SOL     OW28801   4.971   4.219   3.661
 9301SOL    HW128802   4.881   4.174   3.661
 9301SOL    HW228803   4.998   4.238   3.567
 9302SOL     OW28804   2.285   2.903   4.511
 9302SOL    HW128805   2.278   2.947   4.600
 9302SOL    HW228806   2.351   2.827   4.516
 9303SOL     OW28807   3.562   5.408   0.314
 9303SOL    HW128808   3.500   5.341   0.353
 9303SOL    HW228809   3.509   5.476   0.263
 9304SOL     OW28810   4.626   4.381   2.250
 9304SOL    HW128811   4.682   4.300   2.228
 9304SOL    HW228812   4.559   4.395   2.177
 9305SOL     OW28813   3.487   1.077   1.809
 9305SOL    HW128814   3.488   1.164   1.761
 9305SOL    HW228815   3.570   1.068   1.863
 9306SOL     OW28816   0.432   4.770   4.961
 9306SOL    HW128817   0.486   4.782   4.877
 9306SOL    HW228818   0.378   4.686   4.954
 9307SOL     OW28819   0.845   3.835   1.068
 9307SOL    HW128820   0.857   3.823   0.969
 9307SOL    HW228821   0.934   3.831   1.113
 9308SOL     OW28822   1.982   4.388   0.898
 9308SOL    HW128823   1.946   4.305   0.856
 9308SOL    HW228824   2.014   4.368   0.990
 9309SOL     OW28825   3.563   4.721   5.855
 9309SOL    HW128826   3.504   4.666   5.796
 9309SOL    HW228827   3.509   4.794   5.898
 9310SOL     OW28828   4.585   5.416   5.991
 9310SOL    HW128829   4.630   5.329   5.970
 9310SOL    HW228830   4.555   5.415   6.087
 9311SOL     OW28831   4.035   4.792   2.268
 9311SOL    HW128832   3.957   4.833   2.220
 9311SOL    HW228833   4.079   4.725   2.209
 9312SOL     OW28834   1.080   3.069   1.205
 9312SOL    HW128835   1.143   2.992   1.196
 9312SOL    HW228836   1.080   3.101   1.300
 9313SOL     OW28837   0.057   0.383   1.068
 9313SOL    HW128838   0.058   0.422   0.976
 9313SOL    HW228839   0.088   0.452   1.134
 9314SOL     OW28840   4.625   6.331   6.010
 9314SOL    HW128841   4.715   6.322   5.968
 9314SOL    HW228842   4.624   6.410   6.071
 9315SOL     OW28843   6.581   1.127   5.299
 9315SOL    HW128844   6.612   1.040   5.261
 9315SOL    HW228845   6.583   1.198   5.228
 9316SOL     OW28846   4.312   5.857   5.456
 9316SOL    HW128847   4.361   5.870   5.369
 9316SOL    HW228848   4.221   5.897   5.448
 9317SOL     OW28849   6.656   5.073   3.310
 9317SOL    HW128850   6.746   5.044   3.280
 9317SOL    HW228851   6.586   5.029   3.253
 9318SOL     OW28852   6.430   0.637   5.877
 9318SOL    HW128853   6.439   0.626   5.976
 9318SOL    HW228854   6.438   0.733   5.853
 9319SOL     OW28855   1.435   2.911   0.293
 9319SOL    HW128856   1.506   2.900   0.363
 9319SOL    HW228857   1.363   2.970   0.329
 9320SOL     OW28858   3.860   1.084   5.975
 9320SOL    HW128859   3.805   1.039   6.045
 9320SOL    HW228860   3.843   1.040   5.886
 9321SOL     OW28861   5.861   6.780   3.457
 9321SOL    HW128862   5.898   6.760   3.548
 9321SOL    HW228863   5.936   6.780   3.391
 9322SOL     OW28864   1.152   4.608   6.741
 9322SOL    HW128865   1.113   4.699   6.728
 9322SOL    HW228866   1.079   4.542   6.758
 9323SOL     OW28867   1.198   0.720   5.211
 9323SOL    HW128868   1.115   0.689   5.165
 9323SOL    HW228869   1.237   0.644   5.263
 9324SOL     OW28870   1.183   4.662   0.271
 9324SOL    HW128871   1.155   4.639   0.178
 9324SOL    HW228872   1.128   4.739   0.304
 9325SOL     OW28873   4.750   1.218   6.733
 9325SOL    HW128874   4.695   1.288   6.779
 9325SOL    HW228875   4.773   1.146   6.799
 9326SOL     OW28876   1.998   6.476   0.433
 9326SOL    HW128877   1.915   6.465   0.377
 9326SOL    HW228878   1.974   6.525   0.517
 9327SOL     OW28879   5.282   6.685   2.883
 9327SOL    HW128880   5.239   6.600   2.854
 9327SOL    HW228881   5.371   6.694   2.839
 9328SOL     OW28882   3.269   0.500   5.810
 9328SOL    HW128883   3.188   0.443   5.811
 9328SOL    HW228884   3.289   0.528   5.716
 9329SOL     OW28885   6.014   4.165   1.833
 9329SOL    HW128886   6.075   4.137   1.759
 9329SOL    HW228887   5.954   4.088   1.857
 9330SOL     OW28888   6.176   6.872   6.865
 9330SOL    HW128889   6.254   6.920   6.824
 9330SOL    HW228890   6.206   6.827   6.949
 9331SOL     OW28891   1.245   1.091   6.416
 9331SOL    HW128892   1.309   1.101   6.492
 9331SOL    HW228893   1.296   1.089   6.330
 9332SOL     OW28894   3.988   3.997   1.810
 9332SOL    HW128895   4.045   4.036   1.737
 9332SOL    HW228896   3.910   4.057   1.828
 9333SOL     OW28897   4.047   4.029   1.377
 9333SOL    HW128898   4.082   3.959   1.314
 9333SOL    HW228899   3.969   3.992   1.427
 9334SOL     OW28900   5.388   5.659   3.905
 9334SOL    HW128901   5.378   5.758   3.920
 9334SOL    HW228902   5.299   5.620   3.882
 9335SOL     OW28903   0.895   1.033   6.290
 9335SOL    HW128904   0.903   1.126   6.255
 9335SOL    HW228905   0.849   1.035   6.380
 9336SOL     OW28906   2.722   4.902   5.464
 9336SOL    HW128907   2.742   4.828   5.400
 9336SOL    HW228908   2.729   4.869   5.558
 9337SOL     OW28909   5.185   1.797   4.063
 9337SOL    HW128910   5.121   1.760   4.130
 9337SOL    HW228911   5.255   1.729   4.042
 9338SOL     OW28912   4.077   0.825   2.057
 9338SOL    HW128913   4.158   0.874   2.025
 9338SOL    HW228914   4.016   0.889   2.105
 9339SOL     OW28915   5.528   0.417   1.440
 9339SOL    HW128916   5.576   0.332   1.415
 9339SOL    HW228917   5.586   0.471   1.501
 9340SOL     OW28918   5.496   3.255   3.813
 9340SOL    HW128919   5.449   3.342   3.824
 9340SOL    HW228920   5.521   3.218   3.903
 9341SOL     OW28921   6.699   5.567   0.610
 9341SOL    HW128922   6.664   5.588   0.519
 9341SOL    HW228923   6.717   5.652   0.659
 9342SOL     OW28924   1.689   0.103   3.550
 9342SOL    HW128925   1.692   0.005   3.527
 9342SOL    HW228926   1.773   0.128   3.598
 9343SOL     OW28927   5.995   3.934   2.349
 9343SOL    HW128928   6.077   3.951   2.294
 9343SOL    HW228929   6.007   3.851   2.403
 9344SOL     OW28930   4.562   6.118   2.210
 9344SOL    HW128931   4.479   6.173   2.202
 9344SOL    HW228932   4.599   6.100   2.119
 9345SOL     OW28933   6.275   4.647   2.233
 9345SOL    HW128934   6.307   4.738   2.258
 9345SOL    HW228935   6.214   4.652   2.154
 9346SOL     OW28936   6.351   0.975   0.888
 9346SOL    HW128937   6.407   0.925   0.954
 9346SOL    HW228938   6.346   1.071   0.915
 9347SOL     OW28939   1.244   3.665   0.607
 9347SOL    HW128940   1.341   3.640   0.598
 9347SOL    HW228941   1.208   3.691   0.517
 9348SOL     OW28942   3.693   5.838   2.493
 9348SOL    HW128943   3.634   5.800   2.421
 9348SOL    HW228944   3.783   5.794   2.488
 9349SOL     OW28945   0.711   6.094   3.223
 9349SOL    HW128946   0.721   6.109   3.321
 9349SOL    HW228947   0.749   6.172   3.173
 9350SOL     OW28948   0.719   3.525   5.435
 9350SOL    HW128949   0.804   3.570   5.407
 9350SOL    HW228950   0.718   3.517   5.535
 9351SOL     OW28951   2.563   0.452   6.599
 9351SOL    HW128952   2.502   0.522   6.634
 9351SOL    HW228953   2.576   0.465   6.501
 9352SOL     OW28954   3.357   2.066   6.825
 9352SOL    HW128955   3.448   2.053   6.864
 9352SOL    HW228956   3.366   2.087   6.727
 9353SOL     OW28957   0.353   4.339   0.459
 9353SOL    HW128958   0.396   4.414   0.409
 9353SOL    HW228959   0.275   4.305   0.407
 9354SOL     OW28960   6.846   1.852   6.345
 9354SOL    HW128961   6.878   1.878   6.437
 9354SOL    HW228962   6.923   1.814   6.293
 9355SOL     OW28963   0.618   2.297   4.584
 9355SOL    HW128964   0.716   2.313   4.586
 9355SOL    HW228965   0.593   2.230   4.654
 9356SOL     OW28966   4.721   0.387   2.308
 9356SOL    HW128967   4.645   0.323   2.292
 9356SOL    HW228968   4.773   0.357   2.387
 9357SOL     OW28969   1.092   3.197   6.114
 9357SOL    HW128970   1.015   3.216   6.052
 9357SOL    HW228971   1.165   3.151   6.063
 9358SOL     OW28972   6.685   4.040   2.088
 9358SOL    HW128973   6.651   4.089   2.168
 9358SOL    HW228974   6.778   4.007   2.105
 9359SOL     OW28975   1.435   4.728   6.872
 9359SOL    HW128976   1.468   4.649   6.924
 9359SOL    HW228977   1.378   4.696   6.797
 9360SOL     OW28978   1.471   5.323   6.303
 9360SOL    HW128979   1.389   5.295   6.254
 9360SOL    HW228980   1.524   5.386   6.246
 9361SOL     OW28981   1.671   5.133   3.624
 9361SOL    HW128982   1.644   5.065   3.556
 9361SOL    HW228983   1.719   5.209   3.578
 9362SOL     OW28984   0.850   0.887   2.600
 9362SOL    HW128985   0.894   0.908   2.512
 9362SOL    HW228986   0.920   0.877   2.670
 9363SOL     OW28987   3.306   5.146   2.086
 9363SOL    HW128988   3.301   5.046   2.096
 9363SOL    HW228989   3.268   5.189   2.167
 9364SOL     OW28990   2.323   2.335   0.185
 9364SOL    HW128991   2.264   2.405   0.226
 9364SOL    HW228992   2.369   2.283   0.257
 9365SOL     OW28993   3.108   1.826   3.362
 9365SOL    HW128994   3.029   1.772   3.392
 9365SOL    HW228995   3.190   1.797   3.411
 9366SOL     OW28996   3.088   5.576   0.154
 9366SOL    HW128997   3.178   5.554   0.115
 9366SOL    HW228998   3.095   5.662   0.205
 9367SOL     OW28999   6.550   0.070   1.664
 9367SOL    HW129000   6.513   0.028   1.581
 9367SOL    HW229001   6.475   0.093   1.726
 9368SOL     OW29002   3.470   6.986   2.336
 9368SOL    HW129003   3.384   7.010   2.381
 9368SOL    HW229004   3.452   6.966   2.240
 9369SOL     OW29005   6.742   6.292   4.202
 9369SOL    HW129006   6.713   6.385   4.223
 9369SOL    HW229007   6.661   6.233   4.196
 9370SOL     OW29008   5.409   6.657   4.427
 9370SOL    HW129009   5.431   6.701   4.514
 9370SOL    HW229010   5.493   6.629   4.381
 9371SOL     OW29011   2.681   5.997   0.666
 9371SOL    HW129012   2.767   5.968   0.708
 9371SOL    HW229013   2.701   6.056   0.587
 9372SOL     OW29014   5.270   0.419   1.504
 9372SOL    HW129015   5.362   0.416   1.466
 9372SOL    HW229016   5.224   0.332   1.488
 9373SOL     OW29017   5.419   2.081   0.394
 9373SOL    HW129018   5.423   1.996   0.447
 9373SOL    HW229019   5.356   2.144   0.439
 9374SOL     OW29020   0.459   3.133   6.341
 9374SOL    HW129021   0.445   3.069   6.266
 9374SOL    HW229022   0.377   3.189   6.352
 9375SOL     OW29023   0.120   1.936   0.854
 9375SOL    HW129024   0.049   1.868   0.870
 9375SOL    HW229025   0.209   1.891   0.843
 9376SOL     OW29026   2.478   3.906   1.651
 9376SOL    HW129027   2.445   3.903   1.557
 9376SOL    HW229028   2.405   3.936   1.712
 9377SOL     OW29029   1.603   5.091   3.163
 9377SOL    HW129030   1.531   5.118   3.227
 9377SOL    HW229031   1.576   5.008   3.114
 9378SOL     OW29032   3.672   1.121   3.561
 9378SOL    HW129033   3.701   1.209   3.597
 9378SOL    HW229034   3.710   1.048   3.618
 9379SOL     OW29035   5.087   6.932   4.746
 9379SOL    HW129036   5.071   6.968   4.654
 9379SOL    HW229037   5.142   6.849   4.740
 9380SOL     OW29038   3.525   5.783   5.594
 9380SOL    HW129039   3.533   5.842   5.514
 9380SOL    HW229040   3.450   5.815   5.652
 9381SOL     OW29041   5.532   2.847   5.181
 9381SOL    HW129042   5.570   2.933   5.216
 9381SOL    HW229043   5.432   2.851   5.187
 9382SOL     OW29044   3.998   1.316   3.882
 9382SOL    HW129045   3.995   1.415   3.895
 9382SOL    HW229046   3.952   1.293   3.796
 9383SOL     OW29047   5.400   4.350   4.310
 9383SOL    HW129048   5.500   4.348   4.307
 9383SOL    HW229049   5.371   4.398   4.393
 9384SOL     OW29050   3.401   7.007   2.062
 9384SOL    HW129051   3.449   6.922   2.037
 9384SOL    HW229052   3.458   0.061   2.036
 9385SOL     OW29053   4.416   1.385   4.243
 9385SOL    HW129054   4.422   1.443   4.162
 9385SOL    HW229055   4.490   1.409   4.306
 9386SOL     OW29056   3.307   5.443   5.136
 9386SOL    HW129057   3.349   5.410   5.051
 9386SOL    HW229058   3.231   5.504   5.115
 9387SOL     OW29059   3.232   1.834   0.829
 9387SOL    HW129060   3.309   1.817   0.891
 9387SOL    HW229061   3.178   1.910   0.863
 9388SOL     OW29062   1.785   6.711   3.367
 9388SOL    HW129063   1.774   6.752   3.276
 9388SOL    HW229064   1.736   6.766   3.435
 9389SOL     OW29065   3.018   6.011   2.997
 9389SOL    HW129066   3.018   6.084   2.929
 9389SOL    HW229067   3.010   5.922   2.952
 9390SOL     OW29068   6.118   5.300   5.955
 9390SOL    HW129069   6.063   5.284   5.873
 9390SOL    HW229070   6.198   5.241   5.954
 9391SOL     OW29071   0.465   0.922   5.130
 9391SOL    HW129072   0.538   0.986   5.104
 9391SOL    HW229073   0.500   0.829   5.124
 9392SOL     OW29074   4.978   4.231   3.933
 9392SOL    HW129075   4.984   4.257   3.836
 9392SOL    HW229076   4.881   4.220   3.957
 9393SOL     OW29077   3.037   0.030   5.554
 9393SOL    HW129078   3.124   7.018   5.586
 9393SOL    HW229079   2.987   6.983   5.506
 9394SOL     OW29080   6.253   0.491   1.291
 9394SOL    HW129081   6.314   0.455   1.221
 9394SOL    HW229082   6.158   0.476   1.263
 9395SOL     OW29083   2.395   1.006   0.717
 9395SOL    HW129084   2.327   0.968   0.653
 9395SOL    HW229085   2.481   0.957   0.708
 9396SOL     OW29086   2.088   4.391   5.156
 9396SOL    HW129087   2.024   4.414   5.230
 9396SOL    HW229088   2.038   4.383   5.070
 9397SOL     OW29089   2.836   6.734   5.530
 9397SOL    HW129090   2.883   6.795   5.594
 9397SOL    HW229091   2.837   6.641   5.565
 9398SOL     OW29092   5.946   1.641   5.564
 9398SOL    HW129093   5.850   1.660   5.540
 9398SOL    HW229094   5.992   1.602   5.484
 9399SOL     OW29095   0.928   2.740   3.967
 9399SOL    HW129096   0.977   2.653   3.969
 9399SOL    HW229097   0.883   2.755   4.056
 9400SOL     OW29098   4.844   0.306   0.536
 9400SOL    HW129099   4.802   0.223   0.500
 9400SOL    HW229100   4.783   0.346   0.606
 9401SOL     OW29101   0.173   2.213   1.858
 9401SOL    HW129102   0.082   2.225   1.898
 9401SOL    HW229103   0.177   2.260   1.770
 9402SOL     OW29104   1.367   4.635   3.225
 9402SOL    HW129105   1.341   4.553   3.277
 9402SOL    HW229106   1.286   4.675   3.183
 9403SOL     OW29107   6.755   1.422   2.049
 9403SOL    HW129108   6.786   1.347   1.990
 9403SOL    HW229109   6.803   1.417   2.137
 9404SOL     OW29110   0.032   1.895   1.390
 9404SOL    HW129111   0.071   1.815   1.345
 9404SOL    HW229112   6.990   1.939   1.328
 9405SOL     OW29113   1.234   4.443   4.664
 9405SOL    HW129114   1.305   4.389   4.709
 9405SOL    HW229115   1.255   4.452   4.567
 9406SOL     OW29116   1.477   3.091   0.076
 9406SOL    HW129117   1.481   3.032   0.157
 9406SOL    HW229118   1.399   3.063   0.019
 9407SOL     OW29119   2.868   5.156   4.040
 9407SOL    HW129120   2.951   5.108   4.067
 9407SOL    HW229121   2.792   5.091   4.032
 9408SOL     OW29122   0.216   2.123   6.212
 9408SOL    HW129123   0.302   2.171   6.198
 9408SOL    HW229124   0.176   2.097   6.124
 9409SOL     OW29125   6.719   5.439   2.428
 9409SOL    HW129126   6.756   5.487   2.349
 9409SOL    HW229127   6.775   5.457   2.508
 9410SOL     OW29128   5.108   0.999   2.012
 9410SOL    HW129129   5.044   0.961   2.079
 9410SOL    HW229130   5.107   1.099   2.018
 9411SOL     OW29131   3.104   3.920   2.731
 9411SOL    HW129132   3.193   3.877   2.746
 9411SOL    HW229133   3.048   3.861   2.672
 9412SOL     OW29134   1.261   0.530   2.074
 9412SOL    HW129135   1.281   0.602   2.008
 9412SOL    HW229136   1.339   0.517   2.134
 9413SOL     OW29137   5.052   4.828   4.846
 9413SOL    HW129138   5.106   4.763   4.793
 9413SOL    HW229139   5.083   4.921   4.826
 9414SOL     OW29140   3.039   1.910   4.413
 9414SOL    HW129141   3.083   1.980   4.468
 9414SOL    HW229142   3.108   1.848   4.375
 9415SOL     OW29143   2.492   0.093   1.737
 9415SOL    HW129144   2.408   0.137   1.706
 9415SOL    HW229145   2.523   0.027   1.668
 9416SOL     OW29146   0.242   1.060   5.108
 9416SOL    HW129147   0.214   1.060   5.012
 9416SOL    HW229148   0.318   0.996   5.121
 9417SOL     OW29149   3.407   6.252   1.718
 9417SOL    HW129150   3.479   6.256   1.788
 9417SOL    HW229151   3.342   6.326   1.733
 9418SOL     OW29152   2.527   1.593   2.797
 9418SOL    HW129153   2.427   1.593   2.794
 9418SOL    HW229154   2.563   1.635   2.714
 9419SOL     OW29155   2.565   3.189   6.728
 9419SOL    HW129156   2.545   3.221   6.820
 9419SOL    HW229157   2.488   3.209   6.668
 9420SOL     OW29158   5.795   4.556   0.208
 9420SOL    HW129159   5.875   4.611   0.183
 9420SOL    HW229160   5.745   4.531   0.125
 9421SOL     OW29161   2.825   5.367   4.268
 9421SOL    HW129162   2.854   5.285   4.318
 9421SOL    HW229163   2.831   5.350   4.169
 9422SOL     OW29164   2.751   5.980   4.108
 9422SOL    HW129165   2.711   6.036   4.180
 9422SOL    HW229166   2.679   5.944   4.049
 9423SOL     OW29167   4.239   6.410   2.631
 9423SOL    HW129168   4.210   6.328   2.582
 9423SOL    HW229169   4.332   6.397   2.666
 9424SOL     OW29170   5.125   1.459   4.548
 9424SOL    HW129171   5.073   1.519   4.488
 9424SOL    HW229172   5.135   1.369   4.505
 9425SOL     OW29173   5.683   5.070   1.509
 9425SOL    HW129174   5.761   5.099   1.454
 9425SOL    HW229175   5.711   4.996   1.570
 9426SOL     OW29176   2.039   1.532   5.838
 9426SOL    HW129177   1.971   1.563   5.906
 9426SOL    HW229178   2.008   1.448   5.795
 9427SOL     OW29179   2.349   6.026   2.972
 9427SOL    HW129180   2.368   6.118   3.006
 9427SOL    HW229181   2.287   6.032   2.894
 9428SOL     OW29182   6.355   6.981   0.255
 9428SOL    HW129183   6.307   6.896   0.231
 9428SOL    HW229184   6.313   7.021   0.336
 9429SOL     OW29185   1.389   2.343   3.711
 9429SOL    HW129186   1.335   2.329   3.628
 9429SOL    HW229187   1.362   2.429   3.754
 9430SOL     OW29188   0.535   2.629   4.036
 9430SOL    HW129189   0.435   2.639   4.039
 9430SOL    HW229190   0.560   2.571   3.958
 9431SOL     OW29191   6.552   4.432   1.198
 9431SOL    HW129192   6.628   4.471   1.249
 9431SOL    HW229193   6.548   4.473   1.107
 9432SOL     OW29194   6.631   1.685   4.265
 9432SOL    HW129195   6.643   1.777   4.229
 9432SOL    HW229196   6.581   1.629   4.199
 9433SOL     OW29197   3.912   5.808   3.453
 9433SOL    HW129198   3.812   5.818   3.450
 9433SOL    HW229199   3.941   5.783   3.545
 9434SOL     OW29200   5.587   5.145   3.667
 9434SOL    HW129201   5.659   5.213   3.675
 9434SOL    HW229202   5.505   5.178   3.715
 9435SOL     OW29203   0.123   2.024   2.506
 9435SOL    HW129204   0.190   1.989   2.440
 9435SOL    HW229205   0.088   1.948   2.561
 9436SOL     OW29206   1.220   0.882   2.413
 9436SOL    HW129207   1.151   0.813   2.390
 9436SOL    HW229208   1.256   0.922   2.329
 9437SOL     OW29209   1.051   5.175   3.625
 9437SOL    HW129210   0.993   5.254   3.644
 9437SOL    HW229211   1.071   5.171   3.527
 9438SOL     OW29212   0.837   6.974   2.079
 9438SOL    HW129213   0.808   6.933   2.166
 9438SOL    HW229214   0.927   7.016   2.089
 9439SOL     OW29215   0.332   3.049   0.956
 9439SOL    HW129216   0.382   2.982   0.901
 9439SOL    HW229217   0.318   3.133   0.903
 9440SOL     OW29218   2.568   4.556   3.258
 9440SOL    HW129219   2.551   4.642   3.305
 9440SOL    HW229220   2.519   4.482   3.305
 9441SOL     OW29221   6.535   5.833   5.500
 9441SOL    HW129222   6.598   5.774   5.551
 9441SOL    HW229223   6.441   5.805   5.518
 9442SOL     OW29224   4.297   3.383   1.486
 9442SOL    HW129225   4.370   3.416   1.546
 9442SOL    HW229226   4.226   3.453   1.479
 9443SOL     OW29227   2.662   5.895   1.465
 9443SOL    HW129228   2.744   5.838   1.460
 9443SOL    HW229229   2.594   5.850   1.524
 9444SOL     OW29230   1.923   3.905   0.801
 9444SOL    HW129231   1.843   3.855   0.836
 9444SOL    HW229232   1.980   3.844   0.747
 9445SOL     OW29233   6.834   2.157   3.489
 9445SOL    HW129234   6.865   2.245   3.523
 9445SOL    HW229235   6.888   2.132   3.408
 9446SOL     OW29236   6.958   4.766   4.254
 9446SOL    HW129237   6.937   4.861   4.228
 9446SOL    HW229238   6.907   4.743   4.338
 9447SOL     OW29239   4.796   4.788   2.972
 9447SOL    HW129240   4.784   4.689   2.963
 9447SOL    HW229241   4.724   4.835   2.921
 9448SOL     OW29242   6.071   6.962   5.916
 9448SOL    HW129243   6.125   6.977   5.998
 9448SOL    HW229244   6.081   0.016   5.854
 9449SOL     OW29245   5.316   6.611   0.625
 9449SOL    HW129246   5.255   6.685   0.596
 9449SOL    HW229247   5.396   6.608   0.565
 9450SOL     OW29248   1.526   5.312   4.173
 9450SOL    HW129249   1.566   5.297   4.263
 9450SOL    HW229250   1.591   5.283   4.102
 9451SOL     OW29251   4.084   5.822   5.886
 9451SOL    HW129252   4.069   5.742   5.828
 9451SOL    HW229253   4.014   5.891   5.866
 9452SOL     OW29254   0.619   3.703   0.456
 9452SOL    HW129255   0.684   3.657   0.516
 9452SOL    HW229256   0.668   3.763   0.393
 9453SOL     OW29257   2.247   4.739   3.068
 9453SOL    HW129258   2.201   4.650   3.073
 9453SOL    HW229259   2.297   4.747   2.982
 9454SOL     OW29260   4.380   3.726   0.140
 9454SOL    HW129261   4.298   3.670   0.153
 9454SOL    HW229262   4.371   3.812   0.191
 9455SOL     OW29263   2.500   1.865   2.175
 9455SOL    HW129264   2.476   1.959   2.199
 9455SOL    HW229265   2.502   1.856   2.076
 9456SOL     OW29266   6.205   4.204   2.029
 9456SOL    HW129267   6.169   4.261   2.103
 9456SOL    HW229268   6.131   4.178   1.967
 9457SOL     OW29269   0.762   4.771   4.405
 9457SOL    HW129270   0.681   4.727   4.446
 9457SOL    HW229271   0.842   4.714   4.422
 9458SOL     OW29272   0.127   3.904   0.539
 9458SOL    HW129273   0.168   3.968   0.604
 9458SOL    HW229274   0.129   3.943   0.447
 9459SOL     OW29275   5.331   4.274   3.735
 9459SOL    HW129276   5.410   4.322   3.771
 9459SOL    HW229277   5.258   4.339   3.713
 9460SOL     OW29278   1.890   3.064   4.693
 9460SOL    HW129279   1.954   3.091   4.765
 9460SOL    HW229280   1.921   3.102   4.606
 9461SOL     OW29281   0.973   1.312   1.029
 9461SOL    HW129282   1.041   1.262   0.975
 9461SOL    HW229283   0.882   1.296   0.992
 9462SOL     OW29284   1.701   2.846   3.707
 9462SOL    HW129285   1.651   2.903   3.642
 9462SOL    HW229286   1.751   2.775   3.656
 9463SOL     OW29287   5.446   6.784   1.370
 9463SOL    HW129288   5.441   6.714   1.440
 9463SOL    HW229289   5.425   6.744   1.281
 9464SOL     OW29290   5.938   0.663   1.460
 9464SOL    HW129291   5.868   0.706   1.403
 9464SOL    HW229292   6.026   0.707   1.444
 9465SOL     OW29293   0.180   3.954   1.559
 9465SOL    HW129294   0.163   3.989   1.650
 9465SOL    HW229295   0.102   3.976   1.499
 9466SOL     OW29296   4.236   5.312   6.311
 9466SOL    HW129297   4.197   5.285   6.223
 9466SOL    HW229298   4.255   5.410   6.311
 9467SOL     OW29299   1.805   2.630   0.762
 9467SOL    HW129300   1.871   2.603   0.832
 9467SOL    HW229301   1.849   2.626   0.672
 9468SOL     OW29302   6.703   3.394   6.392
 9468SOL    HW129303   6.639   3.328   6.353
 9468SOL    HW229304   6.730   3.459   6.322
 9469SOL     OW29305   0.113   6.337   0.628
 9469SOL    HW129306   0.024   6.308   0.593
 9469SOL    HW229307   0.180   6.338   0.554
 9470SOL     OW29308   4.583   3.932   6.668
 9470SOL    HW129309   4.572   3.913   6.766
 9470SOL    HW229310   4.493   3.934   6.624
 9471SOL     OW29311   5.598   2.193   5.689
 9471SOL    HW129312   5.617   2.228   5.598
 9471SOL    HW229313   5.572   2.268   5.749
 9472SOL     OW29314   1.022   4.453   6.209
 9472SOL    HW129315   1.081   4.517   6.160
 9472SOL    HW229316   0.950   4.504   6.256
 9473SOL     OW29317   2.926   3.419   6.676
 9473SOL    HW129318   2.831   3.448   6.683
 9473SOL    HW229319   2.956   3.427   6.580
 9474SOL     OW29320   5.955   3.118   1.568
 9474SOL    HW129321   6.018   3.189   1.601
 9474SOL    HW229322   5.861   3.145   1.589
 9475SOL     OW29323   4.513   3.441   6.855
 9475SOL    HW129324   4.596   3.391   6.881
 9475SOL    HW229325   4.510   3.453   6.756
 9476SOL     OW29326   3.617   4.119   5.643
 9476SOL    HW129327   3.663   4.190   5.591
 9476SOL    HW229328   3.551   4.161   5.706
 9477SOL     OW29329   1.562   3.152   1.122
 9477SOL    HW129330   1.521   3.207   1.195
 9477SOL    HW229331   1.490   3.123   1.059
 9478SOL     OW29332   4.522   2.907   1.112
 9478SOL    HW129333   4.441   2.851   1.095
 9478SOL    HW229334   4.587   2.854   1.167
 9479SOL     OW29335   3.896   0.147   1.364
 9479SOL    HW129336   3.814   0.109   1.409
 9479SOL    HW229337   3.868   0.202   1.285
 9480SOL     OW29338   6.056   5.046   0.244
 9480SOL    HW129339   6.058   5.093   0.155
 9480SOL    HW229340   6.067   5.113   0.317
 9481SOL     OW29341   4.930   2.281   3.163
 9481SOL    HW129342   4.998   2.352   3.147
 9481SOL    HW229343   4.917   2.228   3.080
 9482SOL     OW29344   6.301   6.900   1.778
 9482SOL    HW129345   6.207   6.885   1.750
 9482SOL    HW229346   6.319   6.853   1.864
 9483SOL     OW29347   1.635   0.850   6.423
 9483SOL    HW129348   1.593   0.855   6.514
 9483SOL    HW229349   1.563   0.838   6.354
 9484SOL     OW29350   2.290   0.397   4.482
 9484SOL    HW129351   2.190   0.396   4.487
 9484SOL    HW229352   2.326   0.311   4.516
 9485SOL     OW29353   6.120   1.855   1.249
 9485SOL    HW129354   6.150   1.950   1.250
 9485SOL    HW229355   6.197   1.795   1.230
 9486SOL     OW29356   5.064   5.696   0.895
 9486SOL    HW129357   5.018   5.704   0.806
 9486SOL    HW229358   5.022   5.761   0.959
 9487SOL     OW29359   3.277   3.702   4.502
 9487SOL    HW129360   3.249   3.768   4.432
 9487SOL    HW229361   3.214   3.709   4.580
 9488SOL     OW29362   2.230   0.411   1.031
 9488SOL    HW129363   2.298   0.474   0.992
 9488SOL    HW229364   2.139   0.438   0.999
 9489SOL     OW29365   5.045   4.144   1.330
 9489SOL    HW129366   5.005   4.193   1.252
 9489SOL    HW229367   5.123   4.090   1.298
 9490SOL     OW29368   6.980   6.141   3.268
 9490SOL    HW129369   6.947   6.227   3.307
 9490SOL    HW229370   6.917   6.111   3.196
 9491SOL     OW29371   6.039   5.478   4.063
 9491SOL    HW129372   5.968   5.547   4.077
 9491SOL    HW229373   6.041   5.416   4.141
 9492SOL     OW29374   4.423   3.378   5.809
 9492SOL    HW129375   4.348   3.341   5.754
 9492SOL    HW229376   4.395   3.466   5.848
 9493SOL     OW29377   3.276   5.698   3.937
 9493SOL    HW129378   3.187   5.743   3.936
 9493SOL    HW229379   3.265   5.603   3.907
 9494SOL     OW29380   5.822   3.104   2.332
 9494SOL    HW129381   5.882   3.134   2.406
 9494SOL    HW229382   5.816   3.005   2.331
 9495SOL     OW29383   6.591   1.277   2.631
 9495SOL    HW129384   6.545   1.253   2.717
 9495SOL    HW229385   6.533   1.340   2.579
 9496SOL     OW29386   4.645   2.209   1.896
 9496SOL    HW129387   4.685   2.210   1.805
 9496SOL    HW229388   4.549   2.182   1.890
 9497SOL     OW29389   5.819   6.178   5.763
 9497SOL    HW129390   5.752   6.125   5.815
 9497SOL    HW229391   5.771   6.239   5.699
 9498SOL     OW29392   6.803   4.780   5.351
 9498SOL    HW129393   6.842   4.760   5.441
 9498SOL    HW229394   6.854   4.855   5.309
 9499SOL     OW29395   0.302   5.944   5.058
 9499SOL    HW129396   0.341   5.868   5.007
 9499SOL    HW229397   0.214   5.916   5.098
 9500SOL     OW29398   3.663   6.366   0.926
 9500SOL    HW129399   3.630   6.377   0.832
 9500SOL    HW229400   3.619   6.433   0.985
 9501SOL     OW29401   1.502   1.655   4.412
 9501SOL    HW129402   1.422   1.692   4.459
 9501SOL    HW229403   1.506   1.692   4.319
 9502SOL     OW29404   5.934   3.720   4.051
 9502SOL    HW129405   6.024   3.678   4.041
 9502SOL    HW229406   5.925   3.796   3.987
 9503SOL     OW29407   0.092   2.184   0.544
 9503SOL    HW129408   0.015   2.208   0.603
 9503SOL    HW229409   0.177   2.208   0.589
 9504SOL     OW29410   6.734   3.879   1.817
 9504SOL    HW129411   6.698   3.803   1.764
 9504SOL    HW229412   6.658   3.939   1.845
 9505SOL     OW29413   5.132   4.626   5.651
 9505SOL    HW129414   5.215   4.608   5.598
 9505SOL    HW229415   5.054   4.583   5.605
 9506SOL     OW29416   2.270   2.241   0.558
 9506SOL    HW129417   2.247   2.172   0.490
 9506SOL    HW229418   2.360   2.280   0.538
 9507SOL     OW29419   6.533   0.551   1.116
 9507SOL    HW129420   6.631   0.532   1.109
 9507SOL    HW229421   6.483   0.490   1.055
 9508SOL     OW29422   5.904   2.189   2.497
 9508SOL    HW129423   5.853   2.243   2.429
 9508SOL    HW229424   5.946   2.111   2.453
 9509SOL     OW29425   6.690   0.122   3.541
 9509SOL    HW129426   6.732   0.185   3.607
 9509SOL    HW229427   6.609   0.080   3.583
 9510SOL     OW29428   0.910   3.591   3.420
 9510SOL    HW129429   0.970   3.664   3.454
 9510SOL    HW229430   0.849   3.628   3.350
 9511SOL     OW29431   1.027   1.251   1.541
 9511SOL    HW129432   1.070   1.174   1.493
 9511SOL    HW229433   0.949   1.217   1.594
 9512SOL     OW29434   6.713   2.157   1.388
 9512SOL    HW129435   6.664   2.098   1.452
 9512SOL    HW229436   6.652   2.184   1.314
 9513SOL     OW29437   3.094   4.956   6.221
 9513SOL    HW129438   3.160   4.956   6.145
 9513SOL    HW229439   3.003   4.979   6.185
 9514SOL     OW29440   3.047   4.202   6.838
 9514SOL    HW129441   2.965   4.224   6.891
 9514SOL    HW229442   3.047   4.105   6.813
 9515SOL     OW29443   2.141   5.478   3.388
 9515SOL    HW129444   2.178   5.555   3.336
 9515SOL    HW229445   2.208   5.403   3.389
 9516SOL     OW29446   5.418   4.158   0.654
 9516SOL    HW129447   5.405   4.240   0.598
 9516SOL    HW229448   5.424   4.078   0.595
 9517SOL     OW29449   1.518   3.986   0.918
 9517SOL    HW129450   1.476   4.070   0.952
 9517SOL    HW229451   1.560   4.004   0.829
 9518SOL     OW29452   2.594   1.651   0.421
 9518SOL    HW129453   2.680   1.674   0.375
 9518SOL    HW229454   2.596   1.555   0.449
 9519SOL     OW29455   2.324   2.386   5.817
 9519SOL    HW129456   2.276   2.300   5.833
 9519SOL    HW229457   2.399   2.395   5.883
 9520SOL     OW29458   3.015   0.180   2.611
 9520SOL    HW129459   3.091   0.145   2.555
 9520SOL    HW229460   2.980   0.264   2.570
 9521SOL     OW29461   5.421   5.579   3.182
 9521SOL    HW129462   5.453   5.614   3.094
 9521SOL    HW229463   5.373   5.651   3.232
 9522SOL     OW29464   3.769   5.732   0.920
 9522SOL    HW129465   3.674   5.704   0.932
 9522SOL    HW229466   3.829   5.671   0.972
 9523SOL     OW29467   3.450   4.910   4.149
 9523SOL    HW129468   3.520   4.850   4.189
 9523SOL    HW229469   3.494   4.985   4.099
 9524SOL     OW29470   4.265   2.793   1.691
 9524SOL    HW129471   4.199   2.848   1.740
 9524SOL    HW229472   4.219   2.744   1.616
 9525SOL     OW29473   2.228   1.826   6.026
 9525SOL    HW129474   2.222   1.831   5.927
 9525SOL    HW229475   2.215   1.917   6.065
 9526SOL     OW29476   5.832   5.553   2.699
 9526SOL    HW129477   5.779   5.623   2.746
 9526SOL    HW229478   5.922   5.591   2.675
 9527SOL     OW29479   1.126   0.947   1.721
 9527SOL    HW129480   1.125   1.024   1.785
 9527SOL    HW229481   1.187   0.967   1.644
 9528SOL     OW29482   6.647   0.629   0.528
 9528SOL    HW129483   6.612   0.721   0.513
 9528SOL    HW229484   6.655   0.612   0.626
 9529SOL     OW29485   1.112   2.754   5.563
 9529SOL    HW129486   1.209   2.747   5.588
 9529SOL    HW229487   1.079   2.846   5.582
 9530SOL     OW29488   1.583   3.071   3.052
 9530SOL    HW129489   1.522   3.009   3.002
 9530SOL    HW229490   1.550   3.082   3.146
 9531SOL     OW29491   4.008   6.021   3.085
 9531SOL    HW129492   4.097   6.057   3.115
 9531SOL    HW229493   3.982   6.066   2.999
 9532SOL     OW29494   1.365   5.659   1.585
 9532SOL    HW129495   1.365   5.567   1.544
 9532SOL    HW229496   1.453   5.703   1.566
 9533SOL     OW29497   0.300   1.482   5.494
 9533SOL    HW129498   0.213   1.486   5.544
 9533SOL    HW229499   0.287   1.430   5.409
 9534SOL     OW29500   5.131   3.203   5.244
 9534SOL    HW129501   5.091   3.114   5.265
 9534SOL    HW229502   5.061   3.274   5.254
 9535SOL     OW29503   2.351   0.885   5.899
 9535SOL    HW129504   2.348   0.853   5.994
 9535SOL    HW229505   2.297   0.824   5.841
 9536SOL     OW29506   2.470   5.715   5.457
 9536SOL    HW129507   2.497   5.809   5.436
 9536SOL    HW229508   2.491   5.656   5.379
 9537SOL     OW29509   3.026   0.692   2.600
 9537SOL    HW129510   3.103   0.718   2.657
 9537SOL    HW229511   2.997   0.771   2.545
 9538SOL     OW29512   6.726   1.031   4.188
 9538SOL    HW129513   6.688   1.086   4.114
 9538SOL    HW229514   6.814   1.070   4.217
 9539SOL     OW29515   2.314   4.535   6.265
 9539SOL    HW129516   2.291   4.615   6.320
 9539SOL    HW229517   2.313   4.453   6.323
 9540SOL     OW29518   4.574   4.345   5.263
 9540SOL    HW129519   4.647   4.283   5.234
 9540SOL    HW229520   4.514   4.297   5.328
 9541SOL     OW29521   1.756   1.817   5.051
 9541SOL    HW129522   1.774   1.883   5.124
 9541SOL    HW229523   1.676   1.846   4.999
 9542SOL     OW29524   4.906   3.393   5.201
 9542SOL    HW129525   4.862   3.459   5.141
 9542SOL    HW229526   4.873   3.300   5.180
 9543SOL     OW29527   4.572   0.427   4.983
 9543SOL    HW129528   4.501   0.460   4.920
 9543SOL    HW229529   4.529   0.398   5.069
 9544SOL     OW29530   5.697   0.468   1.905
 9544SOL    HW129531   5.674   0.375   1.932
 9544SOL    HW229532   5.658   0.533   1.970
 9545SOL     OW29533   6.536   6.246   2.992
 9545SOL    HW129534   6.523   6.219   3.088
 9545SOL    HW229535   6.522   6.345   2.985
 9546SOL     OW29536   3.045   3.906   6.741
 9546SOL    HW129537   2.983   3.839   6.781
 9546SOL    HW229538   3.134   3.901   6.786
 9547SOL     OW29539   2.186   6.645   4.115
 9547SOL    HW129540   2.204   6.730   4.166
 9547SOL    HW229541   2.145   6.578   4.177
 9548SOL     OW29542   6.264   5.315   4.962
 9548SOL    HW129543   6.233   5.235   4.910
 9548SOL    HW229544   6.309   5.286   5.046
 9549SOL     OW29545   3.334   5.258   1.209
 9549SOL    HW129546   3.317   5.342   1.261
 9549SOL    HW229547   3.270   5.252   1.132
 9550SOL     OW29548   0.055   1.641   6.711
 9550SOL    HW129549   0.033   1.544   6.724
 9550SOL    HW229550   0.124   1.669   6.777
 9551SOL     OW29551   0.256   0.241   4.746
 9551SOL    HW129552   0.337   0.190   4.774
 9551SOL    HW229553   0.204   0.269   4.827
 9552SOL     OW29554   1.575   6.569   3.036
 9552SOL    HW129555   1.572   6.490   3.097
 9552SOL    HW229556   1.524   6.549   2.953
 9553SOL     OW29557   6.385   5.037   7.021
 9553SOL    HW129558   6.364   5.133   0.016
 9553SOL    HW229559   6.369   5.018   6.924
 9554SOL     OW29560   3.060   0.938   1.732
 9554SOL    HW129561   3.038   1.000   1.808
 9554SOL    HW229562   3.152   0.901   1.745
 9555SOL     OW29563   6.438   2.460   1.433
 9555SOL    HW129564   6.448   2.417   1.344
 9555SOL    HW229565   6.484   2.548   1.434
 9556SOL     OW29566   2.777   1.355   1.405
 9556SOL    HW129567   2.692   1.398   1.435
 9556SOL    HW229568   2.841   1.350   1.482
 9557SOL     OW29569   6.108   0.291   2.584
 9557SOL    HW129570   6.032   0.280   2.648
 9557SOL    HW229571   6.170   0.213   2.592
 9558SOL     OW29572   0.061   5.166   3.060
 9558SOL    HW129573   0.003   5.106   3.005
 9558SOL    HW229574   0.155   5.133   3.058
 9559SOL     OW29575   0.614   4.073   2.184
 9559SOL    HW129576   0.618   3.996   2.120
 9559SOL    HW229577   0.694   4.131   2.172
 9560SOL     OW29578   2.513   1.267   2.518
 9560SOL    HW129579   2.581   1.286   2.588
 9560SOL    HW229580   2.557   1.262   2.428
 9561SOL     OW29581   2.844   6.275   0.696
 9561SOL    HW129582   2.926   6.331   0.684
 9561SOL    HW229583   2.825   6.265   0.793
 9562SOL     OW29584   3.811   5.274   4.119
 9562SOL    HW129585   3.903   5.300   4.090
 9562SOL    HW229586   3.805   5.276   4.218
 9563SOL     OW29587   6.562   6.840   6.904
 9563SOL    HW129588   6.530   6.831   6.810
 9563SOL    HW229589   6.533   6.928   6.942
 9564SOL     OW29590   2.826   6.643   6.520
 9564SOL    HW129591   2.873   6.723   6.558
 9564SOL    HW229592   2.889   6.593   6.460
 9565SOL     OW29593   4.315   5.843   4.579
 9565SOL    HW129594   4.349   5.750   4.592
 9565SOL    HW229595   4.300   5.860   4.482
 9566SOL     OW29596   3.658   4.573   6.467
 9566SOL    HW129597   3.665   4.542   6.562
 9566SOL    HW229598   3.600   4.509   6.416
 9567SOL     OW29599   6.405   5.797   6.471
 9567SOL    HW129600   6.324   5.744   6.446
 9567SOL    HW229601   6.473   5.737   6.512
 9568SOL     OW29602   4.986   3.773   6.189
 9568SOL    HW129603   5.059   3.799   6.125
 9568SOL    HW229604   4.897   3.790   6.148
 9569SOL     OW29605   6.540   1.262   0.177
 9569SOL    HW129606   6.583   1.196   0.114
 9569SOL    HW229607   6.470   1.215   0.231
 9570SOL     OW29608   0.358   1.465   1.058
 9570SOL    HW129609   0.344   1.375   1.101
 9570SOL    HW229610   0.291   1.476   0.984
 9571SOL     OW29611   2.830   3.843   0.015
 9571SOL    HW129612   2.906   3.887   0.061
 9571SOL    HW229613   2.796   3.902   6.965
 9572SOL     OW29614   1.063   4.305   1.339
 9572SOL    HW129615   1.043   4.215   1.376
 9572SOL    HW229616   0.984   4.338   1.287
 9573SOL     OW29617   0.705   1.047   6.476
 9573SOL    HW129618   0.673   1.130   6.430
 9573SOL    HW229619   0.691   1.055   6.574
 9574SOL     OW29620   3.409   3.691   6.020
 9574SOL    HW129621   3.468   3.766   5.988
 9574SOL    HW229622   3.412   3.616   5.954
 9575SOL     OW29623   5.932   0.991   1.535
 9575SOL    HW129624   5.968   0.951   1.451
 9575SOL    HW229625   6.001   1.049   1.576
 9576SOL     OW29626   3.660   1.450   3.977
 9576SOL    HW129627   3.756   1.462   3.951
 9576SOL    HW229628   3.614   1.390   3.911
 9577SOL     OW29629   0.844   0.108   2.461
 9577SOL    HW129630   0.937   0.110   2.424
 9577SOL    HW229631   0.807   0.201   2.461
 9578SOL     OW29632   6.137   2.704   2.173
 9578SOL    HW129633   6.214   2.674   2.227
 9578SOL    HW229634   6.057   2.647   2.193
 9579SOL     OW29635   1.111   6.997   2.109
 9579SOL    HW129636   1.181   6.933   2.140
 9579SOL    HW229637   1.140   0.013   2.022
 9580SOL     OW29638   4.839   3.669   0.091
 9580SOL    HW129639   4.743   3.656   0.068
 9580SOL    HW229640   4.884   3.725   0.021
 9581SOL     OW29641   1.610   5.517   6.165
 9581SOL    HW129642   1.609   5.616   6.174
 9581SOL    HW229643   1.695   5.481   6.202
 9582SOL     OW29644   4.457   4.518   3.973
 9582SOL    HW129645   4.528   4.556   4.033
 9582SOL    HW229646   4.376   4.496   4.028
 9583SOL     OW29647   2.180   3.653   1.725
 9583SOL    HW129648   2.210   3.618   1.814
 9583SOL    HW229649   2.199   3.586   1.654
 9584SOL     OW29650   6.536   4.982   6.583
 9584SOL    HW129651   6.631   5.003   6.560
 9584SOL    HW229652   6.498   4.921   6.515
 9585SOL     OW29653   5.585   7.003   2.537
 9585SOL    HW129654   5.498   0.025   2.524
 9585SOL    HW229655   5.620   7.023   2.629
 9586SOL     OW29656   5.162   3.591   3.655
 9586SOL    HW129657   5.183   3.500   3.621
 9586SOL    HW229658   5.068   3.593   3.689
 9587SOL     OW29659   5.737   0.473   1.614
 9587SOL    HW129660   5.826   0.516   1.596
 9587SOL    HW229661   5.717   0.478   1.711
 9588SOL     OW29662   0.072   0.586   1.263
 9588SOL    HW129663   0.165   0.556   1.284
 9588SOL    HW229664   0.018   0.589   1.348
 9589SOL     OW29665   2.116   6.610   5.776
 9589SOL    HW129666   2.211   6.588   5.800
 9589SOL    HW229667   2.104   6.709   5.776
 9590SOL     OW29668   0.661   4.028   3.016
 9590SOL    HW129669   0.599   4.105   3.036
 9590SOL    HW229670   0.724   4.016   3.093
 9591SOL     OW29671   2.359   6.285   1.027
 9591SOL    HW129672   2.433   6.218   1.014
 9591SOL    HW229673   2.398   6.377   1.034
 9592SOL     OW29674   4.288   5.697   2.783
 9592SOL    HW129675   4.245   5.683   2.873
 9592SOL    HW229676   4.362   5.632   2.771
 9593SOL     OW29677   5.851   2.610   4.626
 9593SOL    HW129678   5.774   2.596   4.563
 9593SOL    HW229679   5.839   2.551   4.706
 9594SOL     OW29680   6.513   6.251   2.533
 9594SOL    HW129681   6.602   6.206   2.534
 9594SOL    HW229682   6.471   6.243   2.623
 9595SOL     OW29683   1.123   5.741   4.282
 9595SOL    HW129684   1.085   5.793   4.359
 9595SOL    HW229685   1.189   5.674   4.316
 9596SOL     OW29686   6.562   6.385   5.373
 9596SOL    HW129687   6.539   6.405   5.278
 9596SOL    HW229688   6.494   6.321   5.411
 9597SOL     OW29689   0.490   4.347   1.601
 9597SOL    HW129690   0.526   4.311   1.687
 9597SOL    HW229691   0.532   4.300   1.524
 9598SOL     OW29692   0.430   4.523   6.099
 9598SOL    HW129693   0.504   4.457   6.116
 9598SOL    HW229694   0.461   4.592   6.034
 9599SOL     OW29695   3.580   0.234   5.731
 9599SOL    HW129696   3.513   0.220   5.659
 9599SOL    HW229697   3.615   0.328   5.726
 9600SOL     OW29698   1.169   0.426   5.931
 9600SOL    HW129699   1.096   0.396   5.993
 9600SOL    HW229700   1.185   0.354   5.863
 9601SOL     OW29701   0.688   5.036   6.438
 9601SOL    HW129702   0.737   4.949   6.429
 9601SOL    HW229703   0.648   5.042   6.530
 9602SOL     OW29704   0.430   5.221   6.335
 9602SOL    HW129705   0.469   5.213   6.243
 9602SOL    HW229706   0.435   5.133   6.381
 9603SOL     OW29707   2.384   6.228   4.084
 9603SOL    HW129708   2.286   6.245   4.089
 9603SOL    HW229709   2.425   6.239   4.174
 9604SOL     OW29710   4.830   1.036   6.932
 9604SOL    HW129711   4.919   1.003   6.901
 9604SOL    HW229712   4.842   1.085   7.019
 9605SOL     OW29713   2.299   5.703   5.667
 9605SOL    HW129714   2.368   5.707   5.595
 9605SOL    HW229715   2.345   5.699   5.756
 9606SOL     OW29716   0.482   6.224   3.453
 9606SOL    HW129717   0.553   6.162   3.488
 9606SOL    HW229718   0.510   6.318   3.470
 9607SOL     OW29719   0.625   0.972   2.258
 9607SOL    HW129720   0.614   1.064   2.294
 9607SOL    HW229721   0.551   0.953   2.193
 9608SOL     OW29722   6.516   6.962   2.509
 9608SOL    HW129723   6.452   6.914   2.450
 9608SOL    HW229724   6.593   6.996   2.454
 9609SOL     OW29725   2.322   4.332   4.827
 9609SOL    HW129726   2.305   4.237   4.801
 9609SOL    HW229727   2.345   4.337   4.924
 9610SOL     OW29728   1.869   1.619   6.032
 9610SOL    HW129729   1.883   1.706   6.080
 9610SOL    HW229730   1.773   1.593   6.037
 9611SOL     OW29731   6.810   0.516   1.080
 9611SOL    HW129732   6.877   0.563   1.138
 9611SOL    HW229733   6.840   0.521   0.985
 9612SOL     OW29734   5.809   3.161   0.899
 9612SOL    HW129735   5.907   3.152   0.916
 9612SOL    HW229736   5.760   3.174   0.985
 9613SOL     OW29737   6.136   6.814   5.435
 9613SOL    HW129738   6.184   6.772   5.358
 9613SOL    HW229739   6.181   6.901   5.458
 9614SOL     OW29740   3.394   3.850   2.248
 9614SOL    HW129741   3.414   3.931   2.192
 9614SOL    HW229742   3.303   3.859   2.287
 9615SOL     OW29743   1.608   6.023   2.746
 9615SOL    HW129744   1.553   5.986   2.671
 9615SOL    HW229745   1.562   6.102   2.785
 9616SOL     OW29746   3.468   2.100   0.821
 9616SOL    HW129747   3.502   2.013   0.857
 9616SOL    HW229748   3.475   2.170   0.892
 9617SOL     OW29749   1.420   2.848   3.371
 9617SOL    HW129750   1.395   2.911   3.444
 9617SOL    HW229751   1.355   2.856   3.296
 9618SOL     OW29752   3.835   6.570   6.383
 9618SOL    HW129753   3.826   6.653   6.328
 9618SOL    HW229754   3.840   6.595   6.480
 9619SOL     OW29755   2.076   6.010   0.498
 9619SOL    HW129756   2.151   5.950   0.470
 9619SOL    HW229757   2.069   6.086   0.433
 9620SOL     OW29758   3.264   0.598   7.000
 9620SOL    HW129759   3.306   0.513   6.968
 9620SOL    HW229760   3.333   0.670   7.003
 9621SOL     OW29761   0.056   0.743   2.620
 9621SOL    HW129762   0.025   0.837   2.635
 9621SOL    HW229763   0.025   0.685   2.695
 9622SOL     OW29764   5.987   0.839   6.999
 9622SOL    HW129765   5.990   0.923   6.945
 9622SOL    HW229766   6.051   0.772   6.960
 9623SOL     OW29767   5.209   5.554   6.725
 9623SOL    HW129768   5.292   5.508   6.756
 9623SOL    HW229769   5.233   5.640   6.681
 9624SOL     OW29770   5.028   5.580   4.907
 9624SOL    HW129771   4.961   5.591   4.834
 9624SOL    HW229772   4.983   5.593   4.996
 9625SOL     OW29773   5.338   4.671   6.915
 9625SOL    HW129774   5.284   4.658   6.998
 9625SOL    HW229775   5.352   4.582   6.871
 9626SOL     OW29776   1.803   4.690   5.357
 9626SOL    HW129777   1.777   4.752   5.430
 9626SOL    HW229778   1.724   4.636   5.329
 9627SOL     OW29779   2.060   5.166   6.143
 9627SOL    HW129780   2.072   5.102   6.067
 9627SOL    HW229781   2.017   5.250   6.109
 9628SOL     OW29782   5.797   4.102   6.518
 9628SOL    HW129783   5.862   4.112   6.593
 9628SOL    HW229784   5.744   4.186   6.508
 9629SOL     OW29785   0.010   5.740   2.773
 9629SOL    HW129786   6.970   5.786   2.834
 9629SOL    HW229787   0.068   5.808   2.727
 9630SOL     OW29788   6.617   6.606   5.555
 9630SOL    HW129789   6.529   6.653   5.563
 9630SOL    HW229790   6.610   6.536   5.483
 9631SOL     OW29791   4.343   1.215   0.966
 9631SOL    HW129792   4.269   1.168   1.014
 9631SOL    HW229793   4.426   1.160   0.971
 9632SOL     OW29794   2.655   5.333   1.624
 9632SOL    HW129795   2.675   5.431   1.619
 9632SOL    HW229796   2.622   5.310   1.715
 9633SOL     OW29797   4.050   3.222   2.181
 9633SOL    HW129798   3.953   3.243   2.196
 9633SOL    HW229799   4.097   3.303   2.146
 9634SOL     OW29800   5.398   4.856   2.578
 9634SOL    HW129801   5.399   4.851   2.678
 9634SOL    HW229802   5.320   4.806   2.543
 9635SOL     OW29803   0.928   3.774   4.300
 9635SOL    HW129804   0.933   3.864   4.257
 9635SOL    HW229805   0.885   3.709   4.238
 9636SOL     OW29806   4.224   2.051   5.743
 9636SOL    HW129807   4.234   2.075   5.839
 9636SOL    HW229808   4.314   2.036   5.703
 9637SOL     OW29809   2.196   3.336   1.212
 9637SOL    HW129810   2.159   3.349   1.121
 9637SOL    HW229811   2.295   3.323   1.206
 9638SOL     OW29812   0.238   4.233   6.535
 9638SOL    HW129813   0.165   4.294   6.566
 9638SOL    HW229814   0.321   4.252   6.587
 9639SOL     OW29815   4.637   2.103   1.638
 9639SOL    HW129816   4.617   2.094   1.541
 9639SOL    HW229817   4.701   2.032   1.666
 9640SOL     OW29818   3.956   1.395   2.534
 9640SOL    HW129819   3.935   1.358   2.624
 9640SOL    HW229820   3.932   1.492   2.531
 9641SOL     OW29821   5.546   4.947   2.901
 9641SOL    HW129822   5.601   4.876   2.857
 9641SOL    HW229823   5.462   4.907   2.937
 9642SOL     OW29824   1.398   0.079   3.924
 9642SOL    HW129825   1.298   0.071   3.917
 9642SOL    HW229826   1.436   0.101   3.835
 9643SOL     OW29827   4.839   3.929   4.111
 9643SOL    HW129828   4.861   3.913   4.014
 9643SOL    HW229829   4.892   3.866   4.168
 9644SOL     OW29830   2.178   6.468   5.247
 9644SOL    HW129831   2.142   6.448   5.338
 9644SOL    HW229832   2.163   6.390   5.187
 9645SOL     OW29833   1.582   5.414   5.718
 9645SOL    HW129834   1.616   5.489   5.661
 9645SOL    HW229835   1.489   5.434   5.748
 9646SOL     OW29836   2.932   7.009   4.457
 9646SOL    HW129837   2.955   0.079   4.483
 9646SOL    HW229838   2.994   6.978   4.385
 9647SOL     OW29839   6.213   6.158   3.226
 9647SOL    HW129840   6.271   6.082   3.258
 9647SOL    HW229841   6.167   6.131   3.142
 9648SOL     OW29842   5.362   2.203   1.514
 9648SOL    HW129843   5.452   2.172   1.544
 9648SOL    HW229844   5.368   2.296   1.480
 9649SOL     OW29845   2.125   3.615   6.764
 9649SOL    HW129846   2.158   3.526   6.797
 9649SOL    HW229847   2.189   3.651   6.696
 9650SOL     OW29848   6.442   4.614   3.836
 9650SOL    HW129849   6.494   4.643   3.917
 9650SOL    HW229850   6.457   4.517   3.819
 9651SOL     OW29851   2.715   1.477   6.986
 9651SOL    HW129852   2.629   1.427   6.975
 9651SOL    HW229853   2.782   1.418   0.008
 9652SOL     OW29854   0.399   4.294   1.129
 9652SOL    HW129855   0.411   4.376   1.186
 9652SOL    HW229856   0.353   4.319   1.044
 9653SOL     OW29857   4.570   4.285   5.719
 9653SOL    HW129858   4.475   4.307   5.696
 9653SOL    HW229859   4.575   4.256   5.815
 9654SOL     OW29860   4.147   3.266   3.251
 9654SOL    HW129861   4.133   3.214   3.167
 9654SOL    HW229862   4.202   3.212   3.315
 9655SOL     OW29863   6.251   0.739   1.394
 9655SOL    HW129864   6.287   0.743   1.487
 9655SOL    HW229865   6.241   0.644   1.366
 9656SOL     OW29866   5.309   3.271   0.436
 9656SOL    HW129867   5.384   3.221   0.480
 9656SOL    HW229868   5.269   3.335   0.502
 9657SOL     OW29869   5.141   3.813   3.932
 9657SOL    HW129870   5.239   3.795   3.940
 9657SOL    HW229871   5.099   3.743   3.875
 9658SOL     OW29872   4.706   1.731   2.774
 9658SOL    HW129873   4.750   1.641   2.784
 9658SOL    HW229874   4.758   1.799   2.826
 9659SOL     OW29875   3.295   2.135   0.620
 9659SOL    HW129876   3.204   2.152   0.656
 9659SOL    HW229877   3.359   2.123   0.696
 9660SOL     OW29878   0.488   5.861   0.551
 9660SOL    HW129879   0.566   5.803   0.526
 9660SOL    HW229880   0.489   5.877   0.650
 9661SOL     OW29881   4.583   5.284   1.201
 9661SOL    HW129882   4.656   5.347   1.174
 9661SOL    HW229883   4.603   5.192   1.165
 9662SOL     OW29884   5.826   4.869   6.796
 9662SOL    HW129885   5.916   4.870   6.840
 9662SOL    HW229886   5.762   4.921   6.852
 9663SOL     OW29887   1.111   4.606   3.685
 9663SOL    HW129888   1.132   4.607   3.783
 9663SOL    HW229889   1.013   4.618   3.672
 9664SOL     OW29890   5.586   3.859   3.423
 9664SOL    HW129891   5.603   3.938   3.481
 9664SOL    HW229892   5.626   3.874   3.333
 9665SOL     OW29893   6.286   6.868   5.778
 9665SOL    HW129894   6.199   6.878   5.826
 9665SOL    HW229895   6.361   6.884   5.842
 9666SOL     OW29896   6.062   4.613   1.634
 9666SOL    HW129897   6.104   4.531   1.671
 9666SOL    HW229898   6.057   4.683   1.706
 9667SOL     OW29899   4.660   4.779   0.864
 9667SOL    HW129900   4.741   4.723   0.879
 9667SOL    HW229901   4.610   4.745   0.784
 9668SOL     OW29902   1.190   7.007   5.803
 9668SOL    HW129903   1.205   6.949   5.723
 9668SOL    HW229904   1.187   0.079   5.776
 9669SOL     OW29905   2.486   6.829   0.844
 9669SOL    HW129906   2.582   6.843   0.820
 9669SOL    HW229907   2.447   6.759   0.784
 9670SOL     OW29908   0.570   0.092   5.760
 9670SOL    HW129909   0.639   0.024   5.785
 9670SOL    HW229910   0.594   0.180   5.800
 9671SOL     OW29911   0.788   4.688   0.151
 9671SOL    HW129912   0.885   4.685   0.125
 9671SOL    HW229913   0.760   4.783   0.165
 9672SOL     OW29914   0.929   4.462   3.218
 9672SOL    HW129915   0.859   4.470   3.289
 9672SOL    HW229916   0.884   4.445   3.130
 9673SOL     OW29917   3.503   4.308   1.699
 9673SOL    HW129918   3.420   4.277   1.745
 9673SOL    HW229919   3.490   4.301   1.600
 9674SOL     OW29920   3.781   6.761   2.681
 9674SOL    HW129921   3.875   6.728   2.682
 9674SOL    HW229922   3.718   6.685   2.690
 9675SOL     OW29923   4.864   3.914   0.520
 9675SOL    HW129924   4.795   3.940   0.588
 9675SOL    HW229925   4.953   3.949   0.549
 9676SOL     OW29926   1.718   2.442   6.372
 9676SOL    HW129927   1.623   2.437   6.404
 9676SOL    HW229928   1.774   2.491   6.439
 9677SOL     OW29929   6.236   4.863   0.198
 9677SOL    HW129930   6.163   4.918   0.237
 9677SOL    HW229931   6.279   4.913   0.122
 9678SOL     OW29932   3.005   3.872   4.728
 9678SOL    HW129933   2.947   3.813   4.785
 9678SOL    HW229934   3.026   3.956   4.778
 9679SOL     OW29935   2.881   1.893   4.664
 9679SOL    HW129936   2.898   1.906   4.567
 9679SOL    HW229937   2.913   1.973   4.715
 9680SOL     OW29938   4.890   6.143   4.662
 9680SOL    HW129939   4.960   6.193   4.712
 9680SOL    HW229940   4.913   6.046   4.658
 9681SOL     OW29941   2.985   1.019   1.222
 9681SOL    HW129942   2.905   1.079   1.224
 9681SOL    HW229943   2.983   0.962   1.140
 9682SOL     OW29944   5.841   5.210   4.148
 9682SOL    HW129945   5.900   5.250   4.218
 9682SOL    HW229946   5.849   5.110   4.151
 9683SOL     OW29947   1.647   6.576   0.602
 9683SOL    HW129948   1.744   6.562   0.623
 9683SOL    HW229949   1.635   6.583   0.504
 9684SOL     OW29950   0.991   3.573   5.355
 9684SOL    HW129951   1.015   3.652   5.299
 9684SOL    HW229952   1.073   3.539   5.401
 9685SOL     OW29953   4.886   3.683   0.693
 9685SOL    HW129954   4.841   3.711   0.608
 9685SOL    HW229955   4.886   3.583   0.699
 9686SOL     OW29956   0.116   2.036   6.460
 9686SOL    HW129957   0.151   2.099   6.529
 9686SOL    HW229958   0.140   2.069   6.369
 9687SOL     OW29959   6.389   6.400   1.155
 9687SOL    HW129960   6.486   6.375   1.149
 9687SOL    HW229961   6.333   6.317   1.149
 9688SOL     OW29962   1.274   4.509   0.691
 9688SOL    HW129963   1.315   4.417   0.694
 9688SOL    HW229964   1.322   4.569   0.754
 9689SOL     OW29965   1.075   5.280   6.581
 9689SOL    HW129966   1.050   5.314   6.491
 9689SOL    HW229967   1.162   5.232   6.576
 9690SOL     OW29968   4.918   5.559   5.171
 9690SOL    HW129969   4.895   5.507   5.254
 9690SOL    HW229970   4.898   5.656   5.186
 9691SOL     OW29971   3.392   4.170   2.655
 9691SOL    HW129972   3.332   4.243   2.686
 9691SOL    HW229973   3.342   4.110   2.592
 9692SOL     OW29974   5.000   5.289   0.069
 9692SOL    HW129975   4.983   5.329   0.160
 9692SOL    HW229976   5.096   5.264   0.062
 9693SOL     OW29977   5.893   3.794   4.529
 9693SOL    HW129978   5.868   3.722   4.464
 9693SOL    HW229979   5.978   3.838   4.499
 9694SOL     OW29980   3.014   0.282   1.612
 9694SOL    HW129981   2.958   0.344   1.668
 9694SOL    HW229982   2.962   0.199   1.594
 9695SOL     OW29983   0.082   4.242   2.915
 9695SOL    HW129984   0.085   4.149   2.950
 9695SOL    HW229985   0.174   4.273   2.892
 9696SOL     OW29986   5.909   1.906   2.727
 9696SOL    HW129987   5.921   1.866   2.818
 9696SOL    HW229988   5.827   1.962   2.726
 9697SOL     OW29989   6.666   6.416   0.101
 9697SOL    HW129990   6.705   6.390   0.012
 9697SOL    HW229991   6.732   6.471   0.152
 9698SOL     OW29992   5.713   3.509   6.152
 9698SOL    HW129993   5.697   3.608   6.149
 9698SOL    HW229994   5.812   3.493   6.156
 9699SOL     OW29995   0.613   5.771   0.031
 9699SOL    HW129996   0.693   5.830   0.026
 9699SOL    HW229997   0.532   5.826   0.053
 9700SOL     OW29998   7.016   6.286   3.720
 9700SOL    HW129999   6.995   6.350   3.645
 9700SOL    HW230000   0.056   6.217   3.687
 9701SOL     OW30001   5.049   3.509   6.533
 9701SOL    HW130002   4.975   3.535   6.471
 9701SOL    HW230003   5.030   3.419   6.572
 9702SOL     OW30004   3.422   3.018   0.595
 9702SOL    HW130005   3.329   2.983   0.608
 9702SOL    HW230006   3.487   2.952   0.632
 9703SOL     OW30007   6.210   4.085   4.169
 9703SOL    HW130008   6.301   4.125   4.162
 9703SOL    HW230009   6.217   3.986   4.156
 9704SOL     OW30010   3.119   4.877   3.180
 9704SOL    HW130011   3.022   4.882   3.199
 9704SOL    HW230012   3.159   4.800   3.229
 9705SOL     OW30013   6.227   4.434   5.152
 9705SOL    HW130014   6.173   4.371   5.096
 9705SOL    HW230015   6.167   4.502   5.194
 9706SOL     OW30016   1.860   1.464   1.267
 9706SOL    HW130017   1.931   1.519   1.311
 9706SOL    HW230018   1.787   1.446   1.332
 9707SOL     OW30019   5.743   4.755   1.902
 9707SOL    HW130020   5.789   4.673   1.868
 9707SOL    HW230021   5.694   4.732   1.987
 9708SOL     OW30022   1.555   1.469   2.184
 9708SOL    HW130023   1.462   1.499   2.160
 9708SOL    HW230024   1.608   1.548   2.216
 9709SOL     OW30025   5.471   3.752   1.803
 9709SOL    HW130026   5.494   3.807   1.883
 9709SOL    HW230027   5.373   3.730   1.804
 9710SOL     OW30028   6.373   0.524   6.642
 9710SOL    HW130029   6.283   0.481   6.630
 9710SOL    HW230030   6.431   0.466   6.698
 9711SOL     OW30031   4.014   6.143   5.470
 9711SOL    HW130032   4.086   6.204   5.504
 9711SOL    HW230033   4.056   6.069   5.418
 9712SOL     OW30034   6.161   3.252   0.269
 9712SOL    HW130035   6.226   3.287   0.337
 9712SOL    HW230036   6.106   3.180   0.310
 9713SOL     OW30037   2.390   6.524   3.014
 9713SOL    HW130038   2.423   6.452   3.075
 9713SOL    HW230039   2.293   6.509   2.995
 9714SOL     OW30040   4.424   5.601   4.733
 9714SOL    HW130041   4.340   5.547   4.730
 9714SOL    HW230042   4.481   5.577   4.655
 9715SOL     OW30043   6.298   4.960   0.754
 9715SOL    HW130044   6.202   4.951   0.782
 9715SOL    HW230045   6.352   4.993   0.832
 9716SOL     OW30046   4.090   4.013   6.799
 9716SOL    HW130047   4.060   4.036   6.706
 9716SOL    HW230048   4.113   4.098   6.848
 9717SOL     OW30049   4.993   6.514   6.872
 9717SOL    HW130050   4.902   6.484   6.845
 9717SOL    HW230051   5.059   6.442   6.853
 9718SOL     OW30052   4.405   2.086   0.704
 9718SOL    HW130053   4.485   2.042   0.744
 9718SOL    HW230054   4.411   2.185   0.718
 9719SOL     OW30055   5.269   0.024   5.542
 9719SOL    HW130056   5.276   0.061   5.449
 9719SOL    HW230057   5.203   6.973   5.543
 9720SOL     OW30058   1.565   3.707   2.753
 9720SOL    HW130059   1.635   3.636   2.752
 9720SOL    HW230060   1.603   3.792   2.716
 9721SOL     OW30061   0.369   1.668   0.294
 9721SOL    HW130062   0.416   1.612   0.362
 9721SOL    HW230063   0.290   1.617   0.259
 9722SOL     OW30064   3.610   2.004   5.122
 9722SOL    HW130065   3.520   2.048   5.117
 9722SOL    HW230066   3.657   2.034   5.204
 9723SOL     OW30067   5.935   4.849   4.784
 9723SOL    HW130068   6.034   4.858   4.799
 9723SOL    HW230069   5.890   4.935   4.810
 9724SOL     OW30070   2.209   5.314   6.356
 9724SOL    HW130071   2.147   5.383   6.393
 9724SOL    HW230072   2.161   5.258   6.289
 9725SOL     OW30073   4.335   5.778   5.063
 9725SOL    HW130074   4.368   5.848   5.126
 9725SOL    HW230075   4.339   5.688   5.108
 9726SOL     OW30076   5.362   0.738   4.279
 9726SOL    HW130077   5.303   0.744   4.359
 9726SOL    HW230078   5.322   0.791   4.204
 9727SOL     OW30079   0.950   2.741   0.318
 9727SOL    HW130080   0.853   2.750   0.295
 9727SOL    HW230081   0.974   2.644   0.323
 9728SOL     OW30082   6.489   1.528   6.221
 9728SOL    HW130083   6.406   1.584   6.214
 9728SOL    HW230084   6.487   1.477   6.308
 9729SOL     OW30085   1.549   3.572   4.103
 9729SOL    HW130086   1.490   3.491   4.102
 9729SOL    HW230087   1.555   3.608   4.196
 9730SOL     OW30088   1.160   4.086   3.772
 9730SOL    HW130089   1.249   4.056   3.738
 9730SOL    HW230090   1.122   4.017   3.834
 9731SOL     OW30091   5.135   4.732   1.986
 9731SOL    HW130092   5.113   4.642   2.023
 9731SOL    HW230093   5.233   4.750   1.997
 9732SOL     OW30094   0.384   3.308   2.127
 9732SOL    HW130095   0.368   3.212   2.153
 9732SOL    HW230096   0.298   3.359   2.134
 9733SOL     OW30097   5.960   5.372   1.769
 9733SOL    HW130098   5.924   5.415   1.852
 9733SOL    HW230099   5.985   5.442   1.702
 9734SOL     OW30100   6.485   6.563   0.288
 9734SOL    HW130101   6.403   6.612   0.257
 9734SOL    HW230102   6.524   6.512   0.212
 9735SOL     OW30103   1.631   2.986   3.487
 9735SOL    HW130104   1.711   3.023   3.441
 9735SOL    HW230105   1.592   2.912   3.432
 9736SOL     OW30106   4.825   2.189   6.051
 9736SOL    HW130107   4.754   2.172   5.983
 9736SOL    HW230108   4.832   2.288   6.068
 9737SOL     OW30109   5.798   2.048   3.200
 9737SOL    HW130110   5.805   2.129   3.143
 9737SOL    HW230111   5.786   1.967   3.142
 9738SOL     OW30112   2.141   6.693   0.269
 9738SOL    HW130113   2.061   6.640   0.298
 9738SOL    HW230114   2.221   6.665   0.321
 9739SOL     OW30115   4.797   6.072   6.997
 9739SOL    HW130116   4.892   6.055   6.972
 9739SOL    HW230117   4.751   6.119   6.922
 9740SOL     OW30118   5.268   0.212   2.694
 9740SOL    HW130119   5.295   0.165   2.778
 9740SOL    HW230120   5.211   0.291   2.717
 9741SOL     OW30121   2.446   0.957   3.877
 9741SOL    HW130122   2.425   0.944   3.974
 9741SOL    HW230123   2.464   1.053   3.859
 9742SOL     OW30124   4.783   0.736   0.269
 9742SOL    HW130125   4.705   0.769   0.322
 9742SOL    HW230126   4.852   0.698   0.332
 9743SOL     OW30127   0.308   3.496   3.475
 9743SOL    HW130128   0.342   3.486   3.381
 9743SOL    HW230129   0.381   3.472   3.539
 9744SOL     OW30130   2.148   6.888   3.127
 9744SOL    HW130131   2.062   6.875   3.176
 9744SOL    HW230132   2.144   6.973   3.075
 9745SOL     OW30133   5.379   2.473   6.144
 9745SOL    HW130134   5.364   2.561   6.098
 9745SOL    HW230135   5.453   2.424   6.098
 9746SOL     OW30136   5.292   6.513   6.751
 9746SOL    HW130137   5.328   6.555   6.834
 9746SOL    HW230138   5.256   6.583   6.690
 9747SOL     OW30139   2.502   2.132   1.874
 9747SOL    HW130140   2.503   2.121   1.774
 9747SOL    HW230141   2.592   2.110   1.910
 9748SOL     OW30142   7.020   6.839   3.011
 9748SOL    HW130143   0.046   6.754   3.030
 9748SOL    HW230144   7.005   6.847   2.913
 9749SOL     OW30145   0.623   1.522   2.437
 9749SOL    HW130146   0.538   1.469   2.430
 9749SOL    HW230147   0.700   1.461   2.455
 9750SOL     OW30148   6.177   4.873   4.131
 9750SOL    HW130149   6.230   4.919   4.059
 9750SOL    HW230150   6.137   4.789   4.094
 9751SOL     OW30151   2.136   0.054   0.402
 9751SOL    HW130152   2.065   0.100   0.349
 9751SOL    HW230153   2.132   0.085   0.497
 9752SOL     OW30154   3.919   2.383   0.021
 9752SOL    HW130155   3.855   2.372   6.969
 9752SOL    HW230156   3.906   2.309   0.087
 9753SOL     OW30157   1.175   5.949   5.883
 9753SOL    HW130158   1.125   5.874   5.840
 9753SOL    HW230159   1.219   6.004   5.812
 9754SOL     OW30160   4.058   0.063   0.263
 9754SOL    HW130161   4.044   7.010   0.326
 9754SOL    HW230162   3.970   0.107   0.244
 9755SOL     OW30163   3.072   4.064   4.946
 9755SOL    HW130164   3.150   4.069   5.007
 9755SOL    HW230165   3.016   4.146   4.955
 9756SOL     OW30166   5.776   1.729   6.074
 9756SOL    HW130167   5.716   1.652   6.050
 9756SOL    HW230168   5.772   1.798   6.002
 9757SOL     OW30169   5.339   4.493   4.590
 9757SOL    HW130170   5.395   4.491   4.673
 9757SOL    HW230171   5.275   4.569   4.595
 9758SOL     OW30172   1.064   1.535   6.932
 9758SOL    HW130173   1.103   1.619   6.970
 9758SOL    HW230174   1.138   1.471   6.911
 9759SOL     OW30175   0.844   1.870   6.867
 9759SOL    HW130176   0.803   1.779   6.872
 9759SOL    HW230177   0.943   1.862   6.857
 9760SOL     OW30178   5.208   2.836   6.810
 9760SOL    HW130179   5.108   2.841   6.801
 9760SOL    HW230180   5.250   2.876   6.728
 9761SOL     OW30181   1.302   1.528   2.155
 9761SOL    HW130182   1.273   1.589   2.082
 9761SOL    HW230183   1.227   1.466   2.178
 9762SOL     OW30184   3.531   1.691   4.730
 9762SOL    HW130185   3.445   1.641   4.719
 9762SOL    HW230186   3.520   1.762   4.800
 9763SOL     OW30187   5.899   1.085   3.032
 9763SOL    HW130188   5.877   1.182   3.036
 9763SOL    HW230189   5.960   1.067   2.955
 9764SOL     OW30190   6.373   2.019   3.259
 9764SOL    HW130191   6.449   2.014   3.196
 9764SOL    HW230192   6.376   2.106   3.309
 9765SOL     OW30193   6.371   0.700   2.744
 9765SOL    HW130194   6.308   0.644   2.691
 9765SOL    HW230195   6.337   0.707   2.838
 9766SOL     OW30196   2.268   0.168   3.169
 9766SOL    HW130197   2.221   0.139   3.086
 9766SOL    HW230198   2.321   0.251   3.149
 9767SOL     OW30199   2.069   2.785   4.881
 9767SOL    HW130200   2.149   2.790   4.822
 9767SOL    HW230201   2.062   2.869   4.935
 9768SOL     OW30202   5.242   2.015   0.801
 9768SOL    HW130203   5.330   2.061   0.790
 9768SOL    HW230204   5.189   2.024   0.716
 9769SOL     OW30205   3.557   0.819   5.427
 9769SOL    HW130206   3.556   0.817   5.327
 9769SOL    HW230207   3.641   0.778   5.461
 9770SOL     OW30208   4.046   1.678   5.381
 9770SOL    HW130209   4.046   1.729   5.295
 9770SOL    HW230210   4.140   1.663   5.411
 9771SOL     OW30211   2.652   6.597   1.483
 9771SOL    HW130212   2.695   6.558   1.564
 9771SOL    HW230213   2.574   6.654   1.510
 9772SOL     OW30214   2.000   6.573   1.830
 9772SOL    HW130215   1.923   6.541   1.886
 9772SOL    HW230216   2.084   6.568   1.883
 9773SOL     OW30217   5.882   4.763   3.489
 9773SOL    HW130218   5.828   4.830   3.541
 9773SOL    HW230219   5.934   4.707   3.553
 9774SOL     OW30220   0.601   4.432   3.502
 9774SOL    HW130221   0.665   4.497   3.461
 9774SOL    HW230222   0.630   4.339   3.482
 9775SOL     OW30223   2.806   0.381   3.379
 9775SOL    HW130224   2.784   0.284   3.372
 9775SOL    HW230225   2.880   0.395   3.445
 9776SOL     OW30226   1.282   4.612   6.312
 9776SOL    HW130227   1.317   4.673   6.383
 9776SOL    HW230228   1.347   4.538   6.296
 9777SOL     OW30229   5.324   6.301   0.358
 9777SOL    HW130230   5.406   6.302   0.416
 9777SOL    HW230231   5.243   6.313   0.415
 9778SOL     OW30232   0.148   2.330   4.579
 9778SOL    HW130233   0.111   2.316   4.671
 9778SOL    HW230234   0.155   2.428   4.561
 9779SOL     OW30235   0.462   2.610   3.716
 9779SOL    HW130236   0.546   2.637   3.764
 9779SOL    HW230237   0.463   2.511   3.703
 9780SOL     OW30238   2.093   1.589   0.905
 9780SOL    HW130239   2.019   1.639   0.861
 9780SOL    HW230240   2.132   1.644   0.979
 9781SOL     OW30241   2.086   3.231   4.818
 9781SOL    HW130242   2.063   3.306   4.880
 9781SOL    HW230243   2.146   3.266   4.745
 9782SOL     OW30244   0.696   1.879   0.916
 9782SOL    HW130245   0.661   1.965   0.954
 9782SOL    HW230246   0.791   1.868   0.943
 9783SOL     OW30247   4.453   1.795   3.617
 9783SOL    HW130248   4.491   1.726   3.556
 9783SOL    HW230249   4.429   1.877   3.565
 9784SOL     OW30250   3.501   1.177   5.826
 9784SOL    HW130251   3.581   1.228   5.857
 9784SOL    HW230252   3.528   1.108   5.759
 9785SOL     OW30253   5.828   2.261   5.509
 9785SOL    HW130254   5.822   2.351   5.464
 9785SOL    HW230255   5.918   2.252   5.550
 9786SOL     OW30256   2.489   4.247   0.283
 9786SOL    HW130257   2.448   4.330   0.321
 9786SOL    HW230258   2.418   4.178   0.268
 9787SOL     OW30259   3.951   3.265   3.864
 9787SOL    HW130260   3.896   3.346   3.843
 9787SOL    HW230261   3.994   3.232   3.780
 9788SOL     OW30262   0.936   6.102   1.836
 9788SOL    HW130263   0.949   6.086   1.738
 9788SOL    HW230264   0.839   6.114   1.855
 9789SOL     OW30265   2.393   6.835   6.918
 9789SOL    HW130266   2.386   6.879   7.008
 9789SOL    HW230267   2.451   6.755   6.925
 9790SOL     OW30268   6.323   4.496   6.333
 9790SOL    HW130269   6.306   4.451   6.245
 9790SOL    HW230270   6.328   4.427   6.405
 9791SOL     OW30271   1.108   0.737   0.324
 9791SOL    HW130272   1.132   0.797   0.400
 9791SOL    HW230273   1.190   0.688   0.294
 9792SOL     OW30274   3.486   4.760   1.369
 9792SOL    HW130275   3.443   4.849   1.386
 9792SOL    HW230276   3.488   4.743   1.270
 9793SOL     OW30277   4.124   0.087   2.100
 9793SOL    HW130278   4.105   0.039   2.186
 9793SOL    HW230279   4.207   0.049   2.059
 9794SOL     OW30280   5.445   4.219   4.896
 9794SOL    HW130281   5.447   4.131   4.945
 9794SOL    HW230282   5.386   4.211   4.816
 9795SOL     OW30283   0.854   3.261   4.439
 9795SOL    HW130284   0.951   3.284   4.424
 9795SOL    HW230285   0.845   3.210   4.525
 9796SOL     OW30286   3.425   4.115   3.796
 9796SOL    HW130287   3.473   4.107   3.884
 9796SOL    HW230288   3.469   4.185   3.741
 9797SOL     OW30289   2.220   6.131   0.189
 9797SOL    HW130290   2.227   6.230   0.174
 9797SOL    HW230291   2.286   6.084   0.130
 9798SOL     OW30292   2.500   1.411   1.185
 9798SOL    HW130293   2.459   1.394   1.274
 9798SOL    HW230294   2.543   1.327   1.151
 9799SOL     OW30295   3.324   4.012   6.232
 9799SOL    HW130296   3.285   3.923   6.210
 9799SOL    HW230297   3.357   4.012   6.326
 9800SOL     OW30298   5.882   3.939   4.238
 9800SOL    HW130299   5.909   3.867   4.174
 9800SOL    HW230300   5.896   3.906   4.332
 9801SOL     OW30301   5.263   5.181   0.095
 9801SOL    HW130302   5.315   5.225   0.168
 9801SOL    HW230303   5.214   5.102   0.132
 9802SOL     OW30304   4.471   4.653   0.405
 9802SOL    HW130305   4.384   4.686   0.444
 9802SOL    HW230306   4.488   4.699   0.318
 9803SOL     OW30307   1.998   3.512   6.129
 9803SOL    HW130308   1.900   3.528   6.134
 9803SOL    HW230309   2.034   3.497   6.221
 9804SOL     OW30310   0.162   5.808   3.078
 9804SOL    HW130311   0.133   5.875   3.011
 9804SOL    HW230312   0.083   5.769   3.125
 9805SOL     OW30313   0.688   6.332   2.983
 9805SOL    HW130314   0.663   6.245   2.938
 9805SOL    HW230315   0.769   6.318   3.039
 9806SOL     OW30316   1.904   1.967   6.867
 9806SOL    HW130317   1.958   1.891   6.905
 9806SOL    HW230318   1.963   2.025   6.810
 9807SOL     OW30319   3.483   3.376   2.425
 9807SOL    HW130320   3.527   3.466   2.430
 9807SOL    HW230321   3.413   3.370   2.495
 9808SOL     OW30322   3.556   5.602   4.307
 9808SOL    HW130323   3.598   5.621   4.218
 9808SOL    HW230324   3.627   5.577   4.373
 9809SOL     OW30325   0.863   3.591   0.364
 9809SOL    HW130326   0.870   3.497   0.331
 9809SOL    HW230327   0.813   3.593   0.451
 9810SOL     OW30328   2.926   2.237   4.899
 9810SOL    HW130329   2.941   2.217   4.802
 9810SOL    HW230330   3.015   2.244   4.945
 9811SOL     OW30331   6.042   4.313   3.485
 9811SOL    HW130332   6.036   4.215   3.466
 9811SOL    HW230333   5.968   4.339   3.547
 9812SOL     OW30334   2.602   0.936   4.454
 9812SOL    HW130335   2.542   0.858   4.475
 9812SOL    HW230336   2.624   0.935   4.356
 9813SOL     OW30337   5.531   2.106   0.800
 9813SOL    HW130338   5.604   2.054   0.755
 9813SOL    HW230339   5.513   2.189   0.748
 9814SOL     OW30340   5.450   1.274   0.246
 9814SOL    HW130341   5.507   1.308   0.171
 9814SOL    HW230342   5.360   1.249   0.211
 9815SOL     OW30343   4.582   2.576   4.307
 9815SOL    HW130344   4.584   2.660   4.253
 9815SOL    HW230345   4.552   2.500   4.249
 9816SOL     OW30346   0.877   0.789   6.185
 9816SOL    HW130347   0.969   0.749   6.181
 9816SOL    HW230348   0.883   0.881   6.224
 9817SOL     OW30349   0.812   0.236   3.231
 9817SOL    HW130350   0.779   0.329   3.218
 9817SOL    HW230351   0.904   0.227   3.194
 9818SOL     OW30352   6.533   1.981   4.731
 9818SOL    HW130353   6.598   1.908   4.752
 9818SOL    HW230354   6.440   1.946   4.740
 9819SOL     OW30355   4.663   2.771   3.319
 9819SOL    HW130356   4.676   2.688   3.372
 9819SOL    HW230357   4.740   2.833   3.334
 9820SOL     OW30358   3.563   3.133   6.495
 9820SOL    HW130359   3.654   3.095   6.480
 9820SOL    HW230360   3.503   3.104   6.420
 9821SOL     OW30361   5.411   0.724   6.502
 9821SOL    HW130362   5.396   0.772   6.589
 9821SOL    HW230363   5.432   0.790   6.430
 9822SOL     OW30364   0.844   6.594   3.164
 9822SOL    HW130365   0.907   6.580   3.088
 9822SOL    HW230366   0.889   6.648   3.236
 9823SOL     OW30367   3.750   0.175   0.909
 9823SOL    HW130368   3.778   0.109   0.980
 9823SOL    HW230369   3.832   0.216   0.869
 9824SOL     OW30370   1.858   4.194   5.973
 9824SOL    HW130371   1.817   4.267   5.918
 9824SOL    HW230372   1.957   4.202   5.971
 9825SOL     OW30373   3.326   4.928   5.106
 9825SOL    HW130374   3.337   4.861   5.033
 9825SOL    HW230375   3.406   4.925   5.167
 9826SOL     OW30376   5.429   5.265   6.108
 9826SOL    HW130377   5.412   5.362   6.125
 9826SOL    HW230378   5.348   5.212   6.133
 9827SOL     OW30379   2.202   3.827   4.373
 9827SOL    HW130380   2.240   3.850   4.462
 9827SOL    HW230381   2.119   3.772   4.385
 9828SOL     OW30382   2.820   3.017   6.306
 9828SOL    HW130383   2.856   3.046   6.218
 9828SOL    HW230384   2.813   2.917   6.308
 9829SOL     OW30385   3.086   6.403   0.662
 9829SOL    HW130386   3.154   6.369   0.727
 9829SOL    HW230387   3.133   6.431   0.578
 9830SOL     OW30388   5.323   2.464   1.419
 9830SOL    HW130389   5.245   2.514   1.458
 9830SOL    HW230390   5.305   2.446   1.322
 9831SOL     OW30391   1.559   6.096   0.736
 9831SOL    HW130392   1.513   6.136   0.816
 9831SOL    HW230393   1.657   6.110   0.744
 9832SOL     OW30394   5.225   5.107   2.700
 9832SOL    HW130395   5.214   5.012   2.729
 9832SOL    HW230396   5.181   5.121   2.611
 9833SOL     OW30397   3.347   2.873   4.947
 9833SOL    HW130398   3.433   2.891   4.994
 9833SOL    HW230399   3.317   2.780   4.967
 9834SOL     OW30400   3.053   4.316   5.735
 9834SOL    HW130401   2.961   4.354   5.740
 9834SOL    HW230402   3.073   4.289   5.641
 9835SOL     OW30403   3.856   2.719   5.936
 9835SOL    HW130404   3.797   2.702   5.857
 9835SOL    HW230405   3.920   2.792   5.914
 9836SOL     OW30406   6.431   4.788   3.628
 9836SOL    HW130407   6.339   4.828   3.630
 9836SOL    HW230408   6.435   4.711   3.692
 9837SOL     OW30409   2.715   0.208   2.466
 9837SOL    HW130410   2.661   0.291   2.452
 9837SOL    HW230411   2.772   0.192   2.385
 9838SOL     OW30412   0.609   6.991   6.149
 9838SOL    HW130413   0.697   7.004   6.103
 9838SOL    HW230414   0.616   6.915   6.213
 9839SOL     OW30415   5.398   1.066   3.340
 9839SOL    HW130416   5.325   1.109   3.287
 9839SOL    HW230417   5.359   1.021   3.421
 9840SOL     OW30418   0.422   0.883   1.461
 9840SOL    HW130419   0.510   0.883   1.508
 9840SOL    HW230420   0.355   0.835   1.517
 9841SOL     OW30421   1.327   4.038   4.655
 9841SOL    HW130422   1.260   4.037   4.729
 9841SOL    HW230423   1.285   4.001   4.572
 9842SOL     OW30424   3.855   3.984   3.088
 9842SOL    HW130425   3.912   3.975   3.006
 9842SOL    HW230426   3.768   4.025   3.063
 9843SOL     OW30427   6.216   1.959   1.846
 9843SOL    HW130428   6.194   1.942   1.942
 9843SOL    HW230429   6.304   1.916   1.825
 9844SOL     OW30430   5.469   0.516   2.479
 9844SOL    HW130431   5.494   0.509   2.576
 9844SOL    HW230432   5.523   0.452   2.425
 9845SOL     OW30433   2.980   1.390   4.063
 9845SOL    HW130434   3.020   1.300   4.081
 9845SOL    HW230435   2.901   1.403   4.122
 9846SOL     OW30436   4.085   3.675   2.266
 9846SOL    HW130437   4.168   3.624   2.243
 9846SOL    HW230438   4.007   3.635   2.218
 9847SOL     OW30439   3.549   2.621   5.341
 9847SOL    HW130440   3.456   2.632   5.376
 9847SOL    HW230441   3.576   2.705   5.293
 9848SOL     OW30442   3.748   2.437   6.452
 9848SOL    HW130443   3.844   2.421   6.428
 9848SOL    HW230444   3.691   2.364   6.415
 9849SOL     OW30445   6.328   0.527   0.188
 9849SOL    HW130446   6.409   0.514   0.246
 9849SOL    HW230447   6.292   0.619   0.203
 9850SOL     OW30448   5.694   6.369   2.931
 9850SOL    HW130449   5.749   6.308   2.874
 9850SOL    HW230450   5.745   6.390   3.015
 9851SOL     OW30451   4.536   2.512   5.650
 9851SOL    HW130452   4.574   2.515   5.557
 9851SOL    HW230453   4.600   2.463   5.710
 9852SOL     OW30454   4.122   1.912   2.908
 9852SOL    HW130455   4.154   2.007   2.915
 9852SOL    HW230456   4.080   1.897   2.819
 9853SOL     OW30457   5.069   3.811   3.270
 9853SOL    HW130458   4.996   3.753   3.307
 9853SOL    HW230459   5.102   3.772   3.184
 9854SOL     OW30460   6.745   5.279   4.451
 9854SOL    HW130461   6.831   5.249   4.409
 9854SOL    HW230462   6.668   5.240   4.401
 9855SOL     OW30463   2.471   4.265   1.623
 9855SOL    HW130464   2.431   4.331   1.559
 9855SOL    HW230465   2.398   4.215   1.669
 9856SOL     OW30466   4.975   3.811   6.931
 9856SOL    HW130467   4.988   3.785   6.835
 9856SOL    HW230468   5.061   3.800   6.981
 9857SOL     OW30469   4.006   1.485   4.442
 9857SOL    HW130470   3.927   1.474   4.382
 9857SOL    HW230471   3.976   1.487   4.537
 9858SOL     OW30472   0.114   0.964   1.428
 9858SOL    HW130473   0.034   0.982   1.371
 9858SOL    HW230474   0.194   1.012   1.391
 9859SOL     OW30475   6.345   7.002   1.460
 9859SOL    HW130476   6.289   0.021   1.389
 9859SOL    HW230477   6.286   6.952   1.523
 9860SOL     OW30478   6.766   1.230   3.059
 9860SOL    HW130479   6.816   1.165   3.002
 9860SOL    HW230480   6.672   1.237   3.026
 9861SOL     OW30481   3.428   6.871   3.323
 9861SOL    HW130482   3.414   6.798   3.256
 9861SOL    HW230483   3.345   6.884   3.376
 9862SOL     OW30484   2.387   5.301   0.561
 9862SOL    HW130485   2.405   5.219   0.507
 9862SOL    HW230486   2.469   5.326   0.613
 9863SOL     OW30487   3.012   0.079   3.560
 9863SOL    HW130488   3.074   0.109   3.633
 9863SOL    HW230489   2.939   0.146   3.549
 9864SOL     OW30490   3.940   5.856   3.948
 9864SOL    HW130491   3.857   5.822   3.991
 9864SOL    HW230492   3.916   5.902   3.862
 9865SOL     OW30493   1.574   1.089   3.914
 9865SOL    HW130494   1.519   1.167   3.883
 9865SOL    HW230495   1.600   1.033   3.835
 9866SOL     OW30496   5.592   4.473   5.205
 9866SOL    HW130497   5.558   4.500   5.295
 9866SOL    HW230498   5.687   4.504   5.195
 9867SOL     OW30499   6.058   0.290   1.003
 9867SOL    HW130500   6.039   0.370   1.061
 9867SOL    HW230501   6.021   0.306   0.911
 9868SOL     OW30502   1.104   3.908   5.503
 9868SOL    HW130503   1.064   4.000   5.503
 9868SOL    HW230504   1.093   3.867   5.413
 9869SOL     OW30505   1.483   3.272   2.371
 9869SOL    HW130506   1.553   3.317   2.316
 9869SOL    HW230507   1.435   3.204   2.316
 9870SOL     OW30508   4.656   5.993   2.933
 9870SOL    HW130509   4.629   5.903   2.968
 9870SOL    HW230510   4.646   5.995   2.834
 9871SOL     OW30511   0.995   6.839   5.888
 9871SOL    HW130512   1.061   6.907   5.858
 9871SOL    HW230513   1.039   6.773   5.948
 9872SOL     OW30514   2.577   4.589   4.291
 9872SOL    HW130515   2.521   4.514   4.256
 9872SOL    HW230516   2.528   4.635   4.365
 9873SOL     OW30517   2.972   2.195   1.168
 9873SOL    HW130518   2.882   2.231   1.142
 9873SOL    HW230519   2.969   2.161   1.262
 9874SOL     OW30520   0.841   3.570   4.159
 9874SOL    HW130521   0.800   3.481   4.176
 9874SOL    HW230522   0.796   3.613   4.080
 9875SOL     OW30523   6.658   6.616   2.148
 9875SOL    HW130524   6.617   6.646   2.062
 9875SOL    HW230525   6.590   6.566   2.202
 9876SOL     OW30526   5.738   0.686   2.714
 9876SOL    HW130527   5.657   0.635   2.742
 9876SOL    HW230528   5.770   0.653   2.625
 9877SOL     OW30529   0.191   5.879   3.405
 9877SOL    HW130530   0.173   5.908   3.311
 9877SOL    HW230531   0.262   5.808   3.404
 9878SOL     OW30532   2.847   5.152   4.774
 9878SOL    HW130533   2.906   5.074   4.793
 9878SOL    HW230534   2.770   5.123   4.718
 9879SOL     OW30535   5.624   5.368   4.048
 9879SOL    HW130536   5.691   5.295   4.056
 9879SOL    HW230537   5.667   5.448   4.006
 9880SOL     OW30538   3.063   1.496   5.583
 9880SOL    HW130539   3.035   1.591   5.596
 9880SOL    HW230540   3.119   1.489   5.500
 9881SOL     OW30541   1.554   1.401   4.983
 9881SOL    HW130542   1.568   1.469   5.055
 9881SOL    HW230543   1.637   1.392   4.928
 9882SOL     OW30544   0.824   2.557   3.560
 9882SOL    HW130545   0.769   2.511   3.491
 9882SOL    HW230546   0.920   2.560   3.530
 9883SOL     OW30547   1.244   5.651   6.929
 9883SOL    HW130548   1.315   5.714   6.896
 9883SOL    HW230549   1.258   5.561   6.888
 9884SOL     OW30550   4.392   1.884   2.975
 9884SOL    HW130551   4.446   1.962   2.944
 9884SOL    HW230552   4.298   1.894   2.943
 9885SOL     OW30553   6.629   2.949   5.404
 9885SOL    HW130554   6.595   2.855   5.413
 9885SOL    HW230555   6.551   3.012   5.399
 9886SOL     OW30556   0.761   3.646   1.488
 9886SOL    HW130557   0.771   3.642   1.389
 9886SOL    HW230558   0.748   3.554   1.524
 9887SOL     OW30559   4.212   0.891   6.244
 9887SOL    HW130560   4.299   0.846   6.258
 9887SOL    HW230561   4.138   0.832   6.274
 9888SOL     OW30562   5.612   4.476   1.986
 9888SOL    HW130563   5.641   4.386   2.021
 9888SOL    HW230564   5.689   4.520   1.939
 9889SOL     OW30565   0.413   5.505   1.514
 9889SOL    HW130566   0.330   5.462   1.551
 9889SOL    HW230567   0.449   5.449   1.439
 9890SOL     OW30568   1.554   1.856   0.394
 9890SOL    HW130569   1.582   1.927   0.330
 9890SOL    HW230570   1.599   1.871   0.482
 9891SOL     OW30571   5.618   3.088   1.897
 9891SOL    HW130572   5.659   3.169   1.940
 9891SOL    HW230573   5.649   3.006   1.946
 9892SOL     OW30574   6.880   4.644   1.010
 9892SOL    HW130575   6.948   4.586   0.964
 9892SOL    HW230576   6.853   4.719   0.950
 9893SOL     OW30577   1.070   0.101   1.626
 9893SOL    HW130578   0.980   0.106   1.668
 9893SOL    HW230579   1.073   0.023   1.563
 9894SOL     OW30580   2.591   2.802   1.756
 9894SOL    HW130581   2.579   2.713   1.711
 9894SOL    HW230582   2.683   2.837   1.735
 9895SOL     OW30583   6.676   4.137   5.203
 9895SOL    HW130584   6.682   4.223   5.152
 9895SOL    HW230585   6.753   4.130   5.266
 9896SOL     OW30586   6.412   0.790   6.729
 9896SOL    HW130587   6.374   0.702   6.703
 9896SOL    HW230588   6.447   0.786   6.823
 9897SOL     OW30589   6.171   6.069   2.960
 9897SOL    HW130590   6.089   6.024   2.925
 9897SOL    HW230591   6.244   6.001   2.970
 9898SOL     OW30592   1.436   6.182   4.228
 9898SOL    HW130593   1.483   6.149   4.146
 9898SOL    HW230594   1.361   6.243   4.202
 9899SOL     OW30595   0.822   5.951   0.016
 9899SOL    HW130596   0.894   5.896   0.058
 9899SOL    HW230597   0.779   6.008   0.087
 9900SOL     OW30598   2.138   3.506   3.208
 9900SOL    HW130599   2.113   3.574   3.278
 9900SOL    HW230600   2.084   3.522   3.125
 9901SOL     OW30601   3.023   0.322   6.434
 9901SOL    HW130602   3.013   0.315   6.335
 9901SOL    HW230603   2.943   0.368   6.473
 9902SOL     OW30604   3.437   4.926   1.083
 9902SOL    HW130605   3.348   4.930   1.130
 9902SOL    HW230606   3.474   5.019   1.076
 9903SOL     OW30607   5.100   1.930   2.346
 9903SOL    HW130608   5.146   1.901   2.262
 9903SOL    HW230609   5.001   1.919   2.336
 9904SOL     OW30610   1.485   4.064   0.074
 9904SOL    HW130611   1.441   4.134   0.130
 9904SOL    HW230612   1.419   3.993   0.050
 9905SOL     OW30613   2.183   0.002   6.414
 9905SOL    HW130614   2.127   6.999   6.493
 9905SOL    HW230615   2.150   6.977   6.333
 9906SOL     OW30616   2.493   3.521   1.646
 9906SOL    HW130617   2.435   3.492   1.722
 9906SOL    HW230618   2.552   3.597   1.676
 9907SOL     OW30619   6.634   0.642   1.407
 9907SOL    HW130620   6.626   0.595   1.319
 9907SOL    HW230621   6.594   0.585   1.478
 9908SOL     OW30622   5.724   1.351   4.661
 9908SOL    HW130623   5.753   1.436   4.618
 9908SOL    HW230624   5.651   1.370   4.726
 9909SOL     OW30625   4.378   0.282   3.475
 9909SOL    HW130626   4.400   0.353   3.408
 9909SOL    HW230627   4.377   0.193   3.429
 9910SOL     OW30628   1.656   4.630   2.696
 9910SOL    HW130629   1.605   4.618   2.781
 9910SOL    HW230630   1.685   4.726   2.689
 9911SOL     OW30631   2.825   5.512   2.259
 9911SOL    HW130632   2.819   5.582   2.187
 9911SOL    HW230633   2.746   5.522   2.320
 9912SOL     OW30634   3.862   0.510   1.468
 9912SOL    HW130635   3.903   0.420   1.482
 9912SOL    HW230636   3.770   0.499   1.429
 9913SOL     OW30637   5.952   3.715   0.876
 9913SOL    HW130638   6.000   3.661   0.945
 9913SOL    HW230639   6.014   3.786   0.841
 9914SOL     OW30640   5.385   1.451   4.518
 9914SOL    HW130641   5.438   1.366   4.518
 9914SOL    HW230642   5.288   1.431   4.504
 9915SOL     OW30643   5.146   0.274   3.310
 9915SOL    HW130644   5.047   0.279   3.320
 9915SOL    HW230645   5.177   0.352   3.255
 9916SOL     OW30646   2.197   2.477   2.814
 9916SOL    HW130647   2.124   2.518   2.758
 9916SOL    HW230648   2.193   2.377   2.805
 9917SOL     OW30649   5.484   4.352   6.648
 9917SOL    HW130650   5.558   4.413   6.618
 9917SOL    HW230651   5.432   4.321   6.568
 9918SOL     OW30652   3.270   1.491   3.277
 9918SOL    HW130653   3.300   1.558   3.345
 9918SOL    HW230654   3.320   1.505   3.191
 9919SOL     OW30655   0.555   5.132   1.289
 9919SOL    HW130656   0.506   5.045   1.298
 9919SOL    HW230657   0.587   5.162   1.379
 9920SOL     OW30658   4.706   1.645   2.119
 9920SOL    HW130659   4.627   1.706   2.124
 9920SOL    HW230660   4.675   1.550   2.116
 9921SOL     OW30661   4.028   0.238   5.376
 9921SOL    HW130662   4.055   0.142   5.381
 9921SOL    HW230663   3.937   0.249   5.414
 9922SOL     OW30664   2.607   4.466   0.630
 9922SOL    HW130665   2.618   4.458   0.729
 9922SOL    HW230666   2.597   4.375   0.590
 9923SOL     OW30667   5.346   5.035   6.542
 9923SOL    HW130668   5.303   5.124   6.558
 9923SOL    HW230669   5.325   4.974   6.619
 9924SOL     OW30670   6.418   1.833   4.392
 9924SOL    HW130671   6.497   1.778   4.367
 9924SOL    HW230672   6.415   1.916   4.336
 9925SOL     OW30673   0.379   3.727   4.372
 9925SOL    HW130674   0.361   3.645   4.426
 9925SOL    HW230675   0.465   3.769   4.402
 9926SOL     OW30676   3.910   2.334   0.958
 9926SOL    HW130677   3.993   2.307   0.910
 9926SOL    HW230678   3.834   2.341   0.893
 9927SOL     OW30679   6.764   6.738   0.510
 9927SOL    HW130680   6.685   6.784   0.471
 9927SOL    HW230681   6.841   6.801   0.517
 9928SOL     OW30682   4.759   4.055   2.849
 9928SOL    HW130683   4.820   4.038   2.926
 9928SOL    HW230684   4.790   4.003   2.769
 9929SOL     OW30685   3.473   4.531   5.656
 9929SOL    HW130686   3.418   4.597   5.605
 9929SOL    HW230687   3.559   4.515   5.609
 9930SOL     OW30688   6.422   6.438   4.928
 9930SOL    HW130689   6.425   6.534   4.903
 9930SOL    HW230690   6.430   6.382   4.846
 9931SOL     OW30691   0.695   5.774   4.207
 9931SOL    HW130692   0.757   5.738   4.137
 9931SOL    HW230693   0.692   5.711   4.284
 9932SOL     OW30694   3.403   3.965   6.763
 9932SOL    HW130695   3.349   3.909   6.826
 9932SOL    HW230696   3.498   3.935   6.766
 9933SOL     OW30697   6.785   6.043   3.034
 9933SOL    HW130698   6.707   6.087   3.078
 9933SOL    HW230699   6.806   6.090   2.948
 9934SOL     OW30700   6.312   2.159   5.694
 9934SOL    HW130701   6.362   2.137   5.778
 9934SOL    HW230702   6.308   2.079   5.635
 9935SOL     OW30703   2.789   6.373   6.418
 9935SOL    HW130704   2.782   6.409   6.512
 9935SOL    HW230705   2.835   6.285   6.420
 9936SOL     OW30706   6.671   5.497   0.032
 9936SOL    HW130707   6.725   5.487   0.115
 9936SOL    HW230708   6.634   5.590   0.027
 9937SOL     OW30709   6.607   1.698   1.017
 9937SOL    HW130710   6.581   1.791   0.993
 9937SOL    HW230711   6.706   1.693   1.027
 9938SOL     OW30712   6.763   4.896   2.696
 9938SOL    HW130713   6.772   4.821   2.630
 9938SOL    HW230714   6.683   4.880   2.754
 9939SOL     OW30715   4.759   2.048   1.266
 9939SOL    HW130716   4.721   1.994   1.341
 9939SOL    HW230717   4.703   2.035   1.184
 9940SOL     OW30718   1.168   0.243   1.252
 9940SOL    HW130719   1.074   0.275   1.255
 9940SOL    HW230720   1.171   0.144   1.266
 9941SOL     OW30721   3.190   3.526   5.446
 9941SOL    HW130722   3.094   3.532   5.417
 9941SOL    HW230723   3.249   3.553   5.370
 9942SOL     OW30724   2.405   5.139   2.850
 9942SOL    HW130725   2.448   5.132   2.760
 9942SOL    HW230726   2.404   5.050   2.893
 9943SOL     OW30727   0.501   4.736   5.929
 9943SOL    HW130728   0.555   4.689   5.859
 9943SOL    HW230729   0.409   4.754   5.894
 9944SOL     OW30730   1.132   4.325   6.471
 9944SOL    HW130731   1.219   4.277   6.460
 9944SOL    HW230732   1.110   4.373   6.386
 9945SOL     OW30733   5.681   5.163   0.105
 9945SOL    HW130734   5.724   5.252   0.122
 9945SOL    HW230735   5.641   5.129   0.190
 9946SOL     OW30736   5.331   0.942   3.815
 9946SOL    HW130737   5.354   0.998   3.736
 9946SOL    HW230738   5.365   0.849   3.802
 9947SOL     OW30739   2.062   2.100   4.781
 9947SOL    HW130740   2.121   2.180   4.771
 9947SOL    HW230741   1.966   2.129   4.780
 9948SOL     OW30742   5.713   4.229   4.785
 9948SOL    HW130743   5.625   4.180   4.790
 9948SOL    HW230744   5.707   4.302   4.717
 9949SOL     OW30745   6.849   4.869   4.594
 9949SOL    HW130746   6.789   4.810   4.648
 9949SOL    HW230747   6.799   4.903   4.514
 9950SOL     OW30748   6.020   5.925   5.502
 9950SOL    HW130749   6.050   5.935   5.407
 9950SOL    HW230750   6.039   6.009   5.552
 9951SOL     OW30751   6.878   1.168   3.890
 9951SOL    HW130752   6.887   1.224   3.972
 9951SOL    HW230753   6.927   1.082   3.903
 9952SOL     OW30754   1.140   3.779   0.847
 9952SOL    HW130755   1.048   3.794   0.811
 9952SOL    HW230756   1.192   3.722   0.783
 9953SOL     OW30757   5.508   2.640   4.786
 9953SOL    HW130758   5.550   2.587   4.860
 9953SOL    HW230759   5.580   2.680   4.729
 9954SOL     OW30760   6.847   0.947   6.461
 9954SOL    HW130761   6.878   1.010   6.389
 9954SOL    HW230762   6.882   0.977   6.549
 9955SOL     OW30763   6.108   3.461   5.231
 9955SOL    HW130764   6.182   3.397   5.212
 9955SOL    HW230765   6.067   3.441   5.320
 9956SOL     OW30766   1.363   6.884   2.198
 9956SOL    HW130767   1.462   6.896   2.185
 9956SOL    HW230768   1.348   6.819   2.273
 9957SOL     OW30769   4.885   5.593   2.638
 9957SOL    HW130770   4.976   5.634   2.629
 9957SOL    HW230771   4.858   5.593   2.734
 9958SOL     OW30772   3.297   5.478   6.997
 9958SOL    HW130773   3.293   5.390   6.949
 9958SOL    HW230774   3.388   5.519   6.984
 9959SOL     OW30775   3.959   3.634   5.370
 9959SOL    HW130776   3.994   3.655   5.279
 9959SOL    HW230777   3.996   3.699   5.437
 9960SOL     OW30778   6.852   0.365   1.941
 9960SOL    HW130779   6.849   0.265   1.948
 9960SOL    HW230780   6.899   0.402   2.022
 9961SOL     OW30781   1.512   5.074   4.810
 9961SOL    HW130782   1.426   5.111   4.847
 9961SOL    HW230783   1.549   5.007   4.875
 9962SOL     OW30784   6.293   6.169   2.390
 9962SOL    HW130785   6.295   6.070   2.380
 9962SOL    HW230786   6.378   6.200   2.432
 9963SOL     OW30787   2.968   3.009   6.611
 9963SOL    HW130788   3.003   2.929   6.563
 9963SOL    HW230789   2.869   3.013   6.602
 9964SOL     OW30790   5.234   4.363   5.473
 9964SOL    HW130791   5.300   4.390   5.543
 9964SOL    HW230792   5.266   4.395   5.383
 9965SOL     OW30793   3.799   6.741   6.037
 9965SOL    HW130794   3.771   6.666   5.976
 9965SOL    HW230795   3.732   6.751   6.111
 9966SOL     OW30796   2.070   5.852   1.881
 9966SOL    HW130797   2.012   5.788   1.931
 9966SOL    HW230798   2.031   5.944   1.887
 9967SOL     OW30799   0.069   0.216   2.119
 9967SOL    HW130800   0.103   0.292   2.175
 9967SOL    HW230801   0.096   0.129   2.161
 9968SOL     OW30802   3.541   4.073   0.814
 9968SOL    HW130803   3.501   4.157   0.849
 9968SOL    HW230804   3.479   3.997   0.831
 9969SOL     OW30805   1.783   2.891   2.654
 9969SOL    HW130806   1.831   2.927   2.734
 9969SOL    HW230807   1.761   2.967   2.592
 9970SOL     OW30808   5.248   3.638   2.655
 9970SOL    HW130809   5.161   3.599   2.624
 9970SOL    HW230810   5.268   3.721   2.604
 9971SOL     OW30811   2.141   5.655   1.283
 9971SOL    HW130812   2.045   5.668   1.305
 9971SOL    HW230813   2.153   5.570   1.232
 9972SOL     OW30814   4.365   4.695   1.465
 9972SOL    HW130815   4.451   4.723   1.424
 9972SOL    HW230816   4.383   4.652   1.554
 9973SOL     OW30817   4.881   1.687   4.128
 9973SOL    HW130818   4.914   1.605   4.176
 9973SOL    HW230819   4.782   1.684   4.121
 9974SOL     OW30820   0.448   3.106   2.824
 9974SOL    HW130821   0.371   3.050   2.854
 9974SOL    HW230822   0.416   3.178   2.763
 9975SOL     OW30823   6.082   4.113   0.191
 9975SOL    HW130824   6.132   4.191   0.229
 9975SOL    HW230825   6.051   4.055   0.266
 9976SOL     OW30826   0.398   6.328   5.437
 9976SOL    HW130827   0.458   6.293   5.509
 9976SOL    HW230828   0.356   6.252   5.388
 9977SOL     OW30829   6.839   5.825   5.338
 9977SOL    HW130830   6.929   5.793   5.309
 9977SOL    HW230831   6.834   5.826   5.438
 9978SOL     OW30832   0.227   2.469   3.548
 9978SOL    HW130833   0.219   2.552   3.601
 9978SOL    HW230834   0.186   2.393   3.598
 9979SOL     OW30835   6.175   5.566   5.011
 9979SOL    HW130836   6.250   5.604   5.065
 9979SOL    HW230837   6.194   5.470   4.989
 9980SOL     OW30838   1.910   1.125   5.284
 9980SOL    HW130839   1.986   1.182   5.254
 9980SOL    HW230840   1.823   1.171   5.266
 9981SOL     OW30841   2.168   1.845   1.695
 9981SOL    HW130842   2.208   1.819   1.608
 9981SOL    HW230843   2.184   1.772   1.762
 9982SOL     OW30844   6.316   6.936   4.235
 9982SOL    HW130845   6.294   6.841   4.258
 9982SOL    HW230846   6.270   6.997   4.300
 9983SOL     OW30847   7.002   2.572   2.793
 9983SOL    HW130848   0.039   2.550   2.869
 9983SOL    HW230849   0.012   2.654   2.746
 9984SOL     OW30850   1.945   0.863   6.924
 9984SOL    HW130851   1.970   0.955   6.955
 9984SOL    HW230852   1.996   0.795   6.976
 9985SOL     OW30853   1.728   1.465   0.905
 9985SOL    HW130854   1.796   1.430   0.969
 9985SOL    HW230855   1.753   1.439   0.812
 9986SOL     OW30856   5.854   4.369   5.762
 9986SOL    HW130857   5.942   4.344   5.801
 9986SOL    HW230858   5.842   4.324   5.674
 9987SOL     OW30859   6.773   3.306   4.455
 9987SOL    HW130860   6.750   3.389   4.505
 9987SOL    HW230861   6.696   3.280   4.397
 9988SOL     OW30862   6.905   5.549   4.599
 9988SOL    HW130863   6.868   5.638   4.629
 9988SOL    HW230864   6.851   5.476   4.641
 9989SOL     OW30865   6.250   3.682   3.092
 9989SOL    HW130866   6.308   3.609   3.056
 9989SOL    HW230867   6.284   3.711   3.181
 9990SOL     OW30868   2.319   5.570   1.856
 9990SOL    HW130869   2.298   5.554   1.759
 9990SOL    HW230870   2.400   5.516   1.881
 9991SOL     OW30871   2.040   2.941   3.476
 9991SOL    HW130872   2.002   2.851   3.455
 9991SOL    HW230873   2.047   2.952   3.575
 9992SOL     OW30874   5.798   4.938   0.275
 9992SOL    HW130875   5.749   4.934   0.187
 9992SOL    HW230876   5.886   4.983   0.262
 9993SOL     OW30877   2.907   0.311   0.062
 9993SOL    HW130878   2.986   0.305   0.122
 9993SOL    HW230879   2.824   0.323   0.117
 9994SOL     OW30880   6.569   4.415   3.224
 9994SOL    HW130881   6.640   4.462   3.277
 9994SOL    HW230882   6.611   4.363   3.150
 9995SOL     OW30883   4.552   0.892   2.929
 9995SOL    HW130884   4.494   0.832   2.874
 9995SOL    HW230885   4.506   0.980   2.942
 9996SOL     OW30886   2.855   3.169   1.195
 9996SOL    HW130887   2.839   3.228   1.274
 9996SOL    HW230888   2.767   3.143   1.155
 9997SOL     OW30889   3.470   1.393   0.494
 9997SOL    HW130890   3.514   1.483   0.493
 9997SOL    HW230891   3.520   1.330   0.435
 9998SOL     OW30892   5.495   4.753   6.175
 9998SOL    HW130893   5.414   4.786   6.224
 9998SOL    HW230894   5.574   4.807   6.202
 9999SOL     OW30895   6.481   3.216   5.309
 9999SOL    HW130896   6.489   3.161   5.225
 9999SOL    HW230897   6.403   3.277   5.301
10000SOL     OW30898   0.467   4.246   6.656
10000SOL    HW130899   0.543   4.311   6.651
10000SOL    HW230900   0.429   4.246   6.748
10001SOL     OW30901   4.804   0.000   1.602
10001SOL    HW130902   4.871   7.007   1.674
10001SOL    HW230903   4.783   6.938   1.554
10002SOL     OW30904   1.789   0.341   2.866
10002SOL    HW130905   1.695   0.307   2.862
10002SOL    HW230906   1.804   0.407   2.792
10003SOL     OW30907   3.754   1.202   3.206
10003SOL    HW130908   3.733   1.210   3.304
10003SOL    HW230909   3.670   1.180   3.156
10004SOL     OW30910   6.106   2.321   4.491
10004SOL    HW130911   6.038   2.306   4.563
10004SOL    HW230912   6.134   2.417   4.491
10005SOL     OW30913   5.080   0.390   4.923
10005SOL    HW130914   5.029   0.384   4.837
10005SOL    HW230915   5.017   0.382   5.000
10006SOL     OW30916   5.307   5.920   3.968
10006SOL    HW130917   5.325   6.001   4.025
10006SOL    HW230918   5.238   5.943   3.900
10007SOL     OW30919   6.979   4.885   5.818
10007SOL    HW130920   7.009   4.819   5.749
10007SOL    HW230921   6.885   4.866   5.845
10008SOL     OW30922   4.194   1.312   4.368
10008SOL    HW130923   4.281   1.353   4.340
10008SOL    HW230924   4.130   1.384   4.395
10009SOL     OW30925   1.635   3.829   1.747
10009SOL    HW130926   1.562   3.803   1.811
10009SOL    HW230927   1.612   3.796   1.655
10010SOL     OW30928   2.297   0.723   5.651
10010SOL    HW130929   2.298   0.691   5.556
10010SOL    HW230930   2.378   0.690   5.698
10011SOL     OW30931   5.532   1.113   5.746
10011SOL    HW130932   5.625   1.132   5.777
10011SOL    HW230933   5.472   1.105   5.825
10012SOL     OW30934   5.698   1.644   3.364
10012SOL    HW130935   5.663   1.551   3.377
10012SOL    HW230936   5.642   1.692   3.297
10013SOL     OW30937   0.176   1.015   3.294
10013SOL    HW130938   0.102   1.063   3.341
10013SOL    HW230939   0.253   1.004   3.356
10014SOL     OW30940   6.589   3.923   0.639
10014SOL    HW130941   6.688   3.916   0.628
10014SOL    HW230942   6.558   4.012   0.604
10015SOL     OW30943   1.609   5.044   0.445
10015SOL    HW130944   1.558   5.060   0.530
10015SOL    HW230945   1.651   5.129   0.415
10016SOL     OW30946   0.889   0.494   6.531
10016SOL    HW130947   0.884   0.593   6.540
10016SOL    HW230948   0.822   0.451   6.592
10017SOL     OW30949   2.489   1.978   2.855
10017SOL    HW130950   2.561   1.955   2.789
10017SOL    HW230951   2.418   1.908   2.853
10018SOL     OW30952   4.585   0.117   6.278
10018SOL    HW130953   4.488   0.097   6.290
10018SOL    HW230954   4.594   0.200   6.223
10019SOL     OW30955   0.563   1.260   3.141
10019SOL    HW130956   0.489   1.283   3.078
10019SOL    HW230957   0.540   1.290   3.233
10020SOL     OW30958   1.948   2.525   0.960
10020SOL    HW130959   2.033   2.473   0.963
10020SOL    HW230960   1.922   2.552   1.053
10021SOL     OW30961   0.456   2.214   1.659
10021SOL    HW130962   0.504   2.193   1.574
10021SOL    HW230963   0.444   2.129   1.711
10022SOL     OW30964   2.462   1.291   5.890
10022SOL    HW130965   2.540   1.325   5.941
10022SOL    HW230966   2.377   1.321   5.933
10023SOL     OW30967   0.697   5.204   1.053
10023SOL    HW130968   0.657   5.211   1.144
10023SOL    HW230969   0.739   5.114   1.041
10024SOL     OW30970   2.154   5.815   2.247
10024SOL    HW130971   2.243   5.803   2.202
10024SOL    HW230972   2.082   5.779   2.187
10025SOL     OW30973   1.221   1.391   0.389
10025SOL    HW130974   1.158   1.439   0.449
10025SOL    HW230975   1.312   1.432   0.396
10026SOL     OW30976   5.140   6.371   3.855
10026SOL    HW130977   5.137   6.398   3.759
10026SOL    HW230978   5.231   6.336   3.878
10027SOL     OW30979   6.980   4.050   4.415
10027SOL    HW130980   0.045   4.005   4.412
10027SOL    HW230981   6.920   4.009   4.346
10028SOL     OW30982   1.308   0.602   2.528
10028SOL    HW130983   1.339   0.691   2.562
10028SOL    HW230984   1.366   0.530   2.567
10029SOL     OW30985   4.604   1.472   4.455
10029SOL    HW130986   4.596   1.553   4.397
10029SOL    HW230987   4.615   1.500   4.550
10030SOL     OW30988   1.783   0.460   3.140
10030SOL    HW130989   1.868   0.483   3.188
10030SOL    HW230990   1.804   0.400   3.062
10031SOL     OW30991   5.492   4.505   4.816
10031SOL    HW130992   5.514   4.414   4.851
10031SOL    HW230993   5.576   4.557   4.802
10032SOL     OW30994   3.043   1.082   4.949
10032SOL    HW130995   3.089   1.142   5.013
10032SOL    HW230996   3.087   1.089   4.859
10033SOL     OW30997   6.473   3.055   4.643
10033SOL    HW130998   6.410   3.132   4.636
10033SOL    HW230999   6.531   3.051   4.562
10034SOL     OW31000   3.823   0.390   4.405
10034SOL    HW131001   3.748   0.400   4.469
10034SOL    HW231002   3.836   0.475   4.355
10035SOL     OW31003   6.842   5.396   1.730
10035SOL    HW131004   6.790   5.337   1.792
10035SOL    HW231005   6.881   5.342   1.656
10036SOL     OW31006   6.149   2.260   0.556
10036SOL    HW131007   6.078   2.279   0.488
10036SOL    HW231008   6.115   2.193   0.623
10037SOL     OW31009   6.978   1.697   0.522
10037SOL    HW131010   6.977   1.797   0.520
10037SOL    HW231011   6.939   1.661   0.438
10038SOL     OW31012   6.152   0.354   0.405
10038SOL    HW131013   6.059   0.316   0.407
10038SOL    HW231014   6.167   0.401   0.319
10039SOL     OW31015   3.695   0.520   3.700
10039SOL    HW131016   3.758   0.483   3.633
10039SOL    HW231017   3.612   0.463   3.704
10040SOL     OW31018   5.984   5.133   6.351
10040SOL    HW131019   5.956   5.159   6.259
10040SOL    HW231020   5.936   5.050   6.379
10041SOL     OW31021   3.574   6.156   6.768
10041SOL    HW131022   3.493   6.136   6.713
10041SOL    HW231023   3.656   6.142   6.713
10042SOL     OW31024   0.422   1.535   3.729
10042SOL    HW131025   0.517   1.555   3.752
10042SOL    HW231026   0.412   1.436   3.713
10043SOL     OW31027   6.069   1.693   5.177
10043SOL    HW131028   6.037   1.613   5.127
10043SOL    HW231029   6.143   1.738   5.126
10044SOL     OW31030   2.442   2.815   5.488
10044SOL    HW131031   2.527   2.777   5.524
10044SOL    HW231032   2.453   2.914   5.474
10045SOL     OW31033   4.274   0.679   1.479
10045SOL    HW131034   4.373   0.686   1.467
10045SOL    HW231035   4.253   0.657   1.574
10046SOL     OW31036   1.940   3.703   1.070
10046SOL    HW131037   1.955   3.657   0.982
10046SOL    HW231038   1.987   3.652   1.142
10047SOL     OW31039   0.451   2.876   5.933
10047SOL    HW131040   0.375   2.936   5.907
10047SOL    HW231041   0.467   2.883   6.031
10048SOL     OW31042   6.746   6.471   2.825
10048SOL    HW131043   6.694   6.496   2.906
10048SOL    HW231044   6.841   6.500   2.835
10049SOL     OW31045   1.353   1.455   6.036
10049SOL    HW131046   1.298   1.456   5.953
10049SOL    HW231047   1.297   1.428   6.114
10050SOL     OW31048   5.643   3.527   4.947
10050SOL    HW131049   5.591   3.446   4.971
10050SOL    HW231050   5.739   3.514   4.974
10051SOL     OW31051   0.612   4.408   5.015
10051SOL    HW131052   0.673   4.464   4.960
10051SOL    HW231053   0.572   4.335   4.958
10052SOL     OW31054   1.512   1.142   3.097
10052SOL    HW131055   1.443   1.126   3.026
10052SOL    HW231056   1.587   1.077   3.086
10053SOL     OW31057   4.975   5.259   4.048
10053SOL    HW131058   4.909   5.280   3.975
10053SOL    HW231059   4.929   5.213   4.123
10054SOL     OW31060   5.409   3.954   5.033
10054SOL    HW131061   5.381   3.903   4.952
10054SOL    HW231062   5.497   3.919   5.066
10055SOL     OW31063   6.764   2.778   6.596
10055SOL    HW131064   6.860   2.804   6.596
10055SOL    HW231065   6.747   2.710   6.667
10056SOL     OW31066   5.221   3.673   3.035
10056SOL    HW131067   5.249   3.582   3.066
10056SOL    HW231068   5.126   3.670   3.004
10057SOL     OW31069   5.916   3.867   5.495
10057SOL    HW131070   5.975   3.920   5.434
10057SOL    HW231071   5.820   3.890   5.478
10058SOL     OW31072   6.782   3.476   4.133
10058SOL    HW131073   6.869   3.479   4.183
10058SOL    HW231074   6.799   3.453   4.037
10059SOL     OW31075   6.434   1.861   0.638
10059SOL    HW131076   6.412   1.764   0.648
10059SOL    HW231077   6.431   1.885   0.541
10060SOL     OW31078   2.615   1.706   2.543
10060SOL    HW131079   2.581   1.775   2.480
10060SOL    HW231080   2.668   1.638   2.492
10061SOL     OW31081   4.257   1.045   3.954
10061SOL    HW131082   4.306   1.059   4.040
10061SOL    HW231083   4.262   1.127   3.898
10062SOL     OW31084   6.722   6.798   4.348
10062SOL    HW131085   6.783   6.845   4.285
10062SOL    HW231086   6.661   6.737   4.297
10063SOL     OW31087   2.116   2.088   4.472
10063SOL    HW131088   2.109   2.080   4.572
10063SOL    HW231089   2.197   2.038   4.441
10064SOL     OW31090   3.824   6.081   6.607
10064SOL    HW131091   3.806   6.023   6.687
10064SOL    HW231092   3.916   6.062   6.573
10065SOL     OW31093   1.478   0.929   1.847
10065SOL    HW131094   1.471   1.012   1.791
10065SOL    HW231095   1.395   0.874   1.835
10066SOL     OW31096   0.085   3.440   5.253
10066SOL    HW131097   0.083   3.341   5.257
10066SOL    HW231098   0.040   3.471   5.169
10067SOL     OW31099   0.893   3.122   6.572
10067SOL    HW131100   0.872   3.182   6.649
10067SOL    HW231101   0.813   3.067   6.549
10068SOL     OW31102   1.744   3.445   2.870
10068SOL    HW131103   1.721   3.524   2.927
10068SOL    HW231104   1.792   3.477   2.788
10069SOL     OW31105   3.554   5.137   1.900
10069SOL    HW131106   3.557   5.214   1.836
10069SOL    HW231107   3.494   5.160   1.977
10070SOL     OW31108   2.133   5.617   4.260
10070SOL    HW131109   2.059   5.656   4.206
10070SOL    HW231110   2.146   5.670   4.344
10071SOL     OW31111   0.454   6.622   3.872
10071SOL    HW131112   0.473   6.719   3.886
10071SOL    HW231113   0.362   6.600   3.907
10072SOL     OW31114   0.214   1.496   2.606
10072SOL    HW131115   0.134   1.523   2.552
10072SOL    HW231116   0.211   1.544   2.694
10073SOL     OW31117   6.272   2.645   3.909
10073SOL    HW131118   6.342   2.639   3.980
10073SOL    HW231119   6.308   2.697   3.831
10074SOL     OW31120   1.275   5.161   0.331
10074SOL    HW131121   1.330   5.125   0.256
10074SOL    HW231122   1.180   5.173   0.299
10075SOL     OW31123   2.305   1.452   2.491
10075SOL    HW131124   2.338   1.514   2.420
10075SOL    HW231125   2.382   1.398   2.525
10076SOL     OW31126   4.845   5.345   2.950
10076SOL    HW131127   4.921   5.371   2.890
10076SOL    HW231128   4.874   5.269   3.009
10077SOL     OW31129   5.905   3.152   6.977
10077SOL    HW131130   5.891   3.127   0.049
10077SOL    HW231131   5.998   3.126   6.949
10078SOL     OW31132   6.714   6.692   4.993
10078SOL    HW131133   6.813   6.696   5.004
10078SOL    HW231134   6.687   6.749   4.916
10079SOL     OW31135   5.641   2.777   3.692
10079SOL    HW131136   5.621   2.875   3.690
10079SOL    HW231137   5.564   2.728   3.733
10080SOL     OW31138   5.752   1.171   5.876
10080SOL    HW131139   5.806   1.254   5.888
10080SOL    HW231140   5.795   1.095   5.924
10081SOL     OW31141   1.416   1.554   6.353
10081SOL    HW131142   1.508   1.535   6.389
10081SOL    HW231143   1.390   1.483   6.288
10082SOL     OW31144   1.207   4.945   2.630
10082SOL    HW131145   1.199   5.041   2.657
10082SOL    HW231146   1.298   4.928   2.592
10083SOL     OW31147   3.575   5.623   3.537
10083SOL    HW131148   3.608   5.701   3.484
10083SOL    HW231149   3.484   5.642   3.573
10084SOL     OW31150   0.561   0.249   5.445
10084SOL    HW131151   0.541   0.212   5.355
10084SOL    HW231152   0.496   0.211   5.512
10085SOL     OW31153   4.275   6.533   0.151
10085SOL    HW131154   4.208   6.493   0.088
10085SOL    HW231155   4.247   6.625   0.177
10086SOL     OW31156   6.233   6.593   1.971
10086SOL    HW131157   6.259   6.609   1.876
10086SOL    HW231158   6.243   6.495   1.991
10087SOL     OW31159   0.449   6.685   4.431
10087SOL    HW131160   0.520   6.701   4.362
10087SOL    HW231161   0.362   6.719   4.396
10088SOL     OW31162   6.782   2.322   0.357
10088SOL    HW131163   6.703   2.335   0.417
10088SOL    HW231164   6.851   2.391   0.379
10089SOL     OW31165   4.120   1.742   2.343
10089SOL    HW131166   4.068   1.783   2.268
10089SOL    HW231167   4.184   1.809   2.379
10090SOL     OW31168   1.226   5.218   1.524
10090SOL    HW131169   1.140   5.171   1.545
10090SOL    HW231170   1.295   5.190   1.591
10091SOL     OW31171   6.627   5.451   6.222
10091SOL    HW131172   6.651   5.456   6.318
10091SOL    HW231173   6.709   5.467   6.166
10092SOL     OW31174   0.787   3.191   5.646
10092SOL    HW131175   0.692   3.212   5.625
10092SOL    HW231176   0.847   3.236   5.580
10093SOL     OW31177   5.088   3.560   5.731
10093SOL    HW131178   5.006   3.537   5.784
10093SOL    HW231179   5.087   3.658   5.710
10094SOL     OW31180   3.154   6.604   0.913
10094SOL    HW131181   3.130   6.697   0.940
10094SOL    HW231182   3.163   6.600   0.813
10095SOL     OW31183   5.017   2.506   4.843
10095SOL    HW131184   5.047   2.597   4.813
10095SOL    HW231185   5.095   2.445   4.850
10096SOL     OW31186   4.829   0.873   2.621
10096SOL    HW131187   4.828   0.906   2.526
10096SOL    HW231188   4.915   0.824   2.638
10097SOL     OW31189   2.200   1.711   5.754
10097SOL    HW131190   2.169   1.786   5.696
10097SOL    HW231191   2.127   1.643   5.764
10098SOL     OW31192   3.101   5.544   4.469
10098SOL    HW131193   3.099   5.573   4.565
10098SOL    HW231194   3.017   5.495   4.447
10099SOL     OW31195   6.154   4.104   1.596
10099SOL    HW131196   6.111   4.166   1.531
10099SOL    HW231197   6.253   4.104   1.581
10100SOL     OW31198   5.534   5.607   5.383
10100SOL    HW131199   5.517   5.508   5.376
10100SOL    HW231200   5.579   5.639   5.300
10101SOL     OW31201   0.230   2.666   1.425
10101SOL    HW131202   0.198   2.617   1.344
10101SOL    HW231203   0.183   2.755   1.431
10102SOL     OW31204   6.050   0.019   0.914
10102SOL    HW131205   5.984   7.019   0.843
10102SOL    HW231206   6.023   0.106   0.956
10103SOL     OW31207   0.671   0.311   5.928
10103SOL    HW131208   0.661   0.410   5.934
10103SOL    HW231209   0.598   0.267   5.981
10104SOL     OW31210   2.025   0.400   6.039
10104SOL    HW131211   1.995   0.367   6.128
10104SOL    HW231212   2.117   0.439   6.047
10105SOL     OW31213   3.160   1.404   5.835
10105SOL    HW131214   3.144   1.477   5.902
10105SOL    HW231215   3.136   1.437   5.744
10106SOL     OW31216   4.848   6.363   1.423
10106SOL    HW131217   4.798   6.358   1.336
10106SOL    HW231218   4.854   6.459   1.451
10107SOL     OW31219   5.305   4.846   6.334
10107SOL    HW131220   5.324   4.926   6.391
10107SOL    HW231221   5.211   4.849   6.302
10108SOL     OW31222   1.381   3.248   0.673
10108SOL    HW131223   1.456   3.306   0.643
10108SOL    HW231224   1.300   3.268   0.617
10109SOL     OW31225   0.555   1.394   0.043
10109SOL    HW131226   0.482   1.450   0.003
10109SOL    HW231227   0.641   1.413   7.020
10110SOL     OW31228   4.621   5.266   2.794
10110SOL    HW131229   4.687   5.285   2.867
10110SOL    HW231230   4.650   5.184   2.745
10111SOL     OW31231   1.268   1.881   2.018
10111SOL    HW131232   1.211   1.948   2.064
10111SOL    HW231233   1.212   1.804   1.988
10112SOL     OW31234   6.420   2.796   3.735
10112SOL    HW131235   6.512   2.786   3.696
10112SOL    HW231236   6.396   2.893   3.739
10113SOL     OW31237   5.102   1.313   6.833
10113SOL    HW131238   5.014   1.303   6.787
10113SOL    HW231239   5.095   1.385   6.902
10114SOL     OW31240   3.874   1.890   3.259
10114SOL    HW131241   3.834   1.933   3.340
10114SOL    HW231242   3.873   1.790   3.271
10115SOL     OW31243   3.232   1.115   4.745
10115SOL    HW131244   3.170   1.112   4.667
10115SOL    HW231245   3.310   1.174   4.724
10116SOL     OW31246   6.281   0.861   5.445
10116SOL    HW131247   6.291   0.906   5.356
10116SOL    HW231248   6.367   0.867   5.495
10117SOL     OW31249   6.484   5.352   5.215
10117SOL    HW131250   6.507   5.265   5.259
10117SOL    HW231251   6.538   5.425   5.257
10118SOL     OW31252   3.110   5.091   5.019
10118SOL    HW131253   3.044   5.026   5.055
10118SOL    HW231254   3.202   5.053   5.026
10119SOL     OW31255   0.512   4.948   4.495
10119SOL    HW131256   0.533   4.986   4.405
10119SOL    HW231257   0.414   4.935   4.504
10120SOL     OW31258   1.371   2.878   2.241
10120SOL    HW131259   1.341   2.974   2.242
10120SOL    HW231260   1.406   2.854   2.331
10121SOL     OW31261   6.222   4.523   1.183
10121SOL    HW131262   6.150   4.476   1.132
10121SOL    HW231263   6.299   4.461   1.198
10122SOL     OW31264   0.520   1.936   3.356
10122SOL    HW131265   0.489   1.845   3.327
10122SOL    HW231266   0.578   1.976   3.285
10123SOL     OW31267   5.669   5.999   1.113
10123SOL    HW131268   5.642   6.066   1.182
10123SOL    HW231269   5.590   5.943   1.089
10124SOL     OW31270   1.482   4.601   2.936
10124SOL    HW131271   1.479   4.501   2.932
10124SOL    HW231272   1.451   4.631   3.026
10125SOL     OW31273   1.596   2.011   0.145
10125SOL    HW131274   1.606   1.941   0.074
10125SOL    HW231275   1.642   2.095   0.115
10126SOL     OW31276   5.793   0.575   6.742
10126SOL    HW131277   5.718   0.509   6.728
10126SOL    HW231278   5.756   0.662   6.772
10127SOL     OW31279   1.934   4.861   5.983
10127SOL    HW131280   2.026   4.831   5.958
10127SOL    HW231281   1.896   4.917   5.909
10128SOL     OW31282   3.379   0.654   0.587
10128SOL    HW131283   3.281   0.654   0.569
10128SOL    HW231284   3.427   0.607   0.513
10129SOL     OW31285   6.209   1.807   3.739
10129SOL    HW131286   6.221   1.788   3.642
10129SOL    HW231287   6.297   1.797   3.786
10130SOL     OW31288   1.535   2.028   2.064
10130SOL    HW131289   1.524   2.065   2.156
10130SOL    HW231290   1.447   1.993   2.031
10131SOL     OW31291   2.020   0.540   4.521
10131SOL    HW131292   2.086   0.591   4.466
10131SOL    HW231293   1.940   0.597   4.539
10132SOL     OW31294   6.500   0.513   2.384
10132SOL    HW131295   6.488   0.611   2.370
10132SOL    HW231296   6.536   0.471   2.300
10133SOL     OW31297   4.724   5.765   0.998
10133SOL    HW131298   4.656   5.801   0.935
10133SOL    HW231299   4.681   5.744   1.086
10134SOL     OW31300   5.793   0.331   2.272
10134SOL    HW131301   5.871   0.383   2.236
10134SOL    HW231302   5.709   0.384   2.261
10135SOL     OW31303   5.716   0.143   3.538
10135SOL    HW131304   5.776   0.109   3.610
10135SOL    HW231305   5.704   0.072   3.468
10136SOL     OW31306   4.746   2.127   2.580
10136SOL    HW131307   4.671   2.091   2.636
10136SOL    HW231308   4.709   2.169   2.497
10137SOL     OW31309   0.235   5.963   5.702
10137SOL    HW131310   0.146   6.009   5.698
10137SOL    HW231311   0.228   5.879   5.756
10138SOL     OW31312   5.350   1.296   6.920
10138SOL    HW131313   5.255   1.277   6.898
10138SOL    HW231314   5.356   1.382   6.970
10139SOL     OW31315   3.427   3.587   5.339
10139SOL    HW131316   3.394   3.680   5.328
10139SOL    HW231317   3.521   3.589   5.374
10140SOL     OW31318   6.886   5.477   6.033
10140SOL    HW131319   6.982   5.457   6.052
10140SOL    HW231320   6.858   5.430   5.950
10141SOL     OW31321   3.034   1.649   4.053
10141SOL    HW131322   2.949   1.694   4.083
10141SOL    HW231323   3.019   1.550   4.050
10142SOL     OW31324   6.193   6.143   4.336
10142SOL    HW131325   6.288   6.153   4.305
10142SOL    HW231326   6.160   6.052   4.310
10143SOL     OW31327   5.703   3.279   0.381
10143SOL    HW131328   5.653   3.334   0.315
10143SOL    HW231329   5.669   3.298   0.473
10144SOL     OW31330   3.743   6.140   5.338
10144SOL    HW131331   3.814   6.085   5.381
10144SOL    HW231332   3.691   6.189   5.408
10145SOL     OW31333   5.156   6.127   1.012
10145SOL    HW131334   5.158   6.043   1.067
10145SOL    HW231335   5.242   6.136   0.962
10146SOL     OW31336   0.409   3.494   4.122
10146SOL    HW131337   0.324   3.544   4.102
10146SOL    HW231338   0.474   3.556   4.165
10147SOL     OW31339   4.443   5.799   6.236
10147SOL    HW131340   4.391   5.839   6.161
10147SOL    HW231341   4.426   5.850   6.320
10148SOL     OW31342   1.130   4.915   6.772
10148SOL    HW131343   1.154   4.941   6.865
10148SOL    HW231344   1.188   4.965   6.707
10149SOL     OW31345   4.539   4.494   0.895
10149SOL    HW131346   4.478   4.418   0.918
10149SOL    HW231347   4.508   4.577   0.941
10150SOL     OW31348   4.532   4.191   0.481
10150SOL    HW131349   4.445   4.147   0.457
10150SOL    HW231350   4.565   4.153   0.567
10151SOL     OW31351   6.466   0.378   5.241
10151SOL    HW131352   6.429   0.454   5.295
10151SOL    HW231353   6.391   0.326   5.202
10152SOL     OW31354   5.457   6.221   2.714
10152SOL    HW131355   5.452   6.216   2.813
10152SOL    HW231356   5.547   6.254   2.686
10153SOL     OW31357   5.733   4.710   4.045
10153SOL    HW131358   5.786   4.705   3.960
10153SOL    HW231359   5.636   4.706   4.023
10154SOL     OW31360   3.944   5.324   5.299
10154SOL    HW131361   3.957   5.232   5.337
10154SOL    HW231362   3.919   5.388   5.372
10155SOL     OW31363   4.664   1.919   5.732
10155SOL    HW131364   4.703   1.832   5.761
10155SOL    HW231365   4.627   1.967   5.812
10156SOL     OW31366   4.663   0.694   1.158
10156SOL    HW131367   4.683   0.652   1.070
10156SOL    HW231368   4.744   0.687   1.217
10157SOL     OW31369   0.136   2.949   1.119
10157SOL    HW131370   0.180   3.007   1.050
10157SOL    HW231371   0.105   3.006   1.195
10158SOL     OW31372   5.578   6.466   1.991
10158SOL    HW131373   5.529   6.425   1.914
10158SOL    HW231374   5.533   6.553   2.016
10159SOL     OW31375   3.378   3.410   3.237
10159SOL    HW131376   3.422   3.399   3.326
10159SOL    HW231377   3.326   3.496   3.235
10160SOL     OW31378   2.238   4.090   3.133
10160SOL    HW131379   2.173   4.014   3.126
10160SOL    HW231380   2.253   4.128   3.042
10161SOL     OW31381   4.020   4.891   6.270
10161SOL    HW131382   4.013   4.972   6.329
10161SOL    HW231383   3.968   4.816   6.310
10162SOL     OW31384   1.739   4.264   2.538
10162SOL    HW131385   1.777   4.219   2.456
10162SOL    HW231386   1.654   4.219   2.565
10163SOL     OW31387   1.293   6.382   5.191
10163SOL    HW131388   1.361   6.331   5.242
10163SOL    HW231389   1.237   6.319   5.136
10164SOL     OW31390   6.882   2.975   3.243
10164SOL    HW131391   6.884   3.049   3.175
10164SOL    HW231392   6.905   2.889   3.199
10165SOL     OW31393   6.260   3.089   4.099
10165SOL    HW131394   6.233   3.126   4.187
10165SOL    HW231395   6.358   3.105   4.085
10166SOL     OW31396   1.229   2.404   0.885
10166SOL    HW131397   1.329   2.400   0.880
10166SOL    HW231398   1.196   2.333   0.948
10167SOL     OW31399   0.779   6.327   6.482
10167SOL    HW131400   0.717   6.275   6.541
10167SOL    HW231401   0.829   6.264   6.423
10168SOL     OW31402   5.823   1.219   0.094
10168SOL    HW131403   5.733   1.251   0.064
10168SOL    HW231404   5.878   1.297   0.124
10169SOL     OW31405   6.953   3.795   3.304
10169SOL    HW131406   6.952   3.705   3.261
10169SOL    HW231407   0.000   3.798   3.375
10170SOL     OW31408   6.108   5.625   7.015
10170SOL    HW131409   6.058   5.668   0.066
10170SOL    HW231410   6.104   5.685   6.935
10171SOL     OW31411   1.718   2.924   5.238
10171SOL    HW131412   1.669   2.892   5.157
10171SOL    HW231413   1.815   2.900   5.230
10172SOL     OW31414   6.456   0.472   3.516
10172SOL    HW131415   6.415   0.437   3.432
10172SOL    HW231416   6.448   0.572   3.518
10173SOL     OW31417   3.453   5.007   0.182
10173SOL    HW131418   3.535   5.061   0.165
10173SOL    HW231419   3.470   4.945   0.259
10174SOL     OW31420   4.416   6.648   2.213
10174SOL    HW131421   4.386   6.625   2.306
10174SOL    HW231422   4.452   6.741   2.213
10175SOL     OW31423   0.000   2.191   3.787
10175SOL    HW131424   6.973   2.108   3.764
10175SOL    HW231425   7.002   2.218   3.881
10176SOL     OW31426   6.268   3.185   5.684
10176SOL    HW131427   6.277   3.267   5.741
10176SOL    HW231428   6.352   3.132   5.688
10177SOL     OW31429   2.071   0.321   1.625
10177SOL    HW131430   2.139   0.381   1.666
10177SOL    HW231431   2.098   0.297   1.531
10178SOL     OW31432   1.456   1.435   6.992
10178SOL    HW131433   1.542   1.447   6.943
10178SOL    HW231434   1.474   1.420   0.065
10179SOL     OW31435   6.686   4.206   1.052
10179SOL    HW131436   6.643   4.289   1.086
10179SOL    HW231437   6.759   4.231   0.989
10180SOL     OW31438   4.185   6.753   6.251
10180SOL    HW131439   4.131   6.743   6.334
10180SOL    HW231440   4.281   6.735   6.271
10181SOL     OW31441   6.682   3.977   1.337
10181SOL    HW131442   6.759   3.956   1.396
10181SOL    HW231443   6.621   3.897   1.332
10182SOL     OW31444   5.160   1.267   0.188
10182SOL    HW131445   5.090   1.213   0.235
10182SOL    HW231446   5.116   1.329   0.124
10183SOL     OW31447   6.549   2.032   6.134
10183SOL    HW131448   6.550   1.939   6.172
10183SOL    HW231449   6.485   2.089   6.186
10184SOL     OW31450   6.169   3.806   5.900
10184SOL    HW131451   6.192   3.744   5.825
10184SOL    HW231452   6.130   3.753   5.976
10185SOL     OW31453   4.056   5.865   2.360
10185SOL    HW131454   4.155   5.857   2.347
10185SOL    HW231455   4.038   5.931   2.433
10186SOL     OW31456   4.898   3.990   5.500
10186SOL    HW131457   4.901   4.079   5.547
10186SOL    HW231458   4.814   3.942   5.525
10187SOL     OW31459   2.734   4.697   6.089
10187SOL    HW131460   2.648   4.649   6.071
10187SOL    HW231461   2.795   4.685   6.011
10188SOL     OW31462   2.625   6.932   0.306
10188SOL    HW131463   2.622   6.936   0.206
10188SOL    HW231464   2.534   6.911   0.342
10189SOL     OW31465   1.221   1.336   6.219
10189SOL    HW131466   1.270   1.250   6.210
10189SOL    HW231467   1.124   1.317   6.235
10190SOL     OW31468   3.135   4.461   1.222
10190SOL    HW131469   3.201   4.506   1.281
10190SOL    HW231470   3.042   4.481   1.255
10191SOL     OW31471   5.781   5.688   6.986
10191SOL    HW131472   5.688   5.690   6.949
10191SOL    HW231473   5.834   5.617   6.939
10192SOL     OW31474   2.087   1.905   5.261
10192SOL    HW131475   2.098   1.835   5.190
10192SOL    HW231476   2.162   1.972   5.254
10193SOL     OW31477   4.065   3.715   3.134
10193SOL    HW131478   4.037   3.784   3.200
10193SOL    HW231479   4.062   3.753   3.042
10194SOL     OW31480   3.833   7.016   4.482
10194SOL    HW131481   3.893   0.045   4.542
10194SOL    HW231482   3.888   6.978   4.407
10195SOL     OW31483   5.264   0.038   2.044
10195SOL    HW131484   5.330   0.021   2.117
10195SOL    HW231485   5.293   7.013   1.961
10196SOL     OW31486   5.621   1.528   2.935
10196SOL    HW131487   5.610   1.576   3.022
10196SOL    HW231488   5.532   1.520   2.890
10197SOL     OW31489   6.265   0.183   2.928
10197SOL    HW131490   6.263   0.139   2.838
10197SOL    HW231491   6.331   0.258   2.926
10198SOL     OW31492   3.261   6.473   1.772
10198SOL    HW131493   3.315   6.496   1.853
10198SOL    HW231494   3.276   6.542   1.701
10199SOL     OW31495   1.121   1.654   6.565
10199SOL    HW131496   1.036   1.626   6.610
10199SOL    HW231497   1.193   1.587   6.584
10200SOL     OW31498   4.989   4.425   5.494
10200SOL    HW131499   4.945   4.388   5.412
10200SOL    HW231500   5.083   4.392   5.499
10201SOL     OW31501   0.810   5.164   2.347
10201SOL    HW131502   0.898   5.199   2.315
10201SOL    HW231503   0.777   5.093   2.284
10202SOL     OW31504   0.594   4.031   1.542
10202SOL    HW131505   0.514   3.975   1.563
10202SOL    HW231506   0.677   3.980   1.566
10203SOL     OW31507   1.965   2.999   2.224
10203SOL    HW131508   1.988   2.979   2.319
10203SOL    HW231509   1.999   2.925   2.165
10204SOL     OW31510   3.113   4.869   5.544
10204SOL    HW131511   3.135   4.852   5.447
10204SOL    HW231512   3.054   4.950   5.550
10205SOL     OW31513   5.760   1.874   3.859
10205SOL    HW131514   5.742   1.848   3.764
10205SOL    HW231515   5.856   1.896   3.870
10206SOL     OW31516   5.608   6.627   6.232
10206SOL    HW131517   5.608   6.713   6.283
10206SOL    HW231518   5.692   6.621   6.177
10207SOL     OW31519   2.687   0.299   2.739
10207SOL    HW131520   2.711   0.256   2.651
10207SOL    HW231521   2.599   0.264   2.770
10208SOL     OW31522   5.890   5.241   5.240
10208SOL    HW131523   5.857   5.150   5.216
10208SOL    HW231524   5.831   5.281   5.310
10209SOL     OW31525   6.865   1.089   6.239
10209SOL    HW131526   6.887   1.008   6.185
10209SOL    HW231527   6.831   1.161   6.179
10210SOL     OW31528   5.742   6.877   2.355
10210SOL    HW131529   5.730   6.920   2.266
10210SOL    HW231530   5.681   6.921   2.421
10211SOL     OW31531   4.066   6.760   5.363
10211SOL    HW131532   3.988   6.737   5.421
10211SOL    HW231533   4.040   6.748   5.267
10212SOL     OW31534   0.345   0.926   3.798
10212SOL    HW131535   0.278   0.989   3.760
10212SOL    HW231536   0.385   0.965   3.881
10213SOL     OW31537   6.010   1.722   3.001
10213SOL    HW131538   6.071   1.786   3.048
10213SOL    HW231539   6.043   1.629   3.012
10214SOL     OW31540   6.342   0.761   2.304
10214SOL    HW131541   6.315   0.724   2.215
10214SOL    HW231542   6.261   0.791   2.354
10215SOL     OW31543   3.737   3.368   5.944
10215SOL    HW131544   3.715   3.424   5.864
10215SOL    HW231545   3.758   3.275   5.914
10216SOL     OW31546   6.152   6.702   1.160
10216SOL    HW131547   6.061   6.742   1.173
10216SOL    HW231548   6.215   6.771   1.126
10217SOL     OW31549   3.010   2.200   4.145
10217SOL    HW131550   2.936   2.223   4.082
10217SOL    HW231551   2.989   2.234   4.236
10218SOL     OW31552   1.697   0.937   1.222
10218SOL    HW131553   1.645   0.880   1.158
10218SOL    HW231554   1.645   0.947   1.307
10219SOL     OW31555   0.827   1.845   2.202
10219SOL    HW131556   0.728   1.840   2.187
10219SOL    HW231557   0.873   1.858   2.114
10220SOL     OW31558   4.251   1.825   1.731
10220SOL    HW131559   4.238   1.897   1.799
10220SOL    HW231560   4.165   1.776   1.717
10221SOL     OW31561   2.879   0.694   5.048
10221SOL    HW131562   2.797   0.692   5.106
10221SOL    HW231563   2.958   0.723   5.102
10222SOL     OW31564   1.270   4.182   5.393
10222SOL    HW131565   1.277   4.217   5.486
10222SOL    HW231566   1.335   4.108   5.379
10223SOL     OW31567   1.801   4.944   0.024
10223SOL    HW131568   1.718   4.998   0.031
10223SOL    HW231569   1.804   4.898   6.959
10224SOL     OW31570   0.969   0.627   4.311
10224SOL    HW131571   1.050   0.582   4.347
10224SOL    HW231572   0.954   0.714   4.359
10225SOL     OW31573   0.328   5.989   4.402
10225SOL    HW131574   0.327   6.089   4.397
10225SOL    HW231575   0.368   5.961   4.490
10226SOL     OW31576   2.702   1.108   6.705
10226SOL    HW131577   2.640   1.152   6.769
10226SOL    HW231578   2.777   1.170   6.683
10227SOL     OW31579   4.778   4.419   0.211
10227SOL    HW131580   4.724   4.431   0.294
10227SOL    HW231581   4.764   4.327   0.174
10228SOL     OW31582   0.496   5.462   2.558
10228SOL    HW131583   0.434   5.492   2.485
10228SOL    HW231584   0.453   5.388   2.609
10229SOL     OW31585   0.616   0.516   3.419
10229SOL    HW131586   0.602   0.491   3.324
10229SOL    HW231587   0.713   0.535   3.435
10230SOL     OW31588   6.238   7.000   3.571
10230SOL    HW131589   6.330   6.979   3.604
10230SOL    HW231590   6.244   0.015   3.479
10231SOL     OW31591   6.149   6.862   4.810
10231SOL    HW131592   6.220   6.922   4.772
10231SOL    HW231593   6.071   6.918   4.839
10232SOL     OW31594   3.550   0.916   4.100
10232SOL    HW131595   3.526   1.009   4.073
10232SOL    HW231596   3.650   0.904   4.095
10233SOL     OW31597   4.064   2.868   6.233
10233SOL    HW131598   4.156   2.874   6.273
10233SOL    HW231599   4.006   2.813   6.293
10234SOL     OW31600   5.120   0.403   0.841
10234SOL    HW131601   5.121   0.304   0.828
10234SOL    HW231602   5.212   0.440   0.832
10235SOL     OW31603   4.587   1.248   0.337
10235SOL    HW131604   4.650   1.289   0.271
10235SOL    HW231605   4.596   1.295   0.425
10236SOL     OW31606   2.188   6.356   1.213
10236SOL    HW131607   2.154   6.286   1.276
10236SOL    HW231608   2.249   6.314   1.146
10237SOL     OW31609   6.449   4.485   1.731
10237SOL    HW131610   6.512   4.409   1.714
10237SOL    HW231611   6.451   4.509   1.828
10238SOL     OW31612   3.663   4.510   5.317
10238SOL    HW131613   3.575   4.472   5.288
10238SOL    HW231614   3.736   4.443   5.299
10239SOL     OW31615   0.520   4.283   5.242
10239SOL    HW131616   0.557   4.191   5.239
10239SOL    HW231617   0.576   4.344   5.187
10240SOL     OW31618   0.825   4.268   3.026
10240SOL    HW131619   0.818   4.179   3.070
10240SOL    HW231620   0.820   4.256   2.926
10241SOL     OW31621   0.373   1.199   2.189
10241SOL    HW131622   0.407   1.113   2.149
10241SOL    HW231623   0.309   1.242   2.126
10242SOL     OW31624   0.305   1.325   5.779
10242SOL    HW131625   0.313   1.372   5.692
10242SOL    HW231626   0.364   1.243   5.778
10243SOL     OW31627   0.212   5.381   1.255
10243SOL    HW131628   0.206   5.437   1.172
10243SOL    HW231629   0.305   5.385   1.292
10244SOL     OW31630   2.443   4.897   6.873
10244SOL    HW131631   2.452   4.835   6.951
10244SOL    HW231632   2.534   4.918   6.837
10245SOL     OW31633   2.052   3.155   6.916
10245SOL    HW131634   2.110   3.077   6.941
10245SOL    HW231635   1.991   3.178   6.992
10246SOL     OW31636   3.005   3.821   4.438
10246SOL    HW131637   2.963   3.830   4.528
10246SOL    HW231638   3.056   3.904   4.416
10247SOL     OW31639   0.396   5.630   5.722
10247SOL    HW131640   0.303   5.665   5.706
10247SOL    HW231641   0.391   5.534   5.748
10248SOL     OW31642   3.263   0.369   2.441
10248SOL    HW131643   3.243   0.461   2.473
10248SOL    HW231644   3.248   0.364   2.342
10249SOL     OW31645   3.771   0.721   5.557
10249SOL    HW131646   3.717   0.652   5.607
10249SOL    HW231647   3.798   0.794   5.620
10250SOL     OW31648   6.434   1.002   1.646
10250SOL    HW131649   6.472   0.924   1.696
10250SOL    HW231650   6.479   1.010   1.558
10251SOL     OW31651   2.769   2.760   6.244
10251SOL    HW131652   2.748   2.804   6.157
10251SOL    HW231653   2.701   2.689   6.263
10252SOL     OW31654   5.825   6.686   0.857
10252SOL    HW131655   5.887   6.608   0.852
10252SOL    HW231656   5.773   6.693   0.771
10253SOL     OW31657   4.699   4.900   0.499
10253SOL    HW131658   4.627   4.873   0.562
10253SOL    HW231659   4.678   4.865   0.407
10254SOL     OW31660   3.004   1.900   4.966
10254SOL    HW131661   2.987   1.805   4.992
10254SOL    HW231662   2.959   1.961   5.031
10255SOL     OW31663   2.003   6.300   1.720
10255SOL    HW131664   2.064   6.244   1.777
10255SOL    HW231665   2.006   6.395   1.751
10256SOL     OW31666   5.026   0.039   0.596
10256SOL    HW131667   5.093   0.096   0.548
10256SOL    HW231668   4.988   0.091   0.673
10257SOL     OW31669   1.259   5.022   5.667
10257SOL    HW131670   1.226   5.055   5.755
10257SOL    HW231671   1.215   4.935   5.645
10258SOL     OW31672   4.934   6.127   3.629
10258SOL    HW131673   4.849   6.178   3.616
10258SOL    HW231674   5.008   6.174   3.582
10259SOL     OW31675   0.111   4.968   3.909
10259SOL    HW131676   0.176   4.899   3.942
10259SOL    HW231677   0.160   5.037   3.855
10260SOL     OW31678   0.243   6.183   3.051
10260SOL    HW131679   0.236   6.177   3.151
10260SOL    HW231680   0.305   6.111   3.019
10261SOL     OW31681   6.773   6.131   2.556
10261SOL    HW131682   6.796   6.037   2.532
10261SOL    HW231683   6.751   6.137   2.653
10262SOL     OW31684   3.391   5.055   4.380
10262SOL    HW131685   3.413   5.022   4.289
10262SOL    HW231686   3.326   5.131   4.374
10263SOL     OW31687   5.135   2.232   0.003
10263SOL    HW131688   5.214   2.245   0.064
10263SOL    HW231689   5.125   2.311   6.967
10264SOL     OW31690   5.895   1.589   6.552
10264SOL    HW131691   5.919   1.632   6.465
10264SOL    HW231692   5.814   1.633   6.590
10265SOL     OW31693   3.257   1.734   3.077
10265SOL    HW131694   3.275   1.775   3.166
10265SOL    HW231695   3.333   1.674   3.052
10266SOL     OW31696   3.987   3.743   6.237
10266SOL    HW131697   4.082   3.769   6.253
10266SOL    HW231698   3.939   3.818   6.192
10267SOL     OW31699   6.497   2.358   0.193
10267SOL    HW131700   6.450   2.291   0.250
10267SOL    HW231701   6.483   2.336   0.096
10268SOL     OW31702   5.573   6.186   1.586
10268SOL    HW131703   5.609   6.268   1.630
10268SOL    HW231704   5.558   6.203   1.489
10269SOL     OW31705   2.499   2.112   5.427
10269SOL    HW131706   2.570   2.177   5.399
10269SOL    HW231707   2.508   2.027   5.374
10270SOL     OW31708   1.752   5.897   0.562
10270SOL    HW131709   1.715   5.990   0.562
10270SOL    HW231710   1.811   5.885   0.483
10271SOL     OW31711   3.408   3.502   0.633
10271SOL    HW131712   3.417   3.543   0.542
10271SOL    HW231713   3.399   3.403   0.624
10272SOL     OW31714   1.279   1.027   4.031
10272SOL    HW131715   1.331   1.101   3.990
10272SOL    HW231716   1.191   1.017   3.983
10273SOL     OW31717   3.646   5.583   3.821
10273SOL    HW131718   3.596   5.577   3.735
10273SOL    HW231719   3.686   5.494   3.844
10274SOL     OW31720   1.134   5.065   5.922
10274SOL    HW131721   1.089   5.139   5.973
10274SOL    HW231722   1.233   5.074   5.933
10275SOL     OW31723   0.909   6.246   3.126
10275SOL    HW131724   0.948   6.157   3.105
10275SOL    HW231725   0.950   6.282   3.210
10276SOL     OW31726   6.773   5.684   5.838
10276SOL    HW131727   6.799   5.615   5.906
10276SOL    HW231728   6.694   5.653   5.786
10277SOL     OW31729   2.918   6.384   4.050
10277SOL    HW131730   2.960   6.453   3.990
10277SOL    HW231731   2.819   6.394   4.048
10278SOL     OW31732   6.794   1.523   6.177
10278SOL    HW131733   6.705   1.484   6.196
10278SOL    HW231734   6.865   1.473   6.228
10279SOL     OW31735   3.306   0.095   4.136
10279SOL    HW131736   3.308   0.007   4.089
10279SOL    HW231737   3.395   0.140   4.126
10280SOL     OW31738   2.249   4.724   0.755
10280SOL    HW131739   2.195   4.795   0.711
10280SOL    HW231740   2.220   4.634   0.722
10281SOL     OW31741   4.774   1.567   3.053
10281SOL    HW131742   4.780   1.563   2.953
10281SOL    HW231743   4.819   1.488   3.093
10282SOL     OW31744   0.154   2.938   3.588
10282SOL    HW131745   0.174   3.014   3.650
10282SOL    HW231746   0.156   2.969   3.494
10283SOL     OW31747   0.807   3.412   1.117
10283SOL    HW131748   0.823   3.470   1.037
10283SOL    HW231749   0.713   3.380   1.117
10284SOL     OW31750   5.297   3.847   4.818
10284SOL    HW131751   5.362   3.775   4.796
10284SOL    HW231752   5.257   3.883   4.734
10285SOL     OW31753   4.889   0.372   1.446
10285SOL    HW131754   4.897   0.356   1.545
10285SOL    HW231755   4.859   0.288   1.401
10286SOL     OW31756   3.915   1.646   2.512
10286SOL    HW131757   3.964   1.674   2.429
10286SOL    HW231758   3.920   1.719   2.580
10287SOL     OW31759   1.534   6.381   2.296
10287SOL    HW131760   1.572   6.374   2.204
10287SOL    HW231761   1.503   6.290   2.326
10288SOL     OW31762   5.051   5.608   3.066
10288SOL    HW131763   4.952   5.611   3.056
10288SOL    HW231764   5.092   5.681   3.012
10289SOL     OW31765   3.068   1.067   1.486
10289SOL    HW131766   3.024   1.018   1.561
10289SOL    HW231767   3.030   1.036   1.399
10290SOL     OW31768   4.028   3.823   2.894
10290SOL    HW131769   3.953   3.784   2.841
10290SOL    HW231770   4.083   3.882   2.835
10291SOL     OW31771   3.870   0.825   3.522
10291SOL    HW131772   3.805   0.759   3.484
10291SOL    HW231773   3.827   0.873   3.598
10292SOL     OW31774   0.418   2.203   4.946
10292SOL    HW131775   0.497   2.178   4.889
10292SOL    HW231776   0.448   2.216   5.040
10293SOL     OW31777   1.582   6.290   2.869
10293SOL    HW131778   1.647   6.254   2.936
10293SOL    HW231779   1.495   6.310   2.914
10294SOL     OW31780   4.819   2.555   2.694
10294SOL    HW131781   4.756   2.601   2.631
10294SOL    HW231782   4.805   2.589   2.786
10295SOL     OW31783   6.238   4.542   5.533
10295SOL    HW131784   6.317   4.561   5.474
10295SOL    HW231785   6.240   4.446   5.561
10296SOL     OW31786   5.999   4.160   6.094
10296SOL    HW131787   5.916   4.125   6.050
10296SOL    HW231788   5.974   4.218   6.172
10297SOL     OW31789   2.731   6.811   4.457
10297SOL    HW131790   2.740   6.713   4.436
10297SOL    HW231791   2.821   6.854   4.454
10298SOL     OW31792   5.039   4.080   3.339
10298SOL    HW131793   5.021   3.984   3.357
10298SOL    HW231794   4.952   4.130   3.335
10299SOL     OW31795   4.818   4.246   3.356
10299SOL    HW131796   4.759   4.288   3.425
10299SOL    HW231797   4.769   4.243   3.269
10300SOL     OW31798   1.428   3.470   1.860
10300SOL    HW131799   1.337   3.439   1.831
10300SOL    HW231800   1.431   3.570   1.856
10301SOL     OW31801   6.081   1.570   3.812
10301SOL    HW131802   6.043   1.601   3.899
10301SOL    HW231803   6.115   1.649   3.760
10302SOL     OW31804   1.159   6.225   2.468
10302SOL    HW131805   1.211   6.183   2.394
10302SOL    HW231806   1.153   6.162   2.545
10303SOL     OW31807   3.553   3.427   1.618
10303SOL    HW131808   3.565   3.489   1.540
10303SOL    HW231809   3.507   3.344   1.587
10304SOL     OW31810   6.176   6.954   3.968
10304SOL    HW131811   6.186   6.919   3.875
10304SOL    HW231812   6.199   6.882   4.034
10305SOL     OW31813   1.613   5.762   0.002
10305SOL    HW131814   1.620   5.746   0.100
10305SOL    HW231815   1.683   5.827   6.997
10306SOL     OW31816   4.567   5.603   0.058
10306SOL    HW131817   4.592   5.694   0.025
10306SOL    HW231818   4.644   5.540   0.044
10307SOL     OW31819   1.503   1.131   5.418
10307SOL    HW131820   1.490   1.047   5.471
10307SOL    HW231821   1.533   1.107   5.326
10308SOL     OW31822   3.161   5.101   3.400
10308SOL    HW131823   3.196   5.067   3.313
10308SOL    HW231824   3.095   5.036   3.437
10309SOL     OW31825   5.806   6.120   3.519
10309SOL    HW131826   5.878   6.185   3.498
10309SOL    HW231827   5.841   6.026   3.511
10310SOL     OW31828   3.240   3.713   1.974
10310SOL    HW131829   3.289   3.701   2.060
10310SOL    HW231830   3.258   3.636   1.913
10311SOL     OW31831   0.516   5.947   0.826
10311SOL    HW131832   0.504   6.045   0.816
10311SOL    HW231833   0.589   5.929   0.893
10312SOL     OW31834   3.603   4.695   0.764
10312SOL    HW131835   3.528   4.758   0.784
10312SOL    HW231836   3.690   4.737   0.791
10313SOL     OW31837   4.995   0.015   2.179
10313SOL    HW131838   4.994   0.039   2.276
10313SOL    HW231839   5.089   0.004   2.148
10314SOL     OW31840   6.456   0.110   0.692
10314SOL    HW131841   6.444   0.206   0.720
10314SOL    HW231842   6.404   0.051   0.753
10315SOL     OW31843   6.343   6.239   5.504
10315SOL    HW131844   6.402   6.203   5.576
10315SOL    HW231845   6.256   6.190   5.505
10316SOL     OW31846   0.257   3.945   4.955
10316SOL    HW131847   0.301   3.892   4.884
10316SOL    HW231848   0.175   3.897   4.987
10317SOL     OW31849   3.960   5.043   6.483
10317SOL    HW131850   4.000   5.128   6.516
10317SOL    HW231851   3.866   5.060   6.453
10318SOL     OW31852   6.673   4.970   1.161
10318SOL    HW131853   6.587   5.004   1.121
10318SOL    HW231854   6.750   5.011   1.112
10319SOL     OW31855   0.577   4.438   3.770
10319SOL    HW131856   0.490   4.397   3.797
10319SOL    HW231857   0.595   4.419   3.673
10320SOL     OW31858   0.666   6.720   1.250
10320SOL    HW131859   0.677   6.705   1.152
10320SOL    HW231860   0.744   6.772   1.284
10321SOL     OW31861   4.588   6.080   4.487
10321SOL    HW131862   4.521   6.083   4.413
10321SOL    HW231863   4.645   6.162   4.484
10322SOL     OW31864   6.345   5.482   0.855
10322SOL    HW131865   6.437   5.476   0.895
10322SOL    HW231866   6.352   5.489   0.756
10323SOL     OW31867   6.594   3.283   5.963
10323SOL    HW131868   6.570   3.238   6.049
10323SOL    HW231869   6.630   3.374   5.983
10324SOL     OW31870   3.197   2.992   3.575
10324SOL    HW131871   3.237   2.908   3.539
10324SOL    HW231872   3.227   3.005   3.670
10325SOL     OW31873   6.397   3.700   3.333
10325SOL    HW131874   6.496   3.689   3.321
10325SOL    HW231875   6.360   3.617   3.375
10326SOL     OW31876   5.057   3.114   0.276
10326SOL    HW131877   4.983   3.181   0.277
10326SOL    HW231878   5.140   3.158   0.240
10327SOL     OW31879   1.241   1.030   3.226
10327SOL    HW131880   1.338   1.034   3.202
10327SOL    HW231881   1.197   1.117   3.201
10328SOL     OW31882   5.747   3.838   2.240
10328SOL    HW131883   5.765   3.755   2.188
10328SOL    HW231884   5.834   3.881   2.264
10329SOL     OW31885   3.159   0.307   2.856
10329SOL    HW131886   3.088   0.308   2.926
10329SOL    HW231887   3.131   0.249   2.780
10330SOL     OW31888   3.624   5.591   2.631
10330SOL    HW131889   3.626   5.543   2.544
10330SOL    HW231890   3.539   5.644   2.637
10331SOL     OW31891   5.476   0.690   3.462
10331SOL    HW131892   5.415   0.764   3.487
10331SOL    HW231893   5.489   0.629   3.540
10332SOL     OW31894   0.203   2.196   0.981
10332SOL    HW131895   0.286   2.167   1.029
10332SOL    HW231896   0.158   2.116   0.941
10333SOL     OW31897   5.939   5.048   4.524
10333SOL    HW131898   6.031   5.080   4.501
10333SOL    HW231899   5.917   5.075   4.618
10334SOL     OW31900   2.347   4.896   4.314
10334SOL    HW131901   2.369   4.856   4.224
10334SOL    HW231902   2.381   4.835   4.386
10335SOL     OW31903   2.054   5.723   6.778
10335SOL    HW131904   2.112   5.642   6.772
10335SOL    HW231905   1.972   5.709   6.722
10336SOL     OW31906   4.347   7.024   1.997
10336SOL    HW131907   4.333   6.956   1.924
10336SOL    HW231908   4.403   0.075   1.961
10337SOL     OW31909   0.339   5.383   4.764
10337SOL    HW131910   0.389   5.296   4.763
10337SOL    HW231911   0.251   5.371   4.718
10338SOL     OW31912   3.186   6.981   1.871
10338SOL    HW131913   3.241   6.979   1.955
10338SOL    HW231914   3.241   7.016   1.796
10339SOL     OW31915   3.343   6.033   1.016
10339SOL    HW131916   3.434   6.075   1.011
10339SOL    HW231917   3.332   5.988   1.104
10340SOL     OW31918   2.433   6.243   6.930
10340SOL    HW131919   2.344   6.219   6.892
10340SOL    HW231920   2.458   6.335   6.899
10341SOL     OW31921   2.309   2.064   2.210
10341SOL    HW131922   2.235   2.050   2.144
10341SOL    HW231923   2.271   2.081   2.300
10342SOL     OW31924   2.633   0.124   5.509
10342SOL    HW131925   2.566   0.188   5.547
10342SOL    HW231926   2.590   0.069   5.438
10343SOL     OW31927   2.487   3.968   6.013
10343SOL    HW131928   2.585   3.987   6.017
10343SOL    HW231929   2.467   3.915   5.931
10344SOL     OW31930   4.140   3.652   5.138
10344SOL    HW131931   4.156   3.628   5.042
10344SOL    HW231932   4.228   3.670   5.183
10345SOL     OW31933   2.456   1.360   0.087
10345SOL    HW131934   2.416   1.382   7.022
10345SOL    HW231935   2.413   1.415   0.158
10346SOL     OW31936   4.887   6.894   0.071
10346SOL    HW131937   4.957   6.848   0.015
10346SOL    HW231938   4.925   6.978   0.109
10347SOL     OW31939   5.513   2.000   1.310
10347SOL    HW131940   5.450   1.937   1.266
10347SOL    HW231941   5.481   2.021   1.402
10348SOL     OW31942   6.053   1.240   6.467
10348SOL    HW131943   6.149   1.262   6.446
10348SOL    HW231944   6.037   1.143   6.451
10349SOL     OW31945   6.352   1.245   1.168
10349SOL    HW131946   6.297   1.302   1.229
10349SOL    HW231947   6.360   1.153   1.206
10350SOL     OW31948   3.339   5.724   4.379
10350SOL    HW131949   3.413   5.666   4.344
10350SOL    HW231950   3.259   5.667   4.398
10351SOL     OW31951   5.760   5.714   4.867
10351SOL    HW131952   5.668   5.730   4.831
10351SOL    HW231953   5.828   5.733   4.796
10352SOL     OW31954   5.308   1.538   0.036
10352SOL    HW131955   5.371   1.590   7.002
10352SOL    HW231956   5.223   1.590   0.046
10353SOL     OW31957   0.708   3.034   3.013
10353SOL    HW131958   0.613   3.056   3.034
10353SOL    HW231959   0.769   3.100   3.057
10354SOL     OW31960   0.343   3.703   0.549
10354SOL    HW131961   0.427   3.707   0.496
10354SOL    HW231962   0.269   3.747   0.498
10355SOL     OW31963   1.208   0.879   0.979
10355SOL    HW131964   1.216   0.789   0.936
10355SOL    HW231965   1.114   0.892   1.011
10356SOL     OW31966   6.939   3.301   6.960
10356SOL    HW131967   6.902   3.254   0.016
10356SOL    HW231968   6.977   3.389   6.988
10357SOL     OW31969   1.560   2.689   6.664
10357SOL    HW131970   1.497   2.625   6.620
10357SOL    HW231971   1.652   2.676   6.626
10358SOL     OW31972   1.406   2.361   2.623
10358SOL    HW131973   1.465   2.439   2.605
10358SOL    HW231974   1.346   2.381   2.700
10359SOL     OW31975   5.359   2.163   3.030
10359SOL    HW131976   5.318   2.232   3.089
10359SOL    HW231977   5.418   2.207   2.962
10360SOL     OW31978   5.352   5.311   3.235
10360SOL    HW131979   5.392   5.400   3.214
10360SOL    HW231980   5.254   5.321   3.252
10361SOL     OW31981   1.675   1.354   1.445
10361SOL    HW131982   1.635   1.275   1.398
10361SOL    HW231983   1.612   1.387   1.515
10362SOL     OW31984   0.621   5.123   1.585
10362SOL    HW131985   0.549   5.071   1.633
10362SOL    HW231986   0.629   5.214   1.626
10363SOL     OW31987   5.018   3.240   0.585
10363SOL    HW131988   5.014   3.183   0.502
10363SOL    HW231989   5.087   3.202   0.647
10364SOL     OW31990   4.728   5.225   1.428
10364SOL    HW131991   4.712   5.132   1.395
10364SOL    HW231992   4.676   5.289   1.370
10365SOL     OW31993   6.011   4.941   0.798
10365SOL    HW131994   6.015   5.015   0.866
10365SOL    HW231995   5.966   4.861   0.838
10366SOL     OW31996   4.012   6.593   2.744
10366SOL    HW131997   4.100   6.562   2.707
10366SOL    HW231998   3.996   6.549   2.833
10367SOL     OW31999   6.450   1.568   1.458
10367SOL    HW132000   6.538   1.586   1.503
10367SOL    HW232001   6.424   1.473   1.474
10368SOL     OW32002   2.004   0.262   2.283
10368SOL    HW132003   1.966   0.348   2.317
10368SOL    HW232004   1.942   0.223   2.215
10369SOL     OW32005   3.399   6.235   4.977
10369SOL    HW132006   3.309   6.206   4.944
10369SOL    HW232007   3.441   6.295   4.910
10370SOL     OW32008   0.201   2.088   4.483
10370SOL    HW132009   0.111   2.063   4.448
10370SOL    HW232010   0.191   2.156   4.555
10371SOL     OW32011   3.819   6.219   3.585
10371SOL    HW132012   3.887   6.197   3.516
10371SOL    HW232013   3.737   6.256   3.541
10372SOL     OW32014   2.935   0.490   1.428
10372SOL    HW132015   3.015   0.520   1.377
10372SOL    HW232016   2.951   0.397   1.462
10373SOL     OW32017   6.907   0.971   5.456
10373SOL    HW132018   6.823   0.940   5.410
10373SOL    HW232019   6.950   1.042   5.401
10374SOL     OW32020   3.363   6.949   4.460
10374SOL    HW132021   3.406   7.017   4.401
10374SOL    HW232022   3.276   6.921   4.419
10375SOL     OW32023   3.373   2.879   6.868
10375SOL    HW132024   3.446   2.847   6.927
10375SOL    HW232025   3.388   2.975   6.845
10376SOL     OW32026   1.232   6.423   3.673
10376SOL    HW132027   1.262   6.437   3.579
10376SOL    HW232028   1.152   6.363   3.674
10377SOL     OW32029   0.307   1.363   1.318
10377SOL    HW132030   0.295   1.397   1.411
10377SOL    HW232031   0.365   1.427   1.267
10378SOL     OW32032   0.236   5.504   4.993
10378SOL    HW132033   0.140   5.528   4.979
10378SOL    HW232034   0.271   5.453   4.915
10379SOL     OW32035   2.376   6.663   3.897
10379SOL    HW132036   2.398   6.574   3.857
10379SOL    HW232037   2.288   6.658   3.944
10380SOL     OW32038   1.488   2.557   4.457
10380SOL    HW132039   1.568   2.511   4.418
10380SOL    HW232040   1.499   2.562   4.557
10381SOL     OW32041   4.047   4.412   1.615
10381SOL    HW132042   4.102   4.330   1.635
10381SOL    HW232043   4.066   4.482   1.683
10382SOL     OW32044   3.002   5.032   2.026
10382SOL    HW132045   2.943   5.112   2.038
10382SOL    HW232046   3.084   5.058   1.975
10383SOL     OW32047   1.455   4.930   0.242
10383SOL    HW132048   1.485   4.974   0.327
10383SOL    HW232049   1.517   4.854   0.220
10384SOL     OW32050   6.299   6.129   1.127
10384SOL    HW132051   6.328   6.121   1.222
10384SOL    HW232052   6.323   6.045   1.077
10385SOL     OW32053   3.341   5.201   6.354
10385SOL    HW132054   3.324   5.295   6.385
10385SOL    HW232055   3.311   5.137   6.425
10386SOL     OW32056   6.976   1.386   6.336
10386SOL    HW132057   0.025   1.418   6.395
10386SOL    HW232058   6.965   1.287   6.346
10387SOL     OW32059   5.044   2.660   3.535
10387SOL    HW132060   5.118   2.594   3.551
10387SOL    HW232061   5.007   2.646   3.444
10388SOL     OW32062   3.020   0.345   6.133
10388SOL    HW132063   2.990   0.436   6.103
10388SOL    HW232064   3.120   0.342   6.135
10389SOL     OW32065   6.466   3.937   0.072
10389SOL    HW132066   6.546   3.882   0.095
10389SOL    HW232067   6.384   3.879   0.074
10390SOL     OW32068   1.786   2.234   0.741
10390SOL    HW132069   1.714   2.269   0.801
10390SOL    HW232070   1.860   2.196   0.796
10391SOL     OW32071   0.905   6.112   3.609
10391SOL    HW132072   0.961   6.194   3.599
10391SOL    HW232073   0.957   6.032   3.577
10392SOL     OW32074   6.561   5.121   5.362
10392SOL    HW132075   6.527   5.033   5.330
10392SOL    HW232076   6.516   5.145   5.448
10393SOL     OW32077   2.169   3.230   4.017
10393SOL    HW132078   2.245   3.203   3.958
10393SOL    HW232079   2.158   3.329   4.015
10394SOL     OW32080   2.564   5.850   3.964
10394SOL    HW132081   2.606   5.762   3.942
10394SOL    HW232082   2.468   5.850   3.933
10395SOL     OW32083   0.155   6.597   1.492
10395SOL    HW132084   0.221   6.527   1.519
10395SOL    HW232085   0.203   6.684   1.479
10396SOL     OW32086   3.892   1.820   4.350
10396SOL    HW132087   3.799   1.788   4.335
10396SOL    HW232088   3.945   1.811   4.266
10397SOL     OW32089   3.505   1.972   2.805
10397SOL    HW132090   3.544   1.909   2.737
10397SOL    HW232091   3.423   1.932   2.845
10398SOL     OW32092   6.382   2.885   1.285
10398SOL    HW132093   6.339   2.941   1.356
10398SOL    HW232094   6.459   2.934   1.245
10399SOL     OW32095   5.310   2.368   3.242
10399SOL    HW132096   5.295   2.297   3.311
10399SOL    HW232097   5.408   2.387   3.234
10400SOL     OW32098   4.272   6.782   0.291
10400SOL    HW132099   4.179   6.788   0.329
10400SOL    HW232100   4.337   6.819   0.357
10401SOL     OW32101   5.999   0.809   3.736
10401SOL    HW132102   6.025   0.864   3.815
10401SOL    HW232103   6.056   0.727   3.732
10402SOL     OW32104   6.730   3.395   5.273
10402SOL    HW132105   6.658   3.342   5.318
10402SOL    HW232106   6.798   3.332   5.235
10403SOL     OW32107   4.002   1.070   3.459
10403SOL    HW132108   3.966   0.983   3.493
10403SOL    HW232109   4.017   1.064   3.360
10404SOL     OW32110   6.385   6.731   5.228
10404SOL    HW132111   6.462   6.668   5.229
10404SOL    HW232112   6.414   6.817   5.186
10405SOL     OW32113   0.189   1.929   5.678
10405SOL    HW132114   0.282   1.954   5.649
10405SOL    HW232115   0.146   1.873   5.608
10406SOL     OW32116   2.788   5.062   3.023
10406SOL    HW132117   2.854   4.987   3.010
10406SOL    HW232118   2.801   5.130   2.950
10407SOL     OW32119   3.423   6.690   6.110
10407SOL    HW132120   3.416   6.737   6.198
10407SOL    HW232121   3.496   6.621   6.115
10408SOL     OW32122   4.797   6.932   1.078
10408SOL    HW132123   4.726   6.983   1.126
10408SOL    HW232124   4.827   6.855   1.135
10409SOL     OW32125   0.053   4.725   0.679
10409SOL    HW132126   0.094   4.817   0.675
10409SOL    HW232127   0.104   4.663   0.619
10410SOL     OW32128   5.552   1.738   0.247
10410SOL    HW132129   5.488   1.811   0.269
10410SOL    HW232130   5.525   1.654   0.295
10411SOL     OW32131   4.012   6.555   3.401
10411SOL    HW132132   4.019   6.634   3.340
10411SOL    HW232133   4.056   6.476   3.360
10412SOL     OW32134   0.027   0.844   0.455
10412SOL    HW132135   0.068   0.754   0.470
10412SOL    HW232136   0.013   0.858   0.357
10413SOL     OW32137   6.233   2.832   0.533
10413SOL    HW132138   6.189   2.859   0.619
10413SOL    HW232139   6.209   2.897   0.461
10414SOL     OW32140   3.804   3.949   5.745
10414SOL    HW132141   3.735   4.018   5.727
10414SOL    HW232142   3.894   3.982   5.715
10415SOL     OW32143   0.729   4.085   4.497
10415SOL    HW132144   0.679   4.137   4.428
10415SOL    HW232145   0.826   4.110   4.493
10416SOL     OW32146   6.315   0.180   4.129
10416SOL    HW132147   6.400   0.135   4.100
10416SOL    HW232148   6.258   0.115   4.178
10417SOL     OW32149   3.505   5.321   4.384
10417SOL    HW132150   3.514   5.419   4.362
10417SOL    HW232151   3.421   5.306   4.437
10418SOL     OW32152   0.090   4.926   6.564
10418SOL    HW132153   0.185   4.899   6.583
10418SOL    HW232154   0.041   4.849   6.522
10419SOL     OW32155   1.568   6.842   6.258
10419SOL    HW132156   1.565   6.816   6.354
10419SOL    HW232157   1.650   6.897   6.241
10420SOL     OW32158   0.208   3.842   2.759
10420SOL    HW132159   0.251   3.781   2.693
10420SOL    HW232160   0.108   3.832   2.753
10421SOL     OW32161   0.101   1.730   3.467
10421SOL    HW132162   0.144   1.808   3.513
10421SOL    HW232163   0.078   1.661   3.536
10422SOL     OW32164   6.002   3.290   5.418
10422SOL    HW132165   6.024   3.199   5.451
10422SOL    HW232166   5.934   3.332   5.478
10423SOL     OW32167   5.761   5.112   4.781
10423SOL    HW132168   5.848   5.160   4.769
10423SOL    HW232169   5.700   5.134   4.704
10424SOL     OW32170   5.780   2.902   0.399
10424SOL    HW132171   5.728   2.840   0.340
10424SOL    HW232172   5.863   2.931   0.351
10425SOL     OW32173   1.404   6.724   1.961
10425SOL    HW132174   1.419   6.787   1.885
10425SOL    HW232175   1.394   6.776   2.046
10426SOL     OW32176   6.998   5.033   0.232
10426SOL    HW132177   0.054   5.042   0.292
10426SOL    HW232178   6.915   5.034   0.288
10427SOL     OW32179   3.648   0.982   6.875
10427SOL    HW132180   3.741   0.950   6.858
10427SOL    HW232181   3.650   1.073   6.916
10428SOL     OW32182   2.909   1.009   4.009
10428SOL    HW132183   2.874   1.047   3.923
10428SOL    HW232184   2.995   1.053   4.032
10429SOL     OW32185   6.913   5.195   0.701
10429SOL    HW132186   6.954   5.176   0.790
10429SOL    HW232187   6.928   5.290   0.676
10430SOL     OW32188   4.458   6.406   3.688
10430SOL    HW132189   4.495   6.315   3.667
10430SOL    HW232190   4.378   6.396   3.746
10431SOL     OW32191   3.397   6.206   4.118
10431SOL    HW132192   3.442   6.119   4.096
10431SOL    HW232193   3.462   6.281   4.105
10432SOL     OW32194   6.034   6.592   4.410
10432SOL    HW132195   6.011   6.497   4.387
10432SOL    HW232196   6.014   6.608   4.507
10433SOL     OW32197   1.879   6.658   1.230
10433SOL    HW132198   1.866   6.559   1.225
10433SOL    HW232199   1.884   6.686   1.326
10434SOL     OW32200   4.232   0.089   3.635
10434SOL    HW132201   4.292   0.162   3.603
10434SOL    HW232202   4.282   0.031   3.700
10435SOL     OW32203   0.034   0.322   4.884
10435SOL    HW132204   0.044   0.358   4.977
10435SOL    HW232205   0.027   0.397   4.819
10436SOL     OW32206   0.914   5.342   6.001
10436SOL    HW132207   0.876   5.434   6.018
10436SOL    HW232208   0.848   5.273   6.031
10437SOL     OW32209   6.421   4.823   6.031
10437SOL    HW132210   6.414   4.905   6.088
10437SOL    HW232211   6.517   4.804   6.011
10438SOL     OW32212   6.119   6.147   0.409
10438SOL    HW132213   6.121   6.064   0.464
10438SOL    HW232214   6.178   6.216   0.452
10439SOL     OW32215   3.731   1.313   5.950
10439SOL    HW132216   3.698   1.349   6.037
10439SOL    HW232217   3.808   1.252   5.966
10440SOL     OW32218   1.481   6.731   0.397
10440SOL    HW132219   1.575   6.760   0.381
10440SOL    HW232220   1.442   6.697   0.311
10441SOL     OW32221   4.070   1.385   0.126
10441SOL    HW132222   4.165   1.360   0.143
10441SOL    HW232223   4.047   1.366   0.031
10442SOL     OW32224   3.824   6.510   5.851
10442SOL    HW132225   3.790   6.419   5.873
10442SOL    HW232226   3.923   6.505   5.834
10443SOL     OW32227   4.966   3.816   4.894
10443SOL    HW132228   4.958   3.834   4.796
10443SOL    HW232229   5.040   3.751   4.911
10444SOL     OW32230   3.991   6.701   4.467
10444SOL    HW132231   4.007   6.603   4.462
10444SOL    HW232232   3.902   6.718   4.509
10445SOL     OW32233   1.089   5.369   4.486
10445SOL    HW132234   1.183   5.341   4.504
10445SOL    HW232235   1.085   5.469   4.484
10446SOL     OW32236   1.217   2.781   5.978
10446SOL    HW132237   1.212   2.681   5.981
10446SOL    HW232238   1.132   2.817   5.940
10447SOL     OW32239   6.809   1.069   2.090
10447SOL    HW132240   6.748   1.107   2.160
10447SOL    HW232241   6.835   0.976   2.115
10448SOL     OW32242   3.942   2.469   1.591
10448SOL    HW132243   3.973   2.378   1.619
10448SOL    HW232244   3.847   2.482   1.621
10449SOL     OW32245   2.596   5.527   4.712
10449SOL    HW132246   2.542   5.611   4.723
10449SOL    HW232247   2.632   5.522   4.619
10450SOL     OW32248   0.889   2.319   0.769
10450SOL    HW132249   0.846   2.408   0.749
10450SOL    HW232250   0.878   2.259   0.690
10451SOL     OW32251   1.935   5.379   3.729
10451SOL    HW132252   1.947   5.383   3.828
10451SOL    HW232253   1.968   5.292   3.695
10452SOL     OW32254   6.259   3.478   3.413
10452SOL    HW132255   6.281   3.409   3.482
10452SOL    HW232256   6.163   3.503   3.419
10453SOL     OW32257   4.982   5.807   1.999
10453SOL    HW132258   5.042   5.879   2.033
10453SOL    HW232259   4.962   5.823   1.903
10454SOL     OW32260   4.343   2.659   1.097
10454SOL    HW132261   4.320   2.608   1.014
10454SOL    HW232262   4.355   2.596   1.173
10455SOL     OW32263   0.313   5.241   2.382
10455SOL    HW132264   0.267   5.162   2.342
10455SOL    HW232265   0.400   5.256   2.335
10456SOL     OW32266   3.130   6.057   1.782
10456SOL    HW132267   3.227   6.061   1.758
10456SOL    HW232268   3.110   6.128   1.850
10457SOL     OW32269   3.694   2.902   3.013
10457SOL    HW132270   3.766   2.835   2.999
10457SOL    HW232271   3.696   2.934   3.108
10458SOL     OW32272   0.460   1.023   6.845
10458SOL    HW132273   0.557   1.040   6.829
10458SOL    HW232274   0.419   0.984   6.762
10459SOL     OW32275   5.423   5.425   2.506
10459SOL    HW132276   5.346   5.488   2.515
10459SOL    HW232277   5.388   5.331   2.498
10460SOL     OW32278   1.906   5.958   1.206
10460SOL    HW132279   1.888   5.870   1.250
10460SOL    HW232280   2.004   5.968   1.191
10461SOL     OW32281   1.435   6.239   5.430
10461SOL    HW132282   1.381   6.293   5.494
10461SOL    HW232283   1.526   6.279   5.420
10462SOL     OW32284   5.546   1.915   2.254
10462SOL    HW132285   5.601   1.852   2.200
10462SOL    HW232286   5.503   1.866   2.330
10463SOL     OW32287   3.407   3.360   5.578
10463SOL    HW132288   3.355   3.423   5.520
10463SOL    HW232289   3.485   3.325   5.527
10464SOL     OW32290   5.364   0.216   0.765
10464SOL    HW132291   5.368   0.214   0.865
10464SOL    HW232292   5.392   0.306   0.732
10465SOL     OW32293   6.252   6.549   0.955
10465SOL    HW132294   6.321   6.505   1.013
10465SOL    HW232295   6.201   6.616   1.009
10466SOL     OW32296   4.463   5.146   5.088
10466SOL    HW132297   4.397   5.075   5.065
10466SOL    HW232298   4.451   5.173   5.183
10467SOL     OW32299   0.888   1.910   4.951
10467SOL    HW132300   0.903   1.914   5.050
10467SOL    HW232301   0.902   2.000   4.911
10468SOL     OW32302   3.296   5.476   3.250
10468SOL    HW132303   3.392   5.463   3.275
10468SOL    HW232304   3.286   5.559   3.197
10469SOL     OW32305   3.579   3.149   0.375
10469SOL    HW132306   3.608   3.245   0.368
10469SOL    HW232307   3.531   3.136   0.462
10470SOL     OW32308   1.985   1.857   2.925
10470SOL    HW132309   2.022   1.764   2.926
10470SOL    HW232310   2.056   1.921   2.894
10471SOL     OW32311   2.109   3.594   1.276
10471SOL    HW132312   2.051   3.580   1.356
10471SOL    HW232313   2.186   3.531   1.280
10472SOL     OW32314   3.418   6.253   1.293
10472SOL    HW132315   3.392   6.192   1.368
10472SOL    HW232316   3.493   6.212   1.241
10473SOL     OW32317   5.695   6.863   0.996
10473SOL    HW132318   5.598   6.848   0.977
10473SOL    HW232319   5.750   6.798   0.944
10474SOL     OW32320   4.856   0.857   4.938
10474SOL    HW132321   4.808   0.804   4.867
10474SOL    HW232322   4.925   0.915   4.895
10475SOL     OW32323   4.918   6.743   1.241
10475SOL    HW132324   4.961   6.673   1.184
10475SOL    HW232325   4.980   6.820   1.252
10476SOL     OW32326   0.291   5.944   6.167
10476SOL    HW132327   0.290   5.942   6.267
10476SOL    HW232328   0.360   5.881   6.132
10477SOL     OW32329   5.962   2.777   4.960
10477SOL    HW132330   6.036   2.769   4.893
10477SOL    HW232331   5.873   2.769   4.913
10478SOL     OW32332   0.537   0.374   6.956
10478SOL    HW132333   0.442   0.369   6.986
10478SOL    HW232334   0.595   0.323   7.019
10479SOL     OW32335   0.891   2.733   1.504
10479SOL    HW132336   0.853   2.810   1.453
10479SOL    HW232337   0.850   2.729   1.595
10480SOL     OW32338   5.365   0.430   1.093
10480SOL    HW132339   5.303   0.467   1.162
10480SOL    HW232340   5.354   0.330   1.089
10481SOL     OW32341   2.648   1.332   5.136
10481SOL    HW132342   2.580   1.363   5.203
10481SOL    HW232343   2.683   1.243   5.164
10482SOL     OW32344   0.604   5.991   4.675
10482SOL    HW132345   0.680   5.929   4.694
10482SOL    HW232346   0.517   5.940   4.681
10483SOL     OW32347   6.603   5.145   0.139
10483SOL    HW132348   6.555   5.081   0.079
10483SOL    HW232349   6.545   5.167   0.217
10484SOL     OW32350   6.814   0.286   0.616
10484SOL    HW132351   6.771   0.196   0.603
10484SOL    HW232352   6.907   0.274   0.650
10485SOL     OW32353   3.685   3.766   3.223
10485SOL    HW132354   3.768   3.822   3.226
10485SOL    HW232355   3.624   3.793   3.297
10486SOL     OW32356   6.185   0.787   6.068
10486SOL    HW132357   6.139   0.780   5.979
10486SOL    HW232358   6.117   0.791   6.141
10487SOL     OW32359   4.470   1.727   1.617
10487SOL    HW132360   4.488   1.751   1.521
10487SOL    HW232361   4.390   1.776   1.649
10488SOL     OW32362   1.650   2.152   5.827
10488SOL    HW132363   1.620   2.136   5.733
10488SOL    HW232364   1.582   2.206   5.876
10489SOL     OW32365   5.608   5.539   3.789
10489SOL    HW132366   5.637   5.628   3.754
10489SOL    HW232367   5.517   5.547   3.831
10490SOL     OW32368   5.874   0.584   0.574
10490SOL    HW132369   5.778   0.555   0.574
10490SOL    HW232370   5.890   0.646   0.497
10491SOL     OW32371   2.196   2.758   6.153
10491SOL    HW132372   2.182   2.784   6.057
10491SOL    HW232373   2.240   2.833   6.202
10492SOL     OW32374   3.648   5.701   0.206
10492SOL    HW132375   3.572   5.686   0.269
10492SOL    HW232376   3.614   5.740   0.121
10493SOL     OW32377   3.292   5.507   1.324
10493SOL    HW132378   3.318   5.503   1.420
10493SOL    HW232379   3.333   5.588   1.281
10494SOL     OW32380   0.610   5.047   5.705
10494SOL    HW132381   0.595   4.951   5.730
10494SOL    HW232382   0.693   5.080   5.749
10495SOL     OW32383   6.680   5.927   0.041
10495SOL    HW132384   6.761   5.877   0.010
10495SOL    HW232385   6.619   5.943   6.988
10496SOL     OW32386   6.706   4.376   5.044
10496SOL    HW132387   6.619   4.425   5.043
10496SOL    HW232388   6.749   4.381   4.954
10497SOL     OW32389   0.930   6.875   1.829
10497SOL    HW132390   0.887   6.883   1.919
10497SOL    HW232391   1.021   6.835   1.839
10498SOL     OW32392   5.095   6.272   1.530
10498SOL    HW132393   5.010   6.296   1.483
10498SOL    HW232394   5.113   6.339   1.603
10499SOL     OW32395   5.831   5.793   1.064
10499SOL    HW132396   5.798   5.706   1.103
10499SOL    HW232397   5.789   5.869   1.113
10500SOL     OW32398   4.995   3.214   4.795
10500SOL    HW132399   5.066   3.144   4.785
10500SOL    HW232400   4.907   3.177   4.767
10501SOL     OW32401   2.298   5.569   2.605
10501SOL    HW132402   2.346   5.656   2.619
10501SOL    HW232403   2.209   5.586   2.564
10502SOL     OW32404   3.139   3.106   1.226
10502SOL    HW132405   3.201   3.184   1.221
10502SOL    HW232406   3.048   3.132   1.193
10503SOL     OW32407   6.593   3.970   6.519
10503SOL    HW132408   6.583   3.932   6.427
10503SOL    HW232409   6.552   3.908   6.585
10504SOL     OW32410   0.765   2.702   6.110
10504SOL    HW132411   0.677   2.735   6.142
10504SOL    HW232412   0.764   2.602   6.106
10505SOL     OW32413   5.863   5.568   1.964
10505SOL    HW132414   5.939   5.594   2.023
10505SOL    HW232415   5.827   5.649   1.918
10506SOL     OW32416   0.494   3.303   0.301
10506SOL    HW132417   0.402   3.319   0.339
10506SOL    HW232418   0.534   3.223   0.345
10507SOL     OW32419   2.516   5.494   0.037
10507SOL    HW132420   2.483   5.441   0.115
10507SOL    HW232421   2.599   5.544   0.062
10508SOL     OW32422   1.364   5.422   3.769
10508SOL    HW132423   1.407   5.415   3.679
10508SOL    HW232424   1.336   5.330   3.799
10509SOL     OW32425   5.428   3.707   4.340
10509SOL    HW132426   5.403   3.804   4.334
10509SOL    HW232427   5.362   3.660   4.398
10510SOL     OW32428   4.462   6.437   6.309
10510SOL    HW132429   4.434   6.473   6.399
10510SOL    HW232430   4.381   6.418   6.254
10511SOL     OW32431   2.772   1.054   2.203
10511SOL    HW132432   2.859   1.099   2.183
10511SOL    HW232433   2.736   1.013   2.119
10512SOL     OW32434   4.464   6.924   5.831
10512SOL    HW132435   4.411   6.931   5.916
10512SOL    HW232436   4.503   7.013   5.809
10513SOL     OW32437   6.387   2.529   2.630
10513SOL    HW132438   6.327   2.495   2.557
10513SOL    HW232439   6.482   2.508   2.607
10514SOL     OW32440   1.654   1.900   1.296
10514SOL    HW132441   1.753   1.918   1.302
10514SOL    HW232442   1.639   1.810   1.255
10515SOL     OW32443   2.287   2.314   3.765
10515SOL    HW132444   2.259   2.218   3.768
10515SOL    HW232445   2.386   2.321   3.782
10516SOL     OW32446   2.808   1.794   0.283
10516SOL    HW132447   2.782   1.783   0.187
10516SOL    HW232448   2.907   1.806   0.290
10517SOL     OW32449   1.786   4.217   2.287
10517SOL    HW132450   1.701   4.255   2.250
10517SOL    HW232451   1.831   4.162   2.217
10518SOL     OW32452   0.251   5.113   2.044
10518SOL    HW132453   0.349   5.112   2.023
10518SOL    HW232454   0.233   5.050   2.120
10519SOL     OW32455   2.863   5.067   0.918
10519SOL    HW132456   2.768   5.082   0.944
10519SOL    HW232457   2.886   4.970   0.928
10520SOL     OW32458   6.528   1.810   6.485
10520SOL    HW132459   6.605   1.764   6.529
10520SOL    HW232460   6.541   1.809   6.385
10521SOL     OW32461   6.500   4.007   1.861
10521SOL    HW132462   6.467   4.040   1.772
10521SOL    HW232463   6.522   4.085   1.919
10522SOL     OW32464   0.400   2.460   3.082
10522SOL    HW132465   0.426   2.480   2.988
10522SOL    HW232466   0.435   2.369   3.107
10523SOL     OW32467   0.061   4.197   3.301
10523SOL    HW132468   0.035   4.101   3.305
10523SOL    HW232469   0.154   4.205   3.264
10524SOL     OW32470   0.242   5.385   3.750
10524SOL    HW132471   0.314   5.420   3.811
10524SOL    HW232472   0.152   5.408   3.789
10525SOL     OW32473   4.144   0.257   5.043
10525SOL    HW132474   4.136   0.343   5.094
10525SOL    HW232475   4.059   0.240   4.993
10526SOL     OW32476   0.278   6.343   1.250
10526SOL    HW132477   0.366   6.301   1.227
10526SOL    HW232478   0.269   6.348   1.350
10527SOL     OW32479   0.417   0.701   5.920
10527SOL    HW132480   0.320   0.697   5.942
10527SOL    HW232481   0.432   0.667   5.827
10528SOL     OW32482   0.587   4.252   0.137
10528SOL    HW132483   0.609   4.156   0.153
10528SOL    HW232484   0.646   4.288   0.064
10529SOL     OW32485   1.656   6.063   5.025
10529SOL    HW132486   1.654   6.021   4.935
10529SOL    HW232487   1.575   6.121   5.037
10530SOL     OW32488   1.519   6.373   5.987
10530SOL    HW132489   1.519   6.426   5.902
10530SOL    HW232490   1.565   6.286   5.972
10531SOL     OW32491   2.614   2.448   4.592
10531SOL    HW132492   2.690   2.438   4.527
10531SOL    HW232493   2.630   2.390   4.672
10532SOL     OW32494   5.909   6.863   6.835
10532SOL    HW132495   5.876   6.785   6.782
10532SOL    HW232496   6.005   6.848   6.860
10533SOL     OW32497   3.113   5.540   4.146
10533SOL    HW132498   3.027   5.578   4.111
10533SOL    HW232499   3.180   5.613   4.158
10534SOL     OW32500   0.332   5.540   2.001
10534SOL    HW132501   0.411   5.496   2.043
10534SOL    HW232502   0.358   5.578   1.912
10535SOL     OW32503   2.577   0.955   1.633
10535SOL    HW132504   2.614   0.862   1.633
10535SOL    HW232505   2.632   1.013   1.572
10536SOL     OW32506   4.470   6.986   3.838
10536SOL    HW132507   4.509   7.022   3.753
10536SOL    HW232508   4.458   6.887   3.830
10537SOL     OW32509   4.829   6.447   3.614
10537SOL    HW132510   4.769   6.509   3.664
10537SOL    HW232511   4.775   6.372   3.576
10538SOL     OW32512   5.599   3.878   2.493
10538SOL    HW132513   5.642   3.815   2.558
10538SOL    HW232514   5.630   3.855   2.400
10539SOL     OW32515   6.450   5.481   2.080
10539SOL    HW132516   6.491   5.420   2.149
10539SOL    HW232517   6.427   5.428   1.999
10540SOL     OW32518   2.443   4.184   6.194
10540SOL    HW132519   2.461   4.126   6.114
10540SOL    HW232520   2.370   4.143   6.249
10541SOL     OW32521   3.471   2.875   4.588
10541SOL    HW132522   3.390   2.839   4.636
10541SOL    HW232523   3.547   2.882   4.652
10542SOL     OW32524   6.569   0.473   4.389
10542SOL    HW132525   6.604   0.495   4.298
10542SOL    HW232526   6.496   0.405   4.381
10543SOL     OW32527   7.006   2.386   5.826
10543SOL    HW132528   0.035   2.429   5.900
10543SOL    HW232529   7.023   2.435   5.741
10544SOL     OW32530   1.446   0.167   3.672
10544SOL    HW132531   1.422   0.241   3.609
10544SOL    HW232532   1.535   0.128   3.647
10545SOL     OW32533   0.951   2.913   2.071
10545SOL    HW132534   1.041   2.905   2.028
10545SOL    HW232535   0.957   2.883   2.166
10546SOL     OW32536   3.262   5.966   1.298
10546SOL    HW132537   3.173   6.013   1.301
10546SOL    HW232538   3.314   5.988   1.380
10547SOL     OW32539   4.668   0.457   4.618
10547SOL    HW132540   4.743   0.398   4.649
10547SOL    HW232541   4.674   0.469   4.519
10548SOL     OW32542   0.569   4.973   5.114
10548SOL    HW132543   0.551   4.876   5.099
10548SOL    HW232544   0.494   5.013   5.166
10549SOL     OW32545   0.133   1.526   0.649
10549SOL    HW132546   0.103   1.602   0.590
10549SOL    HW232547   0.079   1.445   0.629
10550SOL     OW32548   3.802   6.716   3.075
10550SOL    HW132549   3.861   6.796   3.062
10550SOL    HW232550   3.853   6.633   3.056
10551SOL     OW32551   2.567   1.861   6.110
10551SOL    HW132552   2.515   1.779   6.087
10551SOL    HW232553   2.534   1.939   6.056
10552SOL     OW32554   2.430   0.661   4.773
10552SOL    HW132555   2.465   0.638   4.682
10552SOL    HW232556   2.335   0.691   4.766
10553SOL     OW32557   7.017   4.638   1.271
10553SOL    HW132558   6.968   4.663   1.187
10553SOL    HW232559   0.088   4.669   1.265
10554SOL     OW32560   5.681   4.592   2.574
10554SOL    HW132561   5.739   4.547   2.643
10554SOL    HW232562   5.713   4.568   2.483
10555SOL     OW32563   3.016   2.109   0.679
10555SOL    HW132564   3.018   2.077   0.774
10555SOL    HW232565   2.924   2.138   0.655
10556SOL     OW32566   2.525   1.306   3.426
10556SOL    HW132567   2.477   1.276   3.509
10556SOL    HW232568   2.458   1.321   3.354
10557SOL     OW32569   1.885   3.432   4.580
10557SOL    HW132570   1.802   3.430   4.524
10557SOL    HW232571   1.861   3.426   4.677
10558SOL     OW32572   3.256   4.785   5.822
10558SOL    HW132573   3.201   4.704   5.844
10558SOL    HW232574   3.235   4.815   5.729
10559SOL     OW32575   3.367   1.058   0.489
10559SOL    HW132576   3.416   1.046   0.576
10559SOL    HW232577   3.339   1.154   0.480
10560SOL     OW32578   4.230   6.415   2.080
10560SOL    HW132579   4.222   6.469   2.163
10560SOL    HW232580   4.151   6.431   2.022
10561SOL     OW32581   4.148   5.023   2.147
10561SOL    HW132582   4.141   4.943   2.207
10561SOL    HW232583   4.210   5.003   2.071
10562SOL     OW32584   3.582   6.135   1.076
10562SOL    HW132585   3.668   6.087   1.095
10562SOL    HW232586   3.603   6.223   1.033
10563SOL     OW32587   0.885   0.438   1.063
10563SOL    HW132588   0.910   0.434   1.159
10563SOL    HW232589   0.789   0.413   1.051
10564SOL     OW32590   6.518   5.543   3.554
10564SOL    HW132591   6.542   5.583   3.466
10564SOL    HW232592   6.458   5.464   3.540
10565SOL     OW32593   6.522   6.961   5.954
10565SOL    HW132594   6.506   0.023   6.002
10565SOL    HW232595   6.596   6.973   5.888
10566SOL     OW32596   3.026   2.653   0.313
10566SOL    HW132597   3.099   2.649   0.245
10566SOL    HW232598   3.011   2.563   0.353
10567SOL     OW32599   1.803   2.574   5.324
10567SOL    HW132600   1.705   2.556   5.319
10567SOL    HW232601   1.830   2.632   5.247
10568SOL     OW32602   6.236   2.860   6.499
10568SOL    HW132603   6.200   2.781   6.448
10568SOL    HW232604   6.185   2.942   6.474
10569SOL     OW32605   5.413   0.793   1.930
10569SOL    HW132606   5.469   0.796   1.847
10569SOL    HW232607   5.318   0.813   1.907
10570SOL     OW32608   1.620   4.586   4.185
10570SOL    HW132609   1.571   4.664   4.224
10570SOL    HW232610   1.679   4.544   4.254
10571SOL     OW32611   0.340   4.225   6.252
10571SOL    HW132612   0.309   4.233   6.347
10571SOL    HW232613   0.424   4.278   6.240
10572SOL     OW32614   6.760   4.605   1.739
10572SOL    HW132615   6.762   4.630   1.642
10572SOL    HW232616   6.738   4.686   1.794
10573SOL     OW32617   5.069   0.679   4.795
10573SOL    HW132618   4.970   0.692   4.804
10573SOL    HW232619   5.092   0.583   4.810
10574SOL     OW32620   6.468   0.830   3.957
10574SOL    HW132621   6.520   0.859   4.038
10574SOL    HW232622   6.423   0.909   3.917
10575SOL     OW32623   5.487   0.294   3.556
10575SOL    HW132624   5.480   0.356   3.634
10575SOL    HW232625   5.577   0.250   3.556
10576SOL     OW32626   1.579   5.056   2.775
10576SOL    HW132627   1.636   5.138   2.768
10576SOL    HW232628   1.483   5.081   2.764
10577SOL     OW32629   2.905   5.841   0.271
10577SOL    HW132630   2.833   5.771   0.270
10577SOL    HW232631   2.867   5.927   0.238
10578SOL     OW32632   5.855   1.806   3.536
10578SOL    HW132633   5.802   1.754   3.469
10578SOL    HW232634   5.952   1.786   3.524
10579SOL     OW32635   2.579   3.989   1.128
10579SOL    HW132636   2.646   4.062   1.141
10579SOL    HW232637   2.490   4.018   1.161
10580SOL     OW32638   6.300   6.685   6.310
10580SOL    HW132639   6.277   6.734   6.394
10580SOL    HW232640   6.385   6.633   6.324
10581SOL     OW32641   4.889   6.471   2.728
10581SOL    HW132642   4.819   6.473   2.656
10581SOL    HW232643   4.859   6.528   2.805
10582SOL     OW32644   5.465   4.715   6.553
10582SOL    HW132645   5.531   4.670   6.493
10582SOL    HW232646   5.402   4.769   6.498
10583SOL     OW32647   3.860   0.283   4.131
10583SOL    HW132648   3.899   0.341   4.060
10583SOL    HW232649   3.835   0.339   4.210
10584SOL     OW32650   6.470   0.614   6.417
10584SOL    HW132651   6.559   0.569   6.423
10584SOL    HW232652   6.410   0.581   6.490
10585SOL     OW32653   1.333   1.789   6.266
10585SOL    HW132654   1.354   1.693   6.287
10585SOL    HW232655   1.238   1.797   6.238
10586SOL     OW32656   4.628   4.903   5.705
10586SOL    HW132657   4.657   4.961   5.629
10586SOL    HW232658   4.530   4.885   5.697
10587SOL     OW32659   0.571   6.064   5.970
10587SOL    HW132660   0.557   5.971   6.003
10587SOL    HW232661   0.667   6.090   5.981
10588SOL     OW32662   1.814   2.203   4.624
10588SOL    HW132663   1.811   2.243   4.716
10588SOL    HW232664   1.828   2.275   4.557
10589SOL     OW32665   5.333   6.381   4.281
10589SOL    HW132666   5.370   6.410   4.370
10589SOL    HW232667   5.251   6.434   4.260
10590SOL     OW32668   6.961   5.809   1.953
10590SOL    HW132669   6.977   5.902   1.922
10590SOL    HW232670   6.901   5.762   1.888
10591SOL     OW32671   2.146   1.328   1.296
10591SOL    HW132672   2.071   1.293   1.352
10591SOL    HW232673   2.193   1.251   1.253
10592SOL     OW32674   5.901   2.274   4.657
10592SOL    HW132675   5.820   2.247   4.604
10592SOL    HW232676   5.875   2.345   4.723
10593SOL     OW32677   1.238   6.359   0.765
10593SOL    HW132678   1.142   6.334   0.774
10593SOL    HW232679   1.253   6.404   0.677
10594SOL     OW32680   3.923   0.995   3.162
10594SOL    HW132681   3.866   1.075   3.178
10594SOL    HW232682   3.879   0.914   3.201
10595SOL     OW32683   6.263   0.742   0.737
10595SOL    HW132684   6.285   0.828   0.784
10595SOL    HW232685   6.346   0.687   0.727
10596SOL     OW32686   4.816   1.231   0.131
10596SOL    HW132687   4.872   1.193   0.205
10596SOL    HW232688   4.864   1.309   0.090
10597SOL     OW32689   2.637   0.824   6.126
10597SOL    HW132690   2.604   0.914   6.096
10597SOL    HW232691   2.560   0.764   6.144
10598SOL     OW32692   2.913   1.941   6.524
10598SOL    HW132693   2.964   1.968   6.442
10598SOL    HW232694   2.853   1.864   6.502
10599SOL     OW32695   6.633   4.242   6.411
10599SOL    HW132696   6.702   4.270   6.344
10599SOL    HW232697   6.672   4.171   6.470
10600SOL     OW32698   3.668   0.796   1.562
10600SOL    HW132699   3.764   0.812   1.540
10600SOL    HW232700   3.622   0.752   1.485
10601SOL     OW32701   0.400   5.728   4.941
10601SOL    HW132702   0.330   5.657   4.948
10601SOL    HW232703   0.485   5.687   4.908
10602SOL     OW32704   0.728   0.855   0.352
10602SOL    HW132705   0.725   0.817   0.445
10602SOL    HW232706   0.646   0.909   0.336
10603SOL     OW32707   4.484   6.483   1.824
10603SOL    HW132708   4.409   6.416   1.829
10603SOL    HW232709   4.448   6.574   1.846
10604SOL     OW32710   0.294   6.320   4.916
10604SOL    HW132711   0.244   6.267   4.848
10604SOL    HW232712   0.231   6.348   4.989
10605SOL     OW32713   1.730   6.808   0.050
10605SOL    HW132714   1.644   6.846   0.016
10605SOL    HW232715   1.790   6.788   6.996
10606SOL     OW32716   6.891   0.582   1.458
10606SOL    HW132717   6.909   0.545   1.549
10606SOL    HW232718   6.792   0.591   1.445
10607SOL     OW32719   4.082   4.393   0.351
10607SOL    HW132720   4.137   4.321   0.393
10607SOL    HW232721   4.014   4.425   0.417
10608SOL     OW32722   6.674   3.200   3.108
10608SOL    HW132723   6.705   3.255   3.030
10608SOL    HW232724   6.649   3.109   3.075
10609SOL     OW32725   2.614   6.521   0.483
10609SOL    HW132726   2.621   6.422   0.496
10609SOL    HW232727   2.696   6.566   0.519
10610SOL     OW32728   6.711   2.982   4.255
10610SOL    HW132729   6.793   2.974   4.311
10610SOL    HW232730   6.731   3.039   4.175
10611SOL     OW32731   2.774   5.313   4.999
10611SOL    HW132732   2.677   5.307   4.975
10611SOL    HW232733   2.827   5.252   4.939
10612SOL     OW32734   5.466   1.130   4.179
10612SOL    HW132735   5.521   1.201   4.135
10612SOL    HW232736   5.383   1.114   4.125
10613SOL     OW32737   5.317   6.129   4.158
10613SOL    HW132738   5.369   6.067   4.217
10613SOL    HW232739   5.342   6.223   4.179
10614SOL     OW32740   4.977   1.429   4.973
10614SOL    HW132741   5.076   1.439   4.986
10614SOL    HW232742   4.955   1.333   4.959
10615SOL     OW32743   3.898   1.479   5.706
10615SOL    HW132744   3.930   1.425   5.628
10615SOL    HW232745   3.869   1.418   5.779
10616SOL     OW32746   2.679   5.994   6.445
10616SOL    HW132747   2.600   6.054   6.430
10616SOL    HW232748   2.763   6.045   6.433
10617SOL     OW32749   2.113   4.495   1.772
10617SOL    HW132750   2.193   4.552   1.791
10617SOL    HW232751   2.109   4.475   1.674
10618SOL     OW32752   0.638   5.426   5.610
10618SOL    HW132753   0.727   5.403   5.649
10618SOL    HW232754   0.566   5.377   5.660
10619SOL     OW32755   0.677   2.159   2.742
10619SOL    HW132756   0.732   2.195   2.667
10619SOL    HW232757   0.670   2.228   2.814
10620SOL     OW32758   1.516   0.160   5.436
10620SOL    HW132759   1.515   0.196   5.530
10620SOL    HW232760   1.438   0.099   5.423
10621SOL     OW32761   1.248   4.252   2.659
10621SOL    HW132762   1.206   4.247   2.568
10621SOL    HW232763   1.204   4.185   2.719
10622SOL     OW32764   4.400   2.297   1.511
10622SOL    HW132765   4.346   2.338   1.585
10622SOL    HW232766   4.496   2.324   1.522
10623SOL     OW32767   6.115   6.021   5.263
10623SOL    HW132768   6.179   5.946   5.247
10623SOL    HW232769   6.134   6.095   5.199
10624SOL     OW32770   0.860   3.048   4.635
10624SOL    HW132771   0.854   2.968   4.576
10624SOL    HW232772   0.786   3.047   4.702
10625SOL     OW32773   0.195   3.269   0.820
10625SOL    HW132774   0.265   3.325   0.776
10625SOL    HW232775   0.108   3.318   0.821
10626SOL     OW32776   3.270   2.975   1.645
10626SOL    HW132777   3.265   2.880   1.676
10626SOL    HW232778   3.190   2.995   1.589
10627SOL     OW32779   5.422   1.176   6.510
10627SOL    HW132780   5.418   1.275   6.521
10627SOL    HW232781   5.461   1.154   6.420
10628SOL     OW32782   4.308   0.388   0.644
10628SOL    HW132783   4.315   0.295   0.680
10628SOL    HW232784   4.328   0.454   0.716
10629SOL     OW32785   3.224   4.947   4.597
10629SOL    HW132786   3.298   4.971   4.535
10629SOL    HW232787   3.152   4.899   4.546
10630SOL     OW32788   5.437   1.262   2.475
10630SOL    HW132789   5.519   1.209   2.497
10630SOL    HW232790   5.362   1.200   2.454
10631SOL     OW32791   4.105   4.674   6.083
10631SOL    HW132792   4.133   4.759   6.126
10631SOL    HW232793   4.056   4.617   6.149
10632SOL     OW32794   4.817   5.703   3.386
10632SOL    HW132795   4.914   5.707   3.409
10632SOL    HW232796   4.805   5.664   3.295
10633SOL     OW32797   2.644   2.507   1.819
10633SOL    HW132798   2.738   2.476   1.836
10633SOL    HW232799   2.580   2.432   1.834
10634SOL     OW32800   1.457   5.619   0.603
10634SOL    HW132801   1.523   5.572   0.544
10634SOL    HW232802   1.389   5.665   0.546
10635SOL     OW32803   2.195   3.509   0.276
10635SOL    HW132804   2.127   3.576   0.249
10635SOL    HW232805   2.157   3.417   0.268
10636SOL     OW32806   6.624   1.588   0.551
10636SOL    HW132807   6.687   1.666   0.549
10636SOL    HW232808   6.623   1.544   0.461
10637SOL     OW32809   1.636   5.799   6.218
10637SOL    HW132810   1.567   5.814   6.288
10637SOL    HW232811   1.605   5.838   6.131
10638SOL     OW32812   6.058   6.455   2.315
10638SOL    HW132813   6.092   6.399   2.239
10638SOL    HW232814   6.029   6.395   2.389
10639SOL     OW32815   1.918   3.461   1.858
10639SOL    HW132816   1.966   3.425   1.938
10639SOL    HW232817   1.975   3.528   1.812
10640SOL     OW32818   4.641   0.782   3.386
10640SOL    HW132819   4.657   0.834   3.470
10640SOL    HW232820   4.702   0.703   3.384
10641SOL     OW32821   2.077   1.220   3.612
10641SOL    HW132822   2.049   1.286   3.682
10641SOL    HW232823   2.013   1.143   3.613
10642SOL     OW32824   5.885   2.206   0.487
10642SOL    HW132825   5.789   2.226   0.503
10642SOL    HW232826   5.917   2.141   0.556
10643SOL     OW32827   2.217   6.209   4.558
10643SOL    HW132828   2.139   6.233   4.501
10643SOL    HW232829   2.230   6.280   4.628
10644SOL     OW32830   5.726   3.226   1.166
10644SOL    HW132831   5.794   3.156   1.187
10644SOL    HW232832   5.680   3.254   1.250
10645SOL     OW32833   2.379   2.734   3.433
10645SOL    HW132834   2.346   2.640   3.427
10645SOL    HW232835   2.342   2.778   3.515
10646SOL     OW32836   5.985   0.784   5.871
10646SOL    HW132837   5.969   0.750   5.778
10646SOL    HW232838   5.924   0.737   5.935
10647SOL     OW32839   3.241   5.428   5.390
10647SOL    HW132840   3.300   5.432   5.310
10647SOL    HW232841   3.255   5.342   5.438
10648SOL     OW32842   5.969   5.308   6.545
10648SOL    HW132843   5.981   5.266   6.455
10648SOL    HW232844   5.931   5.400   6.534
10649SOL     OW32845   0.881   3.114   3.601
10649SOL    HW132846   0.859   3.151   3.692
10649SOL    HW232847   0.917   3.021   3.611
10650SOL     OW32848   0.525   0.299   4.419
10650SOL    HW132849   0.474   0.255   4.492
10650SOL    HW232850   0.591   0.235   4.381
10651SOL     OW32851   6.090   6.070   6.632
10651SOL    HW132852   6.103   6.164   6.665
10651SOL    HW232853   6.034   6.073   6.549
10652SOL     OW32854   2.120   6.882   5.803
10652SOL    HW132855   2.199   6.939   5.783
10652SOL    HW232856   2.036   6.935   5.792
10653SOL     OW32857   4.211   5.898   4.837
10653SOL    HW132858   4.255   5.877   4.750
10653SOL    HW232859   4.238   5.829   4.905
10654SOL     OW32860   4.688   1.072   5.391
10654SOL    HW132861   4.774   1.118   5.415
10654SOL    HW232862   4.707   0.999   5.325
10655SOL     OW32863   1.693   4.375   0.723
10655SOL    HW132864   1.693   4.416   0.814
10655SOL    HW232865   1.779   4.326   0.708
10656SOL     OW32866   6.562   1.163   2.893
10656SOL    HW132867   6.626   1.087   2.892
10656SOL    HW232868   6.488   1.144   2.957
10657SOL     OW32869   6.234   0.831   4.635
10657SOL    HW132870   6.162   0.780   4.681
10657SOL    HW232871   6.319   0.778   4.638
10658SOL     OW32872   6.418   4.018   4.982
10658SOL    HW132873   6.475   4.100   4.984
10658SOL    HW232874   6.343   4.027   5.047
10659SOL     OW32875   0.901   4.663   0.605
10659SOL    HW132876   0.853   4.629   0.524
10659SOL    HW232877   0.947   4.749   0.582
10660SOL     OW32878   6.084   4.126   5.392
10660SOL    HW132879   6.005   4.176   5.358
10660SOL    HW232880   6.154   4.122   5.321
10661SOL     OW32881   1.540   5.482   0.368
10661SOL    HW132882   1.593   5.409   0.325
10661SOL    HW232883   1.462   5.505   0.309
10662SOL     OW32884   4.365   0.837   2.382
10662SOL    HW132885   4.463   0.856   2.371
10662SOL    HW232886   4.331   0.885   2.463
10663SOL     OW32887   0.547   1.577   2.993
10663SOL    HW132888   0.536   1.653   2.930
10663SOL    HW232889   0.641   1.575   3.027
10664SOL     OW32890   6.889   5.087   4.868
10664SOL    HW132891   6.843   5.038   4.794
10664SOL    HW232892   6.890   5.185   4.847
10665SOL     OW32893   2.225   2.129   6.992
10665SOL    HW132894   2.261   2.220   7.010
10665SOL    HW232895   2.212   2.117   6.893
10666SOL     OW32896   3.228   4.031   2.514
10666SOL    HW132897   3.173   4.002   2.592
10666SOL    HW232898   3.178   4.013   2.429
10667SOL     OW32899   4.722   1.412   4.078
10667SOL    HW132900   4.717   1.508   4.051
10667SOL    HW232901   4.813   1.392   4.116
10668SOL     OW32902   3.340   1.092   5.011
10668SOL    HW132903   3.287   1.138   5.082
10668SOL    HW232904   3.306   1.119   4.921
10669SOL     OW32905   5.996   0.788   1.060
10669SOL    HW132906   6.011   0.769   0.963
10669SOL    HW232907   5.931   0.864   1.069
10670SOL     OW32908   5.769   4.633   4.791
10670SOL    HW132909   5.826   4.710   4.819
10670SOL    HW232910   5.824   4.568   4.739
10671SOL     OW32911   1.791   1.733   4.148
10671SOL    HW132912   1.789   1.636   4.123
10671SOL    HW232913   1.791   1.741   4.248
10672SOL     OW32914   6.700   4.346   1.701
10672SOL    HW132915   6.714   4.311   1.608
10672SOL    HW232916   6.742   4.436   1.709
10673SOL     OW32917   1.162   0.321   0.356
10673SOL    HW132918   1.239   0.380   0.380
10673SOL    HW232919   1.153   0.249   0.425
10674SOL     OW32920   4.019   3.810   4.515
10674SOL    HW132921   3.934   3.757   4.518
10674SOL    HW232922   4.081   3.771   4.448
10675SOL     OW32923   2.629   0.741   6.554
10675SOL    HW132924   2.617   0.688   6.470
10675SOL    HW232925   2.611   0.682   6.633
10676SOL     OW32926   0.396   6.569   4.869
10676SOL    HW132927   0.309   6.610   4.841
10676SOL    HW232928   0.379   6.481   4.914
10677SOL     OW32929   2.007   1.062   1.244
10677SOL    HW132930   2.044   1.131   1.182
10677SOL    HW232931   1.907   1.062   1.238
10678SOL     OW32932   4.328   4.725   3.814
10678SOL    HW132933   4.394   4.782   3.765
10678SOL    HW232934   4.368   4.636   3.834
10679SOL     OW32935   3.788   5.876   6.067
10679SOL    HW132936   3.760   5.892   5.972
10679SOL    HW232937   3.786   5.962   6.118
10680SOL     OW32938   3.596   2.119   3.411
10680SOL    HW132939   3.603   2.177   3.492
10680SOL    HW232940   3.670   2.052   3.411
10681SOL     OW32941   6.692   3.851   0.202
10681SOL    HW132942   6.778   3.893   0.230
10681SOL    HW232943   6.637   3.830   0.282
10682SOL     OW32944   0.083   2.750   5.275
10682SOL    HW132945   7.022   2.801   5.262
10682SOL    HW232946   0.121   2.772   5.365
10683SOL     OW32947   4.693   0.902   3.951
10683SOL    HW132948   4.739   0.872   4.034
10683SOL    HW232949   4.641   0.986   3.969
10684SOL     OW32950   4.555   5.389   2.515
10684SOL    HW132951   4.495   5.318   2.552
10684SOL    HW232952   4.651   5.360   2.525
10685SOL     OW32953   0.199   5.532   1.009
10685SOL    HW132954   0.241   5.622   1.023
10685SOL    HW232955   0.103   5.545   0.982
10686SOL     OW32956   1.505   4.008   5.826
10686SOL    HW132957   1.588   4.017   5.771
10686SOL    HW232958   1.503   4.080   5.896
10687SOL     OW32959   6.195   4.835   4.395
10687SOL    HW132960   6.129   4.768   4.430
10687SOL    HW232961   6.191   4.837   4.295
10688SOL     OW32962   6.013   2.998   2.956
10688SOL    HW132963   6.048   2.973   2.866
10688SOL    HW232964   6.087   2.995   3.023
10689SOL     OW32965   6.222   0.399   2.330
10689SOL    HW132966   6.284   0.456   2.383
10689SOL    HW232967   6.162   0.349   2.392
10690SOL     OW32968   0.384   5.094   3.482
10690SOL    HW132969   0.392   5.008   3.433
10690SOL    HW232970   0.475   5.136   3.492
10691SOL     OW32971   1.908   1.723   1.675
10691SOL    HW132972   1.989   1.775   1.701
10691SOL    HW232973   1.921   1.685   1.583
10692SOL     OW32974   2.538   0.534   3.611
10692SOL    HW132975   2.626   0.566   3.577
10692SOL    HW232976   2.484   0.612   3.643
10693SOL     OW32977   1.408   6.212   0.926
10693SOL    HW132978   1.352   6.255   0.855
10693SOL    HW232979   1.348   6.177   0.998
10694SOL     OW32980   5.337   6.099   6.754
10694SOL    HW132981   5.291   6.169   6.810
10694SOL    HW232982   5.431   6.087   6.786
10695SOL     OW32983   1.363   2.390   2.188
10695SOL    HW132984   1.353   2.475   2.137
10695SOL    HW232985   1.460   2.367   2.195
10696SOL     OW32986   6.397   4.381   4.278
10696SOL    HW132987   6.319   4.374   4.341
10696SOL    HW232988   6.421   4.477   4.267
10697SOL     OW32989   0.254   0.419   5.563
10697SOL    HW132990   0.213   0.371   5.641
10697SOL    HW232991   0.294   0.353   5.500
10698SOL     OW32992   5.210   4.835   6.744
10698SOL    HW132993   5.229   4.930   6.771
10698SOL    HW232994   5.263   4.773   6.802
10699SOL     OW32995   3.793   4.910   1.731
10699SOL    HW132996   3.865   4.975   1.757
10699SOL    HW232997   3.835   4.825   1.699
10700SOL     OW32998   5.575   6.293   0.476
10700SOL    HW132999   5.647   6.239   0.432
10700SOL    HW233000   5.616   6.353   0.544
10701SOL     OW33001   2.531   6.768   5.599
10701SOL    HW133002   2.561   6.815   5.682
10701SOL    HW233003   2.608   6.759   5.536
10702SOL     OW33004   5.765   3.312   2.159
10702SOL    HW133005   5.853   3.359   2.157
10702SOL    HW233006   5.766   3.242   2.231
10703SOL     OW33007   2.693   2.806   5.605
10703SOL    HW133008   2.784   2.765   5.592
10703SOL    HW233009   2.684   2.887   5.548
10704SOL     OW33010   6.541   4.978   1.870
10704SOL    HW133011   6.512   4.885   1.847
10704SOL    HW233012   6.480   5.015   1.940
10705SOL     OW33013   6.770   4.932   1.453
10705SOL    HW133014   6.718   4.958   1.372
10705SOL    HW233015   6.786   4.833   1.452
10706SOL     OW33016   4.195   0.095   2.793
10706SOL    HW133017   4.234   0.044   2.716
10706SOL    HW233018   4.102   0.125   2.769
10707SOL     OW33019   0.586   6.508   4.071
10707SOL    HW133020   0.547   6.549   3.988
10707SOL    HW233021   0.661   6.447   4.047
10708SOL     OW33022   3.872   1.149   1.344
10708SOL    HW133023   3.857   1.139   1.246
10708SOL    HW233024   3.798   1.105   1.394
10709SOL     OW33025   5.392   5.846   5.147
10709SOL    HW133026   5.490   5.829   5.158
10709SOL    HW233027   5.351   5.772   5.095
10710SOL     OW33028   6.181   1.036   4.451
10710SOL    HW133029   6.226   0.981   4.521
10710SOL    HW233030   6.236   1.036   4.368
10711SOL     OW33031   2.041   6.500   3.823
10711SOL    HW133032   1.963   6.446   3.856
10711SOL    HW233033   2.123   6.474   3.874
10712SOL     OW33034   3.043   0.734   1.965
10712SOL    HW133035   3.085   0.685   1.889
10712SOL    HW233036   2.956   0.774   1.935
10713SOL     OW33037   0.533   3.354   1.062
10713SOL    HW133038   0.507   3.258   1.073
10713SOL    HW233039   0.486   3.410   1.130
10714SOL     OW33040   5.261   4.094   5.458
10714SOL    HW133041   5.244   4.192   5.469
10714SOL    HW233042   5.226   4.065   5.369
10715SOL     OW33043   4.333   0.213   2.245
10715SOL    HW133044   4.343   0.266   2.329
10715SOL    HW233045   4.248   0.238   2.199
10716SOL     OW33046   5.798   2.297   4.203
10716SOL    HW133047   5.826   2.259   4.114
10716SOL    HW233048   5.864   2.366   4.232
10717SOL     OW33049   0.983   2.289   1.470
10717SOL    HW133050   0.894   2.329   1.446
10717SOL    HW233051   1.049   2.362   1.488
10718SOL     OW33052   1.088   3.522   6.910
10718SOL    HW133053   1.130   3.432   6.916
10718SOL    HW233054   1.159   3.591   6.895
10719SOL     OW33055   0.081   5.996   2.883
10719SOL    HW133056   0.181   6.002   2.882
10719SOL    HW233057   0.043   6.081   2.920
10720SOL     OW33058   0.260   4.304   5.548
10720SOL    HW133059   0.274   4.397   5.514
10720SOL    HW233060   0.346   4.253   5.541
10721SOL     OW33061   5.114   3.600   5.045
10721SOL    HW133062   5.064   3.551   4.974
10721SOL    HW233063   5.178   3.537   5.090
10722SOL     OW33064   1.513   5.437   6.545
10722SOL    HW133065   1.600   5.400   6.578
10722SOL    HW233066   1.485   5.386   6.463
10723SOL     OW33067   0.633   3.089   6.807
10723SOL    HW133068   0.644   3.188   6.799
10723SOL    HW233069   0.535   3.066   6.800
10724SOL     OW33070   6.105   1.384   0.023
10724SOL    HW133071   6.099   1.371   6.948
10724SOL    HW233072   6.038   1.454   0.051
10725SOL     OW33073   1.325   5.278   4.559
10725SOL    HW133074   1.349   5.183   4.540
10725SOL    HW233075   1.372   5.309   4.641
10726SOL     OW33076   5.757   0.348   5.000
10726SOL    HW133077   5.828   0.289   5.038
10726SOL    HW233078   5.711   0.300   4.924
10727SOL     OW33079   0.294   5.526   5.438
10727SOL    HW133080   0.300   5.467   5.358
10727SOL    HW233081   0.386   5.539   5.477
10728SOL     OW33082   0.628   6.152   6.656
10728SOL    HW133083   0.596   6.092   6.730
10728SOL    HW233084   0.636   6.098   6.572
10729SOL     OW33085   5.070   1.872   2.747
10729SOL    HW133086   4.977   1.901   2.723
10729SOL    HW233087   5.129   1.882   2.667
10730SOL     OW33088   1.927   0.681   1.083
10730SOL    HW133089   1.894   0.750   1.018
10730SOL    HW233090   1.985   0.725   1.151
10731SOL     OW33091   3.102   6.894   0.999
10731SOL    HW133092   3.099   6.896   1.098
10731SOL    HW233093   3.023   6.942   0.961
10732SOL     OW33094   6.196   4.857   4.859
10732SOL    HW133095   6.196   4.863   4.959
10732SOL    HW233096   6.264   4.790   4.830
10733SOL     OW33097   6.337   2.005   0.864
10733SOL    HW133098   6.262   2.070   0.849
10733SOL    HW233099   6.363   1.965   0.776
10734SOL     OW33100   0.898   0.555   6.923
10734SOL    HW133101   0.842   0.605   6.989
10734SOL    HW233102   0.852   0.556   6.833
10735SOL     OW33103   0.714   2.780   2.878
10735SOL    HW133104   0.698   2.866   2.927
10735SOL    HW233105   0.692   2.703   2.938
10736SOL     OW33106   1.152   0.570   3.442
10736SOL    HW133107   1.212   0.494   3.468
10736SOL    HW233108   1.207   0.653   3.432
10737SOL     OW33109   1.406   1.844   0.946
10737SOL    HW133110   1.478   1.911   0.964
10737SOL    HW233111   1.321   1.874   0.988
10738SOL     OW33112   2.775   0.561   3.011
10738SOL    HW133113   2.809   0.467   3.009
10738SOL    HW233114   2.833   0.619   2.954
10739SOL     OW33115   1.329   1.607   0.840
10739SOL    HW133116   1.233   1.620   0.817
10739SOL    HW233117   1.371   1.696   0.859
10740SOL     OW33118   0.062   5.144   5.034
10740SOL    HW133119   0.153   5.175   5.008
10740SOL    HW233120   0.017   5.102   4.956
10741SOL     OW33121   5.194   0.574   1.268
10741SOL    HW133122   5.094   0.568   1.261
10741SOL    HW233123   5.223   0.544   1.358
10742SOL     OW33124   5.752   0.336   0.952
10742SOL    HW133125   5.732   0.399   1.028
10742SOL    HW233126   5.711   0.247   0.972
10743SOL     OW33127   2.701   1.385   5.672
10743SOL    HW133128   2.757   1.348   5.747
10743SOL    HW233129   2.691   1.484   5.685
10744SOL     OW33130   3.592   1.412   0.972
10744SOL    HW133131   3.563   1.488   1.030
10744SOL    HW233132   3.580   1.326   1.022
10745SOL     OW33133   0.362   5.992   6.447
10745SOL    HW133134   0.410   6.066   6.398
10745SOL    HW233135   0.429   5.929   6.487
10746SOL     OW33136   2.340   5.274   0.950
10746SOL    HW133137   2.287   5.194   0.980
10746SOL    HW233138   2.302   5.308   0.864
10747SOL     OW33139   3.952   1.002   3.959
10747SOL    HW133140   3.904   1.041   4.038
10747SOL    HW233141   4.036   1.054   3.943
10748SOL     OW33142   5.459   0.973   1.004
10748SOL    HW133143   5.527   0.976   0.931
10748SOL    HW233144   5.413   0.884   1.003
10749SOL     OW33145   0.557   4.950   3.256
10749SOL    HW133146   0.635   5.013   3.252
10749SOL    HW233147   0.572   4.883   3.328
10750SOL     OW33148   4.387   6.272   4.237
10750SOL    HW133149   4.455   6.335   4.274
10750SOL    HW233150   4.426   6.180   4.229
10751SOL     OW33151   1.525   4.578   4.902
10751SOL    HW133152   1.545   4.617   4.812
10751SOL    HW233153   1.599   4.516   4.928
10752SOL     OW33154   6.405   3.885   6.003
10752SOL    HW133155   6.315   3.864   5.965
10752SOL    HW233156   6.412   3.983   6.022
10753SOL     OW33157   5.336   5.375   4.554
10753SOL    HW133158   5.302   5.327   4.635
10753SOL    HW233159   5.295   5.466   4.549
10754SOL     OW33160   0.796   0.726   2.975
10754SOL    HW133161   0.862   0.784   3.022
10754SOL    HW233162   0.834   0.695   2.888
10755SOL     OW33163   6.912   1.153   0.160
10755SOL    HW133164   6.867   1.193   0.240
10755SOL    HW233165   6.871   1.192   0.077
10756SOL     OW33166   6.822   4.798   0.081
10756SOL    HW133167   6.723   4.790   0.090
10756SOL    HW233168   6.865   4.794   0.171
10757SOL     OW33169   2.470   2.975   0.457
10757SOL    HW133170   2.457   2.882   0.424
10757SOL    HW233171   2.429   2.984   0.548
10758SOL     OW33172   0.660   6.760   4.594
10758SOL    HW133173   0.659   6.860   4.590
10758SOL    HW233174   0.576   6.724   4.554
10759SOL     OW33175   1.822   2.803   1.339
10759SOL    HW133176   1.751   2.838   1.278
10759SOL    HW233177   1.861   2.719   1.300
10760SOL     OW33178   5.320   1.440   2.831
10760SOL    HW133179   5.332   1.489   2.745
10760SOL    HW233180   5.277   1.351   2.813
10761SOL     OW33181   1.262   6.630   5.823
10761SOL    HW133182   1.240   6.655   5.918
10761SOL    HW233183   1.180   6.637   5.767
10762SOL     OW33184   3.766   2.101   4.586
10762SOL    HW133185   3.680   2.087   4.538
10762SOL    HW233186   3.749   2.104   4.684
10763SOL     OW33187   5.407   6.658   2.570
10763SOL    HW133188   5.351   6.725   2.521
10763SOL    HW233189   5.348   6.587   2.607
10764SOL     OW33190   4.981   2.410   6.010
10764SOL    HW133191   5.041   2.400   6.090
10764SOL    HW233192   5.005   2.342   5.941
10765SOL     OW33193   5.029   2.623   0.431
10765SOL    HW133194   5.062   2.558   0.363
10765SOL    HW233195   5.003   2.708   0.386
10766SOL     OW33196   5.151   4.241   0.425
10766SOL    HW133197   5.129   4.153   0.466
10766SOL    HW233198   5.106   4.314   0.477
10767SOL     OW33199   1.249   0.896   6.800
10767SOL    HW133200   1.165   0.951   6.803
10767SOL    HW233201   1.226   0.800   6.816
10768SOL     OW33202   4.670   5.027   2.224
10768SOL    HW133203   4.736   4.958   2.196
10768SOL    HW233204   4.717   5.106   2.262
10769SOL     OW33205   2.441   4.150   5.389
10769SOL    HW133206   2.434   4.133   5.291
10769SOL    HW233207   2.423   4.247   5.407
10770SOL     OW33208   5.663   0.246   4.747
10770SOL    HW133209   5.679   0.267   4.651
10770SOL    HW233210   5.570   0.211   4.759
10771SOL     OW33211   5.846   6.842   3.843
10771SOL    HW133212   5.933   6.812   3.804
10771SOL    HW233213   5.841   6.942   3.839
10772SOL     OW33214   6.006   6.646   4.694
10772SOL    HW133215   5.997   6.553   4.729
10772SOL    HW233216   6.051   6.704   4.762
10773SOL     OW33217   6.590   6.102   6.667
10773SOL    HW133218   6.628   6.195   6.663
10773SOL    HW233219   6.500   6.102   6.622
10774SOL     OW33220   2.786   1.707   6.514
10774SOL    HW133221   2.704   1.702   6.572
10774SOL    HW233222   2.824   1.616   6.501
10775SOL     OW33223   0.506   4.648   1.934
10775SOL    HW133224   0.569   4.723   1.949
10775SOL    HW233225   0.435   4.649   2.004
10776SOL     OW33226   0.095   1.099   6.931
10776SOL    HW133227   0.064   1.027   6.993
10776SOL    HW233228   0.146   1.058   6.855
10777SOL     OW33229   3.785   5.390   2.744
10777SOL    HW133230   3.741   5.310   2.784
10777SOL    HW233231   3.717   5.462   2.732
10778SOL     OW33232   5.546   6.883   4.106
10778SOL    HW133233   5.572   6.896   4.011
10778SOL    HW233234   5.580   6.959   4.161
10779SOL     OW33235   6.201   3.616   3.715
10779SOL    HW133236   6.230   3.690   3.776
10779SOL    HW233237   6.103   3.625   3.697
10780SOL     OW33238   2.032   0.871   3.469
10780SOL    HW133239   1.987   0.902   3.553
10780SOL    HW233240   1.974   0.893   3.391
10781SOL     OW33241   4.519   0.942   4.328
10781SOL    HW133242   4.614   0.934   4.298
10781SOL    HW233243   4.512   0.913   4.423
10782SOL     OW33244   6.453   1.811   1.892
10782SOL    HW133245   6.542   1.854   1.878
10782SOL    HW233246   6.444   1.785   1.989
10783SOL     OW33247   0.498   2.508   2.823
10783SOL    HW133248   0.468   2.597   2.791
10783SOL    HW233249   0.479   2.439   2.754
10784SOL     OW33250   3.606   6.776   4.055
10784SOL    HW133251   3.572   6.870   4.047
10784SOL    HW233252   3.702   6.778   4.086
10785SOL     OW33253   6.886   4.708   0.410
10785SOL    HW133254   6.966   4.710   0.470
10785SOL    HW233255   6.835   4.794   0.419
10786SOL     OW33256   5.631   4.770   3.320
10786SOL    HW133257   5.617   4.856   3.370
10786SOL    HW233258   5.697   4.785   3.246
10787SOL     OW33259   2.343   1.774   5.395
10787SOL    HW133260   2.264   1.721   5.366
10787SOL    HW233261   2.396   1.723   5.463
10788SOL     OW33262   1.833   4.695   6.610
10788SOL    HW133263   1.840   4.632   6.533
10788SOL    HW233264   1.918   4.747   6.619
10789SOL     OW33265   6.832   2.480   6.652
10789SOL    HW133266   6.777   2.461   6.733
10789SOL    HW233267   6.785   2.447   6.570
10790SOL     OW33268   0.809   0.075   1.728
10790SOL    HW133269   0.829   0.124   1.812
10790SOL    HW233270   0.825   7.001   1.742
10791SOL     OW33271   6.579   6.562   1.324
10791SOL    HW133272   6.587   6.463   1.330
10791SOL    HW233273   6.482   6.588   1.322
10792SOL     OW33274   3.431   3.316   4.571
10792SOL    HW133275   3.518   3.310   4.620
10792SOL    HW233276   3.417   3.233   4.516
10793SOL     OW33277   5.641   3.048   5.299
10793SOL    HW133278   5.719   2.987   5.313
10793SOL    HW233279   5.673   3.141   5.283
10794SOL     OW33280   3.367   3.174   3.771
10794SOL    HW133281   3.446   3.142   3.824
10794SOL    HW233282   3.283   3.143   3.815
10795SOL     OW33283   7.008   5.066   2.034
10795SOL    HW133284   6.990   5.017   1.948
10795SOL    HW233285   0.082   5.084   2.042
10796SOL     OW33286   6.063   0.257   6.134
10796SOL    HW133287   6.102   0.346   6.158
10796SOL    HW233288   5.976   0.271   6.086
10797SOL     OW33289   2.931   2.103   1.491
10797SOL    HW133290   3.026   2.074   1.481
10797SOL    HW233291   2.928   2.195   1.529
10798SOL     OW33292   2.455   0.451   7.015
10798SOL    HW133293   2.450   0.378   6.947
10798SOL    HW233294   2.376   0.444   0.052
10799SOL     OW33295   3.749   1.085   1.932
10799SOL    HW133296   3.781   1.044   2.017
10799SOL    HW233297   3.818   1.072   1.861
10800SOL     OW33298   6.903   6.498   6.057
10800SOL    HW133299   6.817   6.541   6.028
10800SOL    HW233300   6.980   6.540   6.010
10801SOL     OW33301   1.339   6.512   6.184
10801SOL    HW133302   1.401   6.454   6.131
10801SOL    HW233303   1.278   6.561   6.123
10802SOL     OW33304   0.758   0.407   2.703
10802SOL    HW133305   0.755   0.312   2.733
10802SOL    HW233306   0.665   0.444   2.702
10803SOL     OW33307   2.372   5.228   6.154
10803SOL    HW133308   2.330   5.287   6.085
10803SOL    HW233309   2.333   5.249   6.244
10804SOL     OW33310   5.952   3.166   2.548
10804SOL    HW133311   5.915   3.242   2.601
10804SOL    HW233312   6.008   3.108   2.607
10805SOL     OW33313   4.670   6.616   6.064
10805SOL    HW133314   4.668   6.651   5.970
10805SOL    HW233315   4.726   6.676   6.121
10806SOL     OW33316   4.011   4.136   5.745
10806SOL    HW133317   4.109   4.147   5.764
10806SOL    HW233318   3.967   4.226   5.742
10807SOL     OW33319   1.812   6.824   2.661
10807SOL    HW133320   1.803   6.727   2.639
10807SOL    HW233321   1.756   6.846   2.740
10808SOL     OW33322   7.010   3.079   5.910
10808SOL    HW133323   6.969   3.168   5.932
10808SOL    HW233324   7.018   3.024   5.993
10809SOL     OW33325   2.414   4.439   3.459
10809SOL    HW133326   2.410   4.502   3.536
10809SOL    HW233327   2.407   4.344   3.492
10810SOL     OW33328   1.035   0.843   3.605
10810SOL    HW133329   1.092   0.844   3.523
10810SOL    HW233330   0.955   0.900   3.590
10811SOL     OW33331   4.132   4.947   5.776
10811SOL    HW133332   4.147   4.956   5.874
10811SOL    HW233333   4.055   4.884   5.760
10812SOL     OW33334   0.269   3.963   0.866
10812SOL    HW133335   0.314   3.877   0.841
10812SOL    HW233336   0.285   3.982   0.963
10813SOL     OW33337   1.338   3.676   6.185
10813SOL    HW133338   1.435   3.696   6.172
10813SOL    HW233339   1.327   3.580   6.210
10814SOL     OW33340   1.706   6.680   6.077
10814SOL    HW133341   1.706   6.692   5.978
10814SOL    HW233342   1.639   6.742   6.119
10815SOL     OW33343   5.255   3.440   3.160
10815SOL    HW133344   5.324   3.421   3.231
10815SOL    HW233345   5.164   3.429   3.200
10816SOL     OW33346   3.289   3.642   2.539
10816SOL    HW133347   3.198   3.602   2.527
10816SOL    HW233348   3.293   3.690   2.627
10817SOL     OW33349   4.075   0.674   3.442
10817SOL    HW133350   4.016   0.742   3.487
10817SOL    HW233351   4.123   0.621   3.512
10818SOL     OW33352   4.812   4.232   5.621
10818SOL    HW133353   4.725   4.243   5.669
10818SOL    HW233354   4.853   4.322   5.605
10819SOL     OW33355   6.368   5.067   6.149
10819SOL    HW133356   6.441   5.130   6.177
10819SOL    HW233357   6.330   5.098   6.062
10820SOL     OW33358   0.042   4.600   4.593
10820SOL    HW133359   0.015   4.572   4.685
10820SOL    HW233360   7.021   4.686   4.570
10821SOL     OW33361   4.843   6.840   3.742
10821SOL    HW133362   4.836   6.742   3.723
10821SOL    HW233363   4.786   6.862   3.822
10822SOL     OW33364   6.112   2.085   2.739
10822SOL    HW133365   6.074   2.119   2.825
10822SOL    HW233366   6.038   2.046   2.683
10823SOL     OW33367   1.038   0.911   2.061
10823SOL    HW133368   1.136   0.906   2.080
10823SOL    HW233369   1.020   0.983   1.994
10824SOL     OW33370   0.091   1.310   2.808
10824SOL    HW133371   0.002   1.355   2.819
10824SOL    HW233372   0.159   1.378   2.781
10825SOL     OW33373   1.981   1.661   6.540
10825SOL    HW133374   2.036   1.741   6.566
10825SOL    HW233375   2.015   1.625   6.453
10826SOL     OW33376   0.669   1.960   3.127
10826SOL    HW133377   0.685   1.969   3.029
10826SOL    HW233378   0.742   1.906   3.168
10827SOL     OW33379   0.330   3.298   4.908
10827SOL    HW133380   0.314   3.259   4.817
10827SOL    HW233381   0.309   3.395   4.907
10828SOL     OW33382   1.427   4.280   0.701
10828SOL    HW133383   1.525   4.267   0.718
10828SOL    HW233384   1.382   4.190   0.699
10829SOL     OW33385   4.694   2.920   0.464
10829SOL    HW133386   4.731   2.920   0.556
10829SOL    HW233387   4.595   2.932   0.468
10830SOL     OW33388   4.321   1.925   3.268
10830SOL    HW133389   4.291   1.829   3.269
10830SOL    HW233390   4.342   1.953   3.174
10831SOL     OW33391   3.198   6.309   2.939
10831SOL    HW133392   3.168   6.399   2.970
10831SOL    HW233393   3.123   6.262   2.893
10832SOL     OW33394   0.157   3.729   5.866
10832SOL    HW133395   0.137   3.685   5.779
10832SOL    HW233396   0.171   3.827   5.851
10833SOL     OW33397   0.559   0.839   1.886
10833SOL    HW133398   0.527   0.766   1.826
10833SOL    HW233399   0.645   0.812   1.929
10834SOL     OW33400   6.369   1.579   0.686
10834SOL    HW133401   6.381   1.580   0.785
10834SOL    HW233402   6.459   1.571   0.642
10835SOL     OW33403   6.156   2.643   6.969
10835SOL    HW133404   6.174   2.548   6.996
10835SOL    HW233405   6.240   2.696   6.978
10836SOL     OW33406   6.915   2.012   4.485
10836SOL    HW133407   6.905   2.040   4.581
10836SOL    HW233408   6.968   1.927   4.481
10837SOL     OW33409   6.707   4.681   1.202
10837SOL    HW133410   6.672   4.772   1.180
10837SOL    HW233411   6.770   4.652   1.129
10838SOL     OW33412   6.903   6.012   3.527
10838SOL    HW133413   6.967   5.946   3.567
10838SOL    HW233414   6.952   6.070   3.462
10839SOL     OW33415   4.667   3.167   0.924
10839SOL    HW133416   4.593   3.140   0.862
10839SOL    HW233417   4.629   3.189   1.014
10840SOL     OW33418   3.128   6.238   2.363
10840SOL    HW133419   3.200   6.184   2.406
10840SOL    HW233420   3.039   6.209   2.400
10841SOL     OW33421   6.833   4.500   5.548
10841SOL    HW133422   6.843   4.426   5.615
10841SOL    HW233423   6.862   4.468   5.458
10842SOL     OW33424   4.815   2.332   1.225
10842SOL    HW133425   4.802   2.234   1.236
10842SOL    HW233426   4.899   2.360   1.272
10843SOL     OW33427   1.470   1.437   0.996
10843SOL    HW133428   1.429   1.499   0.929
10843SOL    HW233429   1.564   1.416   0.969
10844SOL     OW33430   0.641   5.209   3.513
10844SOL    HW133431   0.724   5.235   3.465
10844SOL    HW233432   0.614   5.281   3.577
10845SOL     OW33433   3.889   6.419   5.413
10845SOL    HW133434   3.853   6.500   5.460
10845SOL    HW233435   3.845   6.337   5.449
10846SOL     OW33436   5.367   0.783   6.807
10846SOL    HW133437   5.377   0.717   6.881
10846SOL    HW233438   5.383   0.875   6.842
10847SOL     OW33439   3.488   2.463   0.428
10847SOL    HW133440   3.541   2.500   0.504
10847SOL    HW233441   3.419   2.529   0.399
10848SOL     OW33442   2.207   4.227   0.574
10848SOL    HW133443   2.279   4.246   0.508
10848SOL    HW233444   2.121   4.209   0.526
10849SOL     OW33445   2.407   4.406   4.125
10849SOL    HW133446   2.389   4.310   4.143
10849SOL    HW233447   2.397   4.425   4.028
10850SOL     OW33448   3.292   6.211   5.939
10850SOL    HW133449   3.301   6.310   5.928
10850SOL    HW233450   3.196   6.188   5.957
10851SOL     OW33451   2.867   3.744   0.557
10851SOL    HW133452   2.876   3.650   0.591
10851SOL    HW233453   2.799   3.746   0.484
10852SOL     OW33454   1.755   0.471   6.813
10852SOL    HW133455   1.730   0.395   6.753
10852SOL    HW233456   1.816   0.438   6.884
10853SOL     OW33457   1.661   3.163   5.734
10853SOL    HW133458   1.704   3.235   5.679
10853SOL    HW233459   1.617   3.097   5.674
10854SOL     OW33460   4.378   4.825   5.700
10854SOL    HW133461   4.298   4.882   5.719
10854SOL    HW233462   4.375   4.743   5.758
10855SOL     OW33463   4.178   0.876   0.885
10855SOL    HW133464   4.271   0.846   0.862
10855SOL    HW233465   4.181   0.937   0.964
10856SOL     OW33466   5.283   0.736   1.024
10856SOL    HW133467   5.195   0.748   0.978
10856SOL    HW233468   5.269   0.698   1.116
10857SOL     OW33469   1.088   2.167   2.945
10857SOL    HW133470   1.026   2.150   3.022
10857SOL    HW233471   1.035   2.177   2.861
10858SOL     OW33472   1.138   1.192   0.251
10858SOL    HW133473   1.183   1.267   0.299
10858SOL    HW233474   1.200   1.114   0.243
10859SOL     OW33475   1.338   4.762   4.638
10859SOL    HW133476   1.347   4.850   4.592
10859SOL    HW233477   1.296   4.776   4.728
10860SOL     OW33478   0.258   3.061   5.046
10860SOL    HW133479   0.336   3.001   5.065
10860SOL    HW233480   0.287   3.137   4.988
10861SOL     OW33481   3.309   4.185   3.355
10861SOL    HW133482   3.268   4.221   3.272
10861SOL    HW233483   3.248   4.118   3.396
10862SOL     OW33484   2.089   0.870   6.038
10862SOL    HW133485   2.088   0.969   6.026
10862SOL    HW233486   1.996   0.835   6.034
10863SOL     OW33487   2.307   0.658   4.006
10863SOL    HW133488   2.326   0.640   4.103
10863SOL    HW233489   2.254   0.743   3.998
10864SOL     OW33490   2.296   6.399   0.190
10864SOL    HW133491   2.337   6.471   0.134
10864SOL    HW233492   2.338   6.398   0.280
10865SOL     OW33493   6.898   1.424   1.100
10865SOL    HW133494   6.954   1.376   1.168
10865SOL    HW233495   6.806   1.437   1.136
10866SOL     OW33496   5.408   4.263   0.050
10866SOL    HW133497   5.404   4.358   0.018
10866SOL    HW233498   5.334   4.210   0.009
10867SOL     OW33499   3.454   3.933   0.544
10867SOL    HW133500   3.527   3.936   0.612
10867SOL    HW233501   3.420   4.025   0.527
10868SOL     OW33502   5.083   1.126   4.161
10868SOL    HW133503   5.068   1.168   4.072
10868SOL    HW233504   5.001   1.134   4.217
10869NA      NA33505   6.144   2.876   5.322
10870NA      NA33506   4.454   4.568   5.202
10871NA      NA33507   1.556   2.831   2.111
10872NA      NA33508   4.954   3.769   5.136
10873NA      NA33509   4.285   2.293   5.222
10874NA      NA33510   3.567   4.910   1.807
10875NA      NA33511   6.868   4.984   6.924
10876NA      NA33512   3.676   3.508   4.394
10877NA      NA33513   4.810   6.200   0.188
10878NA      NA33514   3.763   6.648   5.062
10879NA      NA33515   5.786   5.152   2.152
10880NA      NA33516   2.011   0.150   4.067
10881NA      NA33517   4.026   5.409   2.640
10882NA      NA33518   3.622   3.776   2.230
   7.02386   7.02386   7.02386
