Generated by trjconv : CNT in water t= 210.00000
33518
    1C        C    1   2.844   2.769   4.749
    1C        C    2   2.898   2.719   4.870
    1C        C    3   2.844   2.774   4.986
    1C        C    4   2.850   2.776   4.260
    1C        C    5   2.899   2.726   4.383
    1C        C    6   2.850   2.775   4.506
    1C        C    7   3.019   2.647   4.626
    1C        C    8   2.901   2.725   4.628
    1C        C    9   3.080   2.609   4.748
    1C        C   10   3.012   2.636   4.868
    1C        C   11   3.185   2.488   4.974
    1C        C   12   3.066   2.562   4.975
    1C        C   13   2.845   2.767   3.772
    1C        C   14   2.896   2.716   3.893
    1C        C   15   2.848   2.770   4.014
    1C        C   16   3.018   2.647   4.137
    1C        C   17   2.901   2.726   4.138
    1C        C   18   3.079   2.615   4.260
    1C        C   19   3.016   2.647   4.382
    1C        C   20   3.210   2.559   4.504
    1C        C   21   3.080   2.613   4.503
    1C        C   22   3.281   2.539   4.624
    1C        C   23   3.210   2.552   4.746
    1C        C   24   3.415   2.484   4.864
    1C        C   25   3.273   2.501   4.863
    1C        C   26   3.490   2.478   4.983
    1C        C   27   2.843   2.765   3.280
    1C        C   28   2.898   2.724   3.404
    1C        C   29   2.846   2.769   3.527
    1C        C   30   3.017   2.644   3.648
    1C        C   31   2.897   2.719   3.649
    1C        C   32   3.078   2.608   3.770
    1C        C   33   3.013   2.637   3.892
    1C        C   34   3.208   2.554   4.015
    1C        C   35   3.078   2.610   4.014
    1C        C   36   3.278   2.538   4.137
    1C        C   37   3.210   2.562   4.258
    1C        C   38   3.416   2.514   4.381
    1C        C   39   3.278   2.544   4.381
    1C        C   40   3.488   2.506   4.502
    1C        C   41   3.418   2.506   4.625
    1C        C   42   3.632   2.476   4.739
    1C        C   43   3.490   2.478   4.743
    1C        C   44   3.706   2.486   4.859
    1C        C   45   3.628   2.484   4.975
    1C        C   46   2.831   2.747   2.793
    1C        C   47   2.890   2.707   2.915
    1C        C   48   2.840   2.757   3.037
    1C        C   49   3.014   2.636   3.159
    1C        C   50   2.897   2.715   3.160
    1C        C   51   3.078   2.608   3.282
    1C        C   52   3.014   2.643   3.403
    1C        C   53   3.209   2.559   3.527
    1C        C   54   3.078   2.611   3.525
    1C        C   55   3.279   2.537   3.647
    1C        C   56   3.208   2.553   3.768
    1C        C   57   3.413   2.514   3.893
    1C        C   58   3.273   2.530   3.892
    1C        C   59   3.487   2.508   4.013
    1C        C   60   3.417   2.513   4.136
    1C        C   61   3.628   2.510   4.258
    1C        C   62   3.486   2.510   4.259
    1C        C   63   3.703   2.511   4.378
    1C        C   64   3.629   2.505   4.499
    1C        C   65   3.838   2.539   4.620
    1C        C   66   3.703   2.500   4.619
    1C        C   67   3.909   2.562   4.741
    1C        C   68   3.841   2.527   4.860
    1C        C   69   4.049   2.592   4.981
    1C        C   70   3.924   2.529   4.972
    1C        C   71   2.827   2.735   2.308
    1C        C   72   2.886   2.695   2.430
    1C        C   73   2.833   2.747   2.550
    1C        C   74   3.010   2.630   2.670
    1C        C   75   2.887   2.701   2.671
    1C        C   76   3.071   2.592   2.791
    1C        C   77   3.009   2.631   2.913
    1C        C   78   3.205   2.550   3.037
    1C        C   79   3.075   2.605   3.035
    1C        C   80   3.275   2.533   3.159
    1C        C   81   3.209   2.556   3.281
    1C        C   82   3.412   2.500   3.401
    1C        C   83   3.276   2.535   3.404
    1C        C   84   3.484   2.498   3.522
    1C        C   85   3.419   2.515   3.647
    1C        C   86   3.626   2.506   3.768
    1C        C   87   3.485   2.507   3.771
    1C        C   88   3.697   2.517   3.890
    1C        C   89   3.629   2.512   4.013
    1C        C   90   3.835   2.551   4.137
    1C        C   91   3.698   2.518   4.136
    1C        C   92   3.907   2.569   4.257
    1C        C   93   3.839   2.548   4.379
    1C        C   94   4.035   2.631   4.498
    1C        C   95   3.907   2.570   4.501
    1C        C   96   4.097   2.666   4.620
    1C        C   97   4.037   2.623   4.741
    1C        C   98   4.195   2.764   4.864
    1C        C   99   4.100   2.656   4.864
    1C        C  100   4.212   2.844   4.978
    1C        C  101   2.820   2.732   2.071
    1C        C  102   2.993   2.594   2.189
    1C        C  103   2.878   2.680   2.187
    1C        C  104   3.065   2.571   2.309
    1C        C  105   3.004   2.617   2.428
    1C        C  106   3.201   2.533   2.550
    1C        C  107   3.073   2.593   2.549
    1C        C  108   3.270   2.521   2.673
    1C        C  109   3.203   2.543   2.796
    1C        C  110   3.413   2.500   2.914
    1C        C  111   3.273   2.522   2.917
    1C        C  112   3.485   2.502   3.036
    1C        C  113   3.415   2.513   3.158
    1C        C  114   3.627   2.499   3.281
    1C        C  115   3.485   2.496   3.280
    1C        C  116   3.698   2.509   3.403
    1C        C  117   3.625   2.504   3.524
    1C        C  118   3.834   2.543   3.646
    1C        C  119   3.697   2.510   3.645
    1C        C  120   3.902   2.569   3.768
    1C        C  121   3.835   2.545   3.890
    1C        C  122   4.025   2.638   4.010
    1C        C  123   3.900   2.573   4.013
    1C        C  124   4.088   2.674   4.132
    1C        C  125   4.032   2.634   4.255
    1C        C  126   4.199   2.767   4.377
    1C        C  127   4.093   2.673   4.377
    1C        C  128   4.249   2.816   4.500
    1C        C  129   4.203   2.759   4.621
    1C        C  130   4.328   2.932   4.741
    1C        C  131   4.246   2.815   4.743
    1C        C  132   4.355   3.004   4.860
    1C        C  133   4.285   2.962   4.974
    1C        C  134   3.175   2.467   2.080
    1C        C  135   3.041   2.508   2.084
    1C        C  136   3.262   2.478   2.190
    1C        C  137   3.195   2.515   2.309
    1C        C  138   3.408   2.485   2.429
    1C        C  139   3.268   2.503   2.429
    1C        C  140   3.482   2.488   2.549
    1C        C  141   3.409   2.501   2.670
    1C        C  142   3.623   2.496   2.789
    1C        C  143   3.482   2.494   2.791
    1C        C  144   3.693   2.507   2.912
    1C        C  145   3.626   2.502   3.036
    1C        C  146   3.835   2.539   3.155
    1C        C  147   3.696   2.511   3.158
    1C        C  148   3.903   2.559   3.277
    1C        C  149   3.835   2.541   3.399
    1C        C  150   4.028   2.623   3.523
    1C        C  151   3.901   2.562   3.523
    1C        C  152   4.090   2.664   3.644
    1C        C  153   4.029   2.630   3.767
    1C        C  154   4.198   2.760   3.888
    1C        C  155   4.085   2.676   3.888
    1C        C  156   4.250   2.808   4.011
    1C        C  157   4.200   2.759   4.134
    1C        C  158   4.343   2.920   4.252
    1C        C  159   4.254   2.810   4.254
    1C        C  160   4.382   2.979   4.375
    1C        C  161   4.336   2.927   4.498
    1C        C  162   4.442   3.111   4.617
    1C        C  163   4.373   2.988   4.620
    1C        C  164   4.471   3.183   4.735
    1C        C  165   4.431   3.123   4.857
    1C        C  166   4.513   3.322   4.971
    1C        C  167   4.480   3.187   4.972
    1C        C  168   3.475   2.437   2.072
    1C        C  169   3.401   2.459   2.189
    1C        C  170   3.620   2.470   2.308
    1C        C  171   3.478   2.466   2.307
    1C        C  172   3.696   2.487   2.426
    1C        C  173   3.623   2.486   2.547
    1C        C  174   3.831   2.535   2.667
    1C        C  175   3.695   2.497   2.668
    1C        C  176   3.896   2.565   2.789
    1C        C  177   3.829   2.544   2.912
    1C        C  178   4.030   2.620   3.032
    1C        C  179   3.900   2.564   3.033
    1C        C  180   4.091   2.655   3.155
    1C        C  181   4.031   2.621   3.278
    1C        C  182   4.200   2.746   3.399
    1C        C  183   4.089   2.658   3.401
    1C        C  184   4.250   2.799   3.519
    1C        C  185   4.202   2.750   3.643
    1C        C  186   4.338   2.913   3.763
    1C        C  187   4.253   2.801   3.764
    1C        C  188   4.379   2.973   3.884
    1C        C  189   4.343   2.914   4.008
    1C        C  190   4.445   3.103   4.127
    1C        C  191   4.382   2.976   4.129
    1C        C  192   4.471   3.169   4.249
    1C        C  193   4.444   3.106   4.373
    1C        C  194   4.500   3.312   4.490
    1C        C  195   4.463   3.176   4.494
    1C        C  196   4.516   3.387   4.609
    1C        C  197   4.513   3.318   4.732
    1C        C  198   4.547   3.534   4.851
    1C        C  199   4.533   3.392   4.852
    1C        C  200   4.583   3.618   4.962
    1C        C  201   3.613   2.413   2.076
    1C        C  202   3.827   2.512   2.181
    1C        C  203   3.692   2.463   2.185
    1C        C  204   3.902   2.534   2.300
    1C        C  205   3.834   2.517   2.423
    1C        C  206   4.026   2.611   2.543
    1C        C  207   3.898   2.550   2.544
    1C        C  208   4.086   2.653   2.663
    1C        C  209   4.026   2.621   2.787
    1C        C  210   4.200   2.741   2.909
    1C        C  211   4.091   2.650   2.909
    1C        C  212   4.253   2.789   3.031
    1C        C  213   4.203   2.741   3.154
    1C        C  214   4.333   2.909   3.273
    1C        C  215   4.253   2.792   3.276
    1C        C  216   4.371   2.970   3.395
    1C        C  217   4.337   2.911   3.519
    1C        C  218   4.438   3.099   3.639
    1C        C  219   4.376   2.972   3.640
    1C        C  220   4.463   3.168   3.760
    1C        C  221   4.437   3.102   3.882
    1C        C  222   4.498   3.305   4.002
    1C        C  223   4.465   3.168   4.004
    1C        C  224   4.510   3.377   4.123
    1C        C  225   4.499   3.308   4.246
    1C        C  226   4.522   3.520   4.364
    1C        C  227   4.515   3.379   4.366
    1C        C  228   4.522   3.594   4.484
    1C        C  229   4.525   3.528   4.609
    1C        C  230   4.501   3.743   4.724
    1C        C  231   4.532   3.604   4.728
    1C        C  232   4.494   3.818   4.844
    1C        C  233   4.545   3.753   4.957
    1C        C  234   4.020   2.612   2.063
    1C        C  235   3.901   2.541   2.066
    1C        C  236   4.086   2.650   2.181
    1C        C  237   4.028   2.599   2.299
    1C        C  238   4.197   2.734   2.419
    1C        C  239   4.084   2.648   2.419
    1C        C  240   4.250   2.785   2.540
    1C        C  241   4.199   2.739   2.663
    1C        C  242   4.335   2.901   2.785
    1C        C  243   4.251   2.787   2.786
    1C        C  244   4.377   2.960   2.906
    1C        C  245   4.339   2.901   3.028
    1C        C  246   4.435   3.091   3.152
    1C        C  247   4.373   2.964   3.149
    1C        C  248   4.461   3.159   3.273
    1C        C  249   4.434   3.096   3.396
    1C        C  250   4.494   3.303   3.514
    1C        C  251   4.456   3.167   3.516
    1C        C  252   4.507   3.372   3.637
    1C        C  253   4.502   3.304   3.760
    1C        C  254   4.515   3.518   3.875
    1C        C  255   4.513   3.377   3.881
    1C        C  256   4.511   3.587   3.998
    1C        C  257   4.518   3.518   4.121
    1C        C  258   4.490   3.729   4.240
    1C        C  259   4.519   3.591   4.241
    1C        C  260   4.470   3.799   4.361
    1C        C  261   4.486   3.730   4.483
    1C        C  262   4.421   3.938   4.606
    1C        C  263   4.469   3.805   4.602
    1C        C  264   4.395   4.008   4.725
    1C        C  265   4.436   3.947   4.846
    1C        C  266   4.318   4.130   4.959
    1C        C  267   4.391   4.012   4.962
    1C        C  268   4.260   2.781   2.061
    1C        C  269   4.199   2.735   2.179
    1C        C  270   4.350   2.887   2.301
    1C        C  271   4.257   2.779   2.300
    1C        C  272   4.388   2.950   2.422
    1C        C  273   4.341   2.893   2.543
    1C        C  274   4.443   3.083   2.663
    1C        C  275   4.379   2.956   2.663
    1C        C  276   4.466   3.151   2.784
    1C        C  277   4.442   3.086   2.907
    1C        C  278   4.497   3.292   3.026
    1C        C  279   4.466   3.154   3.029
    1C        C  280   4.502   3.364   3.147
    1C        C  281   4.490   3.298   3.271
    1C        C  282   4.515   3.512   3.389
    1C        C  283   4.507   3.371   3.391
    1C        C  284   4.512   3.583   3.512
    1C        C  285   4.515   3.513   3.634
    1C        C  286   4.483   3.728   3.753
    1C        C  287   4.510   3.589   3.753
    1C        C  288   4.471   3.795   3.877
    1C        C  289   4.487   3.727   3.999
    1C        C  290   4.427   3.934   4.117
    1C        C  291   4.472   3.800   4.119
    1C        C  292   4.394   3.997   4.240
    1C        C  293   4.417   3.930   4.362
    1C        C  294   4.321   4.123   4.480
    1C        C  295   4.388   3.998   4.482
    1C        C  296   4.281   4.186   4.599
    1C        C  297   4.322   4.130   4.722
    1C        C  298   4.199   4.314   4.836
    1C        C  299   4.283   4.198   4.841
    1C        C  300   4.168   4.403   4.944
    1C        C  301   4.359   2.879   2.062
    1C        C  302   4.470   3.067   2.176
    1C        C  303   4.396   2.945   2.180
    1C        C  304   4.481   3.141   2.297
    1C        C  305   4.448   3.077   2.418
    1C        C  306   4.505   3.283   2.537
    1C        C  307   4.469   3.146   2.540
    1C        C  308   4.516   3.355   2.658
    1C        C  309   4.501   3.288   2.782
    1C        C  310   4.516   3.501   2.898
    1C        C  311   4.511   3.360   2.903
    1C        C  312   4.511   3.573   3.020
    1C        C  313   4.511   3.505   3.144
    1C        C  314   4.484   3.717   3.265
    1C        C  315   4.507   3.578   3.265
    1C        C  316   4.469   3.789   3.386
    1C        C  317   4.486   3.721   3.509
    1C        C  318   4.423   3.927   3.628
    1C        C  319   4.466   3.793   3.629
    1C        C  320   4.396   3.993   3.750
    1C        C  321   4.426   3.929   3.872
    1C        C  322   4.318   4.113   3.989
    1C        C  323   4.394   3.995   3.994
    1C        C  324   4.280   4.171   4.112
    1C        C  325   4.321   4.117   4.236
    1C        C  326   4.185   4.283   4.354
    1C        C  327   4.282   4.180   4.357
    1C        C  328   4.136   4.340   4.473
    1C        C  329   4.191   4.296   4.595
    1C        C  330   4.023   4.435   4.711
    1C        C  331   4.139   4.353   4.714
    1C        C  332   3.967   4.492   4.828
    1C        C  333   4.053   4.483   4.938
    1C        C  334   4.555   3.266   2.063
    1C        C  335   4.537   3.127   2.064
    1C        C  336   4.534   3.349   2.174
    1C        C  337   4.512   3.280   2.295
    1C        C  338   4.528   3.494   2.410
    1C        C  339   4.526   3.353   2.416
    1C        C  340   4.520   3.567   2.531
    1C        C  341   4.520   3.496   2.653
    1C        C  342   4.488   3.707   2.775
    1C        C  343   4.513   3.568   2.774
    1C        C  344   4.474   3.780   2.895
    1C        C  345   4.486   3.712   3.019
    1C        C  346   4.423   3.916   3.137
    1C        C  347   4.465   3.781   3.140
    1C        C  348   4.391   3.980   3.258
    1C        C  349   4.422   3.922   3.383
    1C        C  350   4.319   4.109   3.502
    1C        C  351   4.394   3.989   3.504
    1C        C  352   4.276   4.169   3.622
    1C        C  353   4.319   4.111   3.744
    1C        C  354   4.175   4.268   3.866
    1C        C  355   4.274   4.167   3.866
    1C        C  356   4.126   4.319   3.988
    1C        C  357   4.179   4.270   4.109
    1C        C  358   4.014   4.404   4.229
    1C        C  359   4.129   4.323   4.230
    1C        C  360   3.952   4.448   4.349
    1C        C  361   4.022   4.423   4.469
    1C        C  362   3.828   4.517   4.592
    1C        C  363   3.957   4.461   4.589
    1C        C  364   3.760   4.548   4.712
    1C        C  365   3.838   4.548   4.830
    1C        C  366   3.626   4.585   4.952
    1C        C  367   3.764   4.569   4.948
    1C        C  368   4.512   3.564   2.050
    1C        C  369   4.528   3.489   2.168
    1C        C  370   4.500   3.704   2.287
    1C        C  371   4.521   3.564   2.288
    1C        C  372   4.479   3.773   2.408
    1C        C  373   4.499   3.706   2.531
    1C        C  374   4.431   3.909   2.649
    1C        C  375   4.483   3.777   2.652
    1C        C  376   4.395   3.974   2.768
    1C        C  377   4.427   3.913   2.891
    1C        C  378   4.320   4.097   3.010
    1C        C  379   4.397   3.979   3.013
    1C        C  380   4.273   4.152   3.131
    1C        C  381   4.313   4.098   3.255
    1C        C  382   4.180   4.262   3.374
    1C        C  383   4.278   4.160   3.377
    1C        C  384   4.125   4.310   3.496
    1C        C  385   4.180   4.272   3.621
    1C        C  386   4.009   4.398   3.743
    1C        C  387   4.126   4.318   3.743
    1C        C  388   3.949   4.436   3.865
    1C        C  389   4.010   4.399   3.987
    1C        C  390   3.821   4.497   4.107
    1C        C  391   3.950   4.439   4.108
    1C        C  392   3.752   4.520   4.228
    1C        C  393   3.821   4.500   4.349
    1C        C  394   3.616   4.550   4.474
    1C        C  395   3.756   4.531   4.471
    1C        C  396   3.545   4.565   4.595
    1C        C  397   3.620   4.562   4.715
    1C        C  398   3.409   4.547   4.839
    1C        C  399   3.548   4.572   4.836
    1C        C  400   3.339   4.503   4.952
    1C        C  401   4.498   3.702   2.051
    1C        C  402   4.451   3.915   2.167
    1C        C  403   4.483   3.778   2.168
    1C        C  404   4.414   3.979   2.287
    1C        C  405   4.434   3.907   2.407
    1C        C  406   4.323   4.092   2.524
    1C        C  407   4.402   3.975   2.527
    1C        C  408   4.277   4.150   2.644
    1C        C  409   4.318   4.093   2.766
    1C        C  410   4.177   4.252   2.886
    1C        C  411   4.278   4.154   2.887
    1C        C  412   4.125   4.297   3.010
    1C        C  413   4.175   4.253   3.134
    1C        C  414   4.005   4.385   3.253
    1C        C  415   4.124   4.309   3.254
    1C        C  416   3.943   4.418   3.376
    1C        C  417   4.007   4.388   3.497
    1C        C  418   3.815   4.477   3.618
    1C        C  419   3.946   4.424   3.619
    1C        C  420   3.749   4.507   3.739
    1C        C  421   3.817   4.488   3.862
    1C        C  422   3.612   4.534   3.987
    1C        C  423   3.751   4.510   3.984
    1C        C  424   3.542   4.539   4.110
    1C        C  425   3.613   4.543   4.232
    1C        C  426   3.401   4.542   4.354
    1C        C  427   3.542   4.551   4.354
    1C        C  428   3.331   4.544   4.477
    1C        C  429   3.404   4.557   4.597
    1C        C  430   3.196   4.511   4.722
    1C        C  431   3.334   4.544   4.719
    1C        C  432   3.124   4.487   4.843
    1C        C  433   3.201   4.485   4.960
    1C        C  434   4.380   4.118   2.049
    1C        C  435   4.445   3.994   2.051
    1C        C  436   4.302   4.161   2.161
    1C        C  437   4.336   4.098   2.284
    1C        C  438   4.180   4.250   2.400
    1C        C  439   4.281   4.151   2.402
    1C        C  440   4.128   4.300   2.522
    1C        C  441   4.182   4.254   2.644
    1C        C  442   4.006   4.379   2.764
    1C        C  443   4.123   4.299   2.765
    1C        C  444   3.949   4.417   2.888
    1C        C  445   4.009   4.378   3.010
    1C        C  446   3.815   4.474   3.130
    1C        C  447   3.946   4.419   3.129
    1C        C  448   3.748   4.496   3.252
    1C        C  449   3.813   4.475   3.375
    1C        C  450   3.607   4.525   3.497
    1C        C  451   3.746   4.499   3.497
    1C        C  452   3.541   4.537   3.621
    1C        C  453   3.611   4.538   3.744
    1C        C  454   3.399   4.544   3.865
    1C        C  455   3.541   4.545   3.866
    1C        C  456   3.330   4.539   3.988
    1C        C  457   3.401   4.542   4.110
    1C        C  458   3.193   4.500   4.236
    1C        C  459   3.331   4.531   4.232
    1C        C  460   3.126   4.483   4.359
    1C        C  461   3.194   4.511   4.479
    1C        C  462   2.997   4.431   4.600
    1C        C  463   3.126   4.489   4.601
    1C        C  464   2.930   4.400   4.720
    1C        C  465   2.989   4.440   4.843
    1C        C  466   2.802   4.337   4.961
    1C        C  467   2.906   4.431   4.960
    1C        C  468   4.123   4.287   2.041
    1C        C  469   4.187   4.246   2.159
    1C        C  470   4.008   4.373   2.279
    1C        C  471   4.126   4.294   2.278
    1C        C  472   3.942   4.406   2.400
    1C        C  473   4.008   4.374   2.521
    1C        C  474   3.812   4.462   2.642
    1C        C  475   3.943   4.408   2.642
    1C        C  476   3.747   4.490   2.764
    1C        C  477   3.818   4.470   2.885
    1C        C  478   3.609   4.512   3.009
    1C        C  479   3.748   4.488   3.006
    1C        C  480   3.539   4.525   3.130
    1C        C  481   3.608   4.518   3.253
    1C        C  482   3.396   4.538   3.377
    1C        C  483   3.537   4.529   3.374
    1C        C  484   3.328   4.524   3.500
    1C        C  485   3.400   4.533   3.622
    1C        C  486   3.191   4.499   3.743
    1C        C  487   3.328   4.533   3.743
    1C        C  488   3.127   4.476   3.867
    1C        C  489   3.194   4.501   3.989
    1C        C  490   3.003   4.413   4.115
    1C        C  491   3.128   4.479   4.112
    1C        C  492   2.942   4.378   4.237
    1C        C  493   2.997   4.426   4.359
    1C        C  494   2.823   4.303   4.482
    1C        C  495   2.934   4.391   4.481
    1C        C  496   2.770   4.259   4.605
    1C        C  497   2.816   4.316   4.725
    1C        C  498   2.666   4.165   4.844
    1C        C  499   2.753   4.276   4.845
    1C        C  500   2.594   4.120   4.956
    1C        C  501   4.003   4.357   2.039
    1C        C  502   3.816   4.463   2.156
    1C        C  503   3.944   4.404   2.157
    1C        C  504   3.743   4.479   2.276
    1C        C  505   3.808   4.451   2.398
    1C        C  506   3.604   4.507   2.521
    1C        C  507   3.742   4.475   2.520
    1C        C  508   3.535   4.513   2.644
    1C        C  509   3.608   4.510   2.765
    1C        C  510   3.396   4.524   2.886
    1C        C  511   3.537   4.520   2.887
    1C        C  512   3.328   4.519   3.009
    1C        C  513   3.397   4.525   3.132
    1C        C  514   3.190   4.489   3.253
    1C        C  515   3.327   4.525   3.254
    1C        C  516   3.125   4.468   3.376
    1C        C  517   3.190   4.496   3.498
    1C        C  518   2.998   4.411   3.624
    1C        C  519   3.123   4.477   3.621
    1C        C  520   2.941   4.372   3.747
    1C        C  521   3.003   4.410   3.868
    1C        C  522   2.835   4.285   3.995
    1C        C  523   2.947   4.372   3.992
    1C        C  524   2.784   4.236   4.117
    1C        C  525   2.833   4.289   4.238
    1C        C  526   2.692   4.133   4.362
    1C        C  527   2.781   4.243   4.361
    1C        C  528   2.657   4.075   4.485
    1C        C  529   2.691   4.141   4.605
    1C        C  530   2.580   3.962   4.729
    1C        C  531   2.637   4.093   4.726
    1C        C  532   2.543   3.902   4.852
    1C        C  533   2.530   3.996   4.959
    1C        C  534   3.614   4.554   2.039
    1C        C  535   3.748   4.511   2.043
    1C        C  536   3.535   4.534   2.156
    1C        C  537   3.605   4.512   2.278
    1C        C  538   3.391   4.517   2.401
    1C        C  539   3.533   4.514   2.399
    1C        C  540   3.323   4.515   2.524
    1C        C  541   3.394   4.517   2.646
    1C        C  542   3.181   4.491   2.765
    1C        C  543   3.321   4.514   2.767
    1C        C  544   3.121   4.465   2.890
    1C        C  545   3.190   4.487   3.011
    1C        C  546   2.993   4.404   3.133
    1C        C  547   3.121   4.464   3.132
    1C        C  548   2.939   4.366   3.258
    1C        C  549   2.999   4.403   3.380
    1C        C  550   2.827   4.282   3.504
    1C        C  551   2.938   4.370   3.503
    1C        C  552   2.779   4.233   3.628
    1C        C  553   2.832   4.282   3.749
    1C        C  554   2.701   4.120   3.874
    1C        C  555   2.783   4.235   3.873
    1C        C  556   2.663   4.061   3.996
    1C        C  557   2.697   4.125   4.118
    1C        C  558   2.596   3.941   4.244
    1C        C  559   2.656   4.069   4.241
    1C        C  560   2.565   3.880   4.368
    1C        C  561   2.589   3.951   4.488
    1C        C  562   2.532   3.750   4.614
    1C        C  563   2.559   3.889   4.611
    1C        C  564   2.519   3.681   4.736
    1C        C  565   2.517   3.761   4.854
    1C        C  566   2.529   3.548   4.976
    1C        C  567   2.525   3.687   4.972
    1C        C  568   3.330   4.476   2.041
    1C        C  569   3.394   4.516   2.159
    1C        C  570   3.180   4.483   2.279
    1C        C  571   3.319   4.512   2.279
    1C        C  572   3.113   4.467   2.402
    1C        C  573   3.185   4.488   2.522
    1C        C  574   2.988   4.405   2.645
    1C        C  575   3.113   4.470   2.643
    1C        C  576   2.933   4.363   2.769
    1C        C  577   2.995   4.401   2.890
    1C        C  578   2.825   4.274   3.016
    1C        C  579   2.932   4.367   3.011
    1C        C  580   2.779   4.221   3.138
    1C        C  581   2.835   4.270   3.258
    1C        C  582   2.701   4.111   3.384
    1C        C  583   2.782   4.227   3.382
    1C        C  584   2.662   4.054   3.507
    1C        C  585   2.698   4.118   3.629
    1C        C  586   2.599   3.933   3.754
    1C        C  587   2.664   4.058   3.752
    1C        C  588   2.575   3.869   3.878
    1C        C  589   2.606   3.932   4.001
    1C        C  590   2.533   3.736   4.126
    1C        C  591   2.569   3.873   4.124
    1C        C  592   2.518   3.670   4.249
    1C        C  593   2.530   3.743   4.369
    1C        C  594   2.510   3.536   4.496
    1C        C  595   2.518   3.677   4.493
    1C        C  596   2.513   3.465   4.618
    1C        C  597   2.516   3.539   4.739
    1C        C  598   2.535   3.327   4.861
    1C        C  599   2.526   3.468   4.861
    1C        C  600   2.538   3.248   4.977
    1C        C  601   3.197   4.437   2.042
    1C        C  602   2.982   4.398   2.160
    1C        C  603   3.118   4.444   2.157
    1C        C  604   2.924   4.361   2.284
    1C        C  605   2.987   4.402   2.404
    1C        C  606   2.823   4.269   2.529
    1C        C  607   2.923   4.368   2.525
    1C        C  608   2.771   4.222   2.651
    1C        C  609   2.827   4.269   2.771
    1C        C  610   2.689   4.111   2.896
    1C        C  611   2.776   4.222   2.894
    1C        C  612   2.651   4.053   3.019
    1C        C  613   2.689   4.113   3.141
    1C        C  614   2.596   3.924   3.266
    1C        C  615   2.653   4.053   3.264
    1C        C  616   2.570   3.861   3.390
    1C        C  617   2.598   3.929   3.511
    1C        C  618   2.533   3.728   3.638
    1C        C  619   2.572   3.864   3.634
    1C        C  620   2.517   3.663   3.762
    1C        C  621   2.532   3.734   3.883
    1C        C  622   2.510   3.522   4.009
    1C        C  623   2.524   3.663   4.005
    1C        C  624   2.515   3.454   4.132
    1C        C  625   2.508   3.529   4.253
    1C        C  626   2.541   3.322   4.378
    1C        C  627   2.516   3.461   4.376
    1C        C  628   2.562   3.254   4.501
    1C        C  629   2.536   3.326   4.619
    1C        C  630   2.595   3.120   4.743
    1C        C  631   2.551   3.255   4.741
    1C        C  632   2.616   3.048   4.864
    1C        C  633   2.565   3.111   4.982
    1C        C  634   2.782   4.303   2.055
    1C        C  635   2.895   4.385   2.047
    1C        C  636   2.748   4.230   2.170
    1C        C  637   2.810   4.276   2.288
    1C        C  638   2.674   4.111   2.411
    1C        C  639   2.766   4.219   2.410
    1C        C  640   2.640   4.049   2.533
    1C        C  641   2.683   4.111   2.653
    1C        C  642   2.589   3.921   2.777
    1C        C  643   2.648   4.050   2.775
    1C        C  644   2.566   3.857   2.900
    1C        C  645   2.591   3.925   3.022
    1C        C  646   2.533   3.722   3.146
    1C        C  647   2.567   3.859   3.144
    1C        C  648   2.524   3.655   3.270
    1C        C  649   2.531   3.725   3.393
    1C        C  650   2.509   3.517   3.516
    1C        C  651   2.517   3.658   3.516
    1C        C  652   2.516   3.451   3.641
    1C        C  653   2.514   3.522   3.763
    1C        C  654   2.536   3.313   3.886
    1C        C  655   2.511   3.452   3.886
    1C        C  656   2.557   3.249   4.010
    1C        C  657   2.537   3.315   4.133
    1C        C  658   2.600   3.116   4.256
    1C        C  659   2.552   3.249   4.258
    1C        C  660   2.630   3.052   4.379
    1C        C  661   2.602   3.119   4.500
    1C        C  662   2.711   2.939   4.624
    1C        C  663   2.629   3.054   4.623
    1C        C  664   2.753   2.878   4.745
    1C        C  665   2.701   2.933   4.865
    1C        C  666   2.742   2.869   4.983
    1C        C  667   2.682   4.024   2.055
    1C        C  668   2.680   4.107   2.168
    1C        C  669   2.587   3.916   2.292
    1C        C  670   2.638   4.048   2.290
    1C        C  671   2.557   3.849   2.413
    1C        C  672   2.584   3.919   2.532
    1C        C  673   2.516   3.721   2.659
    1C        C  674   2.558   3.855   2.656
    1C        C  675   2.511   3.648   2.780
    1C        C  676   2.529   3.721   2.900
    1C        C  677   2.514   3.511   3.027
    1C        C  678   2.523   3.652   3.023
    1C        C  679   2.514   3.442   3.150
    1C        C  680   2.512   3.514   3.272
    1C        C  681   2.535   3.306   3.398
    1C        C  682   2.512   3.445   3.395
    1C        C  683   2.555   3.240   3.522
    1C        C  684   2.540   3.311   3.643
    1C        C  685   2.599   3.108   3.770
    1C        C  686   2.552   3.242   3.765
    1C        C  687   2.632   3.047   3.893
    1C        C  688   2.603   3.115   4.013
    1C        C  689   2.710   2.934   4.138
    1C        C  690   2.630   3.050   4.135
    1C        C  691   2.758   2.883   4.261
    1C        C  692   2.708   2.934   4.383
    1C        C  693   2.754   2.878   4.504
    1C        C  694   2.632   3.893   2.057
    1C        C  695   2.525   3.707   2.177
    1C        C  696   2.584   3.836   2.175
    1C        C  697   2.506   3.637   2.298
    1C        C  698   2.520   3.713   2.417
    1C        C  699   2.489   3.505   2.540
    1C        C  700   2.504   3.645   2.540
    1C        C  701   2.498   3.434   2.662
    1C        C  702   2.503   3.507   2.783
    1C        C  703   2.524   3.297   2.910
    1C        C  704   2.511   3.437   2.906
    1C        C  705   2.543   3.230   3.032
    1C        C  706   2.533   3.302   3.153
    1C        C  707   2.591   3.101   3.277
    1C        C  708   2.545   3.235   3.277
    1C        C  709   2.624   3.041   3.401
    1C        C  710   2.599   3.106   3.524
    1C        C  711   2.704   2.925   3.649
    1C        C  712   2.629   3.045   3.648
    1C        C  713   2.749   2.871   3.771
    1C        C  714   2.709   2.928   3.894
    1C        C  715   2.752   2.874   4.017
    1C        C  716   2.447   3.502   2.067
    1C        C  717   2.488   3.635   2.063
    1C        C  718   2.473   3.420   2.182
    1C        C  719   2.484   3.497   2.301
    1C        C  720   2.508   3.288   2.424
    1C        C  721   2.482   3.426   2.423
    1C        C  722   2.534   3.221   2.545
    1C        C  723   2.522   3.295   2.665
    1C        C  724   2.585   3.094   2.790
    1C        C  725   2.537   3.227   2.788
    1C        C  726   2.618   3.030   2.911
    1C        C  727   2.595   3.098   3.033
    1C        C  728   2.699   2.917   3.156
    1C        C  729   2.622   3.035   3.156
    1C        C  730   2.748   2.870   3.280
    1C        C  731   2.704   2.924   3.403
    1C        C  732   2.746   2.869   3.526
    1C        C  733   2.492   3.196   2.067
    1C        C  734   2.489   3.278   2.181
    1C        C  735   2.579   3.084   2.306
    1C        C  736   2.520   3.213   2.304
    1C        C  737   2.605   3.016   2.427
    1C        C  738   2.576   3.085   2.547
    1C        C  739   2.695   2.909   2.669
    1C        C  740   2.617   3.028   2.669
    1C        C  741   2.738   2.853   2.791
    1C        C  742   2.696   2.912   2.912
    1C        C  743   2.742   2.858   3.035
    1C        C  744   2.548   3.069   2.074
    1C        C  745   2.686   2.895   2.186
    1C        C  746   2.614   3.017   2.187
    1C        C  747   2.731   2.840   2.308
    1C        C  748   2.684   2.899   2.427
    1C        C  749   2.731   2.845   2.549
    1C        C  750   2.743   2.847   2.067
    1C        C  751   3.650   2.293   1.999
    1C        O  752   3.667   2.179   2.050
    1C        O  753   3.646   2.293   1.859
    1C        C  754   4.645   3.052   1.997
    1C        O  755   4.636   3.011   1.878
    1C        O  756   4.766   3.028   2.064
    1C        C  757   4.413   4.212   1.939
    1C        O  758   4.525   4.271   1.932
    1C        O  759   4.378   4.190   1.805
    1C        C  760   3.577   4.665   1.949
    1C        O  761   3.543   4.779   1.991
    1C        O  762   3.550   4.638   1.814
    1C        C  763   2.882   4.497   1.951
    1C        O  764   2.953   4.493   1.846
    1C        O  765   2.802   4.610   1.964
    1C        C  766   2.324   3.486   1.986
    1C        O  767   2.341   3.432   1.873
    1C        O  768   2.195   3.461   2.033
    1C        C  769   4.706   3.609   5.044
    1C        O  770   4.700   3.549   5.154
    1C        O  771   4.835   3.620   4.993
    1C        C  772   4.283   4.454   5.021
    1C        O  773   4.305   4.421   5.141
    1C        O  774   4.366   4.562   4.987
    1C        C  775   4.134   2.522   5.081
    1C        O  776   4.202   2.422   5.046
    1C        O  777   4.095   2.514   5.215
    1C        C  778   2.872   4.555   5.033
    1C        O  779   2.837   4.661   4.973
    1C        O  780   2.826   4.557   5.165
    1C        C  781   2.468   3.043   5.070
    1C        O  782   2.381   2.967   5.019
    1C        O  783   2.502   2.992   5.195
    1C        C  784   2.431   3.982   5.069
    1C        O  785   2.310   4.016   5.058
    1C        O  786   2.463   3.924   5.191
    1C        C  787   2.949   2.411   2.022
    1C        O  788   2.941   2.411   1.896
    1C        O  789   2.911   2.301   2.098
    1C        C  790   3.182   2.364   5.055
    1C        O  791   3.105   2.270   5.021
    1C        O  792   3.219   2.354   5.190
    1C        H  793   4.304   3.010   5.068
    1C        H  794   4.152   2.827   5.065
    1C        H  795   4.529   3.121   5.040
    1C        H  796   4.533   3.365   5.067
    1C        H  797   4.556   3.806   5.049
    1C        H  798   4.456   4.008   5.047
    1C        H  799   4.275   4.163   5.051
    1C        H  800   4.047   4.561   5.010
    1C        H  801   3.797   4.517   5.035
    1C        H  802   3.579   4.624   5.040
    1C        H  803   3.398   4.461   5.031
    1C        H  804   3.152   4.509   5.051
    1C        H  805   3.883   2.479   5.058
    1C        H  806   3.676   2.498   5.070
    1C        H  807   2.989   2.528   5.040
    1C        H  808   3.444   2.470   5.079
    1C        H  809   2.859   2.728   5.081
    1C        H  810   2.709   2.904   5.079
    1C        H  811   2.506   3.292   5.069
    1C        H  812   2.517   3.499   5.071
    1C        H  813   2.553   3.737   5.062
    1C        H  814   2.582   4.189   5.037
    1C        H  815   2.781   4.296   5.058
    1C        H  816   2.740   2.897   1.973
    1C        H  817   2.857   2.696   1.977
    1C        H  818   3.220   2.428   1.992
    1C        H  819   3.452   2.496   1.986
    1C        H  820   3.863   2.499   1.975
    1C        H  821   4.045   2.660   1.971
    1C        H  822   4.262   2.715   1.977
    1C        H  823   4.434   2.874   1.986
    1C        H  824   4.625   3.298   1.989
    1C        H  825   4.538   3.520   1.956
    1C        H  826   4.530   3.754   1.963
    1C        H  827   3.803   4.519   1.952
    1C        H  828   3.965   4.386   1.943
    1C        H  829   4.188   4.309   1.959
    1C        H  830   4.485   3.956   1.959
    1C        H  831   2.676   3.821   1.990
    1C        H  832   2.674   4.069   1.959
    1C        H  833   2.725   4.293   1.965
    1C        H  834   3.361   4.515   1.946
    1C        H  835   3.148   4.437   1.947
    1C        H  836   2.555   3.019   1.980
    1C        H  837   2.408   3.207   2.002
    1C        H  838   2.490   3.689   1.970
    2V3OU   H29  839   2.801   3.548   1.977
    2V3OU   C27  840   2.782   3.501   2.077
    2V3OU   H27  841   2.735   3.570   2.152
    2V3OU   H28  842   2.727   3.406   2.056
    2V3OU   O11  843   2.908   3.469   2.137
    2V3OU   C15  844   2.922   3.393   2.252
    2V3OU   C13  845   3.052   3.371   2.301
    2V3OU   C14  846   3.076   3.270   2.395
    2V3OU   C16  847   2.975   3.192   2.451
    2V3OU    H6  848   2.999   3.102   2.509
    2V3OU   C12  849   3.212   3.228   2.436
    2V3OU    O2  850   3.234   3.127   2.506
    2V3OU   C10  851   3.328   3.306   2.391
    2V3OU    C8  852   3.460   3.266   2.415
    2V3OU   O10  853   3.487   3.145   2.470
    2V3OU   H26  854   3.403   3.123   2.512
    2V3OU    C6  855   3.569   3.349   2.373
    2V3OU    C5  856   3.539   3.467   2.307
    2V3OU    C4  857   3.708   3.296   2.386
    2V3OU    H4  858   3.729   3.230   2.475
    2V3OU    H5  859   3.710   3.229   2.294
    2V3OU    C2  860   3.818   3.402   2.382
    2V3OU    O6  861   3.805   3.471   2.506
    2V3OU   H21  862   3.764   3.555   2.479
    2V3OU    C3  863   3.782   3.499   2.269
    2V3OU    H2  864   3.856   3.583   2.266
    2V3OU    H3  865   3.785   3.442   2.173
    2V3OU   C25  866   3.951   3.328   2.366
    2V3OU    O7  867   4.004   3.292   2.261
    2V3OU   C26  868   4.028   3.292   2.492
    2V3OU   H22  869   4.071   3.384   2.539
    2V3OU   H23  870   4.118   3.230   2.465
    2V3OU    O8  871   3.956   3.218   2.588
    2V3OU   H24  872   3.920   3.265   2.665
    2V3OU    C1  873   3.647   3.568   2.284
    2V3OU    H1  874   3.627   3.624   2.188
    2V3OU    O3  875   3.655   3.652   2.399
    2V3OU   C19  876   3.619   3.791   2.390
    2V3OU    H9  877   3.522   3.807   2.335
    2V3OU    O4  878   3.716   3.848   2.304
    2V3OU   C20  879   3.845   3.877   2.358
    2V3OU   H10  880   3.893   3.775   2.366
    2V3OU   C24  881   3.614   3.851   2.530
    2V3OU   H16  882   3.541   3.789   2.588
    2V3OU   H17  883   3.565   3.950   2.511
    2V3OU   C23  884   3.752   3.877   2.592
    2V3OU   H15  885   3.799   3.775   2.612
    2V3OU    N1  886   3.738   3.954   2.714
    2V3OU   H19  887   3.806   3.926   2.781
    2V3OU   H20  888   3.659   3.930   2.770
    2V3OU   C21  889   3.847   3.950   2.493
    2V3OU   H11  890   3.951   3.930   2.532
    2V3OU    O5  891   3.823   4.090   2.486
    2V3OU   H18  892   3.777   4.107   2.570
    2V3OU   C22  893   3.915   3.950   2.245
    2V3OU   H12  894   3.863   4.048   2.228
    2V3OU   H13  895   3.907   3.888   2.152
    2V3OU   H14  896   4.023   3.965   2.270
    2V3OU   C11  897   3.159   3.471   2.295
    2V3OU    O1  898   3.144   3.581   2.237
    2V3OU    C9  899   3.298   3.427   2.324
    2V3OU    C7  900   3.404   3.504   2.277
    2V3OU    O9  901   3.388   3.621   2.206
    2V3OU   H25  902   3.292   3.632   2.208
    2V3OU   C17  903   2.822   3.316   2.315
    2V3OU    H7  904   2.719   3.348   2.295
    2V3OU   C18  905   2.845   3.214   2.406
    2V3OU    H8  906   2.772   3.161   2.468
    3SOL     OW  907   2.773   4.929   0.988
    3SOL    HW1  908   2.787   4.834   0.960
    3SOL    HW2  909   2.798   4.940   1.084
    4SOL     OW  910   6.447   5.966   1.613
    4SOL    HW1  911   6.448   6.007   1.705
    4SOL    HW2  912   6.363   5.993   1.566
    5SOL     OW  913   4.871   1.529   2.586
    5SOL    HW1  914   4.779   1.529   2.547
    5SOL    HW2  915   4.931   1.473   2.529
    6SOL     OW  916   3.795   1.095   1.097
    6SOL    HW1  917   3.756   1.183   1.124
    6SOL    HW2  918   3.890   1.108   1.067
    7SOL     OW  919   6.920   4.223   2.361
    7SOL    HW1  920   6.963   4.185   2.443
    7SOL    HW2  921   6.829   4.183   2.349
    8SOL     OW  922   2.847   0.530   6.795
    8SOL    HW1  923   2.911   0.599   6.762
    8SOL    HW2  924   2.897   0.449   6.826
    9SOL     OW  925   6.818   6.767   6.565
    9SOL    HW1  926   6.863   6.835   6.622
    9SOL    HW2  927   6.887   6.719   6.510
   10SOL     OW  928   1.484   4.928   6.527
   10SOL    HW1  929   1.429   4.930   6.611
   10SOL    HW2  930   1.480   4.836   6.487
   11SOL     OW  931   2.453   0.324   6.528
   11SOL    HW1  932   2.386   0.270   6.580
   11SOL    HW2  933   2.414   0.349   6.440
   12SOL     OW  934   4.093   6.877   3.771
   12SOL    HW1  935   4.140   6.847   3.688
   12SOL    HW2  936   4.162   6.901   3.841
   13SOL     OW  937   4.100   5.878   3.635
   13SOL    HW1  938   4.100   5.978   3.630
   13SOL    HW2  939   4.006   5.845   3.642
   14SOL     OW  940   4.451   5.291   5.684
   14SOL    HW1  941   4.360   5.330   5.669
   14SOL    HW2  942   4.478   5.238   5.603
   15SOL     OW  943   1.309   6.251   1.281
   15SOL    HW1  944   1.315   6.226   1.377
   15SOL    HW2  945   1.401   6.263   1.244
   16SOL     OW  946   5.177   3.135   5.368
   16SOL    HW1  947   5.228   3.150   5.453
   16SOL    HW2  948   5.079   3.143   5.386
   17SOL     OW  949   4.897   6.073   5.584
   17SOL    HW1  950   4.869   6.161   5.544
   17SOL    HW2  951   4.898   6.003   5.512
   18SOL     OW  952   3.356   1.043   5.844
   18SOL    HW1  953   3.384   0.949   5.825
   18SOL    HW2  954   3.259   1.044   5.869
   19SOL     OW  955   0.122   0.199   3.265
   19SOL    HW1  956   0.113   0.237   3.357
   19SOL    HW2  957   0.210   0.151   3.258
   20SOL     OW  958   5.807   2.686   4.462
   20SOL    HW1  959   5.861   2.680   4.546
   20SOL    HW2  960   5.726   2.743   4.479
   21SOL     OW  961   3.272   2.066   2.552
   21SOL    HW1  962   3.343   2.114   2.604
   21SOL    HW2  963   3.242   1.986   2.603
   22SOL     OW  964   2.383   6.637   0.357
   22SOL    HW1  965   2.454   6.706   0.367
   22SOL    HW2  966   2.301   6.665   0.409
   23SOL     OW  967   5.170   6.244   2.992
   23SOL    HW1  968   5.100   6.273   3.058
   23SOL    HW2  969   5.249   6.208   3.041
   24SOL     OW  970   4.990   1.667   2.936
   24SOL    HW1  971   5.035   1.750   2.966
   24SOL    HW2  972   4.894   1.686   2.914
   25SOL     OW  973   3.188   0.098   5.165
   25SOL    HW1  974   3.230   0.121   5.077
   25SOL    HW2  975   3.093   0.070   5.150
   26SOL     OW  976   6.574   0.935   0.604
   26SOL    HW1  977   6.669   0.960   0.627
   26SOL    HW2  978   6.565   0.927   0.505
   27SOL     OW  979   1.349   1.876   2.456
   27SOL    HW1  980   1.353   1.808   2.383
   27SOL    HW2  981   1.269   1.859   2.514
   28SOL     OW  982   3.708   1.871   6.407
   28SOL    HW1  983   3.740   1.784   6.444
   28SOL    HW2  984   3.630   1.855   6.347
   29SOL     OW  985   4.629   2.636   2.149
   29SOL    HW1  986   4.547   2.683   2.180
   29SOL    HW2  987   4.603   2.557   2.093
   30SOL     OW  988   3.618   1.352   4.100
   30SOL    HW1  989   3.557   1.273   4.108
   30SOL    HW2  990   3.707   1.330   4.141
   31SOL     OW  991   1.152   2.865   6.501
   31SOL    HW1  992   1.178   2.769   6.500
   31SOL    HW2  993   1.121   2.891   6.592
   32SOL     OW  994   0.170   1.428   2.880
   32SOL    HW1  995   0.114   1.424   2.797
   32SOL    HW2  996   0.125   1.376   2.953
   33SOL     OW  997   2.052   4.166   6.722
   33SOL    HW1  998   2.110   4.105   6.669
   33SOL    HW2  999   2.069   4.261   6.696
   34SOL     OW 1000   2.362   1.337   4.233
   34SOL    HW1 1001   2.426   1.306   4.163
   34SOL    HW2 1002   2.406   1.332   4.322
   35SOL     OW 1003   3.267   3.728   6.450
   35SOL    HW1 1004   3.362   3.708   6.428
   35SOL    HW2 1005   3.246   3.823   6.426
   36SOL     OW 1006   6.314   0.883   5.390
   36SOL    HW1 1007   6.315   0.892   5.291
   36SOL    HW2 1008   6.361   0.960   5.432
   37SOL     OW 1009   1.092   0.987   0.417
   37SOL    HW1 1010   1.095   0.987   0.317
   37SOL    HW2 1011   1.165   0.928   0.452
   38SOL     OW 1012   6.976   4.881   2.987
   38SOL    HW1 1013   6.906   4.848   2.924
   38SOL    HW2 1014   0.017   4.939   2.939
   39SOL     OW 1015   6.760   5.107   6.663
   39SOL    HW1 1016   6.823   5.166   6.713
   39SOL    HW2 1017   6.810   5.030   6.623
   40SOL     OW 1018   5.180   1.936   1.240
   40SOL    HW1 1019   5.182   1.945   1.340
   40SOL    HW2 1020   5.122   2.008   1.201
   41SOL     OW 1021   6.848   5.880   4.147
   41SOL    HW1 1022   6.923   5.907   4.087
   41SOL    HW2 1023   6.876   5.893   4.242
   42SOL     OW 1024   2.733   5.405   5.295
   42SOL    HW1 1025   2.642   5.401   5.253
   42SOL    HW2 1026   2.774   5.314   5.292
   43SOL     OW 1027   5.916   6.283   5.678
   43SOL    HW1 1028   5.917   6.191   5.640
   43SOL    HW2 1029   5.875   6.281   5.769
   44SOL     OW 1030   5.243   1.434   0.101
   44SOL    HW1 1031   5.240   1.525   0.058
   44SOL    HW2 1032   5.230   1.364   0.030
   45SOL     OW 1033   4.112   6.969   2.722
   45SOL    HW1 1034   4.202   7.011   2.731
   45SOL    HW2 1035   4.093   6.912   2.802
   46SOL     OW 1036   0.596   2.923   3.114
   46SOL    HW1 1037   0.597   2.884   3.022
   46SOL    HW2 1038   0.577   3.021   3.108
   47SOL     OW 1039   4.771   4.313   1.119
   47SOL    HW1 1040   4.797   4.317   1.215
   47SOL    HW2 1041   4.841   4.264   1.067
   48SOL     OW 1042   6.929   2.503   5.836
   48SOL    HW1 1043   6.951   2.406   5.840
   48SOL    HW2 1044   7.010   2.555   5.809
   49SOL     OW 1045   5.126   3.687   1.745
   49SOL    HW1 1046   5.166   3.772   1.781
   49SOL    HW2 1047   5.035   3.674   1.784
   50SOL     OW 1048   5.956   1.253   4.997
   50SOL    HW1 1049   5.974   1.265   4.899
   50SOL    HW2 1050   6.042   1.256   5.047
   51SOL     OW 1051   3.143   6.345   3.498
   51SOL    HW1 1052   3.201   6.393   3.563
   51SOL    HW2 1053   3.060   6.399   3.481
   52SOL     OW 1054   5.196   2.505   3.149
   52SOL    HW1 1055   5.154   2.540   3.233
   52SOL    HW2 1056   5.280   2.457   3.170
   53SOL     OW 1057   3.386   6.885   4.663
   53SOL    HW1 1058   3.359   6.932   4.579
   53SOL    HW2 1059   3.433   6.800   4.640
   54SOL     OW 1060   3.693   5.164   0.811
   54SOL    HW1 1061   3.682   5.066   0.794
   54SOL    HW2 1062   3.670   5.184   0.906
   55SOL     OW 1063   2.960   1.859   6.717
   55SOL    HW1 1064   2.955   1.923   6.640
   55SOL    HW2 1065   2.875   1.862   6.768
   56SOL     OW 1066   6.907   0.629   1.455
   56SOL    HW1 1067   6.837   0.561   1.431
   56SOL    HW2 1068   6.979   0.628   1.386
   57SOL     OW 1069   5.434   1.103   1.124
   57SOL    HW1 1070   5.346   1.079   1.165
   57SOL    HW2 1071   5.436   1.202   1.105
   58SOL     OW 1072   6.205   6.771   5.677
   58SOL    HW1 1073   6.175   6.843   5.614
   58SOL    HW2 1074   6.199   6.682   5.631
   59SOL     OW 1075   0.933   1.637   5.187
   59SOL    HW1 1076   0.958   1.551   5.142
   59SOL    HW2 1077   1.003   1.660   5.255
   60SOL     OW 1078   5.415   1.869   5.292
   60SOL    HW1 1079   5.399   1.834   5.385
   60SOL    HW2 1080   5.344   1.935   5.269
   61SOL     OW 1081   5.106   2.606   4.929
   61SOL    HW1 1082   5.117   2.521   4.981
   61SOL    HW2 1083   5.063   2.675   4.988
   62SOL     OW 1084   0.589   0.918   2.244
   62SOL    HW1 1085   0.510   0.965   2.205
   62SOL    HW2 1086   0.565   0.881   2.334
   63SOL     OW 1087   5.076   1.275   3.919
   63SOL    HW1 1088   5.031   1.186   3.930
   63SOL    HW2 1089   5.057   1.311   3.828
   64SOL     OW 1090   6.989   3.562   5.906
   64SOL    HW1 1091   0.051   3.571   5.854
   64SOL    HW2 1092   6.980   3.468   5.941
   65SOL     OW 1093   0.109   5.266   6.388
   65SOL    HW1 1094   0.166   5.194   6.426
   65SOL    HW2 1095   0.017   5.231   6.371
   66SOL     OW 1096   3.778   0.759   5.600
   66SOL    HW1 1097   3.874   0.729   5.598
   66SOL    HW2 1098   3.734   0.727   5.684
   67SOL     OW 1099   5.277   4.409   6.004
   67SOL    HW1 1100   5.216   4.335   5.976
   67SOL    HW2 1101   5.331   4.379   6.083
   68SOL     OW 1102   5.859   0.901   6.887
   68SOL    HW1 1103   5.870   0.968   6.960
   68SOL    HW2 1104   5.929   0.917   6.817
   69SOL     OW 1105   0.422   3.265   5.640
   69SOL    HW1 1106   0.514   3.300   5.622
   69SOL    HW2 1107   0.428   3.173   5.679
   70SOL     OW 1108   5.430   3.778   4.529
   70SOL    HW1 1109   5.430   3.864   4.579
   70SOL    HW2 1110   5.493   3.784   4.451
   71SOL     OW 1111   3.869   1.862   2.879
   71SOL    HW1 1112   3.818   1.837   2.797
   71SOL    HW2 1113   3.943   1.924   2.855
   72SOL     OW 1114   1.772   6.140   4.799
   72SOL    HW1 1115   1.826   6.149   4.716
   72SOL    HW2 1116   1.805   6.062   4.852
   73SOL     OW 1117   3.160   1.145   0.807
   73SOL    HW1 1118   3.068   1.183   0.800
   73SOL    HW2 1119   3.198   1.132   0.716
   74SOL     OW 1120   5.019   6.790   6.962
   74SOL    HW1 1121   4.939   6.830   6.917
   74SOL    HW2 1122   5.010   6.690   6.962
   75SOL     OW 1123   3.941   0.240   0.912
   75SOL    HW1 1124   3.936   0.304   0.989
   75SOL    HW2 1125   3.874   0.267   0.842
   76SOL     OW 1126   2.959   3.296   0.634
   76SOL    HW1 1127   2.861   3.300   0.612
   76SOL    HW2 1128   2.999   3.387   0.624
   77SOL     OW 1129   6.630   6.523   3.565
   77SOL    HW1 1130   6.645   6.486   3.656
   77SOL    HW2 1131   6.707   6.500   3.506
   78SOL     OW 1132   5.508   1.181   0.444
   78SOL    HW1 1133   5.421   1.209   0.404
   78SOL    HW2 1134   5.583   1.213   0.387
   79SOL     OW 1135   3.202   6.177   0.539
   79SOL    HW1 1136   3.156   6.090   0.559
   79SOL    HW2 1137   3.293   6.159   0.503
   80SOL     OW 1138   5.555   1.661   4.072
   80SOL    HW1 1139   5.571   1.746   4.022
   80SOL    HW2 1140   5.468   1.622   4.044
   81SOL     OW 1141   2.012   6.633   2.857
   81SOL    HW1 1142   1.962   6.622   2.943
   81SOL    HW2 1143   1.949   6.631   2.780
   82SOL     OW 1144   6.393   4.856   1.260
   82SOL    HW1 1145   6.364   4.826   1.351
   82SOL    HW2 1146   6.376   4.783   1.194
   83SOL     OW 1147   0.218   1.037   0.016
   83SOL    HW1 1148   0.303   1.076   7.004
   83SOL    HW2 1149   0.222   0.937   0.009
   84SOL     OW 1150   5.670   2.721   3.387
   84SOL    HW1 1151   5.645   2.816   3.368
   84SOL    HW2 1152   5.596   2.676   3.436
   85SOL     OW 1153   1.669   1.742   4.081
   85SOL    HW1 1154   1.616   1.821   4.113
   85SOL    HW2 1155   1.625   1.703   4.000
   86SOL     OW 1156   6.549   0.510   5.080
   86SOL    HW1 1157   6.533   0.460   5.165
   86SOL    HW2 1158   6.505   0.600   5.085
   87SOL     OW 1159   4.617   3.239   0.652
   87SOL    HW1 1160   4.672   3.210   0.573
   87SOL    HW2 1161   4.567   3.160   0.688
   88SOL     OW 1162   3.610   1.891   5.559
   88SOL    HW1 1163   3.684   1.906   5.493
   88SOL    HW2 1164   3.588   1.978   5.604
   89SOL     OW 1165   1.357   2.407   6.127
   89SOL    HW1 1166   1.331   2.341   6.198
   89SOL    HW2 1167   1.352   2.364   6.037
   90SOL     OW 1168   3.582   5.526   2.175
   90SOL    HW1 1169   3.562   5.543   2.079
   90SOL    HW2 1170   3.579   5.428   2.193
   91SOL     OW 1171   5.171   4.349   4.811
   91SOL    HW1 1172   5.179   4.446   4.832
   91SOL    HW2 1173   5.092   4.334   4.751
   92SOL     OW 1174   4.350   4.629   0.258
   92SOL    HW1 1175   4.369   4.716   0.303
   92SOL    HW2 1176   4.435   4.580   0.241
   93SOL     OW 1177   3.140   4.277   6.580
   93SOL    HW1 1178   3.077   4.203   6.555
   93SOL    HW2 1179   3.229   4.238   6.603
   94SOL     OW 1180   1.943   5.745   6.482
   94SOL    HW1 1181   1.936   5.838   6.447
   94SOL    HW2 1182   1.904   5.741   6.574
   95SOL     OW 1183   1.494   0.539   3.554
   95SOL    HW1 1184   1.528   0.455   3.597
   95SOL    HW2 1185   1.545   0.618   3.589
   96SOL     OW 1186   3.437   0.114   4.951
   96SOL    HW1 1187   3.530   0.085   4.972
   96SOL    HW2 1188   3.437   0.212   4.931
   97SOL     OW 1189   2.352   2.894   5.705
   97SOL    HW1 1190   2.331   2.906   5.803
   97SOL    HW2 1191   2.402   2.974   5.672
   98SOL     OW 1192   6.967   3.615   1.057
   98SOL    HW1 1193   6.942   3.682   1.126
   98SOL    HW2 1194   0.034   3.576   1.079
   99SOL     OW 1195   3.554   3.129   0.905
   99SOL    HW1 1196   3.482   3.066   0.935
   99SOL    HW2 1197   3.542   3.147   0.807
  100SOL     OW 1198   6.893   6.820   5.142
  100SOL    HW1 1199   6.808   6.842   5.190
  100SOL    HW2 1200   6.960   6.891   5.158
  101SOL     OW 1201   1.474   5.051   2.557
  101SOL    HW1 1202   1.465   4.958   2.520
  101SOL    HW2 1203   1.504   5.113   2.485
  102SOL     OW 1204   4.147   5.811   2.545
  102SOL    HW1 1205   4.169   5.857   2.459
  102SOL    HW2 1206   4.069   5.750   2.531
  103SOL     OW 1207   2.300   1.253   1.671
  103SOL    HW1 1208   2.294   1.221   1.766
  103SOL    HW2 1209   2.268   1.347   1.665
  104SOL     OW 1210   1.059   5.826   2.417
  104SOL    HW1 1211   1.084   5.827   2.320
  104SOL    HW2 1212   1.138   5.856   2.472
  105SOL     OW 1213   6.421   2.621   6.805
  105SOL    HW1 1214   6.432   2.548   6.738
  105SOL    HW2 1215   6.445   2.709   6.763
  106SOL     OW 1216   3.427   6.411   4.652
  106SOL    HW1 1217   3.353   6.411   4.720
  106SOL    HW2 1218   3.513   6.388   4.697
  107SOL     OW 1219   2.102   1.231   1.296
  107SOL    HW1 1220   2.201   1.226   1.286
  107SOL    HW2 1221   2.068   1.315   1.253
  108SOL     OW 1222   2.767   5.421   5.554
  108SOL    HW1 1223   2.860   5.442   5.585
  108SOL    HW2 1224   2.767   5.409   5.455
  109SOL     OW 1225   0.155   0.232   1.328
  109SOL    HW1 1226   0.223   0.190   1.268
  109SOL    HW2 1227   0.142   0.328   1.300
  110SOL     OW 1228   3.359   5.877   4.730
  110SOL    HW1 1229   3.356   5.848   4.825
  110SOL    HW2 1230   3.388   5.801   4.672
  111SOL     OW 1231   2.450   1.347   4.503
  111SOL    HW1 1232   2.459   1.292   4.586
  111SOL    HW2 1233   2.437   1.443   4.528
  112SOL     OW 1234   3.697   6.829   6.379
  112SOL    HW1 1235   3.714   6.790   6.469
  112SOL    HW2 1236   3.639   6.766   6.326
  113SOL     OW 1237   6.876   5.851   3.157
  113SOL    HW1 1238   6.843   5.839   3.064
  113SOL    HW2 1239   6.951   5.787   3.175
  114SOL     OW 1240   0.478   0.009   1.583
  114SOL    HW1 1241   0.432   7.010   1.497
  114SOL    HW2 1242   0.418   0.065   1.639
  115SOL     OW 1243   4.438   1.517   3.200
  115SOL    HW1 1244   4.511   1.581   3.221
  115SOL    HW2 1245   4.419   1.518   3.102
  116SOL     OW 1246   5.961   5.245   1.290
  116SOL    HW1 1247   6.055   5.275   1.305
  116SOL    HW2 1248   5.920   5.300   1.217
  117SOL     OW 1249   1.521   2.335   0.473
  117SOL    HW1 1250   1.557   2.427   0.455
  117SOL    HW2 1251   1.428   2.342   0.508
  118SOL     OW 1252   1.417   0.984   3.358
  118SOL    HW1 1253   1.354   0.933   3.299
  118SOL    HW2 1254   1.411   0.947   3.451
  119SOL     OW 1255   0.467   0.674   6.645
  119SOL    HW1 1256   0.505   0.617   6.718
  119SOL    HW2 1257   0.508   0.647   6.558
  120SOL     OW 1258   6.185   6.852   6.736
  120SOL    HW1 1259   6.151   6.815   6.822
  120SOL    HW2 1260   6.134   6.812   6.660
  121SOL     OW 1261   1.169   3.854   6.062
  121SOL    HW1 1262   1.183   3.785   6.133
  121SOL    HW2 1263   1.172   3.811   5.972
  122SOL     OW 1264   1.941   3.204   5.909
  122SOL    HW1 1265   1.961   3.301   5.895
  122SOL    HW2 1266   2.014   3.149   5.868
  123SOL     OW 1267   0.584   1.173   2.632
  123SOL    HW1 1268   0.595   1.110   2.556
  123SOL    HW2 1269   0.495   1.218   2.627
  124SOL     OW 1270   4.398   2.688   0.298
  124SOL    HW1 1271   4.314   2.657   0.342
  124SOL    HW2 1272   4.432   2.617   0.236
  125SOL     OW 1273   2.434   1.747   1.187
  125SOL    HW1 1274   2.464   1.842   1.184
  125SOL    HW2 1275   2.339   1.743   1.219
  126SOL     OW 1276   2.220   4.187   1.192
  126SOL    HW1 1277   2.129   4.191   1.149
  126SOL    HW2 1278   2.225   4.257   1.265
  127SOL     OW 1279   1.031   5.511   0.220
  127SOL    HW1 1280   1.073   5.527   0.309
  127SOL    HW2 1281   1.006   5.598   0.178
  128SOL     OW 1282   5.351   2.746   1.320
  128SOL    HW1 1283   5.309   2.657   1.303
  128SOL    HW2 1284   5.281   2.817   1.318
  129SOL     OW 1285   1.807   3.565   6.328
  129SOL    HW1 1286   1.833   3.552   6.232
  129SOL    HW2 1287   1.831   3.658   6.357
  130SOL     OW 1288   1.018   2.151   3.854
  130SOL    HW1 1289   1.105   2.151   3.804
  130SOL    HW2 1290   1.036   2.143   3.952
  131SOL     OW 1291   5.448   1.791   3.790
  131SOL    HW1 1292   5.473   1.839   3.874
  131SOL    HW2 1293   5.486   1.839   3.711
  132SOL     OW 1294   2.578   3.034   1.030
  132SOL    HW1 1295   2.621   3.119   1.000
  132SOL    HW2 1296   2.532   3.049   1.117
  133SOL     OW 1297   4.797   6.878   4.079
  133SOL    HW1 1298   4.836   6.791   4.111
  133SOL    HW2 1299   4.861   6.921   4.015
  134SOL     OW 1300   6.129   0.783   2.882
  134SOL    HW1 1301   6.180   0.712   2.930
  134SOL    HW2 1302   6.043   0.799   2.929
  135SOL     OW 1303   5.436   3.987   3.369
  135SOL    HW1 1304   5.525   3.989   3.416
  135SOL    HW2 1305   5.365   4.019   3.430
  136SOL     OW 1306   2.820   4.502   5.671
  136SOL    HW1 1307   2.825   4.443   5.590
  136SOL    HW2 1308   2.767   4.584   5.649
  137SOL     OW 1309   6.183   2.495   3.968
  137SOL    HW1 1310   6.189   2.397   3.987
  137SOL    HW2 1311   6.093   2.516   3.929
  138SOL     OW 1312   1.220   4.521   2.379
  138SOL    HW1 1313   1.211   4.620   2.375
  138SOL    HW2 1314   1.135   4.478   2.348
  139SOL     OW 1315   1.762   0.035   5.106
  139SOL    HW1 1316   1.676   0.001   5.069
  139SOL    HW2 1317   1.837   6.999   5.077
  140SOL     OW 1318   1.073   5.974   2.760
  140SOL    HW1 1319   1.107   6.002   2.850
  140SOL    HW2 1320   1.010   6.043   2.724
  141SOL     OW 1321   0.038   2.498   5.361
  141SOL    HW1 1322   6.991   2.559   5.397
  141SOL    HW2 1323   0.033   2.497   5.261
  142SOL     OW 1324   0.733   3.866   1.314
  142SOL    HW1 1325   0.827   3.890   1.337
  142SOL    HW2 1326   0.732   3.809   1.232
  143SOL     OW 1327   5.962   4.559   1.325
  143SOL    HW1 1328   6.001   4.486   1.269
  143SOL    HW2 1329   5.966   4.645   1.274
  144SOL     OW 1330   1.457   5.564   5.492
  144SOL    HW1 1331   1.437   5.566   5.394
  144SOL    HW2 1332   1.411   5.640   5.538
  145SOL     OW 1333   6.908   5.439   0.362
  145SOL    HW1 1334   6.911   5.521   0.303
  145SOL    HW2 1335   6.857   5.461   0.445
  146SOL     OW 1336   4.461   0.384   6.199
  146SOL    HW1 1337   4.468   0.292   6.161
  146SOL    HW2 1338   4.548   0.432   6.185
  147SOL     OW 1339   6.163   3.674   6.402
  147SOL    HW1 1340   6.103   3.648   6.478
  147SOL    HW2 1341   6.184   3.594   6.347
  148SOL     OW 1342   6.450   5.297   6.765
  148SOL    HW1 1343   6.483   5.254   6.681
  148SOL    HW2 1344   6.525   5.349   6.807
  149SOL     OW 1345   3.512   2.133   3.690
  149SOL    HW1 1346   3.428   2.132   3.636
  149SOL    HW2 1347   3.490   2.142   3.787
  150SOL     OW 1348   5.974   6.298   0.076
  150SOL    HW1 1349   6.045   6.252   0.130
  150SOL    HW2 1350   5.959   6.390   0.111
  151SOL     OW 1351   2.742   2.806   1.007
  151SOL    HW1 1352   2.750   2.796   0.908
  151SOL    HW2 1353   2.700   2.894   1.028
  152SOL     OW 1354   1.021   0.847   1.917
  152SOL    HW1 1355   0.924   0.826   1.915
  152SOL    HW2 1356   1.041   0.910   1.992
  153SOL     OW 1357   2.811   0.534   1.909
  153SOL    HW1 1358   2.816   0.616   1.966
  153SOL    HW2 1359   2.843   0.557   1.817
  154SOL     OW 1360   0.438   2.120   2.046
  154SOL    HW1 1361   0.397   2.029   2.041
  154SOL    HW2 1362   0.468   2.139   2.139
  155SOL     OW 1363   0.188   1.412   3.692
  155SOL    HW1 1364   0.178   1.446   3.598
  155SOL    HW2 1365   0.284   1.417   3.718
  156SOL     OW 1366   0.129   2.324   0.596
  156SOL    HW1 1367   0.153   2.246   0.654
  156SOL    HW2 1368   0.171   2.407   0.633
  157SOL     OW 1369   5.143   3.451   1.919
  157SOL    HW1 1370   5.053   3.409   1.907
  157SOL    HW2 1371   5.143   3.543   1.880
  158SOL     OW 1372   2.481   4.850   2.155
  158SOL    HW1 1373   2.499   4.935   2.104
  158SOL    HW2 1374   2.490   4.868   2.253
  159SOL     OW 1375   4.806   4.731   2.031
  159SOL    HW1 1376   4.859   4.679   2.098
  159SOL    HW2 1377   4.739   4.670   1.988
  160SOL     OW 1378   5.183   5.305   0.858
  160SOL    HW1 1379   5.279   5.282   0.870
  160SOL    HW2 1380   5.156   5.372   0.927
  161SOL     OW 1381   2.115   5.817   4.335
  161SOL    HW1 1382   2.138   5.898   4.389
  161SOL    HW2 1383   2.185   5.747   4.347
  162SOL     OW 1384   3.801   5.727   0.281
  162SOL    HW1 1385   3.719   5.725   0.223
  162SOL    HW2 1386   3.810   5.639   0.328
  163SOL     OW 1387   6.106   5.269   0.877
  163SOL    HW1 1388   6.011   5.298   0.883
  163SOL    HW2 1389   6.126   5.203   0.950
  164SOL     OW 1390   6.955   4.902   1.009
  164SOL    HW1 1391   0.027   4.879   1.027
  164SOL    HW2 1392   6.951   4.981   0.949
  165SOL     OW 1393   5.169   3.126   0.964
  165SOL    HW1 1394   5.240   3.197   0.958
  165SOL    HW2 1395   5.126   3.130   1.054
  166SOL     OW 1396   0.003   3.762   2.843
  166SOL    HW1 1397   0.043   3.680   2.886
  166SOL    HW2 1398   6.940   3.784   2.888
  167SOL     OW 1399   5.004   2.405   0.414
  167SOL    HW1 1400   4.943   2.451   0.349
  167SOL    HW2 1401   4.952   2.380   0.496
  168SOL     OW 1402   2.675   3.421   1.244
  168SOL    HW1 1403   2.613   3.498   1.228
  168SOL    HW2 1404   2.641   3.367   1.320
  169SOL     OW 1405   5.056   1.732   2.223
  169SOL    HW1 1406   5.017   1.758   2.312
  169SOL    HW2 1407   5.000   1.770   2.150
  170SOL     OW 1408   0.996   1.049   3.216
  170SOL    HW1 1409   1.060   1.075   3.288
  170SOL    HW2 1410   0.955   0.960   3.238
  171SOL     OW 1411   3.308   4.746   5.909
  171SOL    HW1 1412   3.259   4.659   5.918
  171SOL    HW2 1413   3.257   4.807   5.849
  172SOL     OW 1414   6.197   1.680   3.091
  172SOL    HW1 1415   6.276   1.622   3.069
  172SOL    HW2 1416   6.146   1.701   3.007
  173SOL     OW 1417   6.156   1.871   4.361
  173SOL    HW1 1418   6.174   1.815   4.442
  173SOL    HW2 1419   6.074   1.926   4.375
  174SOL     OW 1420   4.216   5.149   3.214
  174SOL    HW1 1421   4.227   5.234   3.162
  174SOL    HW2 1422   4.263   5.075   3.166
  175SOL     OW 1423   2.532   0.240   1.570
  175SOL    HW1 1424   2.477   0.173   1.620
  175SOL    HW2 1425   2.628   0.210   1.572
  176SOL     OW 1426   0.897   4.862   0.301
  176SOL    HW1 1427   0.933   4.825   0.387
  176SOL    HW2 1428   0.968   4.919   0.257
  177SOL     OW 1429   5.709   3.278   2.757
  177SOL    HW1 1430   5.801   3.307   2.732
  177SOL    HW2 1431   5.684   3.317   2.845
  178SOL     OW 1432   2.539   3.230   6.652
  178SOL    HW1 1433   2.461   3.190   6.699
  178SOL    HW2 1434   2.506   3.296   6.584
  179SOL     OW 1435   3.668   0.882   5.216
  179SOL    HW1 1436   3.668   0.807   5.283
  179SOL    HW2 1437   3.739   0.865   5.147
  180SOL     OW 1438   2.260   6.542   0.139
  180SOL    HW1 1439   2.262   6.442   0.152
  180SOL    HW2 1440   2.291   6.587   0.223
  181SOL     OW 1441   3.364   3.088   6.288
  181SOL    HW1 1442   3.400   2.995   6.287
  181SOL    HW2 1443   3.276   3.090   6.241
  182SOL     OW 1444   3.988   1.845   5.158
  182SOL    HW1 1445   3.888   1.840   5.167
  182SOL    HW2 1446   4.011   1.855   5.061
  183SOL     OW 1447   3.983   2.202   3.210
  183SOL    HW1 1448   4.041   2.193   3.292
  183SOL    HW2 1449   3.887   2.192   3.236
  184SOL     OW 1450   0.978   6.254   4.368
  184SOL    HW1 1451   0.939   6.293   4.285
  184SOL    HW2 1452   0.908   6.254   4.440
  185SOL     OW 1453   0.718   1.348   5.958
  185SOL    HW1 1454   0.779   1.427   5.948
  185SOL    HW2 1455   0.662   1.360   6.040
  186SOL     OW 1456   5.863   0.561   4.583
  186SOL    HW1 1457   5.811   0.520   4.658
  186SOL    HW2 1458   5.803   0.573   4.503
  187SOL     OW 1459   4.401   0.130   2.516
  187SOL    HW1 1460   4.482   0.179   2.548
  187SOL    HW2 1461   4.325   0.194   2.507
  188SOL     OW 1462   0.636   1.825   3.449
  188SOL    HW1 1463   0.729   1.823   3.412
  188SOL    HW2 1464   0.572   1.848   3.376
  189SOL     OW 1465   2.291   5.541   1.341
  189SOL    HW1 1466   2.301   5.634   1.377
  189SOL    HW2 1467   2.270   5.478   1.415
  190SOL     OW 1468   5.285   2.599   4.725
  190SOL    HW1 1469   5.269   2.507   4.689
  190SOL    HW2 1470   5.218   2.619   4.796
  191SOL     OW 1471   5.874   6.966   6.918
  191SOL    HW1 1472   5.841   6.975   6.824
  191SOL    HW2 1473   5.959   6.913   6.919
  192SOL     OW 1474   1.171   5.715   2.148
  192SOL    HW1 1475   1.234   5.665   2.089
  192SOL    HW2 1476   1.079   5.709   2.110
  193SOL     OW 1477   4.473   3.070   5.622
  193SOL    HW1 1478   4.415   2.989   5.612
  193SOL    HW2 1479   4.420   3.143   5.665
  194SOL     OW 1480   3.997   0.692   2.963
  194SOL    HW1 1481   4.048   0.682   3.048
  194SOL    HW2 1482   4.059   0.717   2.889
  195SOL     OW 1483   2.242   0.246   4.923
  195SOL    HW1 1484   2.327   0.275   4.967
  195SOL    HW2 1485   2.190   0.327   4.897
  196SOL     OW 1486   2.843   0.207   0.730
  196SOL    HW1 1487   2.799   0.178   0.815
  196SOL    HW2 1488   2.863   0.305   0.734
  197SOL     OW 1489   2.417   0.388   1.341
  197SOL    HW1 1490   2.412   0.359   1.245
  197SOL    HW2 1491   2.426   0.308   1.400
  198SOL     OW 1492   4.925   0.624   2.149
  198SOL    HW1 1493   4.999   0.596   2.089
  198SOL    HW2 1494   4.838   0.589   2.115
  199SOL     OW 1495   6.861   1.511   3.614
  199SOL    HW1 1496   6.816   1.439   3.666
  199SOL    HW2 1497   6.957   1.518   3.642
  200SOL     OW 1498   0.971   4.558   1.184
  200SOL    HW1 1499   1.061   4.514   1.191
  200SOL    HW2 1500   0.910   4.501   1.128
  201SOL     OW 1501   6.762   0.274   5.457
  201SOL    HW1 1502   6.789   0.334   5.532
  201SOL    HW2 1503   6.830   0.278   5.384
  202SOL     OW 1504   4.575   1.136   6.952
  202SOL    HW1 1505   4.549   1.195   6.875
  202SOL    HW2 1506   4.673   1.117   6.948
  203SOL     OW 1507   5.683   2.353   5.103
  203SOL    HW1 1508   5.613   2.323   5.039
  203SOL    HW2 1509   5.658   2.323   5.196
  204SOL     OW 1510   1.269   0.326   5.282
  204SOL    HW1 1511   1.220   0.289   5.203
  204SOL    HW2 1512   1.205   0.340   5.358
  205SOL     OW 1513   0.269   1.687   2.845
  205SOL    HW1 1514   0.229   1.596   2.852
  205SOL    HW2 1515   0.216   1.742   2.781
  206SOL     OW 1516   0.448   4.714   0.489
  206SOL    HW1 1517   0.403   4.755   0.568
  206SOL    HW2 1518   0.381   4.698   0.416
  207SOL     OW 1519   6.175   1.341   3.851
  207SOL    HW1 1520   6.231   1.346   3.934
  207SOL    HW2 1521   6.100   1.406   3.858
  208SOL     OW 1522   6.259   3.495   4.872
  208SOL    HW1 1523   6.233   3.565   4.939
  208SOL    HW2 1524   6.342   3.523   4.825
  209SOL     OW 1525   0.473   5.322   4.477
  209SOL    HW1 1526   0.405   5.283   4.415
  209SOL    HW2 1527   0.556   5.266   4.476
  210SOL     OW 1528   4.242   2.011   0.397
  210SOL    HW1 1529   4.208   2.045   0.484
  210SOL    HW2 1530   4.339   1.987   0.405
  211SOL     OW 1531   1.872   6.378   2.424
  211SOL    HW1 1532   1.775   6.354   2.432
  211SOL    HW2 1533   1.927   6.314   2.478
  212SOL     OW 1534   1.251   4.009   2.241
  212SOL    HW1 1535   1.271   3.959   2.157
  212SOL    HW2 1536   1.250   3.945   2.318
  213SOL     OW 1537   3.135   0.606   0.724
  213SOL    HW1 1538   3.227   0.566   0.714
  213SOL    HW2 1539   3.126   0.685   0.665
  214SOL     OW 1540   4.511   4.882   1.879
  214SOL    HW1 1541   4.542   4.788   1.863
  214SOL    HW2 1542   4.419   4.893   1.841
  215SOL     OW 1543   2.013   4.172   0.748
  215SOL    HW1 1544   2.111   4.192   0.750
  215SOL    HW2 1545   1.968   4.222   0.821
  216SOL     OW 1546   2.199   6.243   4.306
  216SOL    HW1 1547   2.216   6.319   4.369
  216SOL    HW2 1548   2.125   6.268   4.243
  217SOL     OW 1549   1.490   2.156   3.657
  217SOL    HW1 1550   1.516   2.243   3.615
  217SOL    HW2 1551   1.557   2.086   3.634
  218SOL     OW 1552   0.068   3.365   4.680
  218SOL    HW1 1553   0.133   3.438   4.701
  218SOL    HW2 1554   0.111   3.299   4.619
  219SOL     OW 1555   4.564   0.353   6.687
  219SOL    HW1 1556   4.469   0.373   6.664
  219SOL    HW2 1557   4.615   0.439   6.695
  220SOL     OW 1558   2.998   6.850   1.713
  220SOL    HW1 1559   2.912   6.814   1.678
  220SOL    HW2 1560   3.024   6.932   1.662
  221SOL     OW 1561   6.588   3.725   0.955
  221SOL    HW1 1562   6.602   3.702   1.051
  221SOL    HW2 1563   6.617   3.648   0.898
  222SOL     OW 1564   1.681   4.545   6.070
  222SOL    HW1 1565   1.661   4.629   6.018
  222SOL    HW2 1566   1.597   4.493   6.083
  223SOL     OW 1567   6.080   3.277   6.557
  223SOL    HW1 1568   6.174   3.284   6.526
  223SOL    HW2 1569   6.020   3.257   6.480
  224SOL     OW 1570   2.202   1.824   4.637
  224SOL    HW1 1571   2.297   1.844   4.612
  224SOL    HW2 1572   2.154   1.786   4.558
  225SOL     OW 1573   4.443   3.808   6.298
  225SOL    HW1 1574   4.401   3.834   6.385
  225SOL    HW2 1575   4.408   3.866   6.225
  226SOL     OW 1576   1.725   1.424   5.396
  226SOL    HW1 1577   1.634   1.403   5.360
  226SOL    HW2 1578   1.721   1.510   5.447
  227SOL     OW 1579   1.646   3.630   2.223
  227SOL    HW1 1580   1.640   3.562   2.150
  227SOL    HW2 1581   1.679   3.587   2.307
  228SOL     OW 1582   3.436   6.749   3.866
  228SOL    HW1 1583   3.470   6.655   3.872
  228SOL    HW2 1584   3.336   6.748   3.872
  229SOL     OW 1585   5.947   6.047   6.891
  229SOL    HW1 1586   5.934   6.110   6.968
  229SOL    HW2 1587   6.005   6.090   6.823
  230SOL     OW 1588   3.281   4.940   3.600
  230SOL    HW1 1589   3.354   4.967   3.662
  230SOL    HW2 1590   3.199   4.917   3.652
  231SOL     OW 1591   6.591   1.993   6.698
  231SOL    HW1 1592   6.644   2.075   6.675
  231SOL    HW2 1593   6.493   2.014   6.692
  232SOL     OW 1594   0.726   3.061   6.826
  232SOL    HW1 1595   0.735   3.036   6.923
  232SOL    HW2 1596   0.652   3.127   6.815
  233SOL     OW 1597   2.901   1.260   2.594
  233SOL    HW1 1598   2.926   1.231   2.687
  233SOL    HW2 1599   2.802   1.272   2.588
  234SOL     OW 1600   5.415   0.645   5.538
  234SOL    HW1 1601   5.336   0.617   5.593
  234SOL    HW2 1602   5.416   0.595   5.451
  235SOL     OW 1603   3.712   2.427   1.364
  235SOL    HW1 1604   3.744   2.347   1.314
  235SOL    HW2 1605   3.767   2.439   1.447
  236SOL     OW 1606   5.117   2.693   6.325
  236SOL    HW1 1607   5.177   2.648   6.259
  236SOL    HW2 1608   5.144   2.666   6.418
  237SOL     OW 1609   6.318   4.588   1.760
  237SOL    HW1 1610   6.403   4.622   1.799
  237SOL    HW2 1611   6.337   4.542   1.673
  238SOL     OW 1612   5.407   1.951   0.476
  238SOL    HW1 1613   5.410   2.044   0.439
  238SOL    HW2 1614   5.433   1.953   0.573
  239SOL     OW 1615   0.715   4.974   0.111
  239SOL    HW1 1616   0.762   4.931   0.188
  239SOL    HW2 1617   0.617   4.980   0.132
  240SOL     OW 1618   6.820   2.960   3.480
  240SOL    HW1 1619   6.901   3.004   3.440
  240SOL    HW2 1620   6.838   2.939   3.576
  241SOL     OW 1621   2.447   2.167   5.209
  241SOL    HW1 1622   2.535   2.159   5.163
  241SOL    HW2 1623   2.375   2.177   5.141
  242SOL     OW 1624   3.244   3.785   4.195
  242SOL    HW1 1625   3.184   3.713   4.160
  242SOL    HW2 1626   3.238   3.865   4.136
  243SOL     OW 1627   4.273   0.629   5.777
  243SOL    HW1 1628   4.367   0.598   5.759
  243SOL    HW2 1629   4.272   0.684   5.860
  244SOL     OW 1630   6.025   2.478   5.053
  244SOL    HW1 1631   5.929   2.478   5.025
  244SOL    HW2 1632   6.081   2.520   4.982
  245SOL     OW 1633   5.577   3.514   4.080
  245SOL    HW1 1634   5.591   3.454   4.001
  245SOL    HW2 1635   5.651   3.499   4.146
  246SOL     OW 1636   4.522   2.494   3.708
  246SOL    HW1 1637   4.526   2.485   3.609
  246SOL    HW2 1638   4.432   2.464   3.741
  247SOL     OW 1639   2.886   2.072   1.354
  247SOL    HW1 1640   2.887   2.021   1.269
  247SOL    HW2 1641   2.980   2.096   1.380
  248SOL     OW 1642   3.463   1.003   2.427
  248SOL    HW1 1643   3.438   1.096   2.397
  248SOL    HW2 1644   3.472   1.001   2.526
  249SOL     OW 1645   3.964   0.048   4.591
  249SOL    HW1 1646   3.983   6.985   4.544
  249SOL    HW2 1647   3.873   0.080   4.567
  250SOL     OW 1648   4.806   2.654   0.460
  250SOL    HW1 1649   4.734   2.623   0.398
  250SOL    HW2 1650   4.790   2.616   0.551
  251SOL     OW 1651   4.817   4.181   5.689
  251SOL    HW1 1652   4.896   4.147   5.638
  251SOL    HW2 1653   4.735   4.173   5.633
  252SOL     OW 1654   6.388   5.875   0.089
  252SOL    HW1 1655   6.327   5.884   0.011
  252SOL    HW2 1656   6.465   5.938   0.079
  253SOL     OW 1657   2.345   5.628   6.206
  253SOL    HW1 1658   2.252   5.652   6.235
  253SOL    HW2 1659   2.410   5.652   6.279
  254SOL     OW 1660   5.465   2.556   3.562
  254SOL    HW1 1661   5.548   2.545   3.616
  254SOL    HW2 1662   5.386   2.564   3.624
  255SOL     OW 1663   1.623   4.489   5.255
  255SOL    HW1 1664   1.721   4.485   5.234
  255SOL    HW2 1665   1.578   4.409   5.216
  256SOL     OW 1666   6.271   3.496   6.218
  256SOL    HW1 1667   6.242   3.538   6.132
  256SOL    HW2 1668   6.288   3.399   6.204
  257SOL     OW 1669   4.814   0.347   3.663
  257SOL    HW1 1670   4.747   0.295   3.717
  257SOL    HW2 1671   4.801   0.325   3.566
  258SOL     OW 1672   2.017   5.033   4.828
  258SOL    HW1 1673   2.093   5.044   4.891
  258SOL    HW2 1674   1.931   5.044   4.877
  259SOL     OW 1675   0.475   1.899   2.389
  259SOL    HW1 1676   0.402   1.890   2.321
  259SOL    HW2 1677   0.538   1.971   2.360
  260SOL     OW 1678   4.707   0.404   1.347
  260SOL    HW1 1679   4.707   0.416   1.446
  260SOL    HW2 1680   4.662   0.317   1.324
  261SOL     OW 1681   6.769   3.491   0.915
  261SOL    HW1 1682   6.814   3.404   0.894
  261SOL    HW2 1683   6.832   3.549   0.966
  262SOL     OW 1684   0.469   4.167   0.438
  262SOL    HW1 1685   0.438   4.173   0.533
  262SOL    HW2 1686   0.550   4.223   0.426
  263SOL     OW 1687   2.005   0.524   3.914
  263SOL    HW1 1688   2.023   0.618   3.945
  263SOL    HW2 1689   1.923   0.489   3.960
  264SOL     OW 1690   6.277   3.107   6.393
  264SOL    HW1 1691   6.320   3.086   6.481
  264SOL    HW2 1692   6.301   3.037   6.326
  265SOL     OW 1693   5.347   6.464   2.328
  265SOL    HW1 1694   5.444   6.441   2.338
  265SOL    HW2 1695   5.314   6.508   2.412
  266SOL     OW 1696   3.266   2.802   5.675
  266SOL    HW1 1697   3.322   2.846   5.745
  266SOL    HW2 1698   3.179   2.851   5.667
  267SOL     OW 1699   0.532   1.433   6.711
  267SOL    HW1 1700   0.481   1.454   6.627
  267SOL    HW2 1701   0.605   1.368   6.690
  268SOL     OW 1702   3.431   0.808   5.735
  268SOL    HW1 1703   3.386   0.778   5.651
  268SOL    HW2 1704   3.517   0.759   5.747
  269SOL     OW 1705   0.837   3.460   2.112
  269SOL    HW1 1706   0.809   3.527   2.042
  269SOL    HW2 1707   0.885   3.385   2.068
  270SOL     OW 1708   1.097   0.276   0.547
  270SOL    HW1 1709   1.105   0.244   0.642
  270SOL    HW2 1710   1.007   0.318   0.534
  271SOL     OW 1711   0.119   1.677   6.629
  271SOL    HW1 1712   0.093   1.727   6.712
  271SOL    HW2 1713   0.124   1.579   6.650
  272SOL     OW 1714   3.325   5.451   4.402
  272SOL    HW1 1715   3.271   5.535   4.398
  272SOL    HW2 1716   3.373   5.438   4.315
  273SOL     OW 1717   1.725   4.426   4.930
  273SOL    HW1 1718   1.787   4.376   4.869
  273SOL    HW2 1719   1.773   4.450   5.014
  274SOL     OW 1720   4.221   2.268   3.055
  274SOL    HW1 1721   4.200   2.269   2.958
  274SOL    HW2 1722   4.136   2.265   3.108
  275SOL     OW 1723   5.779   4.315   5.461
  275SOL    HW1 1724   5.785   4.410   5.490
  275SOL    HW2 1725   5.741   4.259   5.535
  276SOL     OW 1726   0.227   6.632   2.811
  276SOL    HW1 1727   0.258   6.600   2.722
  276SOL    HW2 1728   0.301   6.681   2.857
  277SOL     OW 1729   1.298   4.030   0.451
  277SOL    HW1 1730   1.310   3.997   0.545
  277SOL    HW2 1731   1.209   4.000   0.417
  278SOL     OW 1732   6.404   5.192   2.371
  278SOL    HW1 1733   6.352   5.147   2.298
  278SOL    HW2 1734   6.482   5.240   2.332
  279SOL     OW 1735   6.562   3.047   4.276
  279SOL    HW1 1736   6.659   3.049   4.251
  279SOL    HW2 1737   6.512   2.989   4.212
  280SOL     OW 1738   3.107   7.002   2.925
  280SOL    HW1 1739   3.174   6.989   2.998
  280SOL    HW2 1740   3.047   6.922   2.920
  281SOL     OW 1741   2.541   4.612   1.995
  281SOL    HW1 1742   2.540   4.690   2.058
  281SOL    HW2 1743   2.632   4.602   1.956
  282SOL     OW 1744   3.082   1.682   5.579
  282SOL    HW1 1745   3.046   1.600   5.534
  282SOL    HW2 1746   3.175   1.699   5.546
  283SOL     OW 1747   6.094   1.271   6.982
  283SOL    HW1 1748   6.190   1.244   6.987
  283SOL    HW2 1749   6.087   1.370   6.998
  284SOL     OW 1750   1.335   3.992   3.386
  284SOL    HW1 1751   1.379   3.956   3.303
  284SOL    HW2 1752   1.371   3.945   3.466
  285SOL     OW 1753   6.053   4.647   5.261
  285SOL    HW1 1754   5.984   4.587   5.301
  285SOL    HW2 1755   6.142   4.626   5.301
  286SOL     OW 1756   3.578   5.686   5.627
  286SOL    HW1 1757   3.493   5.697   5.679
  286SOL    HW2 1758   3.627   5.773   5.626
  287SOL     OW 1759   0.107   4.463   0.349
  287SOL    HW1 1760   0.056   4.437   0.431
  287SOL    HW2 1761   0.160   4.384   0.317
  288SOL     OW 1762   4.076   1.014   5.873
  288SOL    HW1 1763   4.074   1.106   5.912
  288SOL    HW2 1764   4.171   0.983   5.867
  289SOL     OW 1765   0.075   4.411   5.173
  289SOL    HW1 1766   0.007   4.482   5.151
  289SOL    HW2 1767   0.153   4.420   5.112
  290SOL     OW 1768   6.080   2.005   4.756
  290SOL    HW1 1769   6.037   1.933   4.703
  290SOL    HW2 1770   6.161   1.968   4.803
  291SOL     OW 1771   1.576   2.448   4.662
  291SOL    HW1 1772   1.497   2.412   4.613
  291SOL    HW2 1773   1.656   2.447   4.602
  292SOL     OW 1774   1.461   2.301   3.314
  292SOL    HW1 1775   1.376   2.258   3.345
  292SOL    HW2 1776   1.524   2.231   3.281
  293SOL     OW 1777   4.516   5.168   1.732
  293SOL    HW1 1778   4.538   5.126   1.644
  293SOL    HW2 1779   4.419   5.152   1.754
  294SOL     OW 1780   0.206   5.416   6.186
  294SOL    HW1 1781   0.246   5.504   6.212
  294SOL    HW2 1782   0.181   5.365   6.268
  295SOL     OW 1783   3.492   2.058   4.228
  295SOL    HW1 1784   3.400   2.096   4.222
  295SOL    HW2 1785   3.538   2.093   4.310
  296SOL     OW 1786   4.169   1.650   2.720
  296SOL    HW1 1787   4.266   1.625   2.721
  296SOL    HW2 1788   4.153   1.720   2.650
  297SOL     OW 1789   2.266   4.635   2.806
  297SOL    HW1 1790   2.231   4.581   2.883
  297SOL    HW2 1791   2.192   4.689   2.766
  298SOL     OW 1792   4.230   6.329   0.799
  298SOL    HW1 1793   4.312   6.274   0.819
  298SOL    HW2 1794   4.215   6.395   0.873
  299SOL     OW 1795   5.258   3.523   6.061
  299SOL    HW1 1796   5.348   3.567   6.068
  299SOL    HW2 1797   5.186   3.593   6.065
  300SOL     OW 1798   6.371   0.974   1.690
  300SOL    HW1 1799   6.433   0.896   1.680
  300SOL    HW2 1800   6.352   1.013   1.600
  301SOL     OW 1801   4.815   3.533   1.446
  301SOL    HW1 1802   4.893   3.471   1.450
  301SOL    HW2 1803   4.731   3.484   1.471
  302SOL     OW 1804   1.190   0.816   3.293
  302SOL    HW1 1805   1.156   0.801   3.200
  302SOL    HW2 1806   1.155   0.744   3.353
  303SOL     OW 1807   5.802   0.891   1.702
  303SOL    HW1 1808   5.804   0.797   1.667
  303SOL    HW2 1809   5.887   0.910   1.751
  304SOL     OW 1810   2.746   0.089   4.050
  304SOL    HW1 1811   2.650   0.062   4.051
  304SOL    HW2 1812   2.803   0.012   4.081
  305SOL     OW 1813   0.236   3.674   0.222
  305SOL    HW1 1814   0.265   3.769   0.207
  305SOL    HW2 1815   0.311   3.623   0.266
  306SOL     OW 1816   2.349   1.240   3.484
  306SOL    HW1 1817   2.313   1.298   3.410
  306SOL    HW2 1818   2.289   1.248   3.564
  307SOL     OW 1819   4.942   0.184   0.690
  307SOL    HW1 1820   4.898   0.273   0.677
  307SOL    HW2 1821   4.894   0.133   0.761
  308SOL     OW 1822   6.119   2.852   4.852
  308SOL    HW1 1823   6.186   2.925   4.865
  308SOL    HW2 1824   6.033   2.878   4.896
  309SOL     OW 1825   3.115   5.151   6.705
  309SOL    HW1 1826   3.041   5.199   6.658
  309SOL    HW2 1827   3.097   5.151   6.804
  310SOL     OW 1828   5.969   6.958   5.068
  310SOL    HW1 1829   5.975   6.923   4.974
  310SOL    HW2 1830   5.890   6.918   5.113
  311SOL     OW 1831   5.859   4.764   1.832
  311SOL    HW1 1832   5.819   4.847   1.872
  311SOL    HW2 1833   5.958   4.776   1.824
  312SOL     OW 1834   4.093   1.512   5.529
  312SOL    HW1 1835   4.088   1.533   5.432
  312SOL    HW2 1836   4.100   1.596   5.582
  313SOL     OW 1837   3.349   4.205   1.597
  313SOL    HW1 1838   3.358   4.270   1.672
  313SOL    HW2 1839   3.262   4.158   1.605
  314SOL     OW 1840   3.439   4.860   6.873
  314SOL    HW1 1841   3.429   4.943   6.929
  314SOL    HW2 1842   3.373   4.861   6.799
  315SOL     OW 1843   1.085   2.941   3.668
  315SOL    HW1 1844   1.126   3.025   3.704
  315SOL    HW2 1845   1.124   2.862   3.716
  316SOL     OW 1846   2.849   1.667   4.060
  316SOL    HW1 1847   2.875   1.608   3.983
  316SOL    HW2 1848   2.848   1.613   4.144
  317SOL     OW 1849   0.870   0.511   0.865
  317SOL    HW1 1850   0.788   0.565   0.885
  317SOL    HW2 1851   0.931   0.564   0.805
  318SOL     OW 1852   1.288   6.245   6.922
  318SOL    HW1 1853   1.316   6.251   7.017
  318SOL    HW2 1854   1.369   6.251   6.863
  319SOL     OW 1855   6.956   0.520   4.012
  319SOL    HW1 1856   7.007   0.473   3.939
  319SOL    HW2 1857   7.017   0.537   4.089
  320SOL     OW 1858   6.127   2.094   0.451
  320SOL    HW1 1859   6.037   2.097   0.407
  320SOL    HW2 1860   6.128   2.020   0.519
  321SOL     OW 1861   3.783   1.550   1.154
  321SOL    HW1 1862   3.824   1.625   1.103
  321SOL    HW2 1863   3.793   1.566   1.252
  322SOL     OW 1864   3.645   3.988   4.833
  322SOL    HW1 1865   3.564   4.029   4.876
  322SOL    HW2 1866   3.691   4.057   4.776
  323SOL     OW 1867   0.618   3.665   6.258
  323SOL    HW1 1868   0.643   3.646   6.353
  323SOL    HW2 1869   0.627   3.763   6.240
  324SOL     OW 1870   2.372   2.326   3.833
  324SOL    HW1 1871   2.330   2.371   3.755
  324SOL    HW2 1872   2.447   2.383   3.869
  325SOL     OW 1873   1.253   2.973   1.565
  325SOL    HW1 1874   1.321   3.018   1.624
  325SOL    HW2 1875   1.258   3.012   1.473
  326SOL     OW 1876   1.107   4.752   6.816
  326SOL    HW1 1877   1.083   4.848   6.812
  326SOL    HW2 1878   1.171   4.730   6.741
  327SOL     OW 1879   1.610   5.170   3.795
  327SOL    HW1 1880   1.641   5.262   3.819
  327SOL    HW2 1881   1.630   5.153   3.698
  328SOL     OW 1882   1.748   6.135   1.899
  328SOL    HW1 1883   1.788   6.171   1.815
  328SOL    HW2 1884   1.654   6.104   1.881
  329SOL     OW 1885   3.738   4.137   4.608
  329SOL    HW1 1886   3.741   4.179   4.517
  329SOL    HW2 1887   3.800   4.058   4.611
  330SOL     OW 1888   2.989   0.154   1.043
  330SOL    HW1 1889   2.973   0.253   1.053
  330SOL    HW2 1890   2.988   0.111   1.133
  331SOL     OW 1891   3.860   5.394   0.164
  331SOL    HW1 1892   3.954   5.421   0.142
  331SOL    HW2 1893   3.832   5.436   0.250
  332SOL     OW 1894   2.910   1.477   4.748
  332SOL    HW1 1895   2.992   1.442   4.702
  332SOL    HW2 1896   2.845   1.403   4.763
  333SOL     OW 1897   3.529   6.613   6.287
  333SOL    HW1 1898   3.492   6.546   6.351
  333SOL    HW2 1899   3.462   6.685   6.270
  334SOL     OW 1900   2.451   0.644   1.477
  334SOL    HW1 1901   2.438   0.576   1.406
  334SOL    HW2 1902   2.363   0.673   1.513
  335SOL     OW 1903   3.298   6.976   4.119
  335SOL    HW1 1904   3.316   7.004   4.025
  335SOL    HW2 1905   3.377   6.926   4.155
  336SOL     OW 1906   2.624   1.444   3.941
  336SOL    HW1 1907   2.699   1.437   3.874
  336SOL    HW2 1908   2.593   1.539   3.945
  337SOL     OW 1909   6.972   3.240   0.398
  337SOL    HW1 1910   0.003   3.161   0.370
  337SOL    HW2 1911   6.879   3.231   0.364
  338SOL     OW 1912   3.406   3.047   1.509
  338SOL    HW1 1913   3.385   3.053   1.411
  338SOL    HW2 1914   3.334   2.997   1.556
  339SOL     OW 1915   3.456   6.298   4.427
  339SOL    HW1 1916   3.457   6.344   4.516
  339SOL    HW2 1917   3.523   6.224   4.427
  340SOL     OW 1918   5.030   4.481   5.715
  340SOL    HW1 1919   4.947   4.448   5.759
  340SOL    HW2 1920   5.022   4.580   5.700
  341SOL     OW 1921   6.794   0.767   4.737
  341SOL    HW1 1922   6.784   0.669   4.719
  341SOL    HW2 1923   6.707   0.804   4.770
  342SOL     OW 1924   5.745   3.878   6.719
  342SOL    HW1 1925   5.706   3.949   6.777
  342SOL    HW2 1926   5.765   3.916   6.629
  343SOL     OW 1927   1.929   5.703   0.642
  343SOL    HW1 1928   1.943   5.625   0.702
  343SOL    HW2 1929   2.016   5.726   0.597
  344SOL     OW 1930   1.457   4.774   2.266
  344SOL    HW1 1931   1.383   4.788   2.332
  344SOL    HW2 1932   1.420   4.771   2.174
  345SOL     OW 1933   6.246   1.254   5.014
  345SOL    HW1 1934   6.208   1.261   4.922
  345SOL    HW2 1935   6.272   1.345   5.046
  346SOL     OW 1936   1.634   0.231   2.567
  346SOL    HW1 1937   1.614   0.169   2.644
  346SOL    HW2 1938   1.564   0.302   2.563
  347SOL     OW 1939   2.931   5.949   6.202
  347SOL    HW1 1940   2.916   5.850   6.195
  347SOL    HW2 1941   3.022   5.966   6.241
  348SOL     OW 1942   5.368   5.221   1.106
  348SOL    HW1 1943   5.292   5.272   1.146
  348SOL    HW2 1944   5.415   5.171   1.179
  349SOL     OW 1945   6.523   4.424   1.144
  349SOL    HW1 1946   6.600   4.468   1.192
  349SOL    HW2 1947   6.487   4.487   1.075
  350SOL     OW 1948   3.742   2.940   0.794
  350SOL    HW1 1949   3.805   2.995   0.739
  350SOL    HW2 1950   3.691   2.999   0.856
  351SOL     OW 1951   2.458   2.918   0.477
  351SOL    HW1 1952   2.379   2.962   0.435
  351SOL    HW2 1953   2.443   2.819   0.481
  352SOL     OW 1954   3.532   0.353   4.709
  352SOL    HW1 1955   3.602   0.422   4.691
  352SOL    HW2 1956   3.504   0.358   4.804
  353SOL     OW 1957   2.686   6.947   0.810
  353SOL    HW1 1958   2.605   6.899   0.777
  353SOL    HW2 1959   2.659   7.021   0.871
  354SOL     OW 1960   3.483   2.295   0.143
  354SOL    HW1 1961   3.516   2.305   0.237
  354SOL    HW2 1962   3.408   2.229   0.141
  355SOL     OW 1963   0.035   3.028   2.648
  355SOL    HW1 1964   7.023   3.035   2.741
  355SOL    HW2 1965   6.983   3.016   2.584
  356SOL     OW 1966   3.920   5.593   5.389
  356SOL    HW1 1967   3.937   5.495   5.383
  356SOL    HW2 1968   4.001   5.643   5.357
  357SOL     OW 1969   6.263   6.684   5.346
  357SOL    HW1 1970   6.253   6.630   5.430
  357SOL    HW2 1971   6.207   6.767   5.354
  358SOL     OW 1972   5.517   0.299   1.904
  358SOL    HW1 1973   5.595   0.246   1.937
  358SOL    HW2 1974   5.451   0.310   1.978
  359SOL     OW 1975   1.521   2.101   2.360
  359SOL    HW1 1976   1.476   2.012   2.369
  359SOL    HW2 1977   1.619   2.087   2.344
  360SOL     OW 1978   1.360   5.589   6.920
  360SOL    HW1 1979   1.322   5.616   6.831
  360SOL    HW2 1980   1.286   5.567   6.982
  361SOL     OW 1981   5.444   5.814   3.013
  361SOL    HW1 1982   5.518   5.817   3.080
  361SOL    HW2 1983   5.418   5.719   2.996
  362SOL     OW 1984   3.915   4.069   1.285
  362SOL    HW1 1985   3.967   4.069   1.200
  362SOL    HW2 1986   3.941   3.990   1.340
  363SOL     OW 1987   4.488   4.509   3.322
  363SOL    HW1 1988   4.513   4.437   3.256
  363SOL    HW2 1989   4.457   4.466   3.407
  364SOL     OW 1990   6.808   5.499   6.171
  364SOL    HW1 1991   6.732   5.537   6.118
  364SOL    HW2 1992   6.893   5.508   6.119
  365SOL     OW 1993   5.104   5.067   2.055
  365SOL    HW1 1994   5.005   5.052   2.065
  365SOL    HW2 1995   5.146   4.987   2.013
  366SOL     OW 1996   6.322   0.724   0.227
  366SOL    HW1 1997   6.344   0.803   0.284
  366SOL    HW2 1998   6.397   0.657   0.231
  367SOL     OW 1999   4.728   2.926   1.077
  367SOL    HW1 2000   4.676   2.848   1.111
  367SOL    HW2 2001   4.803   2.895   1.019
  368SOL     OW 2002   0.506   3.457   4.769
  368SOL    HW1 2003   0.583   3.410   4.811
  368SOL    HW2 2004   0.483   3.538   4.823
  369SOL     OW 2005   0.075   5.105   1.410
  369SOL    HW1 2006   0.038   5.145   1.494
  369SOL    HW2 2007   0.066   5.006   1.414
  370SOL     OW 2008   3.075   1.396   5.243
  370SOL    HW1 2009   3.075   1.493   5.268
  370SOL    HW2 2010   3.170   1.364   5.234
  371SOL     OW 2011   2.504   3.451   6.496
  371SOL    HW1 2012   2.543   3.539   6.467
  371SOL    HW2 2013   2.404   3.457   6.493
  372SOL     OW 2014   7.017   0.296   5.287
  372SOL    HW1 2015   0.042   0.214   5.255
  372SOL    HW2 2016   7.022   0.366   5.216
  373SOL     OW 2017   6.205   6.108   5.613
  373SOL    HW1 2018   6.184   6.181   5.548
  373SOL    HW2 2019   6.300   6.117   5.643
  374SOL     OW 2020   3.335   0.613   2.080
  374SOL    HW1 2021   3.329   0.586   1.984
  374SOL    HW2 2022   3.319   0.534   2.138
  375SOL     OW 2023   0.853   4.680   3.621
  375SOL    HW1 2024   0.760   4.702   3.590
  375SOL    HW2 2025   0.892   4.610   3.561
  376SOL     OW 2026   1.807   2.759   4.395
  376SOL    HW1 2027   1.731   2.786   4.453
  376SOL    HW2 2028   1.883   2.822   4.408
  377SOL     OW 2029   6.951   2.744   2.234
  377SOL    HW1 2030   6.962   2.680   2.310
  377SOL    HW2 2031   6.948   2.838   2.269
  378SOL     OW 2032   3.464   3.137   5.582
  378SOL    HW1 2033   3.401   3.192   5.526
  378SOL    HW2 2034   3.553   3.132   5.536
  379SOL     OW 2035   6.605   4.244   1.925
  379SOL    HW1 2036   6.666   4.320   1.946
  379SOL    HW2 2037   6.560   4.260   1.837
  380SOL     OW 2038   2.614   1.216   1.854
  380SOL    HW1 2039   2.696   1.220   1.911
  380SOL    HW2 2040   2.618   1.289   1.785
  381SOL     OW 2041   1.946   4.505   1.970
  381SOL    HW1 2042   1.913   4.589   1.928
  381SOL    HW2 2043   1.903   4.493   2.060
  382SOL     OW 2044   5.455   6.371   6.377
  382SOL    HW1 2045   5.523   6.398   6.445
  382SOL    HW2 2046   5.363   6.384   6.414
  383SOL     OW 2047   5.745   2.913   6.114
  383SOL    HW1 2048   5.766   2.847   6.186
  383SOL    HW2 2049   5.700   2.992   6.155
  384SOL     OW 2050   6.825   4.322   4.315
  384SOL    HW1 2051   6.859   4.298   4.224
  384SOL    HW2 2052   6.866   4.409   4.343
  385SOL     OW 2053   4.142   6.248   6.417
  385SOL    HW1 2054   4.066   6.190   6.446
  385SOL    HW2 2055   4.107   6.328   6.369
  386SOL     OW 2056   3.084   6.792   5.076
  386SOL    HW1 2057   3.162   6.836   5.032
  386SOL    HW2 2058   3.032   6.860   5.128
  387SOL     OW 2059   6.873   6.444   3.404
  387SOL    HW1 2060   6.927   6.444   3.488
  387SOL    HW2 2061   6.934   6.458   3.326
  388SOL     OW 2062   0.556   2.789   3.738
  388SOL    HW1 2063   0.545   2.691   3.754
  388SOL    HW2 2064   0.642   2.820   3.779
  389SOL     OW 2065   4.289   4.298   1.582
  389SOL    HW1 2066   4.190   4.283   1.581
  389SOL    HW2 2067   4.327   4.261   1.667
  390SOL     OW 2068   3.630   1.326   0.310
  390SOL    HW1 2069   3.693   1.371   0.247
  390SOL    HW2 2070   3.547   1.299   0.261
  391SOL     OW 2071   2.342   4.049   5.395
  391SOL    HW1 2072   2.292   4.117   5.342
  391SOL    HW2 2073   2.363   3.971   5.338
  392SOL     OW 2074   1.812   3.318   2.321
  392SOL    HW1 2075   1.771   3.324   2.412
  392SOL    HW2 2076   1.910   3.299   2.329
  393SOL     OW 2077   1.314   5.399   0.385
  393SOL    HW1 2078   1.280   5.470   0.447
  393SOL    HW2 2079   1.401   5.428   0.345
  394SOL     OW 2080   1.292   2.968   0.087
  394SOL    HW1 2081   1.332   2.958   7.019
  394SOL    HW2 2082   1.278   3.065   0.107
  395SOL     OW 2083   5.228   4.243   2.654
  395SOL    HW1 2084   5.299   4.240   2.584
  395SOL    HW2 2085   5.198   4.150   2.675
  396SOL     OW 2086   2.366   2.362   2.181
  396SOL    HW1 2087   2.287   2.302   2.174
  396SOL    HW2 2088   2.377   2.393   2.275
  397SOL     OW 2089   5.525   1.752   6.622
  397SOL    HW1 2090   5.496   1.708   6.537
  397SOL    HW2 2091   5.557   1.682   6.686
  398SOL     OW 2092   1.830   6.284   3.849
  398SOL    HW1 2093   1.759   6.218   3.821
  398SOL    HW2 2094   1.802   6.376   3.820
  399SOL     OW 2095   5.801   6.047   4.408
  399SOL    HW1 2096   5.786   6.122   4.343
  399SOL    HW2 2097   5.718   5.991   4.414
  400SOL     OW 2098   6.213   6.300   5.370
  400SOL    HW1 2099   6.310   6.284   5.350
  400SOL    HW2 2100   6.159   6.292   5.287
  401SOL     OW 2101   5.760   0.211   6.213
  401SOL    HW1 2102   5.741   0.161   6.128
  401SOL    HW2 2103   5.740   0.308   6.200
  402SOL     OW 2104   6.194   6.951   3.059
  402SOL    HW1 2105   6.111   6.932   3.112
  402SOL    HW2 2106   6.215   0.026   3.066
  403SOL     OW 2107   3.440   0.263   6.035
  403SOL    HW1 2108   3.508   0.202   5.994
  403SOL    HW2 2109   3.436   0.247   6.133
  404SOL     OW 2110   2.009   5.237   5.683
  404SOL    HW1 2111   1.978   5.303   5.614
  404SOL    HW2 2112   2.097   5.266   5.720
  405SOL     OW 2113   1.799   4.045   3.151
  405SOL    HW1 2114   1.882   4.090   3.119
  405SOL    HW2 2115   1.721   4.077   3.096
  406SOL     OW 2116   0.662   4.770   5.148
  406SOL    HW1 2117   0.658   4.779   5.049
  406SOL    HW2 2118   0.574   4.798   5.187
  407SOL     OW 2119   1.929   2.646   4.154
  407SOL    HW1 2120   1.905   2.670   4.248
  407SOL    HW2 2121   1.994   2.570   4.154
  408SOL     OW 2122   3.171   2.018   2.960
  408SOL    HW1 2123   3.179   1.994   3.057
  408SOL    HW2 2124   3.235   1.963   2.907
  409SOL     OW 2125   6.966   3.827   2.075
  409SOL    HW1 2126   0.020   3.773   2.107
  409SOL    HW2 2127   6.963   3.914   2.125
  410SOL     OW 2128   1.426   1.765   1.096
  410SOL    HW1 2129   1.460   1.716   1.176
  410SOL    HW2 2130   1.326   1.775   1.102
  411SOL     OW 2131   6.209   1.360   1.820
  411SOL    HW1 2132   6.126   1.362   1.765
  411SOL    HW2 2133   6.265   1.440   1.800
  412SOL     OW 2134   3.446   4.946   2.644
  412SOL    HW1 2135   3.369   4.910   2.696
  412SOL    HW2 2136   3.432   4.927   2.547
  413SOL     OW 2137   4.500   4.706   1.575
  413SOL    HW1 2138   4.501   4.686   1.477
  413SOL    HW2 2139   4.455   4.794   1.591
  414SOL     OW 2140   3.581   0.393   4.164
  414SOL    HW1 2141   3.610   0.384   4.069
  414SOL    HW2 2142   3.583   0.303   4.208
  415SOL     OW 2143   0.352   1.559   6.879
  415SOL    HW1 2144   0.436   1.525   6.836
  415SOL    HW2 2145   0.274   1.536   6.822
  416SOL     OW 2146   5.013   4.967   4.526
  416SOL    HW1 2147   5.065   5.052   4.522
  416SOL    HW2 2148   4.960   4.956   4.442
  417SOL     OW 2149   2.123   1.199   6.425
  417SOL    HW1 2150   2.162   1.248   6.503
  417SOL    HW2 2151   2.139   1.252   6.341
  418SOL     OW 2152   2.628   0.131   5.447
  418SOL    HW1 2153   2.617   0.210   5.387
  418SOL    HW2 2154   2.684   0.062   5.402
  419SOL     OW 2155   0.185   6.796   3.474
  419SOL    HW1 2156   0.108   6.860   3.470
  419SOL    HW2 2157   0.270   6.844   3.450
  420SOL     OW 2158   5.577   1.359   6.544
  420SOL    HW1 2159   5.535   1.441   6.504
  420SOL    HW2 2160   5.667   1.346   6.504
  421SOL     OW 2161   5.852   3.647   4.919
  421SOL    HW1 2162   5.934   3.614   4.872
  421SOL    HW2 2163   5.863   3.633   5.017
  422SOL     OW 2164   5.580   2.516   0.408
  422SOL    HW1 2165   5.658   2.501   0.469
  422SOL    HW2 2166   5.495   2.510   0.461
  423SOL     OW 2167   2.656   1.350   6.935
  423SOL    HW1 2168   2.652   1.432   6.993
  423SOL    HW2 2169   2.647   1.377   6.839
  424SOL     OW 2170   2.234   5.049   2.872
  424SOL    HW1 2171   2.249   5.117   2.944
  424SOL    HW2 2172   2.302   4.976   2.881
  425SOL     OW 2173   4.951   0.842   4.468
  425SOL    HW1 2174   4.985   0.861   4.559
  425SOL    HW2 2175   4.948   0.743   4.454
  426SOL     OW 2176   2.176   2.847   5.116
  426SOL    HW1 2177   2.246   2.912   5.087
  426SOL    HW2 2178   2.193   2.758   5.075
  427SOL     OW 2179   5.386   0.716   4.094
  427SOL    HW1 2180   5.364   0.803   4.137
  427SOL    HW2 2181   5.310   0.686   4.037
  428SOL     OW 2182   2.592   0.482   3.544
  428SOL    HW1 2183   2.575   0.383   3.537
  428SOL    HW2 2184   2.626   0.503   3.636
  429SOL     OW 2185   0.705   5.120   4.537
  429SOL    HW1 2186   0.788   5.120   4.479
  429SOL    HW2 2187   0.650   5.040   4.515
  430SOL     OW 2188   1.433   6.809   3.719
  430SOL    HW1 2189   1.347   6.835   3.762
  430SOL    HW2 2190   1.452   6.872   3.643
  431SOL     OW 2191   2.194   2.305   0.779
  431SOL    HW1 2192   2.199   2.291   0.878
  431SOL    HW2 2193   2.287   2.310   0.741
  432SOL     OW 2194   5.976   1.892   0.929
  432SOL    HW1 2195   6.015   1.971   0.977
  432SOL    HW2 2196   5.939   1.921   0.841
  433SOL     OW 2197   3.154   6.139   5.844
  433SOL    HW1 2198   3.223   6.161   5.913
  433SOL    HW2 2199   3.139   6.218   5.785
  434SOL     OW 2200   4.074   5.280   4.441
  434SOL    HW1 2201   4.125   5.199   4.469
  434SOL    HW2 2202   4.068   5.344   4.518
  435SOL     OW 2203   4.168   1.313   5.684
  435SOL    HW1 2204   4.097   1.261   5.733
  435SOL    HW2 2205   4.128   1.395   5.645
  436SOL     OW 2206   3.541   5.827   2.593
  436SOL    HW1 2207   3.629   5.839   2.546
  436SOL    HW2 2208   3.494   5.916   2.596
  437SOL     OW 2209   0.291   1.391   5.096
  437SOL    HW1 2210   0.260   1.429   5.183
  437SOL    HW2 2211   0.382   1.350   5.108
  438SOL     OW 2212   1.673   4.422   3.267
  438SOL    HW1 2213   1.669   4.372   3.354
  438SOL    HW2 2214   1.647   4.517   3.282
  439SOL     OW 2215   5.983   0.374   2.506
  439SOL    HW1 2216   5.978   0.275   2.510
  439SOL    HW2 2217   6.029   0.409   2.587
  440SOL     OW 2218   3.690   1.213   6.479
  440SOL    HW1 2219   3.764   1.254   6.425
  440SOL    HW2 2220   3.602   1.240   6.441
  441SOL     OW 2221   5.766   4.250   3.165
  441SOL    HW1 2222   5.691   4.185   3.154
  441SOL    HW2 2223   5.747   4.333   3.114
  442SOL     OW 2224   4.805   4.408   5.859
  442SOL    HW1 2225   4.780   4.363   5.944
  442SOL    HW2 2226   4.792   4.346   5.782
  443SOL     OW 2227   5.331   4.834   3.979
  443SOL    HW1 2228   5.352   4.744   3.942
  443SOL    HW2 2229   5.356   4.904   3.912
  444SOL     OW 2230   4.298   1.244   6.239
  444SOL    HW1 2231   4.213   1.193   6.249
  444SOL    HW2 2232   4.279   1.334   6.199
  445SOL     OW 2233   2.578   6.042   2.884
  445SOL    HW1 2234   2.661   6.098   2.874
  445SOL    HW2 2235   2.502   6.101   2.910
  446SOL     OW 2236   4.073   5.657   3.176
  446SOL    HW1 2237   4.169   5.646   3.204
  446SOL    HW2 2238   4.062   5.747   3.133
  447SOL     OW 2239   6.383   3.251   5.461
  447SOL    HW1 2240   6.481   3.273   5.465
  447SOL    HW2 2241   6.361   3.213   5.372
  448SOL     OW 2242   2.091   1.430   2.840
  448SOL    HW1 2243   2.063   1.358   2.776
  448SOL    HW2 2244   2.177   1.470   2.809
  449SOL     OW 2245   2.511   2.528   3.345
  449SOL    HW1 2246   2.473   2.466   3.415
  449SOL    HW2 2247   2.565   2.475   3.280
  450SOL     OW 2248   1.343   4.621   3.445
  450SOL    HW1 2249   1.335   4.569   3.530
  450SOL    HW2 2250   1.280   4.699   3.449
  451SOL     OW 2251   0.279   2.882   3.722
  451SOL    HW1 2252   0.280   2.917   3.628
  451SOL    HW2 2253   0.367   2.841   3.743
  452SOL     OW 2254   3.491   0.346   1.574
  452SOL    HW1 2255   3.480   0.355   1.673
  452SOL    HW2 2256   3.404   0.366   1.529
  453SOL     OW 2257   3.979   0.507   6.564
  453SOL    HW1 2258   3.887   0.517   6.601
  453SOL    HW2 2259   4.011   0.594   6.528
  454SOL     OW 2260   6.980   4.084   6.650
  454SOL    HW1 2261   6.981   4.082   6.750
  454SOL    HW2 2262   6.890   4.056   6.617
  455SOL     OW 2263   6.116   3.129   5.199
  455SOL    HW1 2264   6.216   3.136   5.201
  455SOL    HW2 2265   6.081   3.173   5.116
  456SOL     OW 2266   1.312   0.687   3.789
  456SOL    HW1 2267   1.370   0.607   3.805
  456SOL    HW2 2268   1.216   0.663   3.808
  457SOL     OW 2269   0.763   5.217   5.603
  457SOL    HW1 2270   0.798   5.205   5.511
  457SOL    HW2 2271   0.832   5.189   5.670
  458SOL     OW 2272   2.813   0.970   2.809
  458SOL    HW1 2273   2.850   0.969   2.902
  458SOL    HW2 2274   2.860   0.901   2.754
  459SOL     OW 2275   2.188   0.783   5.770
  459SOL    HW1 2276   2.138   0.751   5.690
  459SOL    HW2 2277   2.285   0.761   5.760
  460SOL     OW 2278   1.387   1.708   5.293
  460SOL    HW1 2279   1.469   1.680   5.243
  460SOL    HW2 2280   1.376   1.807   5.288
  461SOL     OW 2281   6.540   4.862   5.614
  461SOL    HW1 2282   6.636   4.884   5.625
  461SOL    HW2 2283   6.530   4.776   5.563
  462SOL     OW 2284   4.091   3.808   4.431
  462SOL    HW1 2285   4.135   3.758   4.505
  462SOL    HW2 2286   4.102   3.906   4.446
  463SOL     OW 2287   6.552   6.751   3.083
  463SOL    HW1 2288   6.646   6.776   3.060
  463SOL    HW2 2289   6.552   6.686   3.159
  464SOL     OW 2290   3.141   6.966   6.208
  464SOL    HW1 2291   3.168   6.966   6.112
  464SOL    HW2 2292   3.051   7.009   6.218
  465SOL     OW 2293   1.247   2.476   0.294
  465SOL    HW1 2294   1.277   2.561   0.252
  465SOL    HW2 2295   1.260   2.400   0.231
  466SOL     OW 2296   3.112   6.349   4.418
  466SOL    HW1 2297   3.048   6.368   4.344
  466SOL    HW2 2298   3.198   6.397   4.401
  467SOL     OW 2299   0.723   1.803   2.534
  467SOL    HW1 2300   0.743   1.772   2.627
  467SOL    HW2 2301   0.627   1.832   2.528
  468SOL     OW 2302   4.670   6.890   6.056
  468SOL    HW1 2303   4.742   6.909   6.123
  468SOL    HW2 2304   4.711   6.864   5.969
  469SOL     OW 2305   2.868   4.275   5.808
  469SOL    HW1 2306   2.845   4.364   5.768
  469SOL    HW2 2307   2.937   4.230   5.751
  470SOL     OW 2308   3.540   6.026   2.897
  470SOL    HW1 2309   3.456   6.080   2.900
  470SOL    HW2 2310   3.544   5.967   2.978
  471SOL     OW 2311   2.522   2.580   3.941
  471SOL    HW1 2312   2.506   2.636   3.860
  471SOL    HW2 2313   2.516   2.637   4.023
  472SOL     OW 2314   6.291   4.685   7.007
  472SOL    HW1 2315   6.316   4.778   6.981
  472SOL    HW2 2316   6.265   4.633   6.926
  473SOL     OW 2317   0.112   2.492   2.590
  473SOL    HW1 2318   0.182   2.535   2.532
  473SOL    HW2 2319   0.140   2.499   2.686
  474SOL     OW 2320   6.085   4.901   5.431
  474SOL    HW1 2321   6.129   4.869   5.515
  474SOL    HW2 2322   6.078   4.825   5.366
  475SOL     OW 2323   5.993   3.212   0.007
  475SOL    HW1 2324   5.989   3.212   6.930
  475SOL    HW2 2325   5.952   3.128   0.042
  476SOL     OW 2326   0.413   4.097   2.160
  476SOL    HW1 2327   0.420   4.039   2.079
  476SOL    HW2 2328   0.316   4.115   2.180
  477SOL     OW 2329   2.329   6.065   3.606
  477SOL    HW1 2330   2.271   5.987   3.630
  477SOL    HW2 2331   2.411   6.033   3.560
  478SOL     OW 2332   4.215   5.871   2.818
  478SOL    HW1 2333   4.209   5.844   2.722
  478SOL    HW2 2334   4.126   5.860   2.862
  479SOL     OW 2335   3.961   3.010   4.258
  479SOL    HW1 2336   3.905   3.091   4.240
  479SOL    HW2 2337   3.936   2.938   4.193
  480SOL     OW 2338   1.619   0.293   2.133
  480SOL    HW1 2339   1.581   0.252   2.050
  480SOL    HW2 2340   1.648   0.220   2.195
  481SOL     OW 2341   0.710   6.267   1.401
  481SOL    HW1 2342   0.678   6.186   1.450
  481SOL    HW2 2343   0.782   6.312   1.454
  482SOL     OW 2344   4.828   4.997   2.886
  482SOL    HW1 2345   4.837   5.080   2.942
  482SOL    HW2 2346   4.881   4.923   2.928
  483SOL     OW 2347   6.396   2.689   2.866
  483SOL    HW1 2348   6.440   2.677   2.955
  483SOL    HW2 2349   6.332   2.614   2.850
  484SOL     OW 2350   1.483   4.297   4.674
  484SOL    HW1 2351   1.424   4.364   4.719
  484SOL    HW2 2352   1.568   4.341   4.645
  485SOL     OW 2353   5.458   3.613   2.307
  485SOL    HW1 2354   5.522   3.571   2.242
  485SOL    HW2 2355   5.399   3.542   2.345
  486SOL     OW 2356   5.383   0.383   6.613
  486SOL    HW1 2357   5.449   0.323   6.567
  486SOL    HW2 2358   5.424   0.419   6.697
  487SOL     OW 2359   0.146   0.510   3.345
  487SOL    HW1 2360   0.067   0.461   3.307
  487SOL    HW2 2361   0.166   0.590   3.290
  488SOL     OW 2362   1.844   6.609   3.092
  488SOL    HW1 2363   1.891   6.643   3.173
  488SOL    HW2 2364   1.766   6.553   3.121
  489SOL     OW 2365   6.070   5.492   4.763
  489SOL    HW1 2366   6.142   5.562   4.762
  489SOL    HW2 2367   6.047   5.469   4.857
  490SOL     OW 2368   1.236   5.764   5.032
  490SOL    HW1 2369   1.186   5.677   5.034
  490SOL    HW2 2370   1.311   5.762   5.098
  491SOL     OW 2371   0.370   3.696   0.872
  491SOL    HW1 2372   0.320   3.769   0.919
  491SOL    HW2 2373   0.442   3.736   0.815
  492SOL     OW 2374   1.529   1.202   5.560
  492SOL    HW1 2375   1.619   1.234   5.589
  492SOL    HW2 2376   1.466   1.203   5.637
  493SOL     OW 2377   2.484   0.039   5.668
  493SOL    HW1 2378   2.525   0.067   5.581
  493SOL    HW2 2379   2.489   6.963   5.677
  494SOL     OW 2380   2.456   1.242   5.925
  494SOL    HW1 2381   2.433   1.310   5.856
  494SOL    HW2 2382   2.494   1.161   5.881
  495SOL     OW 2383   4.529   6.210   5.585
  495SOL    HW1 2384   4.489   6.218   5.494
  495SOL    HW2 2385   4.575   6.295   5.610
  496SOL     OW 2386   6.457   1.233   2.764
  496SOL    HW1 2387   6.383   1.293   2.736
  496SOL    HW2 2388   6.522   1.222   2.688
  497SOL     OW 2389   3.946   1.199   5.419
  497SOL    HW1 2390   3.896   1.269   5.470
  497SOL    HW2 2391   3.996   1.242   5.343
  498SOL     OW 2392   0.383   5.047   1.596
  498SOL    HW1 2393   0.435   5.118   1.643
  498SOL    HW2 2394   0.379   5.068   1.498
  499SOL     OW 2395   2.503   5.380   5.618
  499SOL    HW1 2396   2.598   5.379   5.587
  499SOL    HW2 2397   2.487   5.304   5.680
  500SOL     OW 2398   5.076   2.935   6.184
  500SOL    HW1 2399   5.101   2.849   6.228
  500SOL    HW2 2400   5.142   3.006   6.208
  501SOL     OW 2401   2.188   6.832   2.805
  501SOL    HW1 2402   2.120   6.765   2.835
  501SOL    HW2 2403   2.184   6.913   2.863
  502SOL     OW 2404   1.213   4.547   6.260
  502SOL    HW1 2405   1.123   4.525   6.224
  502SOL    HW2 2406   1.223   4.647   6.267
  503SOL     OW 2407   2.619   5.287   6.447
  503SOL    HW1 2408   2.702   5.265   6.498
  503SOL    HW2 2409   2.540   5.247   6.493
  504SOL     OW 2410   0.059   5.438   2.774
  504SOL    HW1 2411   0.010   5.487   2.846
  504SOL    HW2 2412   0.125   5.499   2.731
  505SOL     OW 2413   4.052   6.900   5.040
  505SOL    HW1 2414   4.140   6.867   5.006
  505SOL    HW2 2415   4.022   6.977   4.985
  506SOL     OW 2416   2.756   5.065   2.663
  506SOL    HW1 2417   2.781   4.978   2.620
  506SOL    HW2 2418   2.755   5.137   2.595
  507SOL     OW 2419   4.388   1.229   1.906
  507SOL    HW1 2420   4.367   1.315   1.859
  507SOL    HW2 2421   4.486   1.212   1.902
  508SOL     OW 2422   6.809   2.655   3.518
  508SOL    HW1 2423   6.802   2.749   3.552
  508SOL    HW2 2424   6.894   2.614   3.550
  509SOL     OW 2425   4.428   0.657   0.287
  509SOL    HW1 2426   4.486   0.669   0.367
  509SOL    HW2 2427   4.482   0.669   0.204
  510SOL     OW 2428   0.153   4.720   5.604
  510SOL    HW1 2429   0.251   4.723   5.627
  510SOL    HW2 2430   0.101   4.768   5.675
  511SOL     OW 2431   1.649   2.042   6.082
  511SOL    HW1 2432   1.747   2.038   6.063
  511SOL    HW2 2433   1.630   1.992   6.166
  512SOL     OW 2434   5.635   2.055   6.968
  512SOL    HW1 2435   5.550   2.013   7.000
  512SOL    HW2 2436   5.620   2.098   6.879
  513SOL     OW 2437   6.023   6.669   2.564
  513SOL    HW1 2438   6.108   6.650   2.515
  513SOL    HW2 2439   5.945   6.640   2.508
  514SOL     OW 2440   0.391   6.474   3.452
  514SOL    HW1 2441   0.337   6.390   3.444
  514SOL    HW2 2442   0.366   6.522   3.536
  515SOL     OW 2443   2.608   0.473   5.955
  515SOL    HW1 2444   2.539   0.513   5.896
  515SOL    HW2 2445   2.624   0.533   6.033
  516SOL     OW 2446   2.541   4.239   1.704
  516SOL    HW1 2447   2.637   4.269   1.702
  516SOL    HW2 2448   2.495   4.280   1.782
  517SOL     OW 2449   3.865   4.858   2.218
  517SOL    HW1 2450   3.874   4.944   2.268
  517SOL    HW2 2451   3.771   4.824   2.228
  518SOL     OW 2452   2.308   2.924   4.005
  518SOL    HW1 2453   2.254   2.854   3.957
  518SOL    HW2 2454   2.394   2.884   4.037
  519SOL     OW 2455   6.783   6.627   3.964
  519SOL    HW1 2456   6.807   6.530   3.974
  519SOL    HW2 2457   6.810   6.676   4.047
  520SOL     OW 2458   0.759   3.893   6.980
  520SOL    HW1 2459   0.757   3.945   6.895
  520SOL    HW2 2460   0.668   3.856   6.999
  521SOL     OW 2461   4.668   5.912   4.286
  521SOL    HW1 2462   4.751   5.944   4.333
  521SOL    HW2 2463   4.616   5.853   4.348
  522SOL     OW 2464   3.949   3.736   1.555
  522SOL    HW1 2465   3.982   3.760   1.646
  522SOL    HW2 2466   3.862   3.688   1.562
  523SOL     OW 2467   0.085   6.578   1.856
  523SOL    HW1 2468   0.100   6.673   1.882
  523SOL    HW2 2469   0.143   6.555   1.778
  524SOL     OW 2470   0.940   3.163   2.384
  524SOL    HW1 2471   0.981   3.116   2.462
  524SOL    HW2 2472   0.982   3.132   2.299
  525SOL     OW 2473   1.431   3.365   6.871
  525SOL    HW1 2474   1.502   3.433   6.854
  525SOL    HW2 2475   1.472   3.282   6.909
  526SOL     OW 2476   2.785   6.812   4.297
  526SOL    HW1 2477   2.763   6.731   4.242
  526SOL    HW2 2478   2.878   6.843   4.275
  527SOL     OW 2479   0.949   2.353   6.815
  527SOL    HW1 2480   1.040   2.379   6.846
  527SOL    HW2 2481   0.881   2.415   6.855
  528SOL     OW 2482   0.794   3.245   3.917
  528SOL    HW1 2483   0.775   3.233   3.820
  528SOL    HW2 2484   0.878   3.299   3.928
  529SOL     OW 2485   2.278   0.495   5.718
  529SOL    HW1 2486   2.338   0.571   5.740
  529SOL    HW2 2487   2.317   0.443   5.642
  530SOL     OW 2488   3.949   3.009   2.341
  530SOL    HW1 2489   3.917   3.033   2.432
  530SOL    HW2 2490   4.017   2.936   2.347
  531SOL     OW 2491   2.048   0.803   2.620
  531SOL    HW1 2492   2.128   0.808   2.681
  531SOL    HW2 2493   1.970   0.849   2.664
  532SOL     OW 2494   0.961   3.804   0.743
  532SOL    HW1 2495   1.055   3.836   0.740
  532SOL    HW2 2496   0.916   3.824   0.656
  533SOL     OW 2497   5.453   6.898   3.667
  533SOL    HW1 2498   5.416   6.931   3.581
  533SOL    HW2 2499   5.512   6.969   3.707
  534SOL     OW 2500   0.037   5.772   1.814
  534SOL    HW1 2501   0.076   5.778   1.906
  534SOL    HW2 2502   0.082   5.838   1.754
  535SOL     OW 2503   6.728   4.507   3.207
  535SOL    HW1 2504   6.640   4.531   3.249
  535SOL    HW2 2505   6.800   4.513   3.276
  536SOL     OW 2506   6.006   5.511   2.796
  536SOL    HW1 2507   5.967   5.516   2.704
  536SOL    HW2 2508   6.004   5.416   2.828
  537SOL     OW 2509   3.525   6.812   4.303
  537SOL    HW1 2510   3.506   6.745   4.374
  537SOL    HW2 2511   3.564   6.766   4.223
  538SOL     OW 2512   1.227   5.076   4.982
  538SOL    HW1 2513   1.158   5.144   5.004
  538SOL    HW2 2514   1.208   4.991   5.032
  539SOL     OW 2515   1.544   5.785   2.125
  539SOL    HW1 2516   1.644   5.786   2.132
  539SOL    HW2 2517   1.504   5.775   2.216
  540SOL     OW 2518   2.099   1.253   4.332
  540SOL    HW1 2519   2.189   1.293   4.319
  540SOL    HW2 2520   2.047   1.258   4.246
  541SOL     OW 2521   4.713   5.861   3.621
  541SOL    HW1 2522   4.716   5.847   3.720
  541SOL    HW2 2523   4.623   5.895   3.595
  542SOL     OW 2524   3.389   6.390   6.447
  542SOL    HW1 2525   3.397   6.291   6.456
  542SOL    HW2 2526   3.310   6.413   6.391
  543SOL     OW 2527   5.456   3.429   3.792
  543SOL    HW1 2528   5.381   3.368   3.769
  543SOL    HW2 2529   5.542   3.378   3.791
  544SOL     OW 2530   0.280   5.162   0.407
  544SOL    HW1 2531   0.270   5.200   0.499
  544SOL    HW2 2532   0.366   5.111   0.401
  545SOL     OW 2533   4.482   1.361   0.921
  545SOL    HW1 2534   4.412   1.383   0.853
  545SOL    HW2 2535   4.494   1.440   0.982
  546SOL     OW 2536   1.108   4.100   1.824
  546SOL    HW1 2537   1.175   4.156   1.873
  546SOL    HW2 2538   1.059   4.042   1.889
  547SOL     OW 2539   2.997   2.637   0.719
  547SOL    HW1 2540   2.904   2.671   0.731
  547SOL    HW2 2541   3.021   2.640   0.621
  548SOL     OW 2542   3.351   3.415   0.875
  548SOL    HW1 2543   3.419   3.480   0.839
  548SOL    HW2 2544   3.333   3.344   0.807
  549SOL     OW 2545   5.562   2.567   1.663
  549SOL    HW1 2546   5.609   2.569   1.574
  549SOL    HW2 2547   5.599   2.637   1.723
  550SOL     OW 2548   0.410   5.230   3.445
  550SOL    HW1 2549   0.485   5.237   3.378
  550SOL    HW2 2550   0.366   5.319   3.455
  551SOL     OW 2551   0.087   0.393   1.113
  551SOL    HW1 2552   0.176   0.409   1.071
  551SOL    HW2 2553   0.014   0.422   1.050
  552SOL     OW 2554   5.154   4.949   4.794
  552SOL    HW1 2555   5.104   4.877   4.843
  552SOL    HW2 2556   5.231   4.909   4.745
  553SOL     OW 2557   3.365   0.010   3.859
  553SOL    HW1 2558   3.428   6.958   3.877
  553SOL    HW2 2559   3.408   0.077   3.799
  554SOL     OW 2560   5.725   5.911   6.995
  554SOL    HW1 2561   5.796   5.841   6.991
  554SOL    HW2 2562   5.764   6.000   6.973
  555SOL     OW 2563   3.098   4.987   5.243
  555SOL    HW1 2564   3.193   5.008   5.268
  555SOL    HW2 2565   3.092   4.972   5.144
  556SOL     OW 2566   5.500   1.233   4.408
  556SOL    HW1 2567   5.438   1.198   4.479
  556SOL    HW2 2568   5.488   1.179   4.325
  557SOL     OW 2569   0.308   5.036   6.148
  557SOL    HW1 2570   0.306   5.028   6.248
  557SOL    HW2 2571   0.292   4.946   6.107
  558SOL     OW 2572   3.689   2.916   3.967
  558SOL    HW1 2573   3.693   2.906   4.067
  558SOL    HW2 2574   3.761   2.978   3.937
  559SOL     OW 2575   6.659   5.819   5.864
  559SOL    HW1 2576   6.685   5.898   5.919
  559SOL    HW2 2577   6.620   5.749   5.924
  560SOL     OW 2578   6.451   3.841   3.191
  560SOL    HW1 2579   6.377   3.797   3.243
  560SOL    HW2 2580   6.472   3.786   3.110
  561SOL     OW 2581   0.004   2.441   7.023
  561SOL    HW1 2582   6.980   2.459   0.087
  561SOL    HW2 2583   0.048   2.351   0.004
  562SOL     OW 2584   4.555   0.774   5.938
  562SOL    HW1 2585   4.466   0.811   5.967
  562SOL    HW2 2586   4.606   0.745   6.019
  563SOL     OW 2587   2.574   1.477   3.469
  563SOL    HW1 2588   2.537   1.385   3.456
  563SOL    HW2 2589   2.513   1.544   3.427
  564SOL     OW 2590   0.372   2.297   6.668
  564SOL    HW1 2591   0.295   2.240   6.696
  564SOL    HW2 2592   0.369   2.384   6.717
  565SOL     OW 2593   2.927   3.714   3.202
  565SOL    HW1 2594   2.907   3.628   3.250
  565SOL    HW2 2595   2.949   3.785   3.269
  566SOL     OW 2596   1.899   3.521   3.646
  566SOL    HW1 2597   1.875   3.429   3.616
  566SOL    HW2 2598   1.972   3.557   3.588
  567SOL     OW 2599   3.122   3.033   0.798
  567SOL    HW1 2600   3.173   2.951   0.824
  567SOL    HW2 2601   3.027   3.009   0.778
  568SOL     OW 2602   5.634   6.858   0.226
  568SOL    HW1 2603   5.608   6.785   0.162
  568SOL    HW2 2604   5.697   6.922   0.180
  569SOL     OW 2605   1.005   2.626   0.912
  569SOL    HW1 2606   1.004   2.722   0.940
  569SOL    HW2 2607   0.911   2.592   0.908
  570SOL     OW 2608   3.598   0.556   6.506
  570SOL    HW1 2609   3.626   0.467   6.471
  570SOL    HW2 2610   3.550   0.606   6.435
  571SOL     OW 2611   2.828   4.830   3.910
  571SOL    HW1 2612   2.764   4.792   3.843
  571SOL    HW2 2613   2.779   4.860   3.991
  572SOL     OW 2614   1.877   4.978   5.638
  572SOL    HW1 2615   1.918   5.069   5.647
  572SOL    HW2 2616   1.927   4.926   5.568
  573SOL     OW 2617   6.343   1.168   5.769
  573SOL    HW1 2618   6.253   1.129   5.788
  573SOL    HW2 2619   6.349   1.259   5.810
  574SOL     OW 2620   3.684   0.115   5.082
  574SOL    HW1 2621   3.687   0.110   5.182
  574SOL    HW2 2622   3.757   0.175   5.050
  575SOL     OW 2623   4.203   2.698   1.274
  575SOL    HW1 2624   4.244   2.787   1.291
  575SOL    HW2 2625   4.104   2.704   1.283
  576SOL     OW 2626   1.222   3.190   2.741
  576SOL    HW1 2627   1.219   3.092   2.761
  576SOL    HW2 2628   1.315   3.224   2.759
  577SOL     OW 2629   1.573   0.776   1.989
  577SOL    HW1 2630   1.545   0.804   1.897
  577SOL    HW2 2631   1.513   0.817   2.057
  578SOL     OW 2632   1.104   5.091   5.269
  578SOL    HW1 2633   1.132   5.006   5.225
  578SOL    HW2 2634   1.103   5.078   5.368
  579SOL     OW 2635   1.569   4.679   3.314
  579SOL    HW1 2636   1.534   4.681   3.220
  579SOL    HW2 2637   1.495   4.657   3.377
  580SOL     OW 2638   3.694   4.800   5.588
  580SOL    HW1 2639   3.670   4.716   5.635
  580SOL    HW2 2640   3.711   4.781   5.491
  581SOL     OW 2641   1.635   3.089   3.381
  581SOL    HW1 2642   1.566   3.156   3.408
  581SOL    HW2 2643   1.661   3.034   3.461
  582SOL     OW 2644   4.428   5.773   2.984
  582SOL    HW1 2645   4.342   5.799   2.941
  582SOL    HW2 2646   4.410   5.731   3.073
  583SOL     OW 2647   2.874   6.005   5.584
  583SOL    HW1 2648   2.943   6.071   5.553
  583SOL    HW2 2649   2.919   5.923   5.617
  584SOL     OW 2650   3.110   0.007   6.908
  584SOL    HW1 2651   3.129   0.104   6.924
  584SOL    HW2 2652   3.045   7.020   6.833
  585SOL     OW 2653   4.605   1.189   0.561
  585SOL    HW1 2654   4.620   1.109   0.618
  585SOL    HW2 2655   4.657   1.179   0.476
  586SOL     OW 2656   3.702   0.349   0.792
  586SOL    HW1 2657   3.670   0.442   0.772
  586SOL    HW2 2658   3.684   0.328   0.888
  587SOL     OW 2659   4.979   2.547   2.690
  587SOL    HW1 2660   5.043   2.598   2.633
  587SOL    HW2 2661   5.020   2.531   2.780
  588SOL     OW 2662   2.020   5.204   0.930
  588SOL    HW1 2663   2.109   5.166   0.955
  588SOL    HW2 2664   1.951   5.176   0.997
  589SOL     OW 2665   3.886   5.686   1.332
  589SOL    HW1 2666   3.984   5.674   1.350
  589SOL    HW2 2667   3.837   5.694   1.418
  590SOL     OW 2668   5.443   1.385   1.136
  590SOL    HW1 2669   5.403   1.442   1.063
  590SOL    HW2 2670   5.533   1.419   1.159
  591SOL     OW 2671   3.955   6.678   4.107
  591SOL    HW1 2672   3.997   6.592   4.136
  591SOL    HW2 2673   4.021   6.753   4.118
  592SOL     OW 2674   4.652   0.544   2.697
  592SOL    HW1 2675   4.679   0.454   2.664
  592SOL    HW2 2676   4.665   0.612   2.625
  593SOL     OW 2677   4.877   1.781   4.210
  593SOL    HW1 2678   4.968   1.795   4.247
  593SOL    HW2 2679   4.810   1.831   4.264
  594SOL     OW 2680   6.406   0.958   0.995
  594SOL    HW1 2681   6.468   1.021   0.947
  594SOL    HW2 2682   6.409   0.868   0.952
  595SOL     OW 2683   5.997   6.703   3.778
  595SOL    HW1 2684   6.089   6.741   3.776
  595SOL    HW2 2685   5.999   6.609   3.744
  596SOL     OW 2686   0.560   5.023   3.045
  596SOL    HW1 2687   0.629   4.951   3.050
  596SOL    HW2 2688   0.481   4.989   2.995
  597SOL     OW 2689   2.797   6.387   6.464
  597SOL    HW1 2690   2.749   6.304   6.492
  597SOL    HW2 2691   2.891   6.385   6.498
  598SOL     OW 2692   3.465   4.169   4.675
  598SOL    HW1 2693   3.565   4.167   4.669
  598SOL    HW2 2694   3.437   4.164   4.771
  599SOL     OW 2695   2.565   5.694   2.988
  599SOL    HW1 2696   2.591   5.628   3.059
  599SOL    HW2 2697   2.472   5.727   3.007
  600SOL     OW 2698   6.504   3.028   6.090
  600SOL    HW1 2699   6.480   3.033   5.994
  600SOL    HW2 2700   6.604   3.029   6.099
  601SOL     OW 2701   1.460   1.714   4.441
  601SOL    HW1 2702   1.539   1.663   4.409
  601SOL    HW2 2703   1.412   1.754   4.363
  602SOL     OW 2704   2.424   0.851   6.056
  602SOL    HW1 2705   2.340   0.832   6.107
  602SOL    HW2 2706   2.463   0.938   6.088
  603SOL     OW 2707   2.769   2.426   5.336
  603SOL    HW1 2708   2.736   2.520   5.336
  603SOL    HW2 2709   2.762   2.388   5.428
  604SOL     OW 2710   1.303   2.150   1.557
  604SOL    HW1 2711   1.259   2.124   1.643
  604SOL    HW2 2712   1.265   2.237   1.526
  605SOL     OW 2713   6.966   4.876   1.731
  605SOL    HW1 2714   6.946   4.810   1.659
  605SOL    HW2 2715   6.958   4.969   1.695
  606SOL     OW 2716   4.592   6.254   5.071
  606SOL    HW1 2717   4.610   6.353   5.076
  606SOL    HW2 2718   4.538   6.227   5.151
  607SOL     OW 2719   6.683   4.874   5.358
  607SOL    HW1 2720   6.664   4.937   5.433
  607SOL    HW2 2721   6.768   4.825   5.376
  608SOL     OW 2722   3.727   6.485   6.556
  608SOL    HW1 2723   3.754   6.576   6.588
  608SOL    HW2 2724   3.644   6.456   6.603
  609SOL     OW 2725   4.083   3.226   1.848
  609SOL    HW1 2726   4.122   3.285   1.919
  609SOL    HW2 2727   4.030   3.282   1.784
  610SOL     OW 2728   5.545   2.675   6.891
  610SOL    HW1 2729   5.463   2.715   6.849
  610SOL    HW2 2730   5.535   2.576   6.898
  611SOL     OW 2731   3.919   0.101   1.654
  611SOL    HW1 2732   3.905   0.193   1.691
  611SOL    HW2 2733   3.830   0.061   1.630
  612SOL     OW 2734   3.101   5.766   4.677
  612SOL    HW1 2735   3.158   5.814   4.743
  612SOL    HW2 2736   3.072   5.678   4.716
  613SOL     OW 2737   5.020   4.076   4.974
  613SOL    HW1 2738   5.048   4.171   4.962
  613SOL    HW2 2739   5.097   4.015   4.957
  614SOL     OW 2740   5.046   5.367   5.189
  614SOL    HW1 2741   4.998   5.319   5.115
  614SOL    HW2 2742   5.082   5.301   5.255
  615SOL     OW 2743   0.114   2.451   1.561
  615SOL    HW1 2744   0.043   2.518   1.584
  615SOL    HW2 2745   0.183   2.494   1.503
  616SOL     OW 2746   6.045   2.295   2.779
  616SOL    HW1 2747   6.028   2.216   2.837
  616SOL    HW2 2748   5.961   2.317   2.727
  617SOL     OW 2749   0.900   4.558   5.571
  617SOL    HW1 2750   0.899   4.634   5.636
  617SOL    HW2 2751   0.806   4.529   5.553
  618SOL     OW 2752   1.451   2.592   0.931
  618SOL    HW1 2753   1.362   2.559   0.961
  618SOL    HW2 2754   1.522   2.527   0.960
  619SOL     OW 2755   2.616   2.029   0.854
  619SOL    HW1 2756   2.573   2.047   0.943
  619SOL    HW2 2757   2.545   2.012   0.786
  620SOL     OW 2758   4.686   2.119   0.097
  620SOL    HW1 2759   4.729   2.187   0.038
  620SOL    HW2 2760   4.620   2.066   0.045
  621SOL     OW 2761   3.762   4.907   6.935
  621SOL    HW1 2762   3.838   4.936   6.994
  621SOL    HW2 2763   3.727   4.986   6.884
  622SOL     OW 2764   0.831   1.014   6.352
  622SOL    HW1 2765   0.804   1.030   6.257
  622SOL    HW2 2766   0.751   0.986   6.405
  623SOL     OW 2767   0.819   6.359   6.051
  623SOL    HW1 2768   0.837   6.434   6.114
  623SOL    HW2 2769   0.729   6.371   6.010
  624SOL     OW 2770   0.937   2.702   1.377
  624SOL    HW1 2771   0.891   2.770   1.319
  624SOL    HW2 2772   0.870   2.659   1.437
  625SOL     OW 2773   2.545   2.378   1.024
  625SOL    HW1 2774   2.524   2.445   0.953
  625SOL    HW2 2775   2.644   2.362   1.027
  626SOL     OW 2776   2.568   5.936   3.839
  626SOL    HW1 2777   2.506   5.888   3.778
  626SOL    HW2 2778   2.525   6.021   3.871
  627SOL     OW 2779   5.313   0.712   0.891
  627SOL    HW1 2780   5.222   0.669   0.885
  627SOL    HW2 2781   5.342   0.713   0.986
  628SOL     OW 2782   5.336   4.937   5.387
  628SOL    HW1 2783   5.419   4.886   5.365
  628SOL    HW2 2784   5.332   4.954   5.486
  629SOL     OW 2785   0.011   6.492   1.047
  629SOL    HW1 2786   6.975   6.499   0.966
  629SOL    HW2 2787   7.021   6.403   1.091
  630SOL     OW 2788   5.525   2.255   2.899
  630SOL    HW1 2789   5.528   2.354   2.889
  630SOL    HW2 2790   5.601   2.226   2.958
  631SOL     OW 2791   3.633   6.544   5.330
  631SOL    HW1 2792   3.643   6.555   5.231
  631SOL    HW2 2793   3.697   6.475   5.363
  632SOL     OW 2794   2.775   2.053   0.597
  632SOL    HW1 2795   2.783   2.053   0.697
  632SOL    HW2 2796   2.679   2.041   0.572
  633SOL     OW 2797   3.938   5.081   0.080
  633SOL    HW1 2798   3.979   5.129   0.002
  633SOL    HW2 2799   3.964   5.128   0.164
  634SOL     OW 2800   4.720   4.399   1.834
  634SOL    HW1 2801   4.769   4.386   1.920
  634SOL    HW2 2802   4.630   4.356   1.840
  635SOL     OW 2803   4.649   6.325   2.568
  635SOL    HW1 2804   4.722   6.357   2.508
  635SOL    HW2 2805   4.676   6.339   2.663
  636SOL     OW 2806   5.164   6.268   6.462
  636SOL    HW1 2807   5.093   6.338   6.461
  636SOL    HW2 2808   5.134   6.190   6.407
  637SOL     OW 2809   5.615   4.207   1.805
  637SOL    HW1 2810   5.654   4.143   1.871
  637SOL    HW2 2811   5.641   4.180   1.713
  638SOL     OW 2812   5.210   1.140   2.060
  638SOL    HW1 2813   5.298   1.148   2.107
  638SOL    HW2 2814   5.198   1.218   1.999
  639SOL     OW 2815   5.162   4.096   2.238
  639SOL    HW1 2816   5.177   4.157   2.160
  639SOL    HW2 2817   5.201   4.136   2.320
  640SOL     OW 2818   1.819   4.841   5.306
  640SOL    HW1 2819   1.877   4.767   5.339
  640SOL    HW2 2820   1.730   4.838   5.352
  641SOL     OW 2821   0.124   5.316   4.817
  641SOL    HW1 2822   0.214   5.293   4.779
  641SOL    HW2 2823   0.066   5.353   4.745
  642SOL     OW 2824   6.955   3.845   4.007
  642SOL    HW1 2825   6.934   3.914   3.938
  642SOL    HW2 2826   6.890   3.770   4.000
  643SOL     OW 2827   6.035   4.414   5.071
  643SOL    HW1 2828   6.036   4.492   5.133
  643SOL    HW2 2829   6.110   4.351   5.096
  644SOL     OW 2830   1.198   5.733   2.960
  644SOL    HW1 2831   1.107   5.737   2.919
  644SOL    HW2 2832   1.200   5.663   3.032
  645SOL     OW 2833   5.273   2.327   4.436
  645SOL    HW1 2834   5.237   2.238   4.408
  645SOL    HW2 2835   5.248   2.395   4.368
  646SOL     OW 2836   2.855   1.955   3.477
  646SOL    HW1 2837   2.891   1.873   3.521
  646SOL    HW2 2838   2.845   1.938   3.379
  647SOL     OW 2839   5.799   2.795   5.848
  647SOL    HW1 2840   5.760   2.713   5.806
  647SOL    HW2 2841   5.761   2.807   5.940
  648SOL     OW 2842   6.730   3.782   2.848
  648SOL    HW1 2843   6.737   3.872   2.891
  648SOL    HW2 2844   6.745   3.711   2.916
  649SOL     OW 2845   4.360   4.006   0.176
  649SOL    HW1 2846   4.343   3.908   0.190
  649SOL    HW2 2847   4.384   4.048   0.264
  650SOL     OW 2848   5.499   3.801   0.620
  650SOL    HW1 2849   5.448   3.819   0.535
  650SOL    HW2 2850   5.561   3.724   0.606
  651SOL     OW 2851   0.398   6.805   6.823
  651SOL    HW1 2852   0.318   6.866   6.824
  651SOL    HW2 2853   0.417   6.774   6.915
  652SOL     OW 2854   5.093   5.950   3.874
  652SOL    HW1 2855   5.097   5.884   3.800
  652SOL    HW2 2856   5.153   6.027   3.854
  653SOL     OW 2857   3.664   5.415   5.527
  653SOL    HW1 2858   3.735   5.377   5.586
  653SOL    HW2 2859   3.660   5.515   5.539
  654SOL     OW 2860   0.414   4.489   5.833
  654SOL    HW1 2861   0.498   4.437   5.849
  654SOL    HW2 2862   0.354   4.437   5.771
  655SOL     OW 2863   0.649   6.825   2.340
  655SOL    HW1 2864   0.721   6.894   2.341
  655SOL    HW2 2865   0.589   6.840   2.262
  656SOL     OW 2866   1.928   5.876   1.211
  656SOL    HW1 2867   2.006   5.930   1.245
  656SOL    HW2 2868   1.923   5.790   1.262
  657SOL     OW 2869   2.215   2.094   1.455
  657SOL    HW1 2870   2.199   1.998   1.476
  657SOL    HW2 2871   2.171   2.152   1.524
  658SOL     OW 2872   3.166   3.433   6.097
  658SOL    HW1 2873   3.152   3.355   6.035
  658SOL    HW2 2874   3.242   3.413   6.159
  659SOL     OW 2875   3.155   6.513   6.395
  659SOL    HW1 2876   3.193   6.589   6.447
  659SOL    HW2 2877   3.102   6.548   6.318
  660SOL     OW 2878   4.896   4.309   1.656
  660SOL    HW1 2879   4.934   4.221   1.686
  660SOL    HW2 2880   4.821   4.335   1.716
  661SOL     OW 2881   4.813   6.190   3.664
  661SOL    HW1 2882   4.723   6.228   3.644
  661SOL    HW2 2883   4.881   6.263   3.663
  662SOL     OW 2884   3.831   0.544   5.274
  662SOL    HW1 2885   3.811   0.451   5.303
  662SOL    HW2 2886   3.756   0.605   5.301
  663SOL     OW 2887   2.515   3.604   5.992
  663SOL    HW1 2888   2.436   3.665   5.983
  663SOL    HW2 2889   2.531   3.557   5.905
  664SOL     OW 2890   0.265   6.485   6.429
  664SOL    HW1 2891   0.209   6.411   6.390
  664SOL    HW2 2892   0.268   6.561   6.365
  665SOL     OW 2893   4.350   5.417   1.805
  665SOL    HW1 2894   4.332   5.345   1.871
  665SOL    HW2 2895   4.444   5.409   1.771
  666SOL     OW 2896   5.229   0.908   1.944
  666SOL    HW1 2897   5.326   0.885   1.934
  666SOL    HW2 2898   5.222   0.998   1.989
  667SOL     OW 2899   1.176   4.987   2.817
  667SOL    HW1 2900   1.212   4.921   2.883
  667SOL    HW2 2901   1.077   4.981   2.815
  668SOL     OW 2902   4.863   6.634   6.101
  668SOL    HW1 2903   4.900   6.550   6.061
  668SOL    HW2 2904   4.874   6.710   6.037
  669SOL     OW 2905   5.282   0.553   3.065
  669SOL    HW1 2906   5.276   0.653   3.065
  669SOL    HW2 2907   5.197   0.515   3.028
  670SOL     OW 2908   3.106   2.129   2.090
  670SOL    HW1 2909   3.060   2.216   2.110
  670SOL    HW2 2910   3.038   2.061   2.061
  671SOL     OW 2911   3.072   6.205   1.085
  671SOL    HW1 2912   3.028   6.189   0.997
  671SOL    HW2 2913   3.162   6.245   1.070
  672SOL     OW 2914   6.282   5.487   2.303
  672SOL    HW1 2915   6.194   5.533   2.289
  672SOL    HW2 2916   6.324   5.469   2.214
  673SOL     OW 2917   6.583   6.839   0.917
  673SOL    HW1 2918   6.607   6.842   1.014
  673SOL    HW2 2919   6.653   6.887   0.864
  674SOL     OW 2920   0.556   1.408   4.538
  674SOL    HW1 2921   0.481   1.420   4.473
  674SOL    HW2 2922   0.605   1.495   4.550
  675SOL     OW 2923   5.828   2.504   2.922
  675SOL    HW1 2924   5.893   2.544   2.988
  675SOL    HW2 2925   5.872   2.430   2.873
  676SOL     OW 2926   2.885   5.518   3.634
  676SOL    HW1 2927   2.832   5.455   3.691
  676SOL    HW2 2928   2.980   5.520   3.665
  677SOL     OW 2929   5.098   1.169   0.622
  677SOL    HW1 2930   5.068   1.138   0.531
  677SOL    HW2 2931   5.019   1.199   0.675
  678SOL     OW 2932   2.632   6.085   5.165
  678SOL    HW1 2933   2.695   6.156   5.131
  678SOL    HW2 2934   2.541   6.124   5.176
  679SOL     OW 2935   5.055   1.925   3.961
  679SOL    HW1 2936   5.069   1.974   4.047
  679SOL    HW2 2937   4.988   1.852   3.974
  680SOL     OW 2938   4.866   5.867   4.931
  680SOL    HW1 2939   4.960   5.854   4.901
  680SOL    HW2 2940   4.864   5.935   5.005
  681SOL     OW 2941   4.773   5.458   1.709
  681SOL    HW1 2942   4.738   5.391   1.775
  681SOL    HW2 2943   4.757   5.425   1.616
  682SOL     OW 2944   5.932   1.145   1.520
  682SOL    HW1 2945   5.989   1.063   1.521
  682SOL    HW2 2946   5.836   1.119   1.528
  683SOL     OW 2947   4.331   2.322   0.287
  683SOL    HW1 2948   4.288   2.237   0.255
  683SOL    HW2 2949   4.298   2.399   0.233
  684SOL     OW 2950   6.318   1.043   0.586
  684SOL    HW1 2951   6.412   1.013   0.599
  684SOL    HW2 2952   6.287   1.092   0.668
  685SOL     OW 2953   3.466   2.135   3.954
  685SOL    HW1 2954   3.454   2.234   3.960
  685SOL    HW2 2955   3.520   2.103   4.032
  686SOL     OW 2956   4.842   2.083   4.492
  686SOL    HW1 2957   4.770   2.138   4.449
  686SOL    HW2 2958   4.801   2.015   4.552
  687SOL     OW 2959   0.755   2.228   3.968
  687SOL    HW1 2960   0.809   2.219   3.884
  687SOL    HW2 2961   0.802   2.286   4.033
  688SOL     OW 2962   0.348   1.462   6.504
  688SOL    HW1 2963   0.321   1.546   6.458
  688SOL    HW2 2964   0.269   1.422   6.551
  689SOL     OW 2965   1.177   4.470   5.866
  689SOL    HW1 2966   1.083   4.449   5.894
  689SOL    HW2 2967   1.182   4.472   5.766
  690SOL     OW 2968   6.645   3.343   2.934
  690SOL    HW1 2969   6.730   3.323   2.885
  690SOL    HW2 2970   6.630   3.442   2.935
  691SOL     OW 2971   3.676   1.742   7.015
  691SOL    HW1 2972   3.637   1.654   6.987
  691SOL    HW2 2973   3.672   1.806   6.938
  692SOL     OW 2974   4.270   2.221   4.282
  692SOL    HW1 2975   4.301   2.218   4.377
  692SOL    HW2 2976   4.319   2.293   4.233
  693SOL     OW 2977   4.730   6.547   3.959
  693SOL    HW1 2978   4.810   6.581   4.009
  693SOL    HW2 2979   4.649   6.554   4.017
  694SOL     OW 2980   4.256   6.766   4.933
  694SOL    HW1 2981   4.273   6.681   4.882
  694SOL    HW2 2982   4.297   6.843   4.885
  695SOL     OW 2983   3.852   6.787   3.877
  695SOL    HW1 2984   3.936   6.825   3.839
  695SOL    HW2 2985   3.874   6.715   3.942
  696SOL     OW 2986   5.222   4.668   3.556
  696SOL    HW1 2987   5.269   4.719   3.484
  696SOL    HW2 2988   5.126   4.696   3.560
  697SOL     OW 2989   1.899   3.782   2.450
  697SOL    HW1 2990   1.948   3.764   2.365
  697SOL    HW2 2991   1.908   3.879   2.474
  698SOL     OW 2992   5.625   6.137   1.152
  698SOL    HW1 2993   5.608   6.236   1.152
  698SOL    HW2 2994   5.539   6.089   1.168
  699SOL     OW 2995   1.668   3.743   0.107
  699SOL    HW1 2996   1.739   3.810   0.130
  699SOL    HW2 2997   1.584   3.765   0.156
  700SOL     OW 2998   3.636   0.198   2.340
  700SOL    HW1 2999   3.728   0.176   2.373
  700SOL    HW2 3000   3.569   0.177   2.411
  701SOL     OW 3001   6.929   4.021   0.161
  701SOL    HW1 3002   6.945   4.037   0.064
  701SOL    HW2 3003   6.897   3.928   0.175
  702SOL     OW 3004   1.489   6.130   4.884
  702SOL    HW1 3005   1.411   6.102   4.829
  702SOL    HW2 3006   1.569   6.143   4.824
  703SOL     OW 3007   3.562   3.516   5.569
  703SOL    HW1 3008   3.661   3.508   5.579
  703SOL    HW2 3009   3.540   3.551   5.478
  704SOL     OW 3010   1.720   2.813   6.265
  704SOL    HW1 3011   1.737   2.883   6.196
  704SOL    HW2 3012   1.800   2.754   6.274
  705SOL     OW 3013   5.704   5.676   2.738
  705SOL    HW1 3014   5.775   5.726   2.787
  705SOL    HW2 3015   5.633   5.740   2.707
  706SOL     OW 3016   4.183   1.868   5.349
  706SOL    HW1 3017   4.253   1.912   5.293
  706SOL    HW2 3018   4.106   1.842   5.292
  707SOL     OW 3019   4.045   4.766   3.130
  707SOL    HW1 3020   4.132   4.740   3.173
  707SOL    HW2 3021   4.058   4.774   3.031
  708SOL     OW 3022   2.535   0.878   2.586
  708SOL    HW1 3023   2.611   0.817   2.562
  708SOL    HW2 3024   2.552   0.919   2.675
  709SOL     OW 3025   1.409   6.000   0.705
  709SOL    HW1 3026   1.330   6.046   0.664
  709SOL    HW2 3027   1.390   5.982   0.802
  710SOL     OW 3028   3.966   1.827   1.125
  710SOL    HW1 3029   3.957   1.861   1.032
  710SOL    HW2 3030   3.979   1.904   1.188
  711SOL     OW 3031   0.148   2.882   6.006
  711SOL    HW1 3032   0.170   2.787   6.029
  711SOL    HW2 3033   0.158   2.895   5.907
  712SOL     OW 3034   4.589   2.472   0.587
  712SOL    HW1 3035   4.561   2.496   0.494
  712SOL    HW2 3036   4.652   2.394   0.584
  713SOL     OW 3037   4.145   3.429   5.748
  713SOL    HW1 3038   4.141   3.480   5.834
  713SOL    HW2 3039   4.221   3.463   5.692
  714SOL     OW 3040   0.101   5.306   3.987
  714SOL    HW1 3041   0.151   5.221   4.003
  714SOL    HW2 3042   0.072   5.311   3.892
  715SOL     OW 3043   5.418   5.922   6.559
  715SOL    HW1 3044   5.400   6.012   6.598
  715SOL    HW2 3045   5.444   5.932   6.463
  716SOL     OW 3046   0.913   1.049   2.567
  716SOL    HW1 3047   0.984   1.034   2.498
  716SOL    HW2 3048   0.933   1.133   2.618
  717SOL     OW 3049   6.792   4.850   4.228
  717SOL    HW1 3050   6.832   4.865   4.138
  717SOL    HW2 3051   6.733   4.927   4.251
  718SOL     OW 3052   4.768   3.071   5.655
  718SOL    HW1 3053   4.780   3.102   5.749
  718SOL    HW2 3054   4.671   3.053   5.638
  719SOL     OW 3055   5.766   6.970   2.367
  719SOL    HW1 3056   5.696   0.018   2.379
  719SOL    HW2 3057   5.721   6.884   2.342
  720SOL     OW 3058   2.326   0.427   6.316
  720SOL    HW1 3059   2.337   0.353   6.249
  720SOL    HW2 3060   2.368   0.511   6.280
  721SOL     OW 3061   2.365   1.157   1.952
  721SOL    HW1 3062   2.452   1.184   1.910
  721SOL    HW2 3063   2.382   1.085   2.020
  722SOL     OW 3064   3.228   0.951   5.430
  722SOL    HW1 3065   3.136   0.931   5.395
  722SOL    HW2 3066   3.221   1.017   5.505
  723SOL     OW 3067   2.267   5.264   3.657
  723SOL    HW1 3068   2.327   5.185   3.641
  723SOL    HW2 3069   2.272   5.291   3.753
  724SOL     OW 3070   0.792   1.285   3.426
  724SOL    HW1 3071   0.771   1.285   3.329
  724SOL    HW2 3072   0.796   1.191   3.459
  725SOL     OW 3073   1.590   4.765   2.720
  725SOL    HW1 3074   1.499   4.791   2.688
  725SOL    HW2 3075   1.601   4.665   2.714
  726SOL     OW 3076   2.831   5.185   1.485
  726SOL    HW1 3077   2.853   5.090   1.509
  726SOL    HW2 3078   2.738   5.189   1.448
  727SOL     OW 3079   5.220   4.614   6.174
  727SOL    HW1 3080   5.248   4.549   6.103
  727SOL    HW2 3081   5.189   4.565   6.255
  728SOL     OW 3082   6.454   3.414   4.060
  728SOL    HW1 3083   6.474   3.435   3.964
  728SOL    HW2 3084   6.514   3.469   4.119
  729SOL     OW 3085   0.374   2.884   1.211
  729SOL    HW1 3086   0.460   2.875   1.161
  729SOL    HW2 3087   0.317   2.954   1.169
  730SOL     OW 3088   6.859   0.212   4.320
  730SOL    HW1 3089   6.824   0.289   4.267
  730SOL    HW2 3090   6.839   0.127   4.272
  731SOL     OW 3091   4.803   5.408   6.597
  731SOL    HW1 3092   4.862   5.431   6.519
  731SOL    HW2 3093   4.848   5.339   6.654
  732SOL     OW 3094   5.861   2.862   2.643
  732SOL    HW1 3095   5.781   2.923   2.645
  732SOL    HW2 3096   5.830   2.767   2.633
  733SOL     OW 3097   5.498   0.380   5.270
  733SOL    HW1 3098   5.493   0.300   5.330
  733SOL    HW2 3099   5.592   0.415   5.269
  734SOL     OW 3100   5.939   5.128   2.625
  734SOL    HW1 3101   6.036   5.151   2.612
  734SOL    HW2 3102   5.931   5.042   2.675
  735SOL     OW 3103   4.252   1.605   0.509
  735SOL    HW1 3104   4.336   1.563   0.473
  735SOL    HW2 3105   4.174   1.571   0.457
  736SOL     OW 3106   0.929   1.368   3.760
  736SOL    HW1 3107   0.958   1.289   3.814
  736SOL    HW2 3108   0.830   1.370   3.753
  737SOL     OW 3109   5.578   1.633   6.163
  737SOL    HW1 3110   5.623   1.563   6.107
  737SOL    HW2 3111   5.637   1.712   6.172
  738SOL     OW 3112   2.878   4.078   1.408
  738SOL    HW1 3113   2.885   3.988   1.365
  738SOL    HW2 3114   2.784   4.095   1.436
  739SOL     OW 3115   3.914   0.357   4.559
  739SOL    HW1 3116   4.000   0.341   4.510
  739SOL    HW2 3117   3.924   0.436   4.619
  740SOL     OW 3118   5.438   1.747   3.017
  740SOL    HW1 3119   5.474   1.677   3.079
  740SOL    HW2 3120   5.490   1.832   3.027
  741SOL     OW 3121   2.149   0.102   3.891
  741SOL    HW1 3122   2.205   0.180   3.863
  741SOL    HW2 3123   2.203   0.018   3.888
  742SOL     OW 3124   1.872   6.238   1.349
  742SOL    HW1 3125   1.834   6.326   1.322
  742SOL    HW2 3126   1.962   6.227   1.307
  743SOL     OW 3127   0.095   5.403   3.204
  743SOL    HW1 3128   0.145   5.331   3.155
  743SOL    HW2 3129   7.021   5.395   3.183
  744SOL     OW 3130   5.994   0.679   0.508
  744SOL    HW1 3131   5.981   0.607   0.577
  744SOL    HW2 3132   6.079   0.728   0.526
  745SOL     OW 3133   1.946   5.576   5.115
  745SOL    HW1 3134   2.004   5.538   5.187
  745SOL    HW2 3135   1.904   5.661   5.148
  746SOL     OW 3136   5.953   3.714   6.028
  746SOL    HW1 3137   5.920   3.733   5.935
  746SOL    HW2 3138   6.037   3.661   6.023
  747SOL     OW 3139   4.288   5.913   4.855
  747SOL    HW1 3140   4.299   5.824   4.900
  747SOL    HW2 3141   4.235   5.901   4.771
  748SOL     OW 3142   4.603   5.495   2.304
  748SOL    HW1 3143   4.529   5.539   2.355
  748SOL    HW2 3144   4.668   5.454   2.368
  749SOL     OW 3145   5.679   3.591   4.480
  749SOL    HW1 3146   5.762   3.619   4.528
  749SOL    HW2 3147   5.659   3.657   4.408
  750SOL     OW 3148   2.362   1.264   1.269
  750SOL    HW1 3149   2.392   1.237   1.177
  750SOL    HW2 3150   2.428   1.328   1.308
  751SOL     OW 3151   4.365   0.994   0.060
  751SOL    HW1 3152   4.455   1.024   0.029
  751SOL    HW2 3153   4.359   1.002   0.160
  752SOL     OW 3154   3.002   3.149   0.160
  752SOL    HW1 3155   3.022   3.079   0.229
  752SOL    HW2 3156   2.943   3.109   0.090
  753SOL     OW 3157   1.441   3.344   5.865
  753SOL    HW1 3158   1.520   3.284   5.865
  753SOL    HW2 3159   1.398   3.343   5.775
  754SOL     OW 3160   4.943   1.817   6.451
  754SOL    HW1 3161   4.849   1.815   6.484
  754SOL    HW2 3162   4.999   1.756   6.507
  755SOL     OW 3163   2.696   4.730   5.619
  755SOL    HW1 3164   2.791   4.746   5.594
  755SOL    HW2 3165   2.645   4.699   5.538
  756SOL     OW 3166   2.625   5.252   6.980
  756SOL    HW1 3167   2.672   5.290   6.901
  756SOL    HW2 3168   2.692   5.221   0.024
  757SOL     OW 3169   1.904   6.018   3.502
  757SOL    HW1 3170   1.979   5.969   3.546
  757SOL    HW2 3171   1.939   6.070   3.424
  758SOL     OW 3172   4.070   0.844   3.538
  758SOL    HW1 3173   4.050   0.856   3.441
  758SOL    HW2 3174   4.113   0.755   3.552
  759SOL     OW 3175   0.288   2.935   2.546
  759SOL    HW1 3176   0.296   2.920   2.447
  759SOL    HW2 3177   0.200   2.978   2.566
  760SOL     OW 3178   6.374   6.901   4.124
  760SOL    HW1 3179   6.298   6.838   4.139
  760SOL    HW2 3180   6.452   6.852   4.088
  761SOL     OW 3181   5.452   4.223   6.711
  761SOL    HW1 3182   5.521   4.152   6.698
  761SOL    HW2 3183   5.497   4.310   6.730
  762SOL     OW 3184   3.238   0.303   5.367
  762SOL    HW1 3185   3.202   0.247   5.293
  762SOL    HW2 3186   3.253   0.247   5.448
  763SOL     OW 3187   4.461   6.671   6.540
  763SOL    HW1 3188   4.490   6.656   6.445
  763SOL    HW2 3189   4.522   6.621   6.602
  764SOL     OW 3190   5.216   0.540   5.744
  764SOL    HW1 3191   5.133   0.595   5.748
  764SOL    HW2 3192   5.195   0.446   5.772
  765SOL     OW 3193   1.746   6.384   0.667
  765SOL    HW1 3194   1.654   6.372   0.630
  765SOL    HW2 3195   1.748   6.464   0.726
  766SOL     OW 3196   2.959   2.028   5.359
  766SOL    HW1 3197   2.964   1.989   5.451
  766SOL    HW2 3198   2.995   2.121   5.360
  767SOL     OW 3199   6.328   6.591   3.859
  767SOL    HW1 3200   6.397   6.617   3.926
  767SOL    HW2 3201   6.298   6.672   3.809
  768SOL     OW 3202   1.876   5.440   3.756
  768SOL    HW1 3203   1.908   5.521   3.805
  768SOL    HW2 3204   1.929   5.360   3.787
  769SOL     OW 3205   2.953   0.912   5.374
  769SOL    HW1 3206   2.881   0.980   5.358
  769SOL    HW2 3207   2.931   0.828   5.325
  770SOL     OW 3208   1.680   5.407   3.958
  770SOL    HW1 3209   1.776   5.382   3.963
  770SOL    HW2 3210   1.671   5.498   3.916
  771SOL     OW 3211   1.426   4.677   3.066
  771SOL    HW1 3212   1.414   4.581   3.039
  771SOL    HW2 3213   1.345   4.729   3.040
  772SOL     OW 3214   6.255   4.818   6.513
  772SOL    HW1 3215   6.274   4.892   6.577
  772SOL    HW2 3216   6.158   4.797   6.514
  773SOL     OW 3217   0.513   3.711   3.146
  773SOL    HW1 3218   0.475   3.672   3.062
  773SOL    HW2 3219   0.611   3.725   3.135
  774SOL     OW 3220   1.265   1.553   2.743
  774SOL    HW1 3221   1.211   1.528   2.824
  774SOL    HW2 3222   1.357   1.579   2.771
  775SOL     OW 3223   2.084   1.848   4.335
  775SOL    HW1 3224   2.157   1.780   4.333
  775SOL    HW2 3225   2.057   1.871   4.242
  776SOL     OW 3226   6.781   0.878   6.020
  776SOL    HW1 3227   6.833   0.868   5.935
  776SOL    HW2 3228   6.712   0.806   6.025
  777SOL     OW 3229   1.833   4.288   1.336
  777SOL    HW1 3230   1.832   4.248   1.428
  777SOL    HW2 3231   1.773   4.235   1.276
  778SOL     OW 3232   1.886   0.109   1.511
  778SOL    HW1 3233   1.846   0.019   1.493
  778SOL    HW2 3234   1.984   0.099   1.528
  779SOL     OW 3235   6.774   1.950   2.304
  779SOL    HW1 3236   6.818   2.031   2.265
  779SOL    HW2 3237   6.827   1.869   2.280
  780SOL     OW 3238   0.801   2.580   3.969
  780SOL    HW1 3239   0.828   2.493   4.010
  780SOL    HW2 3240   0.703   2.595   3.985
  781SOL     OW 3241   5.609   5.164   0.533
  781SOL    HW1 3242   5.542   5.142   0.603
  781SOL    HW2 3243   5.569   5.227   0.466
  782SOL     OW 3244   1.715   3.940   5.436
  782SOL    HW1 3245   1.625   3.900   5.421
  782SOL    HW2 3246   1.708   4.014   5.502
  783SOL     OW 3247   5.578   4.654   1.339
  783SOL    HW1 3248   5.589   4.598   1.257
  783SOL    HW2 3249   5.558   4.595   1.417
  784SOL     OW 3250   4.141   5.393   1.636
  784SOL    HW1 3251   4.218   5.390   1.700
  784SOL    HW2 3252   4.055   5.394   1.687
  785SOL     OW 3253   0.414   1.131   3.651
  785SOL    HW1 3254   0.342   1.133   3.583
  785SOL    HW2 3255   0.436   1.224   3.680
  786SOL     OW 3256   7.001   0.914   2.568
  786SOL    HW1 3257   6.943   0.900   2.488
  786SOL    HW2 3258   7.005   0.829   2.622
  787SOL     OW 3259   1.781   6.655   6.733
  787SOL    HW1 3260   1.708   6.623   6.793
  787SOL    HW2 3261   1.754   6.742   6.691
  788SOL     OW 3262   4.287   2.312   1.074
  788SOL    HW1 3263   4.296   2.363   1.160
  788SOL    HW2 3264   4.190   2.302   1.052
  789SOL     OW 3265   4.632   5.255   2.179
  789SOL    HW1 3266   4.634   5.344   2.224
  789SOL    HW2 3267   4.710   5.201   2.209
  790SOL     OW 3268   2.219   1.088   2.264
  790SOL    HW1 3269   2.248   1.168   2.212
  790SOL    HW2 3270   2.128   1.106   2.304
  791SOL     OW 3271   2.436   6.119   5.573
  791SOL    HW1 3272   2.426   6.029   5.532
  791SOL    HW2 3273   2.523   6.159   5.544
  792SOL     OW 3274   0.701   0.620   2.254
  792SOL    HW1 3275   0.699   0.719   2.266
  792SOL    HW2 3276   0.612   0.582   2.280
  793SOL     OW 3277   5.139   5.850   5.273
  793SOL    HW1 3278   5.131   5.761   5.228
  793SOL    HW2 3279   5.049   5.877   5.308
  794SOL     OW 3280   3.058   3.428   5.669
  794SOL    HW1 3281   3.130   3.383   5.616
  794SOL    HW2 3282   3.100   3.495   5.731
  795SOL     OW 3283   4.003   0.362   5.704
  795SOL    HW1 3284   3.973   0.308   5.625
  795SOL    HW2 3285   4.024   0.455   5.674
  796SOL     OW 3286   1.589   2.811   0.530
  796SOL    HW1 3287   1.525   2.738   0.552
  796SOL    HW2 3288   1.625   2.797   0.438
  797SOL     OW 3289   4.230   0.605   0.918
  797SOL    HW1 3290   4.289   0.681   0.891
  797SOL    HW2 3291   4.264   0.565   1.003
  798SOL     OW 3292   3.949   6.171   1.419
  798SOL    HW1 3293   3.904   6.259   1.438
  798SOL    HW2 3294   3.999   6.178   1.333
  799SOL     OW 3295   0.819   0.488   6.336
  799SOL    HW1 3296   0.869   0.537   6.265
  799SOL    HW2 3297   0.790   0.399   6.301
  800SOL     OW 3298   6.843   0.919   2.305
  800SOL    HW1 3299   6.750   0.895   2.277
  800SOL    HW2 3300   6.904   0.914   2.226
  801SOL     OW 3301   2.300   4.228   5.214
  801SOL    HW1 3302   2.342   4.309   5.172
  801SOL    HW2 3303   2.276   4.162   5.143
  802SOL     OW 3304   3.263   2.117   0.195
  802SOL    HW1 3305   3.172   2.113   0.153
  802SOL    HW2 3306   3.270   2.045   0.264
  803SOL     OW 3307   1.684   6.623   5.738
  803SOL    HW1 3308   1.647   6.649   5.649
  803SOL    HW2 3309   1.679   6.701   5.801
  804SOL     OW 3310   6.760   0.085   1.635
  804SOL    HW1 3311   6.841   0.094   1.577
  804SOL    HW2 3312   6.741   0.173   1.679
  805SOL     OW 3313   1.700   0.261   4.127
  805SOL    HW1 3314   1.767   0.231   4.059
  805SOL    HW2 3315   1.607   0.244   4.092
  806SOL     OW 3316   6.166   0.348   6.466
  806SOL    HW1 3317   6.231   0.305   6.529
  806SOL    HW2 3318   6.093   0.284   6.444
  807SOL     OW 3319   0.661   6.851   3.758
  807SOL    HW1 3320   0.567   6.820   3.765
  807SOL    HW2 3321   0.673   6.935   3.809
  808SOL     OW 3322   5.047   3.038   6.553
  808SOL    HW1 3323   5.100   3.062   6.635
  808SOL    HW2 3324   5.082   3.090   6.475
  809SOL     OW 3325   0.965   4.939   0.738
  809SOL    HW1 3326   1.035   4.968   0.672
  809SOL    HW2 3327   0.922   5.020   0.778
  810SOL     OW 3328   3.347   3.819   0.032
  810SOL    HW1 3329   3.253   3.810   7.021
  810SOL    HW2 3330   3.403   3.744   7.020
  811SOL     OW 3331   5.093   5.053   4.162
  811SOL    HW1 3332   5.159   4.982   4.185
  811SOL    HW2 3333   5.127   5.142   4.194
  812SOL     OW 3334   0.237   1.668   2.179
  812SOL    HW1 3335   0.258   1.764   2.158
  812SOL    HW2 3336   0.313   1.610   2.149
  813SOL     OW 3337   2.686   0.640   4.531
  813SOL    HW1 3338   2.679   0.586   4.614
  813SOL    HW2 3339   2.693   0.579   4.452
  814SOL     OW 3340   6.443   6.040   2.650
  814SOL    HW1 3341   6.436   5.942   2.632
  814SOL    HW2 3342   6.535   6.072   2.627
  815SOL     OW 3343   5.771   3.196   3.269
  815SOL    HW1 3344   5.800   3.132   3.198
  815SOL    HW2 3345   5.775   3.151   3.359
  816SOL     OW 3346   5.169   5.141   0.304
  816SOL    HW1 3347   5.205   5.102   0.219
  816SOL    HW2 3348   5.184   5.240   0.305
  817SOL     OW 3349   0.594   5.442   1.885
  817SOL    HW1 3350   0.617   5.387   1.965
  817SOL    HW2 3351   0.679   5.476   1.843
  818SOL     OW 3352   5.824   3.074   3.543
  818SOL    HW1 3353   5.780   2.988   3.571
  818SOL    HW2 3354   5.769   3.151   3.574
  819SOL     OW 3355   6.415   2.646   1.816
  819SOL    HW1 3356   6.513   2.623   1.815
  819SOL    HW2 3357   6.365   2.581   1.759
  820SOL     OW 3358   3.143   2.168   4.495
  820SOL    HW1 3359   3.241   2.185   4.489
  820SOL    HW2 3360   3.125   2.070   4.484
  821SOL     OW 3361   6.134   4.941   6.091
  821SOL    HW1 3362   6.050   4.994   6.082
  821SOL    HW2 3363   6.112   4.848   6.120
  822SOL     OW 3364   0.016   3.424   3.249
  822SOL    HW1 3365   0.027   3.517   3.284
  822SOL    HW2 3366   7.013   3.364   3.324
  823SOL     OW 3367   6.398   4.145   6.690
  823SOL    HW1 3368   6.380   4.131   6.593
  823SOL    HW2 3369   6.461   4.221   6.702
  824SOL     OW 3370   4.870   0.972   5.739
  824SOL    HW1 3371   4.963   0.948   5.767
  824SOL    HW2 3372   4.810   0.892   5.750
  825SOL     OW 3373   6.545   5.872   1.219
  825SOL    HW1 3374   6.540   5.967   1.187
  825SOL    HW2 3375   6.534   5.810   1.141
  826SOL     OW 3376   3.259   2.521   5.627
  826SOL    HW1 3377   3.288   2.504   5.533
  826SOL    HW2 3378   3.275   2.617   5.650
  827SOL     OW 3379   2.854   4.081   5.222
  827SOL    HW1 3380   2.943   4.095   5.265
  827SOL    HW2 3381   2.866   4.053   5.127
  828SOL     OW 3382   5.859   6.185   6.237
  828SOL    HW1 3383   5.805   6.109   6.201
  828SOL    HW2 3384   5.922   6.151   6.307
  829SOL     OW 3385   3.737   3.269   2.021
  829SOL    HW1 3386   3.763   3.176   2.047
  829SOL    HW2 3387   3.642   3.285   2.047
  830SOL     OW 3388   5.706   5.335   6.940
  830SOL    HW1 3389   5.725   5.432   6.923
  830SOL    HW2 3390   5.687   5.322   0.014
  831SOL     OW 3391   6.165   0.011   1.211
  831SOL    HW1 3392   6.196   0.106   1.211
  831SOL    HW2 3393   6.083   0.002   1.268
  832SOL     OW 3394   4.812   1.741   3.949
  832SOL    HW1 3395   4.837   1.646   3.927
  832SOL    HW2 3396   4.822   1.756   4.047
  833SOL     OW 3397   2.297   3.844   5.965
  833SOL    HW1 3398   2.271   3.771   5.903
  833SOL    HW2 3399   2.322   3.925   5.913
  834SOL     OW 3400   5.235   3.157   0.435
  834SOL    HW1 3401   5.175   3.114   0.368
  834SOL    HW2 3402   5.196   3.146   0.527
  835SOL     OW 3403   2.062   0.620   4.669
  835SOL    HW1 3404   2.124   0.573   4.605
  835SOL    HW2 3405   2.054   0.567   4.753
  836SOL     OW 3406   3.223   1.063   5.041
  836SOL    HW1 3407   3.256   1.045   4.949
  836SOL    HW2 3408   3.282   1.017   5.108
  837SOL     OW 3409   0.424   0.251   0.758
  837SOL    HW1 3410   0.513   0.213   0.785
  837SOL    HW2 3411   0.358   0.177   0.746
  838SOL     OW 3412   2.604   6.134   4.506
  838SOL    HW1 3413   2.689   6.105   4.549
  838SOL    HW2 3414   2.539   6.058   4.507
  839SOL     OW 3415   2.223   1.500   1.671
  839SOL    HW1 3416   2.177   1.576   1.717
  839SOL    HW2 3417   2.252   1.529   1.580
  840SOL     OW 3418   6.089   5.316   0.471
  840SOL    HW1 3419   6.156   5.246   0.497
  840SOL    HW2 3420   6.021   5.325   0.543
  841SOL     OW 3421   3.003   5.675   6.192
  841SOL    HW1 3422   3.085   5.676   6.249
  841SOL    HW2 3423   3.000   5.589   6.140
  842SOL     OW 3424   3.479   6.900   6.518
  842SOL    HW1 3425   3.518   6.941   6.600
  842SOL    HW2 3426   3.551   6.886   6.450
  843SOL     OW 3427   1.754   1.775   1.853
  843SOL    HW1 3428   1.839   1.814   1.817
  843SOL    HW2 3429   1.776   1.703   1.919
  844SOL     OW 3430   0.062   6.889   1.306
  844SOL    HW1 3431   0.029   6.844   1.389
  844SOL    HW2 3432   7.013   6.887   1.236
  845SOL     OW 3433   5.166   3.617   3.184
  845SOL    HW1 3434   5.084   3.620   3.241
  845SOL    HW2 3435   5.182   3.523   3.153
  846SOL     OW 3436   2.722   0.766   5.822
  846SOL    HW1 3437   2.760   0.769   5.915
  846SOL    HW2 3438   2.787   0.720   5.761
  847SOL     OW 3439   2.106   3.015   1.868
  847SOL    HW1 3440   2.171   3.042   1.797
  847SOL    HW2 3441   2.059   3.096   1.902
  848SOL     OW 3442   6.489   0.000   5.770
  848SOL    HW1 3443   6.533   0.076   5.818
  848SOL    HW2 3444   6.555   6.977   5.712
  849SOL     OW 3445   6.098   4.405   6.099
  849SOL    HW1 3446   6.198   4.413   6.103
  849SOL    HW2 3447   6.064   4.450   6.016
  850SOL     OW 3448   6.523   0.169   5.119
  850SOL    HW1 3449   6.478   0.206   5.038
  850SOL    HW2 3450   6.528   0.240   5.190
  851SOL     OW 3451   0.198   3.068   6.898
  851SOL    HW1 3452   0.144   3.089   6.980
  851SOL    HW2 3453   0.284   3.025   6.926
  852SOL     OW 3454   0.735   4.790   0.770
  852SOL    HW1 3455   0.712   4.714   0.710
  852SOL    HW2 3456   0.826   4.823   0.748
  853SOL     OW 3457   1.233   4.563   6.991
  853SOL    HW1 3458   1.153   4.603   6.947
  853SOL    HW2 3459   1.317   4.601   6.951
  854SOL     OW 3460   4.827   6.160   0.151
  854SOL    HW1 3461   4.861   6.071   0.179
  854SOL    HW2 3462   4.895   6.230   0.173
  855SOL     OW 3463   6.651   0.113   0.416
  855SOL    HW1 3464   6.622   0.123   0.511
  855SOL    HW2 3465   6.649   0.017   0.390
  856SOL     OW 3466   1.291   1.358   6.580
  856SOL    HW1 3467   1.300   1.271   6.629
  856SOL    HW2 3468   1.301   1.434   6.643
  857SOL     OW 3469   6.495   5.546   2.451
  857SOL    HW1 3470   6.405   5.534   2.409
  857SOL    HW2 3471   6.561   5.486   2.406
  858SOL     OW 3472   3.185   4.704   1.031
  858SOL    HW1 3473   3.236   4.651   0.963
  858SOL    HW2 3474   3.137   4.779   0.986
  859SOL     OW 3475   5.857   6.049   5.545
  859SOL    HW1 3476   5.931   6.040   5.478
  859SOL    HW2 3477   5.769   6.037   5.499
  860SOL     OW 3478   6.163   2.695   6.601
  860SOL    HW1 3479   6.152   2.602   6.635
  860SOL    HW2 3480   6.145   2.760   6.675
  861SOL     OW 3481   2.502   5.308   3.063
  861SOL    HW1 3482   2.532   5.266   2.977
  861SOL    HW2 3483   2.570   5.374   3.094
  862SOL     OW 3484   2.284   4.331   3.384
  862SOL    HW1 3485   2.257   4.235   3.374
  862SOL    HW2 3486   2.299   4.353   3.480
  863SOL     OW 3487   6.030   1.313   6.190
  863SOL    HW1 3488   5.949   1.260   6.216
  863SOL    HW2 3489   6.112   1.262   6.215
  864SOL     OW 3490   3.914   6.086   4.903
  864SOL    HW1 3491   3.893   6.155   4.973
  864SOL    HW2 3492   3.916   5.996   4.946
  865SOL     OW 3493   2.035   0.189   5.671
  865SOL    HW1 3494   1.960   0.185   5.738
  865SOL    HW2 3495   2.036   0.105   5.617
  866SOL     OW 3496   3.147   0.287   0.779
  866SOL    HW1 3497   3.150   0.325   0.871
  866SOL    HW2 3498   3.067   0.228   0.770
  867SOL     OW 3499   5.008   3.631   1.226
  867SOL    HW1 3500   5.046   3.619   1.318
  867SOL    HW2 3501   4.938   3.560   1.211
  868SOL     OW 3502   0.008   1.648   1.685
  868SOL    HW1 3503   0.018   1.644   1.785
  868SOL    HW2 3504   0.094   1.621   1.642
  869SOL     OW 3505   6.896   4.586   3.452
  869SOL    HW1 3506   6.949   4.633   3.381
  869SOL    HW2 3507   6.958   4.541   3.516
  870SOL     OW 3508   4.368   4.300   1.002
  870SOL    HW1 3509   4.358   4.286   0.904
  870SOL    HW2 3510   4.366   4.211   1.049
  871SOL     OW 3511   5.765   2.411   3.942
  871SOL    HW1 3512   5.822   2.352   4.001
  871SOL    HW2 3513   5.670   2.404   3.971
  872SOL     OW 3514   6.501   2.558   4.179
  872SOL    HW1 3515   6.405   2.582   4.195
  872SOL    HW2 3516   6.526   2.578   4.085
  873SOL     OW 3517   4.706   5.717   5.265
  873SOL    HW1 3518   4.710   5.674   5.355
  873SOL    HW2 3519   4.688   5.647   5.196
  874SOL     OW 3520   6.625   3.663   0.330
  874SOL    HW1 3521   6.547   3.682   0.270
  874SOL    HW2 3522   6.620   3.567   0.360
  875SOL     OW 3523   4.566   4.716   0.891
  875SOL    HW1 3524   4.563   4.705   0.792
  875SOL    HW2 3525   4.540   4.630   0.935
  876SOL     OW 3526   0.534   5.648   2.271
  876SOL    HW1 3527   0.558   5.695   2.356
  876SOL    HW2 3528   0.522   5.716   2.198
  877SOL     OW 3529   3.166   4.523   5.933
  877SOL    HW1 3530   3.203   4.433   5.954
  877SOL    HW2 3531   3.155   4.532   5.834
  878SOL     OW 3532   4.498   6.492   4.422
  878SOL    HW1 3533   4.425   6.433   4.389
  878SOL    HW2 3534   4.549   6.445   4.494
  879SOL     OW 3535   3.932   0.249   1.900
  879SOL    HW1 3536   3.841   0.288   1.886
  879SOL    HW2 3537   3.927   0.150   1.898
  880SOL     OW 3538   3.625   3.543   3.816
  880SOL    HW1 3539   3.649   3.446   3.807
  880SOL    HW2 3540   3.591   3.560   3.908
  881SOL     OW 3541   5.054   3.720   5.284
  881SOL    HW1 3542   5.118   3.786   5.244
  881SOL    HW2 3543   4.961   3.744   5.256
  882SOL     OW 3544   1.024   2.737   4.010
  882SOL    HW1 3545   1.096   2.713   3.946
  882SOL    HW2 3546   0.943   2.681   3.992
  883SOL     OW 3547   3.115   0.964   1.039
  883SOL    HW1 3548   3.117   1.034   0.967
  883SOL    HW2 3549   3.079   1.003   1.123
  884SOL     OW 3550   6.002   4.132   5.863
  884SOL    HW1 3551   6.052   4.141   5.948
  884SOL    HW2 3552   6.054   4.076   5.799
  885SOL     OW 3553   3.538   1.167   4.863
  885SOL    HW1 3554   3.612   1.203   4.919
  885SOL    HW2 3555   3.573   1.139   4.774
  886SOL     OW 3556   3.252   0.517   0.191
  886SOL    HW1 3557   3.322   0.475   0.133
  886SOL    HW2 3558   3.297   0.578   0.257
  887SOL     OW 3559   3.710   6.644   3.623
  887SOL    HW1 3560   3.762   6.678   3.702
  887SOL    HW2 3561   3.627   6.698   3.613
  888SOL     OW 3562   0.007   6.048   3.302
  888SOL    HW1 3563   6.942   6.025   3.259
  888SOL    HW2 3564   0.077   6.058   3.231
  889SOL     OW 3565   6.861   2.109   0.436
  889SOL    HW1 3566   6.950   2.131   0.398
  889SOL    HW2 3567   6.822   2.190   0.480
  890SOL     OW 3568   2.075   4.855   3.032
  890SOL    HW1 3569   2.005   4.816   3.091
  890SOL    HW2 3570   2.152   4.887   3.088
  891SOL     OW 3571   6.038   3.914   1.402
  891SOL    HW1 3572   6.052   4.010   1.426
  891SOL    HW2 3573   5.959   3.906   1.341
  892SOL     OW 3574   2.948   3.735   4.861
  892SOL    HW1 3575   2.962   3.685   4.947
  892SOL    HW2 3576   2.862   3.705   4.819
  893SOL     OW 3577   2.219   6.309   3.266
  893SOL    HW1 3578   2.140   6.340   3.213
  893SOL    HW2 3579   2.244   6.378   3.333
  894SOL     OW 3580   0.828   2.978   2.034
  894SOL    HW1 3581   0.891   2.984   2.111
  894SOL    HW2 3582   0.745   2.930   2.062
  895SOL     OW 3583   1.247   4.486   3.673
  895SOL    HW1 3584   1.244   4.551   3.749
  895SOL    HW2 3585   1.317   4.417   3.691
  896SOL     OW 3586   5.538   4.516   1.109
  896SOL    HW1 3587   5.474   4.562   1.049
  896SOL    HW2 3588   5.499   4.430   1.140
  897SOL     OW 3589   3.972   1.817   6.591
  897SOL    HW1 3590   3.974   1.722   6.621
  897SOL    HW2 3591   4.005   1.823   6.497
  898SOL     OW 3592   3.607   6.401   2.778
  898SOL    HW1 3593   3.557   6.470   2.830
  898SOL    HW2 3594   3.656   6.341   2.842
  899SOL     OW 3595   0.381   6.485   0.420
  899SOL    HW1 3596   0.353   6.411   0.481
  899SOL    HW2 3597   0.362   6.573   0.463
  900SOL     OW 3598   5.552   0.337   0.171
  900SOL    HW1 3599   5.479   0.324   0.104
  900SOL    HW2 3600   5.630   0.382   0.128
  901SOL     OW 3601   1.952   0.352   3.695
  901SOL    HW1 3602   1.983   0.398   3.611
  901SOL    HW2 3603   1.978   0.407   3.774
  902SOL     OW 3604   1.470   2.026   1.344
  902SOL    HW1 3605   1.396   2.037   1.410
  902SOL    HW2 3606   1.433   1.994   1.257
  903SOL     OW 3607   0.940   2.892   6.748
  903SOL    HW1 3608   1.027   2.933   6.776
  903SOL    HW2 3609   0.865   2.950   6.779
  904SOL     OW 3610   1.777   1.458   2.411
  904SOL    HW1 3611   1.865   1.505   2.417
  904SOL    HW2 3612   1.703   1.525   2.423
  905SOL     OW 3613   5.440   2.943   6.295
  905SOL    HW1 3614   5.438   2.941   6.395
  905SOL    HW2 3615   5.500   3.016   6.264
  906SOL     OW 3616   0.099   1.891   6.402
  906SOL    HW1 3617   0.061   1.854   6.318
  906SOL    HW2 3618   0.090   1.823   6.475
  907SOL     OW 3619   5.547   3.126   0.415
  907SOL    HW1 3620   5.451   3.120   0.441
  907SOL    HW2 3621   5.555   3.141   0.317
  908SOL     OW 3622   2.923   4.765   3.100
  908SOL    HW1 3623   2.908   4.682   3.154
  908SOL    HW2 3624   2.972   4.833   3.154
  909SOL     OW 3625   4.060   6.505   1.473
  909SOL    HW1 3626   4.010   6.539   1.394
  909SOL    HW2 3627   4.107   6.420   1.449
  910SOL     OW 3628   3.318   1.607   1.454
  910SOL    HW1 3629   3.276   1.556   1.529
  910SOL    HW2 3630   3.249   1.661   1.407
  911SOL     OW 3631   1.331   6.516   6.579
  911SOL    HW1 3632   1.373   6.433   6.615
  911SOL    HW2 3633   1.303   6.502   6.484
  912SOL     OW 3634   5.873   1.722   3.047
  912SOL    HW1 3635   5.915   1.746   2.959
  912SOL    HW2 3636   5.913   1.779   3.119
  913SOL     OW 3637   3.438   0.717   3.226
  913SOL    HW1 3638   3.460   0.634   3.175
  913SOL    HW2 3639   3.416   0.790   3.161
  914SOL     OW 3640   2.200   0.238   6.077
  914SOL    HW1 3641   2.203   0.144   6.044
  914SOL    HW2 3642   2.293   0.273   6.087
  915SOL     OW 3643   6.219   3.652   6.785
  915SOL    HW1 3644   6.143   3.662   6.721
  915SOL    HW2 3645   6.293   3.714   6.758
  916SOL     OW 3646   1.528   3.089   2.525
  916SOL    HW1 3647   1.456   3.038   2.478
  916SOL    HW2 3648   1.614   3.081   2.473
  917SOL     OW 3649   0.767   6.861   1.327
  917SOL    HW1 3650   0.709   6.845   1.247
  917SOL    HW2 3651   0.709   6.866   1.408
  918SOL     OW 3652   3.734   0.830   1.202
  918SOL    HW1 3653   3.751   0.928   1.190
  918SOL    HW2 3654   3.733   0.786   1.112
  919SOL     OW 3655   6.400   0.256   2.531
  919SOL    HW1 3656   6.469   0.327   2.541
  919SOL    HW2 3657   6.402   0.220   2.437
  920SOL     OW 3658   2.286   4.172   2.447
  920SOL    HW1 3659   2.262   4.077   2.424
  920SOL    HW2 3660   2.221   4.234   2.405
  921SOL     OW 3661   3.747   5.476   4.175
  921SOL    HW1 3662   3.773   5.389   4.218
  921SOL    HW2 3663   3.811   5.498   4.102
  922SOL     OW 3664   3.114   3.164   4.390
  922SOL    HW1 3665   3.097   3.181   4.293
  922SOL    HW2 3666   3.162   3.243   4.429
  923SOL     OW 3667   2.140   3.739   6.160
  923SOL    HW1 3668   2.180   3.774   6.075
  923SOL    HW2 3669   2.074   3.805   6.196
  924SOL     OW 3670   6.767   3.952   1.883
  924SOL    HW1 3671   6.672   3.922   1.877
  924SOL    HW2 3672   6.816   3.894   1.949
  925SOL     OW 3673   0.224   2.009   0.108
  925SOL    HW1 3674   0.185   1.918   0.119
  925SOL    HW2 3675   0.276   2.034   0.189
  926SOL     OW 3676   6.728   1.271   1.337
  926SOL    HW1 3677   6.695   1.275   1.431
  926SOL    HW2 3678   6.682   1.342   1.283
  927SOL     OW 3679   5.476   3.549   3.099
  927SOL    HW1 3680   5.455   3.646   3.115
  927SOL    HW2 3681   5.391   3.496   3.102
  928SOL     OW 3682   2.342   6.160   0.417
  928SOL    HW1 3683   2.328   6.061   0.428
  928SOL    HW2 3684   2.377   6.198   0.502
  929SOL     OW 3685   0.132   0.612   6.722
  929SOL    HW1 3686   0.208   0.569   6.673
  929SOL    HW2 3687   0.075   0.663   6.658
  930SOL     OW 3688   5.470   7.006   6.190
  930SOL    HW1 3689   5.493   6.975   6.282
  930SOL    HW2 3690   5.553   0.017   6.145
  931SOL     OW 3691   6.839   0.861   5.031
  931SOL    HW1 3692   6.812   0.958   5.029
  931SOL    HW2 3693   6.894   0.841   4.950
  932SOL     OW 3694   2.816   1.140   3.217
  932SOL    HW1 3695   2.755   1.109   3.143
  932SOL    HW2 3696   2.791   1.094   3.302
  933SOL     OW 3697   1.400   5.302   3.584
  933SOL    HW1 3698   1.345   5.286   3.502
  933SOL    HW2 3699   1.491   5.261   3.572
  934SOL     OW 3700   2.661   5.931   0.240
  934SOL    HW1 3701   2.726   5.864   0.205
  934SOL    HW2 3702   2.577   5.929   0.185
  935SOL     OW 3703   5.252   4.072   4.424
  935SOL    HW1 3704   5.329   4.059   4.486
  935SOL    HW2 3705   5.221   3.983   4.390
  936SOL     OW 3706   0.249   0.130   5.601
  936SOL    HW1 3707   0.202   0.042   5.594
  936SOL    HW2 3708   0.331   0.119   5.658
  937SOL     OW 3709   5.858   1.388   6.508
  937SOL    HW1 3710   5.890   1.473   6.467
  937SOL    HW2 3711   5.866   1.393   6.608
  938SOL     OW 3712   5.798   4.860   5.961
  938SOL    HW1 3713   5.765   4.860   5.866
  938SOL    HW2 3714   5.828   4.953   5.985
  939SOL     OW 3715   0.257   6.609   3.657
  939SOL    HW1 3716   0.219   6.650   3.573
  939SOL    HW2 3717   0.311   6.678   3.705
  940SOL     OW 3718   0.379   3.984   0.958
  940SOL    HW1 3719   0.375   4.020   0.865
  940SOL    HW2 3720   0.360   4.058   1.023
  941SOL     OW 3721   5.731   1.610   0.130
  941SOL    HW1 3722   5.648   1.563   0.158
  941SOL    HW2 3723   5.749   1.592   0.033
  942SOL     OW 3724   5.700   0.118   2.063
  942SOL    HW1 3725   5.760   0.039   2.080
  942SOL    HW2 3726   5.753   0.202   2.075
  943SOL     OW 3727   1.295   4.456   2.878
  943SOL    HW1 3728   1.268   4.548   2.850
  943SOL    HW2 3729   1.217   4.409   2.920
  944SOL     OW 3730   0.279   5.759   5.493
  944SOL    HW1 3731   0.362   5.707   5.473
  944SOL    HW2 3732   0.203   5.695   5.507
  945SOL     OW 3733   0.594   4.715   6.294
  945SOL    HW1 3734   0.537   4.697   6.214
  945SOL    HW2 3735   0.684   4.747   6.264
  946SOL     OW 3736   5.037   4.067   5.545
  946SOL    HW1 3737   5.121   4.121   5.541
  946SOL    HW2 3738   5.000   4.057   5.453
  947SOL     OW 3739   3.298   2.897   3.336
  947SOL    HW1 3740   3.258   2.940   3.255
  947SOL    HW2 3741   3.396   2.918   3.339
  948SOL     OW 3742   5.092   1.266   2.710
  948SOL    HW1 3743   5.130   1.290   2.621
  948SOL    HW2 3744   5.106   1.341   2.774
  949SOL     OW 3745   2.821   5.779   0.103
  949SOL    HW1 3746   2.915   5.807   0.122
  949SOL    HW2 3747   2.815   5.680   0.100
  950SOL     OW 3748   6.051   5.621   2.232
  950SOL    HW1 3749   6.002   5.651   2.315
  950SOL    HW2 3750   5.994   5.556   2.182
  951SOL     OW 3751   1.386   6.998   4.000
  951SOL    HW1 3752   1.299   6.957   3.970
  951SOL    HW2 3753   1.461   6.937   3.976
  952SOL     OW 3754   4.513   2.393   3.455
  952SOL    HW1 3755   4.574   2.323   3.491
  952SOL    HW2 3756   4.544   2.421   3.364
  953SOL     OW 3757   5.663   5.827   4.523
  953SOL    HW1 3758   5.720   5.746   4.534
  953SOL    HW2 3759   5.567   5.801   4.523
  954SOL     OW 3760   3.877   5.969   2.635
  954SOL    HW1 3761   3.919   5.944   2.547
  954SOL    HW2 3762   3.883   5.891   2.698
  955SOL     OW 3763   1.291   4.515   0.773
  955SOL    HW1 3764   1.358   4.472   0.833
  955SOL    HW2 3765   1.255   4.598   0.816
  956SOL     OW 3766   6.206   0.600   1.514
  956SOL    HW1 3767   6.240   0.512   1.545
  956SOL    HW2 3768   6.143   0.587   1.438
  957SOL     OW 3769   5.452   2.665   2.250
  957SOL    HW1 3770   5.409   2.723   2.181
  957SOL    HW2 3771   5.420   2.571   2.240
  958SOL     OW 3772   3.951   0.493   1.472
  958SOL    HW1 3773   3.871   0.529   1.424
  958SOL    HW2 3774   3.969   0.400   1.440
  959SOL     OW 3775   3.511   6.646   4.535
  959SOL    HW1 3776   3.601   6.623   4.499
  959SOL    HW2 3777   3.463   6.562   4.561
  960SOL     OW 3778   0.808   0.333   1.206
  960SOL    HW1 3779   0.818   0.249   1.152
  960SOL    HW2 3780   0.712   0.359   1.209
  961SOL     OW 3781   4.298   6.582   2.977
  961SOL    HW1 3782   4.326   6.678   2.981
  961SOL    HW2 3783   4.355   6.528   3.039
  962SOL     OW 3784   6.939   0.623   5.204
  962SOL    HW1 3785   6.869   0.683   5.166
  962SOL    HW2 3786   6.947   0.541   5.147
  963SOL     OW 3787   4.936   0.750   7.003
  963SOL    HW1 3788   4.919   0.694   6.923
  963SOL    HW2 3789   4.963   0.692   0.057
  964SOL     OW 3790   4.873   4.894   6.084
  964SOL    HW1 3791   4.973   4.888   6.093
  964SOL    HW2 3792   4.830   4.871   6.171
  965SOL     OW 3793   6.223   1.361   2.479
  965SOL    HW1 3794   6.230   1.261   2.481
  965SOL    HW2 3795   6.291   1.397   2.415
  966SOL     OW 3796   5.553   2.537   2.890
  966SOL    HW1 3797   5.649   2.508   2.884
  966SOL    HW2 3798   5.548   2.636   2.884
  967SOL     OW 3799   3.148   4.323   0.565
  967SOL    HW1 3800   3.088   4.340   0.643
  967SOL    HW2 3801   3.216   4.396   0.558
  968SOL     OW 3802   4.340   0.280   1.835
  968SOL    HW1 3803   4.344   0.378   1.856
  968SOL    HW2 3804   4.250   0.256   1.800
  969SOL     OW 3805   2.454   4.434   5.862
  969SOL    HW1 3806   2.536   4.416   5.808
  969SOL    HW2 3807   2.389   4.487   5.809
  970SOL     OW 3808   5.034   0.621   6.461
  970SOL    HW1 3809   5.114   0.678   6.480
  970SOL    HW2 3810   5.053   0.527   6.489
  971SOL     OW 3811   6.820   3.523   2.740
  971SOL    HW1 3812   6.833   3.621   2.756
  971SOL    HW2 3813   6.906   3.482   2.711
  972SOL     OW 3814   6.137   1.824   1.639
  972SOL    HW1 3815   6.174   1.862   1.554
  972SOL    HW2 3816   6.053   1.872   1.663
  973SOL     OW 3817   0.824   5.322   6.593
  973SOL    HW1 3818   0.840   5.224   6.604
  973SOL    HW2 3819   0.811   5.364   6.683
  974SOL     OW 3820   6.526   5.972   2.102
  974SOL    HW1 3821   6.451   5.911   2.129
  974SOL    HW2 3822   6.595   5.920   2.052
  975SOL     OW 3823   2.229   0.521   0.119
  975SOL    HW1 3824   2.269   0.607   0.087
  975SOL    HW2 3825   2.207   0.529   0.216
  976SOL     OW 3826   0.001   3.370   1.400
  976SOL    HW1 3827   6.957   3.385   1.473
  976SOL    HW2 3828   0.041   3.458   1.374
  977SOL     OW 3829   0.457   0.547   2.301
  977SOL    HW1 3830   0.420   0.511   2.387
  977SOL    HW2 3831   0.397   0.519   2.225
  978SOL     OW 3832   5.490   1.676   1.049
  978SOL    HW1 3833   5.577   1.628   1.059
  978SOL    HW2 3834   5.490   1.757   1.107
  979SOL     OW 3835   1.007   3.751   0.125
  979SOL    HW1 3836   1.033   3.663   0.084
  979SOL    HW2 3837   0.938   3.795   0.067
  980SOL     OW 3838   5.084   2.213   4.112
  980SOL    HW1 3839   4.995   2.257   4.097
  980SOL    HW2 3840   5.101   2.207   4.210
  981SOL     OW 3841   0.233   0.717   5.058
  981SOL    HW1 3842   0.133   0.721   5.047
  981SOL    HW2 3843   0.275   0.700   4.969
  982SOL     OW 3844   0.969   1.375   5.058
  982SOL    HW1 3845   1.031   1.326   5.120
  982SOL    HW2 3846   1.015   1.392   4.971
  983SOL     OW 3847   6.417   3.185   2.948
  983SOL    HW1 3848   6.417   3.100   3.002
  983SOL    HW2 3849   6.508   3.226   2.951
  984SOL     OW 3850   2.238   2.475   3.661
  984SOL    HW1 3851   2.207   2.566   3.633
  984SOL    HW2 3852   2.184   2.406   3.614
  985SOL     OW 3853   6.567   3.957   4.838
  985SOL    HW1 3854   6.482   4.008   4.825
  985SOL    HW2 3855   6.592   3.913   4.752
  986SOL     OW 3856   4.717   4.443   1.388
  986SOL    HW1 3857   4.762   4.387   1.458
  986SOL    HW2 3858   4.638   4.393   1.351
  987SOL     OW 3859   4.590   6.690   2.626
  987SOL    HW1 3860   4.516   6.630   2.657
  987SOL    HW2 3861   4.551   6.772   2.584
  988SOL     OW 3862   3.426   4.196   1.108
  988SOL    HW1 3863   3.399   4.203   1.204
  988SOL    HW2 3864   3.356   4.239   1.051
  989SOL     OW 3865   6.504   1.645   6.989
  989SOL    HW1 3866   6.452   1.730   6.995
  989SOL    HW2 3867   6.489   1.591   0.048
  990SOL     OW 3868   3.062   0.576   2.460
  990SOL    HW1 3869   3.078   0.672   2.436
  990SOL    HW2 3870   2.964   0.556   2.454
  991SOL     OW 3871   0.234   3.592   3.688
  991SOL    HW1 3872   0.313   3.646   3.660
  991SOL    HW2 3873   0.212   3.612   3.783
  992SOL     OW 3874   0.275   3.211   1.883
  992SOL    HW1 3875   0.226   3.263   1.814
  992SOL    HW2 3876   0.229   3.123   1.898
  993SOL     OW 3877   0.176   4.364   0.752
  993SOL    HW1 3878   0.122   4.342   0.671
  993SOL    HW2 3879   0.116   4.367   0.832
  994SOL     OW 3880   4.260   5.145   1.853
  994SOL    HW1 3881   4.238   5.049   1.834
  994SOL    HW2 3882   4.200   5.180   1.925
  995SOL     OW 3883   4.016   2.847   6.121
  995SOL    HW1 3884   4.080   2.880   6.191
  995SOL    HW2 3885   4.059   2.853   6.031
  996SOL     OW 3886   3.569   5.194   4.546
  996SOL    HW1 3887   3.598   5.220   4.638
  996SOL    HW2 3888   3.587   5.269   4.483
  997SOL     OW 3889   0.830   6.478   3.349
  997SOL    HW1 3890   0.896   6.461   3.422
  997SOL    HW2 3891   0.742   6.436   3.373
  998SOL     OW 3892   6.464   0.334   6.195
  998SOL    HW1 3893   6.389   0.275   6.163
  998SOL    HW2 3894   6.469   0.330   6.295
  999SOL     OW 3895   5.037   3.716   2.204
  999SOL    HW1 3896   5.057   3.618   2.196
  999SOL    HW2 3897   5.008   3.736   2.298
 1000SOL     OW 3898   4.255   1.677   1.505
 1000SOL    HW1 3899   4.173   1.650   1.455
 1000SOL    HW2 3900   4.335   1.633   1.465
 1001SOL     OW 3901   4.248   6.140   2.055
 1001SOL    HW1 3902   4.324   6.109   1.998
 1001SOL    HW2 3903   4.265   6.234   2.085
 1002SOL     OW 3904   5.203   2.116   1.562
 1002SOL    HW1 3905   5.180   2.136   1.658
 1002SOL    HW2 3906   5.169   2.189   1.503
 1003SOL     OW 3907   2.075   5.442   3.510
 1003SOL    HW1 3908   2.006   5.422   3.579
 1003SOL    HW2 3909   2.152   5.378   3.520
 1004SOL     OW 3910   0.488   0.864   2.506
 1004SOL    HW1 3911   0.531   0.883   2.594
 1004SOL    HW2 3912   0.478   0.765   2.494
 1005SOL     OW 3913   1.370   3.062   3.637
 1005SOL    HW1 3914   1.285   3.094   3.596
 1005SOL    HW2 3915   1.440   3.133   3.629
 1006SOL     OW 3916   1.437   4.024   0.217
 1006SOL    HW1 3917   1.512   4.084   0.244
 1006SOL    HW2 3918   1.376   4.009   0.295
 1007SOL     OW 3919   4.840   0.761   5.524
 1007SOL    HW1 3920   4.749   0.736   5.557
 1007SOL    HW2 3921   4.838   0.772   5.425
 1008SOL     OW 3922   0.429   2.327   5.169
 1008SOL    HW1 3923   0.466   2.399   5.228
 1008SOL    HW2 3924   0.363   2.366   5.105
 1009SOL     OW 3925   6.602   4.992   5.889
 1009SOL    HW1 3926   6.521   4.947   5.851
 1009SOL    HW2 3927   6.627   4.947   5.975
 1010SOL     OW 3928   2.878   3.093   1.448
 1010SOL    HW1 3929   2.893   3.007   1.497
 1010SOL    HW2 3930   2.781   3.118   1.454
 1011SOL     OW 3931   1.015   5.077   3.759
 1011SOL    HW1 3932   1.015   5.016   3.680
 1011SOL    HW2 3933   1.047   5.168   3.732
 1012SOL     OW 3934   0.092   6.493   2.110
 1012SOL    HW1 3935   0.038   6.568   2.148
 1012SOL    HW2 3936   0.072   6.484   2.012
 1013SOL     OW 3937   0.160   0.681   6.159
 1013SOL    HW1 3938   0.195   0.769   6.126
 1013SOL    HW2 3939   0.187   0.608   6.096
 1014SOL     OW 3940   0.455   4.042   4.832
 1014SOL    HW1 3941   0.412   3.981   4.899
 1014SOL    HW2 3942   0.394   4.120   4.815
 1015SOL     OW 3943   2.474   0.291   6.116
 1015SOL    HW1 3944   2.521   0.357   6.058
 1015SOL    HW2 3945   2.540   0.242   6.172
 1016SOL     OW 3946   4.247   4.586   0.823
 1016SOL    HW1 3947   4.327   4.633   0.784
 1016SOL    HW2 3948   4.176   4.578   0.754
 1017SOL     OW 3949   3.865   2.207   0.833
 1017SOL    HW1 3950   3.788   2.235   0.891
 1017SOL    HW2 3951   3.837   2.210   0.737
 1018SOL     OW 3952   0.974   4.520   4.118
 1018SOL    HW1 3953   1.006   4.425   4.120
 1018SOL    HW2 3954   0.948   4.545   4.025
 1019SOL     OW 3955   7.009   6.026   1.258
 1019SOL    HW1 3956   6.976   6.011   1.351
 1019SOL    HW2 3957   0.039   6.110   1.254
 1020SOL     OW 3958   6.433   1.550   1.483
 1020SOL    HW1 3959   6.401   1.574   1.391
 1020SOL    HW2 3960   6.460   1.633   1.531
 1021SOL     OW 3961   5.532   6.986   1.918
 1021SOL    HW1 3962   5.587   0.020   1.980
 1021SOL    HW2 3963   5.487   0.020   1.850
 1022SOL     OW 3964   2.776   5.047   5.577
 1022SOL    HW1 3965   2.836   4.968   5.566
 1022SOL    HW2 3966   2.757   5.087   5.487
 1023SOL     OW 3967   0.167   0.746   2.893
 1023SOL    HW1 3968   0.222   0.667   2.869
 1023SOL    HW2 3969   0.146   0.744   2.991
 1024SOL     OW 3970   0.421   1.966   3.619
 1024SOL    HW1 3971   0.517   1.963   3.591
 1024SOL    HW2 3972   0.363   1.978   3.538
 1025SOL     OW 3973   3.422   3.685   0.391
 1025SOL    HW1 3974   3.517   3.687   0.360
 1025SOL    HW2 3975   3.405   3.764   0.450
 1026SOL     OW 3976   2.497   3.317   1.682
 1026SOL    HW1 3977   2.582   3.327   1.733
 1026SOL    HW2 3978   2.424   3.365   1.731
 1027SOL     OW 3979   2.173   0.028   2.409
 1027SOL    HW1 3980   2.086   0.048   2.364
 1027SOL    HW2 3981   2.181   0.084   2.491
 1028SOL     OW 3982   1.544   0.087   2.774
 1028SOL    HW1 3983   1.463   0.111   2.828
 1028SOL    HW2 3984   1.603   0.027   2.829
 1029SOL     OW 3985   1.184   2.064   5.699
 1029SOL    HW1 3986   1.182   1.964   5.699
 1029SOL    HW2 3987   1.090   2.099   5.700
 1030SOL     OW 3988   3.272   3.404   1.575
 1030SOL    HW1 3989   3.210   3.327   1.563
 1030SOL    HW2 3990   3.354   3.391   1.519
 1031SOL     OW 3991   4.924   3.332   1.818
 1031SOL    HW1 3992   4.939   3.350   1.721
 1031SOL    HW2 3993   4.827   3.344   1.840
 1032SOL     OW 3994   1.699   1.068   5.044
 1032SOL    HW1 3995   1.645   1.147   5.070
 1032SOL    HW2 3996   1.641   0.986   5.043
 1033SOL     OW 3997   1.799   5.291   2.196
 1033SOL    HW1 3998   1.728   5.229   2.162
 1033SOL    HW2 3999   1.845   5.335   2.119
 1034SOL     OW 4000   1.525   5.349   4.645
 1034SOL    HW1 4001   1.526   5.374   4.742
 1034SOL    HW2 4002   1.467   5.269   4.632
 1035SOL     OW 4003   0.136   2.220   6.990
 1035SOL    HW1 4004   0.141   2.199   6.892
 1035SOL    HW2 4005   0.175   2.144   0.019
 1036SOL     OW 4006   3.997   0.920   1.780
 1036SOL    HW1 4007   4.094   0.927   1.804
 1036SOL    HW2 4008   3.987   0.908   1.682
 1037SOL     OW 4009   1.769   1.628   2.885
 1037SOL    HW1 4010   1.679   1.638   2.928
 1037SOL    HW2 4011   1.761   1.568   2.806
 1038SOL     OW 4012   1.892   1.473   4.939
 1038SOL    HW1 4013   1.891   1.378   4.970
 1038SOL    HW2 4014   1.986   1.507   4.940
 1039SOL     OW 4015   3.489   3.890   4.549
 1039SOL    HW1 4016   3.484   3.935   4.639
 1039SOL    HW2 4017   3.444   3.948   4.481
 1040SOL     OW 4018   4.954   0.918   2.100
 1040SOL    HW1 4019   5.036   0.912   2.044
 1040SOL    HW2 4020   4.943   0.835   2.154
 1041SOL     OW 4021   6.711   6.134   3.555
 1041SOL    HW1 4022   6.688   6.136   3.457
 1041SOL    HW2 4023   6.807   6.158   3.567
 1042SOL     OW 4024   4.257   5.506   2.712
 1042SOL    HW1 4025   4.176   5.518   2.655
 1042SOL    HW2 4026   4.325   5.575   2.687
 1043SOL     OW 4027   3.746   2.067   3.334
 1043SOL    HW1 4028   3.794   2.007   3.397
 1043SOL    HW2 4029   3.654   2.086   3.368
 1044SOL     OW 4030   5.900   5.100   2.272
 1044SOL    HW1 4031   5.828   5.144   2.325
 1044SOL    HW2 4032   5.889   5.124   2.175
 1045SOL     OW 4033   4.307   0.652   2.904
 1045SOL    HW1 4034   4.274   0.653   2.998
 1045SOL    HW2 4035   4.344   0.562   2.883
 1046SOL     OW 4036   1.922   1.524   0.045
 1046SOL    HW1 4037   1.932   1.511   0.144
 1046SOL    HW2 4038   1.997   1.478   7.021
 1047SOL     OW 4039   2.560   0.563   4.034
 1047SOL    HW1 4040   2.538   0.469   4.057
 1047SOL    HW2 4041   2.480   0.621   4.050
 1048SOL     OW 4042   3.408   6.046   1.579
 1048SOL    HW1 4043   3.501   6.026   1.548
 1048SOL    HW2 4044   3.410   6.069   1.676
 1049SOL     OW 4045   6.082   0.085   3.973
 1049SOL    HW1 4046   6.130   0.106   3.887
 1049SOL    HW2 4047   6.115   7.021   4.009
 1050SOL     OW 4048   3.889   5.361   2.195
 1050SOL    HW1 4049   3.837   5.316   2.269
 1050SOL    HW2 4050   3.826   5.386   2.122
 1051SOL     OW 4051   0.278   5.741   0.515
 1051SOL    HW1 4052   0.256   5.719   0.610
 1051SOL    HW2 4053   0.376   5.759   0.506
 1052SOL     OW 4054   4.796   0.743   5.261
 1052SOL    HW1 4055   4.775   0.653   5.225
 1052SOL    HW2 4056   4.800   0.809   5.185
 1053SOL     OW 4057   5.495   3.884   2.339
 1053SOL    HW1 4058   5.593   3.870   2.326
 1053SOL    HW2 4059   5.451   3.795   2.355
 1054SOL     OW 4060   2.924   3.490   0.912
 1054SOL    HW1 4061   2.919   3.499   1.011
 1054SOL    HW2 4062   2.963   3.401   0.889
 1055SOL     OW 4063   4.186   6.156   5.539
 1055SOL    HW1 4064   4.231   6.093   5.477
 1055SOL    HW2 4065   4.247   6.178   5.615
 1056SOL     OW 4066   1.287   3.698   0.439
 1056SOL    HW1 4067   1.214   3.767   0.441
 1056SOL    HW2 4068   1.331   3.694   0.529
 1057SOL     OW 4069   3.803   2.920   1.197
 1057SOL    HW1 4070   3.762   2.965   1.276
 1057SOL    HW2 4071   3.859   2.985   1.146
 1058SOL     OW 4072   5.296   2.435   4.183
 1058SOL    HW1 4073   5.331   2.396   4.098
 1058SOL    HW2 4074   5.252   2.523   4.163
 1059SOL     OW 4075   2.018   6.971   1.733
 1059SOL    HW1 4076   1.969   7.022   1.803
 1059SOL    HW2 4077   2.095   6.922   1.776
 1060SOL     OW 4078   0.236   4.586   4.311
 1060SOL    HW1 4079   0.219   4.653   4.238
 1060SOL    HW2 4080   0.183   4.611   4.392
 1061SOL     OW 4081   6.544   3.603   5.941
 1061SOL    HW1 4082   6.528   3.512   5.903
 1061SOL    HW2 4083   6.642   3.621   5.944
 1062SOL     OW 4084   4.566   5.519   6.155
 1062SOL    HW1 4085   4.536   5.519   6.059
 1062SOL    HW2 4086   4.487   5.510   6.215
 1063SOL     OW 4087   0.095   6.407   0.492
 1063SOL    HW1 4088   0.136   6.425   0.403
 1063SOL    HW2 4089   0.080   6.309   0.503
 1064SOL     OW 4090   1.842   4.461   2.209
 1064SOL    HW1 4091   1.760   4.417   2.246
 1064SOL    HW2 4092   1.851   4.553   2.247
 1065SOL     OW 4093   4.599   1.049   3.006
 1065SOL    HW1 4094   4.567   0.963   2.967
 1065SOL    HW2 4095   4.671   1.087   2.949
 1066SOL     OW 4096   4.345   6.584   2.721
 1066SOL    HW1 4097   4.358   6.570   2.820
 1066SOL    HW2 4098   4.247   6.579   2.700
 1067SOL     OW 4099   1.962   2.100   0.117
 1067SOL    HW1 4100   1.913   2.186   0.115
 1067SOL    HW2 4101   1.991   2.080   0.210
 1068SOL     OW 4102   6.685   4.480   1.515
 1068SOL    HW1 4103   6.715   4.445   1.603
 1068SOL    HW2 4104   6.586   4.492   1.515
 1069SOL     OW 4105   5.104   5.969   0.542
 1069SOL    HW1 4106   5.141   6.036   0.606
 1069SOL    HW2 4107   5.004   5.966   0.551
 1070SOL     OW 4108   1.503   0.208   1.914
 1070SOL    HW1 4109   1.407   0.218   1.886
 1070SOL    HW2 4110   1.550   0.146   1.852
 1071SOL     OW 4111   2.479   2.072   3.770
 1071SOL    HW1 4112   2.484   2.022   3.856
 1071SOL    HW2 4113   2.461   2.169   3.789
 1072SOL     OW 4114   2.506   0.927   1.086
 1072SOL    HW1 4115   2.596   0.951   1.048
 1072SOL    HW2 4116   2.516   0.908   1.184
 1073SOL     OW 4117   4.867   0.870   3.285
 1073SOL    HW1 4118   4.782   0.893   3.334
 1073SOL    HW2 4119   4.938   0.935   3.311
 1074SOL     OW 4120   2.525   5.337   1.894
 1074SOL    HW1 4121   2.560   5.259   1.946
 1074SOL    HW2 4122   2.601   5.382   1.848
 1075SOL     OW 4123   5.753   0.861   3.368
 1075SOL    HW1 4124   5.712   0.770   3.361
 1075SOL    HW2 4125   5.718   0.907   3.450
 1076SOL     OW 4126   0.813   2.190   6.233
 1076SOL    HW1 4127   0.793   2.266   6.172
 1076SOL    HW2 4128   0.727   2.143   6.257
 1077SOL     OW 4129   6.629   6.545   0.957
 1077SOL    HW1 4130   6.608   6.641   0.941
 1077SOL    HW2 4131   6.699   6.515   0.892
 1078SOL     OW 4132   6.854   0.647   3.164
 1078SOL    HW1 4133   6.905   0.717   3.114
 1078SOL    HW2 4134   6.778   0.690   3.213
 1079SOL     OW 4135   1.430   5.370   2.134
 1079SOL    HW1 4136   1.428   5.456   2.082
 1079SOL    HW2 4137   1.450   5.295   2.072
 1080SOL     OW 4138   2.291   5.378   3.919
 1080SOL    HW1 4139   2.260   5.446   3.985
 1080SOL    HW2 4140   2.345   5.308   3.966
 1081SOL     OW 4141   6.795   5.178   5.959
 1081SOL    HW1 4142   6.735   5.112   5.914
 1081SOL    HW2 4143   6.810   5.149   6.054
 1082SOL     OW 4144   6.169   1.984   5.784
 1082SOL    HW1 4145   6.115   1.961   5.703
 1082SOL    HW2 4146   6.123   2.057   5.835
 1083SOL     OW 4147   4.803   3.477   0.519
 1083SOL    HW1 4148   4.884   3.457   0.464
 1083SOL    HW2 4149   4.770   3.393   0.562
 1084SOL     OW 4150   6.622   6.675   6.022
 1084SOL    HW1 4151   6.586   6.610   6.089
 1084SOL    HW2 4152   6.579   6.764   6.035
 1085SOL     OW 4153   1.837   3.812   4.494
 1085SOL    HW1 4154   1.794   3.842   4.579
 1085SOL    HW2 4155   1.818   3.879   4.422
 1086SOL     OW 4156   6.673   4.585   0.530
 1086SOL    HW1 4157   6.746   4.653   0.522
 1086SOL    HW2 4158   6.686   4.532   0.613
 1087SOL     OW 4159   0.123   1.500   4.673
 1087SOL    HW1 4160   0.192   1.522   4.742
 1087SOL    HW2 4161   0.063   1.579   4.659
 1088SOL     OW 4162   0.339   4.335   2.975
 1088SOL    HW1 4163   0.278   4.324   3.054
 1088SOL    HW2 4164   0.285   4.364   2.895
 1089SOL     OW 4165   6.949   5.296   4.601
 1089SOL    HW1 4166   6.937   5.383   4.553
 1089SOL    HW2 4167   6.859   5.255   4.618
 1090SOL     OW 4168   3.522   1.983   2.661
 1090SOL    HW1 4169   3.601   1.921   2.658
 1090SOL    HW2 4170   3.537   2.054   2.730
 1091SOL     OW 4171   2.100   3.055   4.149
 1091SOL    HW1 4172   2.176   2.993   4.132
 1091SOL    HW2 4173   2.125   3.148   4.122
 1092SOL     OW 4174   1.243   4.965   0.628
 1092SOL    HW1 4175   1.278   4.910   0.552
 1092SOL    HW2 4176   1.257   4.916   0.714
 1093SOL     OW 4177   3.123   6.808   1.929
 1093SOL    HW1 4178   3.094   6.833   1.837
 1093SOL    HW2 4179   3.099   6.882   1.992
 1094SOL     OW 4180   0.530   6.313   2.343
 1094SOL    HW1 4181   0.551   6.407   2.372
 1094SOL    HW2 4182   0.433   6.308   2.317
 1095SOL     OW 4183   0.254   3.083   6.205
 1095SOL    HW1 4184   0.311   3.005   6.182
 1095SOL    HW2 4185   0.218   3.124   6.121
 1096SOL     OW 4186   3.500   4.523   1.369
 1096SOL    HW1 4187   3.513   4.592   1.298
 1096SOL    HW2 4188   3.455   4.565   1.448
 1097SOL     OW 4189   2.022   4.203   3.793
 1097SOL    HW1 4190   1.926   4.175   3.790
 1097SOL    HW2 4191   2.076   4.131   3.837
 1098SOL     OW 4192   5.791   3.105   6.444
 1098SOL    HW1 4193   5.878   3.132   6.403
 1098SOL    HW2 4194   5.803   3.023   6.499
 1099SOL     OW 4195   4.282   0.757   6.032
 1099SOL    HW1 4196   4.265   0.849   6.067
 1099SOL    HW2 4197   4.296   0.694   6.108
 1100SOL     OW 4198   4.574   1.279   4.466
 1100SOL    HW1 4199   4.583   1.204   4.400
 1100SOL    HW2 4200   4.505   1.256   4.534
 1101SOL     OW 4201   5.547   3.740   5.765
 1101SOL    HW1 4202   5.472   3.798   5.796
 1101SOL    HW2 4203   5.537   3.722   5.667
 1102SOL     OW 4204   1.772   0.760   4.662
 1102SOL    HW1 4205   1.833   0.701   4.714
 1102SOL    HW2 4206   1.695   0.705   4.628
 1103SOL     OW 4207   3.236   1.781   0.557
 1103SOL    HW1 4208   3.176   1.803   0.633
 1103SOL    HW2 4209   3.319   1.737   0.591
 1104SOL     OW 4210   1.641   3.670   3.928
 1104SOL    HW1 4211   1.599   3.652   4.017
 1104SOL    HW2 4212   1.569   3.697   3.863
 1105SOL     OW 4213   5.697   3.118   4.595
 1105SOL    HW1 4214   5.665   3.067   4.514
 1105SOL    HW2 4215   5.673   3.214   4.585
 1106SOL     OW 4216   1.015   2.026   1.453
 1106SOL    HW1 4217   1.071   2.036   1.535
 1106SOL    HW2 4218   0.965   1.939   1.458
 1107SOL     OW 4219   1.242   0.123   7.023
 1107SOL    HW1 4220   1.272   0.039   0.044
 1107SOL    HW2 4221   1.145   0.138   0.018
 1108SOL     OW 4222   3.156   6.619   5.267
 1108SOL    HW1 4223   3.174   6.679   5.345
 1108SOL    HW2 4224   3.121   6.672   5.190
 1109SOL     OW 4225   5.647   0.621   4.396
 1109SOL    HW1 4226   5.552   0.618   4.427
 1109SOL    HW2 4227   5.670   0.714   4.369
 1110SOL     OW 4228   4.539   1.887   2.872
 1110SOL    HW1 4229   4.487   1.879   2.957
 1110SOL    HW2 4230   4.477   1.892   2.794
 1111SOL     OW 4231   5.830   5.507   6.555
 1111SOL    HW1 4232   5.771   5.438   6.596
 1111SOL    HW2 4233   5.852   5.577   6.624
 1112SOL     OW 4234   5.737   1.018   2.907
 1112SOL    HW1 4235   5.736   0.985   2.813
 1112SOL    HW2 4236   5.777   1.110   2.910
 1113SOL     OW 4237   5.763   4.152   1.345
 1113SOL    HW1 4238   5.713   4.120   1.265
 1113SOL    HW2 4239   5.731   4.103   1.426
 1114SOL     OW 4240   2.672   1.531   6.356
 1114SOL    HW1 4241   2.689   1.535   6.257
 1114SOL    HW2 4242   2.726   1.456   6.396
 1115SOL     OW 4243   3.712   3.521   5.253
 1115SOL    HW1 4244   3.747   3.428   5.236
 1115SOL    HW2 4245   3.623   3.531   5.208
 1116SOL     OW 4246   5.278   6.831   6.601
 1116SOL    HW1 4247   5.339   6.911   6.602
 1116SOL    HW2 4248   5.297   6.775   6.681
 1117SOL     OW 4249   1.223   1.966   2.114
 1117SOL    HW1 4250   1.208   1.870   2.140
 1117SOL    HW2 4251   1.310   1.973   2.065
 1118SOL     OW 4252   2.478   5.212   0.276
 1118SOL    HW1 4253   2.458   5.282   0.207
 1118SOL    HW2 4254   2.462   5.249   0.367
 1119SOL     OW 4255   4.273   4.559   1.485
 1119SOL    HW1 4256   4.355   4.579   1.538
 1119SOL    HW2 4257   4.251   4.461   1.494
 1120SOL     OW 4258   6.138   5.929   1.157
 1120SOL    HW1 4259   6.039   5.937   1.150
 1120SOL    HW2 4260   6.175   5.895   1.070
 1121SOL     OW 4261   0.246   4.143   4.382
 1121SOL    HW1 4262   0.160   4.093   4.379
 1121SOL    HW2 4263   0.230   4.238   4.358
 1122SOL     OW 4264   5.942   2.770   2.374
 1122SOL    HW1 4265   5.846   2.750   2.354
 1122SOL    HW2 4266   5.947   2.852   2.431
 1123SOL     OW 4267   4.957   2.353   3.629
 1123SOL    HW1 4268   5.048   2.314   3.624
 1123SOL    HW2 4269   4.892   2.283   3.658
 1124SOL     OW 4270   0.110   4.165   5.378
 1124SOL    HW1 4271   0.034   4.163   5.313
 1124SOL    HW2 4272   0.132   4.259   5.402
 1125SOL     OW 4273   1.421   2.649   3.674
 1125SOL    HW1 4274   1.460   2.561   3.645
 1125SOL    HW2 4275   1.357   2.681   3.604
 1126SOL     OW 4276   6.211   5.858   6.071
 1126SOL    HW1 4277   6.291   5.823   6.120
 1126SOL    HW2 4278   6.222   5.842   5.973
 1127SOL     OW 4279   5.742   6.420   4.666
 1127SOL    HW1 4280   5.800   6.344   4.634
 1127SOL    HW2 4281   5.795   6.505   4.665
 1128SOL     OW 4282   6.071   0.994   4.496
 1128SOL    HW1 4283   6.001   1.061   4.471
 1128SOL    HW2 4284   6.026   0.910   4.526
 1129SOL     OW 4285   2.158   6.424   0.820
 1129SOL    HW1 4286   2.195   6.516   0.809
 1129SOL    HW2 4287   2.102   6.402   0.740
 1130SOL     OW 4288   2.227   4.795   1.143
 1130SOL    HW1 4289   2.258   4.875   1.092
 1130SOL    HW2 4290   2.178   4.733   1.081
 1131SOL     OW 4291   1.909   6.945   5.348
 1131SOL    HW1 4292   1.931   6.931   5.444
 1131SOL    HW2 4293   1.975   6.896   5.291
 1132SOL     OW 4294   4.396   0.142   3.087
 1132SOL    HW1 4295   4.432   0.170   3.176
 1132SOL    HW2 4296   4.448   0.186   3.014
 1133SOL     OW 4297   1.366   1.050   0.175
 1133SOL    HW1 4298   1.277   1.096   0.165
 1133SOL    HW2 4299   1.371   0.973   0.111
 1134SOL     OW 4300   4.873   0.097   3.096
 1134SOL    HW1 4301   4.956   0.048   3.070
 1134SOL    HW2 4302   4.828   0.047   3.170
 1135SOL     OW 4303   2.186   6.492   3.459
 1135SOL    HW1 4304   2.144   6.422   3.517
 1135SOL    HW2 4305   2.250   6.547   3.514
 1136SOL     OW 4306   4.130   4.742   2.457
 1136SOL    HW1 4307   4.120   4.657   2.407
 1136SOL    HW2 4308   4.062   4.808   2.425
 1137SOL     OW 4309   1.262   6.593   0.117
 1137SOL    HW1 4310   1.218   6.654   0.052
 1137SOL    HW2 4311   1.359   6.586   0.096
 1138SOL     OW 4312   0.486   1.424   5.400
 1138SOL    HW1 4313   0.388   1.441   5.402
 1138SOL    HW2 4314   0.504   1.327   5.413
 1139SOL     OW 4315   2.551   5.145   3.300
 1139SOL    HW1 4316   2.515   5.066   3.250
 1139SOL    HW2 4317   2.543   5.227   3.243
 1140SOL     OW 4318   2.645   0.333   1.850
 1140SOL    HW1 4319   2.710   0.293   1.786
 1140SOL    HW2 4320   2.689   0.407   1.901
 1141SOL     OW 4321   6.837   6.276   0.289
 1141SOL    HW1 4322   6.858   6.373   0.274
 1141SOL    HW2 4323   6.738   6.264   0.296
 1142SOL     OW 4324   3.442   0.638   4.083
 1142SOL    HW1 4325   3.500   0.562   4.115
 1142SOL    HW2 4326   3.348   0.623   4.114
 1143SOL     OW 4327   1.886   3.225   3.008
 1143SOL    HW1 4328   1.952   3.259   3.075
 1143SOL    HW2 4329   1.920   3.139   2.970
 1144SOL     OW 4330   5.708   4.641   3.490
 1144SOL    HW1 4331   5.634   4.584   3.527
 1144SOL    HW2 4332   5.711   4.728   3.540
 1145SOL     OW 4333   0.775   2.901   0.602
 1145SOL    HW1 4334   0.697   2.840   0.587
 1145SOL    HW2 4335   0.858   2.846   0.615
 1146SOL     OW 4336   0.761   1.558   2.161
 1146SOL    HW1 4337   0.794   1.649   2.189
 1146SOL    HW2 4338   0.766   1.496   2.239
 1147SOL     OW 4339   3.346   5.796   1.417
 1147SOL    HW1 4340   3.272   5.848   1.374
 1147SOL    HW2 4341   3.424   5.790   1.355
 1148SOL     OW 4342   4.637   5.945   1.161
 1148SOL    HW1 4343   4.671   5.970   1.070
 1148SOL    HW2 4344   4.654   5.848   1.178
 1149SOL     OW 4345   5.372   2.399   2.323
 1149SOL    HW1 4346   5.382   2.351   2.235
 1149SOL    HW2 4347   5.275   2.415   2.341
 1150SOL     OW 4348   0.714   4.270   0.377
 1150SOL    HW1 4349   0.688   4.206   0.305
 1150SOL    HW2 4350   0.673   4.360   0.358
 1151SOL     OW 4351   5.630   4.537   4.897
 1151SOL    HW1 4352   5.606   4.553   4.993
 1151SOL    HW2 4353   5.693   4.608   4.867
 1152SOL     OW 4354   4.874   6.364   6.496
 1152SOL    HW1 4355   4.886   6.276   6.541
 1152SOL    HW2 4356   4.804   6.357   6.425
 1153SOL     OW 4357   6.874   0.172   1.899
 1153SOL    HW1 4358   6.868   0.271   1.890
 1153SOL    HW2 4359   6.947   0.137   1.840
 1154SOL     OW 4360   0.112   4.856   0.479
 1154SOL    HW1 4361   0.161   4.770   0.493
 1154SOL    HW2 4362   0.152   4.906   0.402
 1155SOL     OW 4363   3.271   4.956   5.521
 1155SOL    HW1 4364   3.342   5.011   5.479
 1155SOL    HW2 4365   3.207   4.925   5.451
 1156SOL     OW 4366   4.332   1.926   5.102
 1156SOL    HW1 4367   4.409   1.988   5.112
 1156SOL    HW2 4368   4.353   1.858   5.031
 1157SOL     OW 4369   5.287   1.279   5.977
 1157SOL    HW1 4370   5.203   1.255   6.026
 1157SOL    HW2 4371   5.337   1.348   6.029
 1158SOL     OW 4372   6.461   5.318   5.153
 1158SOL    HW1 4373   6.384   5.348   5.096
 1158SOL    HW2 4374   6.522   5.396   5.170
 1159SOL     OW 4375   6.353   6.905   3.438
 1159SOL    HW1 4376   6.416   6.860   3.501
 1159SOL    HW2 4377   6.405   6.950   3.365
 1160SOL     OW 4378   4.289   4.925   1.504
 1160SOL    HW1 4379   4.200   4.954   1.539
 1160SOL    HW2 4380   4.277   4.873   1.419
 1161SOL     OW 4381   0.125   5.849   6.066
 1161SOL    HW1 4382   0.149   5.875   5.973
 1161SOL    HW2 4383   0.028   5.824   6.070
 1162SOL     OW 4384   2.256   2.592   6.096
 1162SOL    HW1 4385   2.192   2.551   6.162
 1162SOL    HW2 4386   2.307   2.520   6.049
 1163SOL     OW 4387   6.260   4.292   1.784
 1163SOL    HW1 4388   6.235   4.270   1.878
 1163SOL    HW2 4389   6.180   4.331   1.737
 1164SOL     OW 4390   4.761   1.902   4.698
 1164SOL    HW1 4391   4.857   1.919   4.717
 1164SOL    HW2 4392   4.747   1.805   4.678
 1165SOL     OW 4393   4.388   5.905   3.513
 1165SOL    HW1 4394   4.423   5.852   3.436
 1165SOL    HW2 4395   4.289   5.892   3.521
 1166SOL     OW 4396   2.441   6.181   0.166
 1166SOL    HW1 4397   2.416   6.188   0.263
 1166SOL    HW2 4398   2.524   6.234   0.149
 1167SOL     OW 4399   4.716   5.569   0.619
 1167SOL    HW1 4400   4.787   5.541   0.555
 1167SOL    HW2 4401   4.672   5.653   0.586
 1168SOL     OW 4402   6.005   2.568   1.784
 1168SOL    HW1 4403   5.986   2.634   1.711
 1168SOL    HW2 4404   5.973   2.605   1.871
 1169SOL     OW 4405   4.421   1.857   5.925
 1169SOL    HW1 4406   4.469   1.853   6.012
 1169SOL    HW2 4407   4.487   1.868   5.851
 1170SOL     OW 4408   5.355   0.284   3.341
 1170SOL    HW1 4409   5.328   0.324   3.428
 1170SOL    HW2 4410   5.274   0.249   3.294
 1171SOL     OW 4411   2.921   6.367   6.920
 1171SOL    HW1 4412   2.916   6.293   6.986
 1171SOL    HW2 4413   2.913   6.455   6.967
 1172SOL     OW 4414   5.378   4.130   0.851
 1172SOL    HW1 4415   5.463   4.183   0.844
 1172SOL    HW2 4416   5.394   4.037   0.817
 1173SOL     OW 4417   3.060   1.463   0.767
 1173SOL    HW1 4418   3.152   1.478   0.803
 1173SOL    HW2 4419   3.064   1.395   0.694
 1174SOL     OW 4420   3.514   3.637   1.975
 1174SOL    HW1 4421   3.439   3.684   1.929
 1174SOL    HW2 4422   3.515   3.662   2.072
 1175SOL     OW 4423   4.474   3.533   6.350
 1175SOL    HW1 4424   4.435   3.530   6.442
 1175SOL    HW2 4425   4.454   3.622   6.308
 1176SOL     OW 4426   5.300   3.405   0.267
 1176SOL    HW1 4427   5.290   3.342   0.344
 1176SOL    HW2 4428   5.256   3.492   0.290
 1177SOL     OW 4429   6.125   3.635   5.078
 1177SOL    HW1 4430   6.083   3.634   5.168
 1177SOL    HW2 4431   6.141   3.730   5.049
 1178SOL     OW 4432   2.958   4.204   0.238
 1178SOL    HW1 4433   2.914   4.187   0.327
 1178SOL    HW2 4434   2.916   4.284   0.195
 1179SOL     OW 4435   2.055   5.726   1.017
 1179SOL    HW1 4436   2.009   5.794   1.075
 1179SOL    HW2 4437   2.027   5.634   1.044
 1180SOL     OW 4438   2.680   6.495   4.003
 1180SOL    HW1 4439   2.740   6.542   3.938
 1180SOL    HW2 4440   2.728   6.483   4.090
 1181SOL     OW 4441   0.286   5.594   4.903
 1181SOL    HW1 4442   0.225   5.638   4.969
 1181SOL    HW2 4443   0.232   5.545   4.835
 1182SOL     OW 4444   4.742   5.346   3.668
 1182SOL    HW1 4445   4.755   5.288   3.588
 1182SOL    HW2 4446   4.654   5.326   3.710
 1183SOL     OW 4447   2.315   4.176   0.072
 1183SOL    HW1 4448   2.316   4.176   6.995
 1183SOL    HW2 4449   2.406   4.151   0.106
 1184SOL     OW 4450   0.233   0.926   4.537
 1184SOL    HW1 4451   0.194   0.925   4.629
 1184SOL    HW2 4452   0.249   0.833   4.507
 1185SOL     OW 4453   0.695   0.611   1.097
 1185SOL    HW1 4454   0.726   0.516   1.085
 1185SOL    HW2 4455   0.641   0.617   1.181
 1186SOL     OW 4456   5.480   6.457   6.104
 1186SOL    HW1 4457   5.494   6.459   6.203
 1186SOL    HW2 4458   5.388   6.489   6.082
 1187SOL     OW 4459   5.055   0.326   6.120
 1187SOL    HW1 4460   5.027   0.422   6.127
 1187SOL    HW2 4461   5.014   0.274   6.195
 1188SOL     OW 4462   3.441   6.358   5.798
 1188SOL    HW1 4463   3.446   6.283   5.864
 1188SOL    HW2 4464   3.524   6.413   5.804
 1189SOL     OW 4465   6.573   2.427   1.416
 1189SOL    HW1 4466   6.612   2.470   1.497
 1189SOL    HW2 4467   6.475   2.447   1.412
 1190SOL     OW 4468   3.182   5.567   3.483
 1190SOL    HW1 4469   3.279   5.560   3.459
 1190SOL    HW2 4470   3.143   5.475   3.487
 1191SOL     OW 4471   4.387   5.742   4.038
 1191SOL    HW1 4472   4.414   5.660   4.089
 1191SOL    HW2 4473   4.456   5.813   4.051
 1192SOL     OW 4474   5.174   4.781   1.953
 1192SOL    HW1 4475   5.272   4.765   1.959
 1192SOL    HW2 4476   5.126   4.693   1.946
 1193SOL     OW 4477   6.699   2.012   4.868
 1193SOL    HW1 4478   6.614   2.057   4.842
 1193SOL    HW2 4479   6.775   2.056   4.820
 1194SOL     OW 4480   5.887   6.779   1.886
 1194SOL    HW1 4481   5.974   6.819   1.914
 1194SOL    HW2 4482   5.824   6.852   1.858
 1195SOL     OW 4483   0.544   4.289   0.913
 1195SOL    HW1 4484   0.578   4.291   1.007
 1195SOL    HW2 4485   0.558   4.378   0.871
 1196SOL     OW 4486   6.951   5.131   3.482
 1196SOL    HW1 4487   6.939   5.177   3.394
 1196SOL    HW2 4488   6.868   5.141   3.537
 1197SOL     OW 4489   4.826   0.230   4.838
 1197SOL    HW1 4490   4.734   0.259   4.814
 1197SOL    HW2 4491   4.838   0.234   4.937
 1198SOL     OW 4492   1.218   2.797   2.947
 1198SOL    HW1 4493   1.215   2.855   3.029
 1198SOL    HW2 4494   1.125   2.776   2.917
 1199SOL     OW 4495   3.677   4.082   1.106
 1199SOL    HW1 4496   3.585   4.121   1.114
 1199SOL    HW2 4497   3.730   4.104   1.188
 1200SOL     OW 4498   3.181   4.092   4.073
 1200SOL    HW1 4499   3.133   4.080   4.160
 1200SOL    HW2 4500   3.261   4.150   4.087
 1201SOL     OW 4501   1.093   0.854   4.154
 1201SOL    HW1 4502   1.162   0.921   4.182
 1201SOL    HW2 4503   1.122   0.810   4.070
 1202SOL     OW 4504   0.468   5.856   5.972
 1202SOL    HW1 4505   0.462   5.758   5.990
 1202SOL    HW2 4506   0.396   5.883   5.909
 1203SOL     OW 4507   6.500   6.393   6.571
 1203SOL    HW1 4508   6.433   6.346   6.628
 1203SOL    HW2 4509   6.552   6.458   6.626
 1204SOL     OW 4510   4.184   0.876   1.551
 1204SOL    HW1 4511   4.252   0.922   1.609
 1204SOL    HW2 4512   4.211   0.885   1.455
 1205SOL     OW 4513   4.428   3.060   0.748
 1205SOL    HW1 4514   4.418   3.064   0.848
 1205SOL    HW2 4515   4.338   3.064   0.705
 1206SOL     OW 4516   2.650   2.680   5.355
 1206SOL    HW1 4517   2.557   2.674   5.391
 1206SOL    HW2 4518   2.676   2.776   5.346
 1207SOL     OW 4519   2.190   6.285   1.063
 1207SOL    HW1 4520   2.210   6.322   0.972
 1207SOL    HW2 4521   2.108   6.227   1.058
 1208SOL     OW 4522   2.996   3.240   0.980
 1208SOL    HW1 4523   3.022   3.165   0.918
 1208SOL    HW2 4524   3.011   3.211   1.075
 1209SOL     OW 4525   4.187   0.942   4.102
 1209SOL    HW1 4526   4.221   0.977   4.189
 1209SOL    HW2 4527   4.258   0.953   4.032
 1210SOL     OW 4528   3.009   0.312   3.565
 1210SOL    HW1 4529   2.939   0.383   3.566
 1210SOL    HW2 4530   3.090   0.345   3.614
 1211SOL     OW 4531   0.915   3.444   2.368
 1211SOL    HW1 4532   0.889   3.465   2.274
 1211SOL    HW2 4533   0.941   3.348   2.375
 1212SOL     OW 4534   6.344   0.347   0.449
 1212SOL    HW1 4535   6.269   0.398   0.406
 1212SOL    HW2 4536   6.408   0.318   0.378
 1213SOL     OW 4537   6.720   2.899   1.420
 1213SOL    HW1 4538   6.671   2.849   1.348
 1213SOL    HW2 4539   6.699   2.996   1.413
 1214SOL     OW 4540   1.375   2.810   6.886
 1214SOL    HW1 4541   1.419   2.722   6.905
 1214SOL    HW2 4542   1.445   2.881   6.878
 1215SOL     OW 4543   0.978   4.898   3.269
 1215SOL    HW1 4544   1.001   4.803   3.247
 1215SOL    HW2 4545   0.994   4.915   3.366
 1216SOL     OW 4546   5.336   0.474   1.227
 1216SOL    HW1 4547   5.384   0.552   1.187
 1216SOL    HW2 4548   5.241   0.499   1.245
 1217SOL     OW 4549   2.130   4.682   0.797
 1217SOL    HW1 4550   2.075   4.756   0.837
 1217SOL    HW2 4551   2.166   4.624   0.870
 1218SOL     OW 4552   1.328   4.496   4.787
 1218SOL    HW1 4553   1.386   4.564   4.831
 1218SOL    HW2 4554   1.260   4.462   4.853
 1219SOL     OW 4555   5.243   6.497   1.886
 1219SOL    HW1 4556   5.175   6.556   1.843
 1219SOL    HW2 4557   5.331   6.508   1.839
 1220SOL     OW 4558   0.782   4.318   3.084
 1220SOL    HW1 4559   0.728   4.394   3.047
 1220SOL    HW2 4560   0.728   4.234   3.080
 1221SOL     OW 4561   5.232   4.241   6.534
 1221SOL    HW1 4562   5.312   4.241   6.594
 1221SOL    HW2 4563   5.152   4.210   6.585
 1222SOL     OW 4564   6.565   0.738   6.760
 1222SOL    HW1 4565   6.602   0.828   6.783
 1222SOL    HW2 4566   6.576   0.676   6.837
 1223SOL     OW 4567   4.330   1.404   0.032
 1223SOL    HW1 4568   4.292   1.496   0.033
 1223SOL    HW2 4569   4.260   1.339   0.002
 1224SOL     OW 4570   3.596   5.300   0.463
 1224SOL    HW1 4571   3.524   5.273   0.527
 1224SOL    HW2 4572   3.583   5.396   0.437
 1225SOL     OW 4573   3.119   3.541   6.348
 1225SOL    HW1 4574   3.186   3.598   6.396
 1225SOL    HW2 4575   3.123   3.562   6.250
 1226SOL     OW 4576   2.924   5.406   1.620
 1226SOL    HW1 4577   3.022   5.413   1.644
 1226SOL    HW2 4578   2.910   5.326   1.561
 1227SOL     OW 4579   6.574   3.950   6.219
 1227SOL    HW1 4580   6.568   3.958   6.119
 1227SOL    HW2 4581   6.573   3.853   6.244
 1228SOL     OW 4582   3.071   2.174   6.592
 1228SOL    HW1 4583   3.069   2.255   6.651
 1228SOL    HW2 4584   3.099   2.095   6.646
 1229SOL     OW 4585   3.472   5.192   5.485
 1229SOL    HW1 4586   3.520   5.125   5.428
 1229SOL    HW2 4587   3.538   5.258   5.521
 1230SOL     OW 4588   4.712   0.100   2.636
 1230SOL    HW1 4589   4.670   0.086   2.726
 1230SOL    HW2 4590   4.811   0.098   2.645
 1231SOL     OW 4591   1.849   3.376   4.771
 1231SOL    HW1 4592   1.834   3.369   4.673
 1231SOL    HW2 4593   1.767   3.413   4.815
 1232SOL     OW 4594   0.797   1.761   4.986
 1232SOL    HW1 4595   0.851   1.721   5.060
 1232SOL    HW2 4596   0.714   1.707   4.973
 1233SOL     OW 4597   0.855   3.902   4.546
 1233SOL    HW1 4598   0.880   3.913   4.450
 1233SOL    HW2 4599   0.758   3.922   4.557
 1234SOL     OW 4600   6.435   3.670   5.048
 1234SOL    HW1 4601   6.439   3.625   5.138
 1234SOL    HW2 4602   6.365   3.741   5.049
 1235SOL     OW 4603   0.103   5.811   2.805
 1235SOL    HW1 4604   0.076   5.760   2.886
 1235SOL    HW2 4605   0.147   5.749   2.740
 1236SOL     OW 4606   4.975   1.615   0.121
 1236SOL    HW1 4607   4.962   1.699   0.173
 1236SOL    HW2 4608   5.022   1.635   0.036
 1237SOL     OW 4609   1.692   5.266   5.596
 1237SOL    HW1 4610   1.629   5.316   5.537
 1237SOL    HW2 4611   1.758   5.216   5.539
 1238SOL     OW 4612   2.829   1.159   0.319
 1238SOL    HW1 4613   2.800   1.225   0.249
 1238SOL    HW2 4614   2.748   1.129   0.370
 1239SOL     OW 4615   6.979   6.944   5.969
 1239SOL    HW1 4616   6.946   0.012   5.944
 1239SOL    HW2 4617   6.954   6.924   6.063
 1240SOL     OW 4618   5.251   6.315   2.105
 1240SOL    HW1 4619   5.260   6.388   2.037
 1240SOL    HW2 4620   5.286   6.347   2.193
 1241SOL     OW 4621   6.370   4.189   3.707
 1241SOL    HW1 4622   6.398   4.261   3.770
 1241SOL    HW2 4623   6.307   4.127   3.754
 1242SOL     OW 4624   0.161   3.421   1.725
 1242SOL    HW1 4625   0.069   3.449   1.697
 1242SOL    HW2 4626   0.213   3.502   1.753
 1243SOL     OW 4627   6.736   6.711   4.899
 1243SOL    HW1 4628   6.682   6.629   4.912
 1243SOL    HW2 4629   6.803   6.720   4.973
 1244SOL     OW 4630   6.504   0.167   4.548
 1244SOL    HW1 4631   6.460   0.090   4.502
 1244SOL    HW2 4632   6.592   0.138   4.586
 1245SOL     OW 4633   4.884   4.794   6.890
 1245SOL    HW1 4634   4.820   4.852   6.838
 1245SOL    HW2 4635   4.835   4.752   6.967
 1246SOL     OW 4636   2.504   6.042   1.697
 1246SOL    HW1 4637   2.479   6.126   1.745
 1246SOL    HW2 4638   2.490   5.964   1.758
 1247SOL     OW 4639   2.305   0.413   6.888
 1247SOL    HW1 4640   2.405   0.408   6.883
 1247SOL    HW2 4641   2.278   0.466   6.968
 1248SOL     OW 4642   1.917   6.597   4.568
 1248SOL    HW1 4643   1.839   6.572   4.511
 1248SOL    HW2 4644   1.962   6.678   4.529
 1249SOL     OW 4645   5.863   2.397   2.610
 1249SOL    HW1 4646   5.791   2.466   2.623
 1249SOL    HW2 4647   5.929   2.429   2.543
 1250SOL     OW 4648   6.229   5.032   4.598
 1250SOL    HW1 4649   6.312   4.993   4.559
 1250SOL    HW2 4650   6.236   5.132   4.601
 1251SOL     OW 4651   3.262   6.986   4.415
 1251SOL    HW1 4652   3.309   6.977   4.328
 1251SOL    HW2 4653   3.246   0.060   4.435
 1252SOL     OW 4654   4.089   3.220   5.226
 1252SOL    HW1 4655   4.136   3.164   5.295
 1252SOL    HW2 4656   4.004   3.254   5.265
 1253SOL     OW 4657   3.528   5.232   1.741
 1253SOL    HW1 4658   3.576   5.147   1.763
 1253SOL    HW2 4659   3.430   5.213   1.733
 1254SOL     OW 4660   0.572   2.535   2.518
 1254SOL    HW1 4661   0.550   2.438   2.520
 1254SOL    HW2 4662   0.507   2.585   2.576
 1255SOL     OW 4663   6.356   1.559   4.812
 1255SOL    HW1 4664   6.374   1.495   4.737
 1255SOL    HW2 4665   6.322   1.645   4.774
 1256SOL     OW 4666   6.703   6.338   3.776
 1256SOL    HW1 4667   6.766   6.349   3.854
 1256SOL    HW2 4668   6.689   6.240   3.759
 1257SOL     OW 4669   0.117   6.758   4.067
 1257SOL    HW1 4670   0.182   6.773   4.141
 1257SOL    HW2 4671   0.026   6.742   4.106
 1258SOL     OW 4672   1.922   5.934   3.844
 1258SOL    HW1 4673   1.845   5.957   3.905
 1258SOL    HW2 4674   2.007   5.966   3.885
 1259SOL     OW 4675   3.857   1.276   4.169
 1259SOL    HW1 4676   3.876   1.178   4.174
 1259SOL    HW2 4677   3.912   1.324   4.237
 1260SOL     OW 4678   1.423   1.668   6.548
 1260SOL    HW1 4679   1.325   1.662   6.529
 1260SOL    HW2 4680   1.442   1.635   6.640
 1261SOL     OW 4681   0.503   5.635   6.636
 1261SOL    HW1 4682   0.409   5.667   6.630
 1261SOL    HW2 4683   0.535   5.608   6.545
 1262SOL     OW 4684   4.649   3.867   1.088
 1262SOL    HW1 4685   4.695   3.933   1.147
 1262SOL    HW2 4686   4.658   3.775   1.127
 1263SOL     OW 4687   0.478   1.630   2.344
 1263SOL    HW1 4688   0.469   1.730   2.350
 1263SOL    HW2 4689   0.540   1.598   2.416
 1264SOL     OW 4690   7.008   4.413   6.680
 1264SOL    HW1 4691   6.981   4.399   6.775
 1264SOL    HW2 4692   6.946   4.362   6.620
 1265SOL     OW 4693   5.741   5.304   5.002
 1265SOL    HW1 4694   5.813   5.298   4.933
 1265SOL    HW2 4695   5.745   5.222   5.060
 1266SOL     OW 4696   0.784   0.752   4.352
 1266SOL    HW1 4697   0.802   0.844   4.319
 1266SOL    HW2 4698   0.797   0.749   4.451
 1267SOL     OW 4699   5.695   1.512   1.146
 1267SOL    HW1 4700   5.699   1.453   1.065
 1267SOL    HW2 4701   5.787   1.530   1.179
 1268SOL     OW 4702   2.725   2.991   6.741
 1268SOL    HW1 4703   2.791   2.939   6.688
 1268SOL    HW2 4704   2.677   3.056   6.681
 1269SOL     OW 4705   5.937   3.260   3.827
 1269SOL    HW1 4706   6.009   3.199   3.794
 1269SOL    HW2 4707   5.977   3.331   3.885
 1270SOL     OW 4708   2.430   4.538   2.586
 1270SOL    HW1 4709   2.388   4.584   2.664
 1270SOL    HW2 4710   2.358   4.500   2.527
 1271SOL     OW 4711   3.259   1.792   2.491
 1271SOL    HW1 4712   3.185   1.843   2.446
 1271SOL    HW2 4713   3.347   1.831   2.465
 1272SOL     OW 4714   5.521   5.114   6.815
 1272SOL    HW1 4715   5.598   5.126   6.878
 1272SOL    HW2 4716   5.552   5.066   6.733
 1273SOL     OW 4717   0.873   4.279   5.614
 1273SOL    HW1 4718   0.954   4.337   5.620
 1273SOL    HW2 4719   0.791   4.337   5.617
 1274SOL     OW 4720   6.988   4.709   0.829
 1274SOL    HW1 4721   6.940   4.706   0.742
 1274SOL    HW2 4722   6.956   4.788   0.882
 1275SOL     OW 4723   3.874   1.526   3.554
 1275SOL    HW1 4724   3.820   1.444   3.532
 1275SOL    HW2 4725   3.860   1.595   3.483
 1276SOL     OW 4726   5.515   5.079   4.694
 1276SOL    HW1 4727   5.504   5.162   4.749
 1276SOL    HW2 4728   5.567   5.012   4.747
 1277SOL     OW 4729   1.862   5.253   6.430
 1277SOL    HW1 4730   1.924   5.284   6.502
 1277SOL    HW2 4731   1.910   5.191   6.369
 1278SOL     OW 4732   1.806   0.273   4.957
 1278SOL    HW1 4733   1.718   0.320   4.950
 1278SOL    HW2 4734   1.795   0.190   5.012
 1279SOL     OW 4735   2.099   4.570   6.747
 1279SOL    HW1 4736   2.111   4.665   6.718
 1279SOL    HW2 4737   2.095   4.511   6.666
 1280SOL     OW 4738   4.166   6.353   3.452
 1280SOL    HW1 4739   4.167   6.341   3.551
 1280SOL    HW2 4740   4.071   6.359   3.420
 1281SOL     OW 4741   2.527   6.264   3.293
 1281SOL    HW1 4742   2.626   6.260   3.302
 1281SOL    HW2 4743   2.496   6.193   3.229
 1282SOL     OW 4744   6.616   2.062   6.996
 1282SOL    HW1 4745   6.629   2.036   6.901
 1282SOL    HW2 4746   6.660   1.994   0.032
 1283SOL     OW 4747   6.530   2.769   5.387
 1283SOL    HW1 4748   6.605   2.725   5.339
 1283SOL    HW2 4749   6.445   2.757   5.336
 1284SOL     OW 4750   4.290   1.244   1.350
 1284SOL    HW1 4751   4.223   1.279   1.415
 1284SOL    HW2 4752   4.261   1.265   1.257
 1285SOL     OW 4753   4.752   1.344   5.314
 1285SOL    HW1 4754   4.783   1.348   5.219
 1285SOL    HW2 4755   4.830   1.321   5.374
 1286SOL     OW 4756   4.411   2.535   0.759
 1286SOL    HW1 4757   4.353   2.606   0.720
 1286SOL    HW2 4758   4.493   2.523   0.703
 1287SOL     OW 4759   5.355   4.134   5.472
 1287SOL    HW1 4760   5.305   4.177   5.547
 1287SOL    HW2 4761   5.358   4.035   5.487
 1288SOL     OW 4762   3.981   4.800   6.204
 1288SOL    HW1 4763   3.929   4.853   6.137
 1288SOL    HW2 4764   4.013   4.715   6.161
 1289SOL     OW 4765   0.794   0.431   1.654
 1289SOL    HW1 4766   0.719   0.428   1.720
 1289SOL    HW2 4767   0.842   0.518   1.661
 1290SOL     OW 4768   1.335   0.284   0.302
 1290SOL    HW1 4769   1.254   0.249   0.349
 1290SOL    HW2 4770   1.367   0.218   0.235
 1291SOL     OW 4771   0.637   3.917   3.731
 1291SOL    HW1 4772   0.566   3.976   3.767
 1291SOL    HW2 4773   0.721   3.930   3.783
 1292SOL     OW 4774   0.026   5.850   2.221
 1292SOL    HW1 4775   6.957   5.884   2.203
 1292SOL    HW2 4776   0.086   5.926   2.245
 1293SOL     OW 4777   2.368   2.282   6.583
 1293SOL    HW1 4778   2.343   2.360   6.526
 1293SOL    HW2 4779   2.438   2.310   6.648
 1294SOL     OW 4780   0.319   3.813   5.599
 1294SOL    HW1 4781   0.227   3.777   5.584
 1294SOL    HW2 4782   0.383   3.737   5.605
 1295SOL     OW 4783   0.197   3.070   1.098
 1295SOL    HW1 4784   0.235   3.115   1.017
 1295SOL    HW2 4785   0.105   3.037   1.077
 1296SOL     OW 4786   4.468   6.697   5.163
 1296SOL    HW1 4787   4.544   6.635   5.144
 1296SOL    HW2 4788   4.404   6.697   5.086
 1297SOL     OW 4789   0.920   6.416   1.498
 1297SOL    HW1 4790   0.985   6.419   1.573
 1297SOL    HW2 4791   0.967   6.434   1.411
 1298SOL     OW 4792   5.343   6.451   3.712
 1298SOL    HW1 4793   5.310   6.357   3.713
 1298SOL    HW2 4794   5.410   6.462   3.639
 1299SOL     OW 4795   2.474   2.629   3.675
 1299SOL    HW1 4796   2.456   2.688   3.596
 1299SOL    HW2 4797   2.422   2.544   3.665
 1300SOL     OW 4798   2.037   3.402   1.094
 1300SOL    HW1 4799   1.974   3.461   1.144
 1300SOL    HW2 4800   1.989   3.359   1.017
 1301SOL     OW 4801   0.312   0.139   1.809
 1301SOL    HW1 4802   0.408   0.160   1.828
 1301SOL    HW2 4803   0.274   0.087   1.886
 1302SOL     OW 4804   4.924   0.157   5.192
 1302SOL    HW1 4805   4.973   0.233   5.235
 1302SOL    HW2 4806   4.989   0.100   5.142
 1303SOL     OW 4807   4.223   0.858   1.261
 1303SOL    HW1 4808   4.168   0.775   1.255
 1303SOL    HW2 4809   4.214   0.910   1.176
 1304SOL     OW 4810   1.529   0.088   0.904
 1304SOL    HW1 4811   1.553   0.165   0.963
 1304SOL    HW2 4812   1.450   0.040   0.942
 1305SOL     OW 4813   5.700   4.350   0.157
 1305SOL    HW1 4814   5.785   4.354   0.105
 1305SOL    HW2 4815   5.720   4.339   0.254
 1306SOL     OW 4816   1.465   5.849   4.284
 1306SOL    HW1 4817   1.396   5.915   4.314
 1306SOL    HW2 4818   1.492   5.870   4.190
 1307SOL     OW 4819   2.021   4.199   4.276
 1307SOL    HW1 4820   1.978   4.122   4.323
 1307SOL    HW2 4821   1.994   4.199   4.180
 1308SOL     OW 4822   0.173   6.893   5.682
 1308SOL    HW1 4823   0.080   6.864   5.703
 1308SOL    HW2 4824   0.209   6.838   5.606
 1309SOL     OW 4825   5.834   4.595   5.566
 1309SOL    HW1 4826   5.788   4.570   5.651
 1309SOL    HW2 4827   5.800   4.683   5.534
 1310SOL     OW 4828   0.097   3.552   2.976
 1310SOL    HW1 4829   0.042   3.529   3.056
 1310SOL    HW2 4830   0.065   3.501   2.897
 1311SOL     OW 4831   6.844   6.322   6.199
 1311SOL    HW1 4832   6.830   6.417   6.169
 1311SOL    HW2 4833   6.808   6.312   6.292
 1312SOL     OW 4834   1.510   6.800   0.128
 1312SOL    HW1 4835   1.595   6.749   0.132
 1312SOL    HW2 4836   1.530   6.897   0.116
 1313SOL     OW 4837   6.885   5.280   2.416
 1313SOL    HW1 4838   6.938   5.208   2.371
 1313SOL    HW2 4839   6.917   5.292   2.510
 1314SOL     OW 4840   3.549   1.743   4.759
 1314SOL    HW1 4841   3.546   1.810   4.832
 1314SOL    HW2 4842   3.505   1.781   4.677
 1315SOL     OW 4843   6.803   1.325   3.105
 1315SOL    HW1 4844   6.844   1.348   3.194
 1315SOL    HW2 4845   6.714   1.370   3.097
 1316SOL     OW 4846   3.351   7.008   5.364
 1316SOL    HW1 4847   3.340   0.044   5.444
 1316SOL    HW2 4848   3.305   0.027   5.285
 1317SOL     OW 4849   1.452   3.840   5.424
 1317SOL    HW1 4850   1.405   3.857   5.511
 1317SOL    HW2 4851   1.400   3.774   5.371
 1318SOL     OW 4852   1.348   2.988   0.516
 1318SOL    HW1 4853   1.353   3.085   0.539
 1318SOL    HW2 4854   1.440   2.952   0.503
 1319SOL     OW 4855   7.009   5.331   0.700
 1319SOL    HW1 4856   6.937   5.399   0.717
 1319SOL    HW2 4857   0.066   5.376   0.660
 1320SOL     OW 4858   3.463   3.604   6.932
 1320SOL    HW1 4859   3.472   3.553   6.846
 1320SOL    HW2 4860   3.498   3.549   7.007
 1321SOL     OW 4861   5.319   2.567   6.170
 1321SOL    HW1 4862   5.411   2.591   6.204
 1321SOL    HW2 4863   5.321   2.564   6.070
 1322SOL     OW 4864   3.777   1.699   4.645
 1322SOL    HW1 4865   3.697   1.706   4.704
 1322SOL    HW2 4866   3.761   1.749   4.560
 1323SOL     OW 4867   3.439   0.210   6.729
 1323SOL    HW1 4868   3.519   0.238   6.676
 1323SOL    HW2 4869   3.457   0.122   6.773
 1324SOL     OW 4870   0.419   3.208   0.078
 1324SOL    HW1 4871   0.323   3.195   0.102
 1324SOL    HW2 4872   0.476   3.199   0.160
 1325SOL     OW 4873   3.784   6.087   5.428
 1325SOL    HW1 4874   3.865   6.041   5.391
 1325SOL    HW2 4875   3.762   6.049   5.518
 1326SOL     OW 4876   4.702   3.645   5.414
 1326SOL    HW1 4877   4.795   3.608   5.419
 1326SOL    HW2 4878   4.647   3.588   5.353
 1327SOL     OW 4879   1.065   6.196   0.821
 1327SOL    HW1 4880   1.033   6.231   0.909
 1327SOL    HW2 4881   1.133   6.258   0.783
 1328SOL     OW 4882   2.484   3.070   0.199
 1328SOL    HW1 4883   2.562   3.017   0.231
 1328SOL    HW2 4884   2.495   3.090   0.101
 1329SOL     OW 4885   0.776   2.429   2.147
 1329SOL    HW1 4886   0.865   2.472   2.160
 1329SOL    HW2 4887   0.704   2.499   2.154
 1330SOL     OW 4888   1.513   1.769   1.355
 1330SOL    HW1 4889   1.564   1.732   1.433
 1330SOL    HW2 4890   1.519   1.869   1.357
 1331SOL     OW 4891   4.724   2.685   3.306
 1331SOL    HW1 4892   4.658   2.705   3.378
 1331SOL    HW2 4893   4.793   2.757   3.304
 1332SOL     OW 4894   2.875   6.793   0.693
 1332SOL    HW1 4895   2.814   6.865   0.727
 1332SOL    HW2 4896   2.935   6.832   0.623
 1333SOL     OW 4897   2.936   3.465   2.977
 1333SOL    HW1 4898   2.921   3.544   3.037
 1333SOL    HW2 4899   2.956   3.384   3.032
 1334SOL     OW 4900   6.973   1.080   3.946
 1334SOL    HW1 4901   6.979   0.988   3.908
 1334SOL    HW2 4902   6.878   1.098   3.972
 1335SOL     OW 4903   1.857   1.857   2.350
 1335SOL    HW1 4904   1.776   1.881   2.403
 1335SOL    HW2 4905   1.846   1.888   2.256
 1336SOL     OW 4906   3.130   1.936   4.683
 1336SOL    HW1 4907   3.083   1.871   4.742
 1336SOL    HW2 4908   3.193   1.991   4.738
 1337SOL     OW 4909   1.355   1.337   2.627
 1337SOL    HW1 4910   1.304   1.411   2.670
 1337SOL    HW2 4911   1.370   1.359   2.530
 1338SOL     OW 4912   6.769   2.928   4.660
 1338SOL    HW1 4913   6.845   2.911   4.723
 1338SOL    HW2 4914   6.683   2.901   4.703
 1339SOL     OW 4915   6.235   1.734   0.280
 1339SOL    HW1 4916   6.176   1.795   0.227
 1339SOL    HW2 4917   6.325   1.777   0.291
 1340SOL     OW 4918   5.355   1.571   2.480
 1340SOL    HW1 4919   5.358   1.658   2.530
 1340SOL    HW2 4920   5.394   1.498   2.536
 1341SOL     OW 4921   4.597   6.920   6.676
 1341SOL    HW1 4922   4.682   6.875   6.704
 1341SOL    HW2 4923   4.526   6.902   6.743
 1342SOL     OW 4924   2.685   5.399   6.738
 1342SOL    HW1 4925   2.587   5.404   6.759
 1342SOL    HW2 4926   2.716   5.488   6.705
 1343SOL     OW 4927   5.443   5.769   2.343
 1343SOL    HW1 4928   5.392   5.687   2.314
 1343SOL    HW2 4929   5.524   5.779   2.286
 1344SOL     OW 4930   0.641   6.270   4.220
 1344SOL    HW1 4931   0.659   6.198   4.286
 1344SOL    HW2 4932   0.557   6.249   4.169
 1345SOL     OW 4933   0.382   5.103   2.617
 1345SOL    HW1 4934   0.302   5.085   2.673
 1345SOL    HW2 4935   0.461   5.121   2.676
 1346SOL     OW 4936   1.868   5.674   5.557
 1346SOL    HW1 4937   1.919   5.589   5.548
 1346SOL    HW2 4938   1.791   5.673   5.493
 1347SOL     OW 4939   0.210   6.566   6.010
 1347SOL    HW1 4940   0.148   6.540   5.935
 1347SOL    HW2 4941   0.169   6.539   6.097
 1348SOL     OW 4942   6.759   6.269   4.608
 1348SOL    HW1 4943   6.714   6.190   4.567
 1348SOL    HW2 4944   6.857   6.250   4.616
 1349SOL     OW 4945   5.648   3.020   4.832
 1349SOL    HW1 4946   5.551   3.031   4.854
 1349SOL    HW2 4947   5.670   3.072   4.749
 1350SOL     OW 4948   5.369   5.069   5.138
 1350SOL    HW1 4949   5.275   5.050   5.108
 1350SOL    HW2 4950   5.378   5.046   5.235
 1351SOL     OW 4951   5.419   2.473   3.905
 1351SOL    HW1 4952   5.445   2.555   3.957
 1351SOL    HW2 4953   5.381   2.500   3.816
 1352SOL     OW 4954   6.198   5.713   4.654
 1352SOL    HW1 4955   6.231   5.736   4.745
 1352SOL    HW2 4956   6.104   5.746   4.642
 1353SOL     OW 4957   0.524   2.445   0.573
 1353SOL    HW1 4958   0.487   2.397   0.653
 1353SOL    HW2 4959   0.624   2.445   0.578
 1354SOL     OW 4960   0.217   4.705   1.760
 1354SOL    HW1 4961   0.265   4.716   1.673
 1354SOL    HW2 4962   0.151   4.631   1.753
 1355SOL     OW 4963   6.256   3.850   4.547
 1355SOL    HW1 4964   6.340   3.879   4.593
 1355SOL    HW2 4965   6.230   3.758   4.579
 1356SOL     OW 4966   3.740   3.006   2.146
 1356SOL    HW1 4967   3.655   2.974   2.187
 1356SOL    HW2 4968   3.813   3.007   2.215
 1357SOL     OW 4969   0.066   4.467   6.340
 1357SOL    HW1 4970   0.064   4.454   6.240
 1357SOL    HW2 4971   0.157   4.496   6.368
 1358SOL     OW 4972   5.944   6.322   6.688
 1358SOL    HW1 4973   5.861   6.266   6.692
 1358SOL    HW2 4974   5.920   6.416   6.665
 1359SOL     OW 4975   6.062   4.728   2.502
 1359SOL    HW1 4976   6.131   4.657   2.516
 1359SOL    HW2 4977   6.107   4.812   2.472
 1360SOL     OW 4978   2.542   3.771   0.769
 1360SOL    HW1 4979   2.611   3.719   0.719
 1360SOL    HW2 4980   2.467   3.796   0.708
 1361SOL     OW 4981   6.357   5.071   5.310
 1361SOL    HW1 4982   6.395   5.147   5.256
 1361SOL    HW2 4983   6.384   4.984   5.269
 1362SOL     OW 4984   4.109   3.711   3.424
 1362SOL    HW1 4985   4.167   3.704   3.342
 1362SOL    HW2 4986   4.168   3.718   3.505
 1363SOL     OW 4987   0.288   5.001   4.567
 1363SOL    HW1 4988   0.371   4.991   4.512
 1363SOL    HW2 4989   0.305   5.066   4.641
 1364SOL     OW 4990   5.302   3.806   0.422
 1364SOL    HW1 4991   5.339   3.893   0.388
 1364SOL    HW2 4992   5.213   3.822   0.464
 1365SOL     OW 4993   0.350   4.450   6.294
 1365SOL    HW1 4994   0.341   4.510   6.374
 1365SOL    HW2 4995   0.362   4.355   6.325
 1366SOL     OW 4996   1.296   6.006   6.189
 1366SOL    HW1 4997   1.197   6.010   6.183
 1366SOL    HW2 4998   1.334   6.098   6.180
 1367SOL     OW 4999   2.271   6.769   2.542
 1367SOL    HW1 5000   2.217   6.778   2.458
 1367SOL    HW2 5001   2.218   6.804   2.619
 1368SOL     OW 5002   5.146   0.016   4.175
 1368SOL    HW1 5003   5.243   0.029   4.197
 1368SOL    HW2 5004   5.096   7.012   4.257
 1369SOL     OW 5005   1.618   6.466   3.172
 1369SOL    HW1 5006   1.621   6.437   3.267
 1369SOL    HW2 5007   1.644   6.389   3.113
 1370SOL     OW 5008   3.691   0.993   2.088
 1370SOL    HW1 5009   3.603   0.956   2.115
 1370SOL    HW2 5010   3.689   1.019   1.992
 1371SOL     OW 5011   5.030   1.498   4.321
 1371SOL    HW1 5012   4.930   1.490   4.322
 1371SOL    HW2 5013   5.059   1.548   4.240
 1372SOL     OW 5014   1.787   3.025   0.575
 1372SOL    HW1 5015   1.879   2.988   0.585
 1372SOL    HW2 5016   1.720   2.951   0.586
 1373SOL     OW 5017   6.270   4.209   0.449
 1373SOL    HW1 5018   6.318   4.283   0.496
 1373SOL    HW2 5019   6.194   4.246   0.396
 1374SOL     OW 5020   3.829   2.154   0.567
 1374SOL    HW1 5021   3.801   2.058   0.568
 1374SOL    HW2 5022   3.866   2.177   0.477
 1375SOL     OW 5023   6.922   4.790   6.139
 1375SOL    HW1 5024   6.838   4.738   6.124
 1375SOL    HW2 5025   6.901   4.888   6.144
 1376SOL     OW 5026   5.291   3.250   3.685
 1376SOL    HW1 5027   5.226   3.182   3.718
 1376SOL    HW2 5028   5.263   3.282   3.594
 1377SOL     OW 5029   6.764   3.659   5.581
 1377SOL    HW1 5030   6.782   3.583   5.518
 1377SOL    HW2 5031   6.737   3.739   5.528
 1378SOL     OW 5032   6.256   2.011   5.016
 1378SOL    HW1 5033   6.327   2.026   4.947
 1378SOL    HW2 5034   6.188   2.084   5.012
 1379SOL     OW 5035   3.359   6.387   2.342
 1379SOL    HW1 5036   3.344   6.314   2.275
 1379SOL    HW2 5037   3.455   6.415   2.341
 1380SOL     OW 5038   6.925   6.925   2.557
 1380SOL    HW1 5039   7.003   6.985   2.541
 1380SOL    HW2 5040   6.951   6.853   2.622
 1381SOL     OW 5041   5.609   2.851   0.251
 1381SOL    HW1 5042   5.591   2.865   0.348
 1381SOL    HW2 5043   5.707   2.846   0.235
 1382SOL     OW 5044   6.006   5.249   6.803
 1382SOL    HW1 5045   6.017   5.195   6.887
 1382SOL    HW2 5046   5.909   5.258   6.781
 1383SOL     OW 5047   1.479   1.009   0.457
 1383SOL    HW1 5048   1.519   1.098   0.475
 1383SOL    HW2 5049   1.431   1.011   0.370
 1384SOL     OW 5050   3.866   1.650   3.285
 1384SOL    HW1 5051   3.850   1.571   3.227
 1384SOL    HW2 5052   3.837   1.733   3.237
 1385SOL     OW 5053   0.501   3.017   2.720
 1385SOL    HW1 5054   0.596   3.008   2.691
 1385SOL    HW2 5055   0.444   2.954   2.666
 1386SOL     OW 5056   2.196   2.333   4.388
 1386SOL    HW1 5057   2.141   2.399   4.440
 1386SOL    HW2 5058   2.171   2.240   4.417
 1387SOL     OW 5059   3.725   1.026   3.914
 1387SOL    HW1 5060   3.651   0.979   3.962
 1387SOL    HW2 5061   3.800   1.041   3.977
 1388SOL     OW 5062   6.595   6.536   4.277
 1388SOL    HW1 5063   6.640   6.560   4.363
 1388SOL    HW2 5064   6.580   6.437   4.273
 1389SOL     OW 5065   0.439   0.940   3.422
 1389SOL    HW1 5066   0.441   0.868   3.492
 1389SOL    HW2 5067   0.352   0.989   3.427
 1390SOL     OW 5068   4.491   1.358   6.794
 1390SOL    HW1 5069   4.430   1.348   6.873
 1390SOL    HW2 5070   4.557   1.431   6.811
 1391SOL     OW 5071   6.131   1.741   5.917
 1391SOL    HW1 5072   6.131   1.718   5.820
 1391SOL    HW2 5073   6.131   1.840   5.928
 1392SOL     OW 5074   4.729   5.738   6.110
 1392SOL    HW1 5075   4.664   5.665   6.129
 1392SOL    HW2 5076   4.724   5.807   6.182
 1393SOL     OW 5077   6.192   2.401   6.956
 1393SOL    HW1 5078   6.260   2.334   6.927
 1393SOL    HW2 5079   6.172   2.463   6.880
 1394SOL     OW 5080   4.188   6.820   4.137
 1394SOL    HW1 5081   4.241   6.813   4.221
 1394SOL    HW2 5082   4.243   6.863   4.066
 1395SOL     OW 5083   0.206   4.015   2.648
 1395SOL    HW1 5084   0.301   4.047   2.657
 1395SOL    HW2 5085   0.202   3.917   2.667
 1396SOL     OW 5086   1.778   0.501   4.233
 1396SOL    HW1 5087   1.750   0.405   4.227
 1396SOL    HW2 5088   1.853   0.509   4.299
 1397SOL     OW 5089   0.491   5.870   5.263
 1397SOL    HW1 5090   0.427   5.836   5.332
 1397SOL    HW2 5091   0.572   5.907   5.308
 1398SOL     OW 5092   1.807   1.142   0.486
 1398SOL    HW1 5093   1.782   1.082   0.562
 1398SOL    HW2 5094   1.906   1.154   0.484
 1399SOL     OW 5095   3.957   0.696   0.857
 1399SOL    HW1 5096   4.054   0.701   0.882
 1399SOL    HW2 5097   3.948   0.654   0.767
 1400SOL     OW 5098   6.785   0.943   4.473
 1400SOL    HW1 5099   6.778   0.917   4.570
 1400SOL    HW2 5100   6.811   0.863   4.419
 1401SOL     OW 5101   5.816   0.056   3.976
 1401SOL    HW1 5102   5.914   0.078   3.972
 1401SOL    HW2 5103   5.804   6.981   3.991
 1402SOL     OW 5104   5.837   4.082   0.530
 1402SOL    HW1 5105   5.888   3.996   0.521
 1402SOL    HW2 5106   5.840   4.112   0.625
 1403SOL     OW 5107   3.118   3.327   0.307
 1403SOL    HW1 5108   3.054   3.401   0.326
 1403SOL    HW2 5109   3.069   3.251   0.264
 1404SOL     OW 5110   4.856   0.178   1.139
 1404SOL    HW1 5111   4.873   0.110   1.067
 1404SOL    HW2 5112   4.918   0.161   1.215
 1405SOL     OW 5113   1.387   3.835   1.216
 1405SOL    HW1 5114   1.443   3.867   1.293
 1405SOL    HW2 5115   1.304   3.793   1.251
 1406SOL     OW 5116   2.068   3.822   1.477
 1406SOL    HW1 5117   2.130   3.870   1.415
 1406SOL    HW2 5118   2.049   3.879   1.557
 1407SOL     OW 5119   0.800   3.578   1.824
 1407SOL    HW1 5120   0.702   3.561   1.822
 1407SOL    HW2 5121   0.850   3.497   1.792
 1408SOL     OW 5122   6.334   6.128   6.932
 1408SOL    HW1 5123   6.324   6.039   6.887
 1408SOL    HW2 5124   6.426   6.135   6.971
 1409SOL     OW 5125   6.844   1.620   5.521
 1409SOL    HW1 5126   6.794   1.706   5.535
 1409SOL    HW2 5127   6.798   1.565   5.451
 1410SOL     OW 5128   2.163   3.186   6.184
 1410SOL    HW1 5129   2.101   3.181   6.263
 1410SOL    HW2 5130   2.241   3.245   6.206
 1411SOL     OW 5131   3.270   6.424   6.858
 1411SOL    HW1 5132   3.173   6.446   6.861
 1411SOL    HW2 5133   3.320   6.497   6.812
 1412SOL     OW 5134   0.585   3.245   0.847
 1412SOL    HW1 5135   0.538   3.330   0.829
 1412SOL    HW2 5136   0.535   3.169   0.806
 1413SOL     OW 5137   1.898   2.026   4.584
 1413SOL    HW1 5138   1.939   2.047   4.495
 1413SOL    HW2 5139   1.812   1.976   4.571
 1414SOL     OW 5140   1.089   3.206   1.589
 1414SOL    HW1 5141   1.130   3.115   1.593
 1414SOL    HW2 5142   1.132   3.259   1.517
 1415SOL     OW 5143   2.469   1.991   4.612
 1415SOL    HW1 5144   2.453   2.067   4.548
 1415SOL    HW2 5145   2.565   1.962   4.606
 1416SOL     OW 5146   3.854   0.304   4.955
 1416SOL    HW1 5147   3.903   0.355   5.026
 1416SOL    HW2 5148   3.831   0.365   4.879
 1417SOL     OW 5149   2.873   3.562   6.233
 1417SOL    HW1 5150   2.874   3.640   6.170
 1417SOL    HW2 5151   2.959   3.558   6.284
 1418SOL     OW 5152   3.492   4.026   0.143
 1418SOL    HW1 5153   3.441   3.941   0.127
 1418SOL    HW2 5154   3.533   4.056   0.057
 1419SOL     OW 5155   1.619   4.941   4.211
 1419SOL    HW1 5156   1.708   4.959   4.254
 1419SOL    HW2 5157   1.577   5.027   4.184
 1420SOL     OW 5158   3.891   5.071   2.395
 1420SOL    HW1 5159   3.961   5.081   2.466
 1420SOL    HW2 5160   3.802   5.092   2.434
 1421SOL     OW 5161   0.652   4.582   4.737
 1421SOL    HW1 5162   0.674   4.546   4.647
 1421SOL    HW2 5163   0.584   4.655   4.729
 1422SOL     OW 5164   2.507   4.241   5.587
 1422SOL    HW1 5165   2.485   4.187   5.507
 1422SOL    HW2 5166   2.554   4.325   5.559
 1423SOL     OW 5167   4.330   1.511   4.715
 1423SOL    HW1 5168   4.277   1.426   4.718
 1423SOL    HW2 5169   4.290   1.572   4.647
 1424SOL     OW 5170   6.306   3.228   6.139
 1424SOL    HW1 5171   6.375   3.166   6.103
 1424SOL    HW2 5172   6.298   3.215   6.238
 1425SOL     OW 5173   3.184   6.374   5.090
 1425SOL    HW1 5174   3.119   6.311   5.132
 1425SOL    HW2 5175   3.188   6.458   5.144
 1426SOL     OW 5176   2.126   1.360   6.955
 1426SOL    HW1 5177   2.222   1.378   6.937
 1426SOL    HW2 5178   2.076   1.353   6.868
 1427SOL     OW 5179   1.281   0.308   3.341
 1427SOL    HW1 5180   1.367   0.352   3.316
 1427SOL    HW2 5181   1.222   0.374   3.386
 1428SOL     OW 5182   0.332   2.438   2.085
 1428SOL    HW1 5183   0.403   2.374   2.056
 1428SOL    HW2 5184   0.242   2.399   2.067
 1429SOL     OW 5185   6.316   1.406   6.685
 1429SOL    HW1 5186   6.318   1.503   6.710
 1429SOL    HW2 5187   6.386   1.357   6.737
 1430SOL     OW 5188   2.674   4.959   4.094
 1430SOL    HW1 5189   2.613   4.892   4.135
 1430SOL    HW2 5190   2.689   5.035   4.157
 1431SOL     OW 5191   2.988   1.590   5.839
 1431SOL    HW1 5192   2.895   1.562   5.862
 1431SOL    HW2 5193   2.989   1.628   5.747
 1432SOL     OW 5194   2.567   1.399   0.500
 1432SOL    HW1 5195   2.622   1.479   0.480
 1432SOL    HW2 5196   2.569   1.382   0.599
 1433SOL     OW 5197   2.922   0.711   3.364
 1433SOL    HW1 5198   3.019   0.700   3.341
 1433SOL    HW2 5199   2.873   0.627   3.340
 1434SOL     OW 5200   0.356   2.382   7.019
 1434SOL    HW1 5201   0.280   2.316   0.000
 1434SOL    HW2 5202   0.352   2.431   6.932
 1435SOL     OW 5203   1.010   6.940   3.501
 1435SOL    HW1 5204   1.036   6.887   3.420
 1435SOL    HW2 5205   0.942   6.889   3.553
 1436SOL     OW 5206   5.913   3.552   0.626
 1436SOL    HW1 5207   5.903   3.598   0.715
 1436SOL    HW2 5208   5.890   3.455   0.636
 1437SOL     OW 5209   4.694   1.424   6.209
 1437SOL    HW1 5210   4.660   1.381   6.125
 1437SOL    HW2 5211   4.743   1.509   6.186
 1438SOL     OW 5212   2.687   1.164   1.316
 1438SOL    HW1 5213   2.732   1.186   1.402
 1438SOL    HW2 5214   2.670   1.066   1.311
 1439SOL     OW 5215   0.582   5.953   0.142
 1439SOL    HW1 5216   0.605   6.004   0.225
 1439SOL    HW2 5217   0.627   5.995   0.063
 1440SOL     OW 5218   3.312   3.647   3.804
 1440SOL    HW1 5219   3.216   3.662   3.783
 1440SOL    HW2 5220   3.357   3.606   3.725
 1441SOL     OW 5221   6.598   3.637   3.641
 1441SOL    HW1 5222   6.587   3.629   3.542
 1441SOL    HW2 5223   6.695   3.653   3.663
 1442SOL     OW 5224   5.602   4.711   0.705
 1442SOL    HW1 5225   5.516   4.692   0.752
 1442SOL    HW2 5226   5.646   4.625   0.679
 1443SOL     OW 5227   1.031   0.346   3.572
 1443SOL    HW1 5228   1.090   0.265   3.565
 1443SOL    HW2 5229   0.940   0.318   3.603
 1444SOL     OW 5230   4.493   6.449   3.131
 1444SOL    HW1 5231   4.464   6.442   3.227
 1444SOL    HW2 5232   4.582   6.493   3.127
 1445SOL     OW 5233   0.567   2.619   1.755
 1445SOL    HW1 5234   0.634   2.573   1.814
 1445SOL    HW2 5235   0.483   2.565   1.751
 1446SOL     OW 5236   4.495   2.215   0.465
 1446SOL    HW1 5237   4.424   2.244   0.401
 1446SOL    HW2 5238   4.565   2.164   0.417
 1447SOL     OW 5239   6.763   1.062   5.298
 1447SOL    HW1 5240   6.754   1.101   5.206
 1447SOL    HW2 5241   6.855   1.023   5.309
 1448SOL     OW 5242   6.156   1.851   0.630
 1448SOL    HW1 5243   6.185   1.795   0.552
 1448SOL    HW2 5244   6.180   1.804   0.715
 1449SOL     OW 5245   5.853   6.405   0.618
 1449SOL    HW1 5246   5.952   6.408   0.604
 1449SOL    HW2 5247   5.831   6.448   0.705
 1450SOL     OW 5248   5.984   2.869   2.892
 1450SOL    HW1 5249   5.948   2.792   2.945
 1450SOL    HW2 5250   5.936   2.874   2.804
 1451SOL     OW 5251   2.612   6.466   2.778
 1451SOL    HW1 5252   2.567   6.471   2.689
 1451SOL    HW2 5253   2.659   6.378   2.787
 1452SOL     OW 5254   5.283   0.503   4.706
 1452SOL    HW1 5255   5.194   0.466   4.731
 1452SOL    HW2 5256   5.324   0.446   4.634
 1453SOL     OW 5257   5.552   3.695   4.895
 1453SOL    HW1 5258   5.530   3.633   4.819
 1453SOL    HW2 5259   5.647   3.681   4.922
 1454SOL     OW 5260   5.403   2.561   1.920
 1454SOL    HW1 5261   5.335   2.489   1.924
 1454SOL    HW2 5262   5.362   2.648   1.949
 1455SOL     OW 5263   1.045   0.360   2.076
 1455SOL    HW1 5264   1.009   0.398   2.161
 1455SOL    HW2 5265   1.064   0.434   2.012
 1456SOL     OW 5266   0.056   6.635   5.116
 1456SOL    HW1 5267   7.004   6.701   5.122
 1456SOL    HW2 5268   0.020   6.543   5.133
 1457SOL     OW 5269   1.429   6.950   3.274
 1457SOL    HW1 5270   1.351   7.006   3.247
 1457SOL    HW2 5271   1.507   6.968   3.213
 1458SOL     OW 5272   5.068   6.971   5.017
 1458SOL    HW1 5273   5.163   6.941   5.014
 1458SOL    HW2 5274   5.011   6.896   5.051
 1459SOL     OW 5275   2.723   5.819   6.870
 1459SOL    HW1 5276   2.788   5.889   6.842
 1459SOL    HW2 5277   2.746   5.785   6.961
 1460SOL     OW 5278   0.177   6.315   6.779
 1460SOL    HW1 5279   0.126   6.385   6.731
 1460SOL    HW2 5280   0.184   6.233   6.722
 1461SOL     OW 5281   6.462   4.572   3.300
 1461SOL    HW1 5282   6.476   4.624   3.384
 1461SOL    HW2 5283   6.368   4.536   3.298
 1462SOL     OW 5284   6.667   1.461   0.507
 1462SOL    HW1 5285   6.650   1.558   0.520
 1462SOL    HW2 5286   6.735   1.430   0.573
 1463SOL     OW 5287   0.554   0.380   5.455
 1463SOL    HW1 5288   0.507   0.328   5.525
 1463SOL    HW2 5289   0.488   0.435   5.404
 1464SOL     OW 5290   0.378   6.957   0.257
 1464SOL    HW1 5291   0.296   6.993   0.303
 1464SOL    HW2 5292   0.460   6.998   0.297
 1465SOL     OW 5293   0.772   1.189   3.184
 1465SOL    HW1 5294   0.857   1.147   3.215
 1465SOL    HW2 5295   0.785   1.230   3.094
 1466SOL     OW 5296   0.010   6.255   2.482
 1466SOL    HW1 5297   6.986   6.299   2.558
 1466SOL    HW2 5298   0.056   6.172   2.516
 1467SOL     OW 5299   1.539   0.445   2.901
 1467SOL    HW1 5300   1.562   0.517   2.835
 1467SOL    HW2 5301   1.477   0.482   2.971
 1468SOL     OW 5302   5.613   5.812   3.219
 1468SOL    HW1 5303   5.690   5.748   3.213
 1468SOL    HW2 5304   5.567   5.799   3.307
 1469SOL     OW 5305   0.342   0.553   2.863
 1469SOL    HW1 5306   0.309   0.460   2.876
 1469SOL    HW2 5307   0.396   0.582   2.942
 1470SOL     OW 5308   1.290   0.598   2.651
 1470SOL    HW1 5309   1.342   0.659   2.711
 1470SOL    HW2 5310   1.353   0.543   2.596
 1471SOL     OW 5311   6.495   0.833   6.384
 1471SOL    HW1 5312   6.562   0.895   6.343
 1471SOL    HW2 5313   6.543   0.757   6.429
 1472SOL     OW 5314   4.780   6.129   4.675
 1472SOL    HW1 5315   4.838   6.114   4.755
 1472SOL    HW2 5316   4.688   6.096   4.694
 1473SOL     OW 5317   5.839   5.650   3.174
 1473SOL    HW1 5318   5.829   5.626   3.078
 1473SOL    HW2 5319   5.936   5.645   3.200
 1474SOL     OW 5320   5.981   5.615   3.895
 1474SOL    HW1 5321   5.945   5.625   3.802
 1474SOL    HW2 5322   5.984   5.705   3.939
 1475SOL     OW 5323   0.313   0.416   1.797
 1475SOL    HW1 5324   0.297   0.317   1.802
 1475SOL    HW2 5325   0.229   0.462   1.769
 1476SOL     OW 5326   1.228   0.973   1.772
 1476SOL    HW1 5327   1.167   0.901   1.804
 1476SOL    HW2 5328   1.192   1.062   1.798
 1477SOL     OW 5329   3.275   0.669   5.940
 1477SOL    HW1 5330   3.203   0.625   5.886
 1477SOL    HW2 5331   3.318   0.742   5.886
 1478SOL     OW 5332   5.911   4.687   0.914
 1478SOL    HW1 5333   5.888   4.773   0.870
 1478SOL    HW2 5334   5.965   4.631   0.851
 1479SOL     OW 5335   1.374   4.792   0.449
 1479SOL    HW1 5336   1.365   4.785   0.350
 1479SOL    HW2 5337   1.373   4.700   0.489
 1480SOL     OW 5338   2.425   1.239   6.918
 1480SOL    HW1 5339   2.407   1.161   6.978
 1480SOL    HW2 5340   2.518   1.272   6.932
 1481SOL     OW 5341   5.571   1.795   5.095
 1481SOL    HW1 5342   5.520   1.826   5.175
 1481SOL    HW2 5343   5.610   1.874   5.047
 1482SOL     OW 5344   5.952   1.572   1.280
 1482SOL    HW1 5345   6.037   1.614   1.248
 1482SOL    HW2 5346   5.968   1.475   1.299
 1483SOL     OW 5347   6.890   3.051   0.014
 1483SOL    HW1 5348   6.863   3.147   0.001
 1483SOL    HW2 5349   6.887   3.003   6.950
 1484SOL     OW 5350   6.451   4.289   3.210
 1484SOL    HW1 5351   6.481   4.361   3.147
 1484SOL    HW2 5352   6.400   4.330   3.285
 1485SOL     OW 5353   5.098   2.760   2.285
 1485SOL    HW1 5354   5.085   2.709   2.200
 1485SOL    HW2 5355   5.049   2.847   2.281
 1486SOL     OW 5356   4.687   2.162   3.516
 1486SOL    HW1 5357   4.691   2.069   3.481
 1486SOL    HW2 5358   4.764   2.215   3.480
 1487SOL     OW 5359   6.779   1.665   6.969
 1487SOL    HW1 5360   6.807   1.577   6.932
 1487SOL    HW2 5361   6.680   1.667   6.979
 1488SOL     OW 5362   4.907   1.842   2.669
 1488SOL    HW1 5363   4.861   1.880   2.750
 1488SOL    HW2 5364   4.922   1.744   2.683
 1489SOL     OW 5365   3.806   4.961   4.293
 1489SOL    HW1 5366   3.706   4.965   4.293
 1489SOL    HW2 5367   3.838   4.921   4.379
 1490SOL     OW 5368   1.414   1.882   0.669
 1490SOL    HW1 5369   1.437   1.813   0.737
 1490SOL    HW2 5370   1.326   1.924   0.692
 1491SOL     OW 5371   6.161   4.072   3.496
 1491SOL    HW1 5372   6.163   4.112   3.405
 1491SOL    HW2 5373   6.250   4.084   3.539
 1492SOL     OW 5374   5.251   2.016   1.926
 1492SOL    HW1 5375   5.157   2.037   1.898
 1492SOL    HW2 5376   5.250   1.939   1.990
 1493SOL     OW 5377   4.567   6.950   4.651
 1493SOL    HW1 5378   4.662   6.921   4.665
 1493SOL    HW2 5379   4.564   7.014   4.574
 1494SOL     OW 5380   3.686   2.977   5.427
 1494SOL    HW1 5381   3.726   2.965   5.336
 1494SOL    HW2 5382   3.591   2.946   5.426
 1495SOL     OW 5383   0.236   3.237   3.146
 1495SOL    HW1 5384   0.182   3.170   3.094
 1495SOL    HW2 5385   0.175   3.294   3.200
 1496SOL     OW 5386   0.269   0.551   1.483
 1496SOL    HW1 5387   0.222   0.526   1.568
 1496SOL    HW2 5388   0.361   0.512   1.483
 1497SOL     OW 5389   0.263   5.060   4.005
 1497SOL    HW1 5390   0.215   5.038   4.090
 1497SOL    HW2 5391   0.337   5.124   4.024
 1498SOL     OW 5392   2.409   4.934   6.421
 1498SOL    HW1 5393   2.466   4.861   6.461
 1498SOL    HW2 5394   2.390   4.911   6.326
 1499SOL     OW 5395   1.182   4.157   4.840
 1499SOL    HW1 5396   1.277   4.181   4.819
 1499SOL    HW2 5397   1.179   4.108   4.927
 1500SOL     OW 5398   6.081   6.933   0.924
 1500SOL    HW1 5399   5.998   6.985   0.907
 1500SOL    HW2 5400   6.124   6.965   1.009
 1501SOL     OW 5401   3.843   0.674   6.843
 1501SOL    HW1 5402   3.851   0.698   6.940
 1501SOL    HW2 5403   3.869   0.753   6.787
 1502SOL     OW 5404   6.670   6.479   0.062
 1502SOL    HW1 5405   6.699   6.555   0.004
 1502SOL    HW2 5406   6.703   6.393   0.022
 1503SOL     OW 5407   2.059   2.653   1.132
 1503SOL    HW1 5408   2.034   2.707   1.052
 1503SOL    HW2 5409   2.017   2.562   1.125
 1504SOL     OW 5410   2.415   0.272   4.682
 1504SOL    HW1 5411   2.377   0.272   4.775
 1504SOL    HW2 5412   2.368   0.342   4.628
 1505SOL     OW 5413   5.035   0.356   5.862
 1505SOL    HW1 5414   5.067   0.353   5.957
 1505SOL    HW2 5415   4.939   0.382   5.860
 1506SOL     OW 5416   1.214   4.900   3.458
 1506SOL    HW1 5417   1.282   4.897   3.531
 1506SOL    HW2 5418   1.125   4.924   3.497
 1507SOL     OW 5419   1.627   1.350   4.438
 1507SOL    HW1 5420   1.669   1.356   4.529
 1507SOL    HW2 5421   1.639   1.437   4.390
 1508SOL     OW 5422   4.566   0.033   0.817
 1508SOL    HW1 5423   4.526   0.114   0.773
 1508SOL    HW2 5424   4.506   6.978   0.805
 1509SOL     OW 5425   4.256   2.421   6.668
 1509SOL    HW1 5426   4.179   2.465   6.713
 1509SOL    HW2 5427   4.260   2.449   6.572
 1510SOL     OW 5428   6.225   2.621   4.215
 1510SOL    HW1 5429   6.213   2.594   4.120
 1510SOL    HW2 5430   6.140   2.660   4.250
 1511SOL     OW 5431   2.379   1.524   6.904
 1511SOL    HW1 5432   2.390   1.433   6.864
 1511SOL    HW2 5433   2.323   1.581   6.843
 1512SOL     OW 5434   6.569   6.810   1.897
 1512SOL    HW1 5435   6.514   6.780   1.975
 1512SOL    HW2 5436   6.666   6.791   1.916
 1513SOL     OW 5437   4.044   0.558   3.635
 1513SOL    HW1 5438   3.957   0.516   3.610
 1513SOL    HW2 5439   4.045   0.574   3.734
 1514SOL     OW 5440   5.177   1.639   5.073
 1514SOL    HW1 5441   5.154   1.583   5.152
 1514SOL    HW2 5442   5.209   1.581   4.998
 1515SOL     OW 5443   6.864   3.464   5.394
 1515SOL    HW1 5444   6.904   3.471   5.303
 1515SOL    HW2 5445   6.805   3.384   5.399
 1516SOL     OW 5446   0.758   0.874   1.104
 1516SOL    HW1 5447   0.768   0.915   1.014
 1516SOL    HW2 5448   0.761   0.774   1.096
 1517SOL     OW 5449   4.162   5.405   3.946
 1517SOL    HW1 5450   4.131   5.319   3.906
 1517SOL    HW2 5451   4.207   5.460   3.876
 1518SOL     OW 5452   6.892   4.059   6.914
 1518SOL    HW1 5453   6.803   4.015   6.902
 1518SOL    HW2 5454   6.878   4.152   6.948
 1519SOL     OW 5455   0.298   4.240   1.114
 1519SOL    HW1 5456   0.350   4.298   1.052
 1519SOL    HW2 5457   0.274   4.292   1.197
 1520SOL     OW 5458   2.059   3.276   2.411
 1520SOL    HW1 5459   2.071   3.282   2.511
 1520SOL    HW2 5460   2.114   3.199   2.376
 1521SOL     OW 5461   2.024   3.298   0.059
 1521SOL    HW1 5462   2.089   3.370   0.083
 1521SOL    HW2 5463   1.957   3.288   0.132
 1522SOL     OW 5464   6.787   1.721   6.247
 1522SOL    HW1 5465   6.787   1.815   6.281
 1522SOL    HW2 5466   6.800   1.721   6.148
 1523SOL     OW 5467   5.414   3.394   6.307
 1523SOL    HW1 5468   5.447   3.327   6.373
 1523SOL    HW2 5469   5.327   3.433   6.339
 1524SOL     OW 5470   1.263   1.512   1.607
 1524SOL    HW1 5471   1.349   1.525   1.656
 1524SOL    HW2 5472   1.255   1.581   1.535
 1525SOL     OW 5473   4.663   1.592   5.744
 1525SOL    HW1 5474   4.758   1.581   5.775
 1525SOL    HW2 5475   4.646   1.688   5.723
 1526SOL     OW 5476   0.518   1.034   0.927
 1526SOL    HW1 5477   0.504   0.998   0.834
 1526SOL    HW2 5478   0.579   0.972   0.977
 1527SOL     OW 5479   3.053   1.720   4.835
 1527SOL    HW1 5480   3.130   1.703   4.897
 1527SOL    HW2 5481   2.992   1.641   4.837
 1528SOL     OW 5482   5.115   6.130   2.549
 1528SOL    HW1 5483   5.166   6.149   2.465
 1528SOL    HW2 5484   5.089   6.033   2.551
 1529SOL     OW 5485   5.026   1.268   6.095
 1529SOL    HW1 5486   5.025   1.288   6.193
 1529SOL    HW2 5487   4.932   1.260   6.062
 1530SOL     OW 5488   3.117   6.673   1.306
 1530SOL    HW1 5489   3.190   6.606   1.291
 1530SOL    HW2 5490   3.045   6.633   1.362
 1531SOL     OW 5491   5.683   0.879   5.316
 1531SOL    HW1 5492   5.633   0.953   5.271
 1531SOL    HW2 5493   5.775   0.911   5.339
 1532SOL     OW 5494   2.879   2.187   4.502
 1532SOL    HW1 5495   2.979   2.190   4.496
 1532SOL    HW2 5496   2.841   2.150   4.418
 1533SOL     OW 5497   0.015   3.338   6.595
 1533SOL    HW1 5498   0.080   3.312   6.524
 1533SOL    HW2 5499   0.055   3.321   6.685
 1534SOL     OW 5500   2.054   5.327   0.306
 1534SOL    HW1 5501   2.011   5.245   0.268
 1534SOL    HW2 5502   2.120   5.300   0.376
 1535SOL     OW 5503   5.467   5.316   4.425
 1535SOL    HW1 5504   5.447   5.331   4.522
 1535SOL    HW2 5505   5.563   5.337   4.406
 1536SOL     OW 5506   3.224   5.178   4.306
 1536SOL    HW1 5507   3.294   5.238   4.344
 1536SOL    HW2 5508   3.231   5.088   4.349
 1537SOL     OW 5509   3.179   5.305   3.561
 1537SOL    HW1 5510   3.184   5.328   3.658
 1537SOL    HW2 5511   3.119   5.226   3.548
 1538SOL     OW 5512   3.204   4.923   6.393
 1538SOL    HW1 5513   3.242   5.015   6.383
 1538SOL    HW2 5514   3.156   4.898   6.309
 1539SOL     OW 5515   3.614   4.167   1.514
 1539SOL    HW1 5516   3.518   4.172   1.539
 1539SOL    HW2 5517   3.643   4.071   1.511
 1540SOL     OW 5518   1.245   0.257   4.424
 1540SOL    HW1 5519   1.148   0.248   4.402
 1540SOL    HW2 5520   1.295   0.180   4.386
 1541SOL     OW 5521   4.280   2.612   0.994
 1541SOL    HW1 5522   4.206   2.546   1.001
 1541SOL    HW2 5523   4.329   2.598   0.908
 1542SOL     OW 5524   6.736   5.889   1.950
 1542SOL    HW1 5525   6.779   5.956   1.889
 1542SOL    HW2 5526   6.807   5.838   1.998
 1543SOL     OW 5527   3.507   3.382   3.297
 1543SOL    HW1 5528   3.427   3.343   3.251
 1543SOL    HW2 5529   3.544   3.314   3.360
 1544SOL     OW 5530   3.065   3.758   2.028
 1544SOL    HW1 5531   3.051   3.692   2.102
 1544SOL    HW2 5532   3.100   3.844   2.065
 1545SOL     OW 5533   5.155   0.536   5.338
 1545SOL    HW1 5534   5.130   0.622   5.383
 1545SOL    HW2 5535   5.225   0.555   5.268
 1546SOL     OW 5536   5.680   0.453   6.207
 1546SOL    HW1 5537   5.637   0.480   6.293
 1546SOL    HW2 5538   5.615   0.467   6.132
 1547SOL     OW 5539   2.355   4.239   2.695
 1547SOL    HW1 5540   2.340   4.220   2.598
 1547SOL    HW2 5541   2.403   4.326   2.705
 1548SOL     OW 5542   4.468   4.213   5.795
 1548SOL    HW1 5543   4.439   4.137   5.852
 1548SOL    HW2 5544   4.435   4.299   5.833
 1549SOL     OW 5545   6.719   1.306   2.184
 1549SOL    HW1 5546   6.783   1.308   2.261
 1549SOL    HW2 5547   6.746   1.374   2.117
 1550SOL     OW 5548   2.933   6.756   5.626
 1550SOL    HW1 5549   2.934   6.662   5.592
 1550SOL    HW2 5550   3.016   6.773   5.679
 1551SOL     OW 5551   2.101   2.931   1.500
 1551SOL    HW1 5552   2.088   3.027   1.477
 1551SOL    HW2 5553   2.198   2.907   1.494
 1552SOL     OW 5554   1.222   6.946   0.913
 1552SOL    HW1 5555   1.275   6.899   0.842
 1552SOL    HW2 5556   1.124   6.928   0.900
 1553SOL     OW 5557   5.863   1.573   6.895
 1553SOL    HW1 5558   5.851   1.672   6.903
 1553SOL    HW2 5559   5.948   1.545   6.939
 1554SOL     OW 5560   4.047   2.048   2.780
 1554SOL    HW1 5561   4.008   2.084   2.696
 1554SOL    HW2 5562   4.143   2.075   2.786
 1555SOL     OW 5563   4.791   2.604   5.433
 1555SOL    HW1 5564   4.822   2.554   5.513
 1555SOL    HW2 5565   4.808   2.702   5.446
 1556SOL     OW 5566   3.416   0.177   0.853
 1556SOL    HW1 5567   3.334   0.233   0.838
 1556SOL    HW2 5568   3.486   0.232   0.898
 1557SOL     OW 5569   2.417   2.822   0.943
 1557SOL    HW1 5570   2.388   2.786   1.032
 1557SOL    HW2 5571   2.487   2.891   0.957
 1558SOL     OW 5572   5.875   2.243   5.353
 1558SOL    HW1 5573   5.950   2.309   5.344
 1558SOL    HW2 5574   5.900   2.158   5.306
 1559SOL     OW 5575   0.412   3.859   2.304
 1559SOL    HW1 5576   0.427   3.939   2.245
 1559SOL    HW2 5577   0.465   3.782   2.269
 1560SOL     OW 5578   3.812   1.381   0.048
 1560SOL    HW1 5579   3.831   1.288   0.080
 1560SOL    HW2 5580   3.894   1.437   0.062
 1561SOL     OW 5581   5.612   6.430   2.430
 1561SOL    HW1 5582   5.592   6.490   2.507
 1561SOL    HW2 5583   5.637   6.339   2.464
 1562SOL     OW 5584   2.802   6.381   2.086
 1562SOL    HW1 5585   2.859   6.307   2.121
 1562SOL    HW2 5586   2.856   6.439   2.025
 1563SOL     OW 5587   2.929   2.223   4.811
 1563SOL    HW1 5588   2.991   2.234   4.889
 1563SOL    HW2 5589   2.982   2.227   4.726
 1564SOL     OW 5590   1.096   1.262   2.433
 1564SOL    HW1 5591   1.187   1.224   2.419
 1564SOL    HW2 5592   1.084   1.285   2.529
 1565SOL     OW 5593   4.062   5.380   4.706
 1565SOL    HW1 5594   4.093   5.475   4.703
 1565SOL    HW2 5595   3.965   5.378   4.729
 1566SOL     OW 5596   5.550   4.861   3.636
 1566SOL    HW1 5597   5.489   4.811   3.573
 1566SOL    HW2 5598   5.494   4.911   3.702
 1567SOL     OW 5599   5.995   5.464   6.311
 1567SOL    HW1 5600   6.069   5.397   6.309
 1567SOL    HW2 5601   5.951   5.462   6.401
 1568SOL     OW 5602   2.468   6.436   3.854
 1568SOL    HW1 5603   2.499   6.437   3.759
 1568SOL    HW2 5604   2.542   6.470   3.913
 1569SOL     OW 5605   3.780   0.520   2.967
 1569SOL    HW1 5606   3.774   0.480   2.876
 1569SOL    HW2 5607   3.867   0.569   2.976
 1570SOL     OW 5608   2.949   6.803   6.451
 1570SOL    HW1 5609   2.923   6.890   6.409
 1570SOL    HW2 5610   2.890   6.730   6.418
 1571SOL     OW 5611   1.030   2.469   2.953
 1571SOL    HW1 5612   1.080   2.383   2.946
 1571SOL    HW2 5613   1.057   2.517   3.037
 1572SOL     OW 5614   1.878   5.637   1.886
 1572SOL    HW1 5615   1.858   5.724   1.931
 1572SOL    HW2 5616   1.879   5.564   1.955
 1573SOL     OW 5617   5.304   5.597   1.660
 1573SOL    HW1 5618   5.300   5.525   1.729
 1573SOL    HW2 5619   5.212   5.615   1.625
 1574SOL     OW 5620   6.126   3.105   2.135
 1574SOL    HW1 5621   6.054   3.091   2.203
 1574SOL    HW2 5622   6.209   3.056   2.162
 1575SOL     OW 5623   1.646   0.629   1.467
 1575SOL    HW1 5624   1.551   0.655   1.451
 1575SOL    HW2 5625   1.705   0.709   1.453
 1576SOL     OW 5626   0.881   6.165   2.678
 1576SOL    HW1 5627   0.853   6.197   2.587
 1576SOL    HW2 5628   0.804   6.174   2.742
 1577SOL     OW 5629   3.171   0.755   6.416
 1577SOL    HW1 5630   3.143   0.776   6.322
 1577SOL    HW2 5631   3.177   0.656   6.428
 1578SOL     OW 5632   4.848   0.948   6.732
 1578SOL    HW1 5633   4.884   0.856   6.747
 1578SOL    HW2 5634   4.753   0.943   6.701
 1579SOL     OW 5635   0.807   2.961   1.540
 1579SOL    HW1 5636   0.733   2.897   1.520
 1579SOL    HW2 5637   0.866   2.921   1.610
 1580SOL     OW 5638   3.230   4.030   3.319
 1580SOL    HW1 5639   3.240   3.980   3.233
 1580SOL    HW2 5640   3.321   4.050   3.356
 1581SOL     OW 5641   6.985   4.834   5.430
 1581SOL    HW1 5642   0.039   4.810   5.489
 1581SOL    HW2 5643   7.018   4.885   5.351
 1582SOL     OW 5644   3.801   5.651   4.869
 1582SOL    HW1 5645   3.789   5.718   4.795
 1582SOL    HW2 5646   3.819   5.561   4.829
 1583SOL     OW 5647   0.554   6.163   5.054
 1583SOL    HW1 5648   0.534   6.169   4.956
 1583SOL    HW2 5649   0.649   6.135   5.067
 1584SOL     OW 5650   1.500   4.682   6.918
 1584SOL    HW1 5651   1.509   4.659   7.015
 1584SOL    HW2 5652   1.591   4.687   6.877
 1585SOL     OW 5653   4.436   1.879   3.128
 1585SOL    HW1 5654   4.459   1.972   3.156
 1585SOL    HW2 5655   4.515   1.820   3.139
 1586SOL     OW 5656   3.498   4.891   3.068
 1586SOL    HW1 5657   3.448   4.884   3.154
 1586SOL    HW2 5658   3.566   4.963   3.075
 1587SOL     OW 5659   1.664   5.778   5.398
 1587SOL    HW1 5660   1.604   5.722   5.341
 1587SOL    HW2 5661   1.625   5.870   5.407
 1588SOL     OW 5662   4.750   0.451   2.342
 1588SOL    HW1 5663   4.775   0.392   2.419
 1588SOL    HW2 5664   4.786   0.412   2.257
 1589SOL     OW 5665   6.571   3.578   2.587
 1589SOL    HW1 5666   6.660   3.553   2.626
 1589SOL    HW2 5667   6.517   3.495   2.573
 1590SOL     OW 5668   5.676   1.960   3.623
 1590SOL    HW1 5669   5.647   2.055   3.624
 1590SOL    HW2 5670   5.733   1.941   3.703
 1591SOL     OW 5671   6.712   5.464   1.811
 1591SOL    HW1 5672   6.695   5.435   1.717
 1591SOL    HW2 5673   6.754   5.555   1.810
 1592SOL     OW 5674   1.508   4.560   0.145
 1592SOL    HW1 5675   1.444   4.486   0.166
 1592SOL    HW2 5676   1.575   4.567   0.220
 1593SOL     OW 5677   0.757   6.966   6.142
 1593SOL    HW1 5678   0.849   6.930   6.132
 1593SOL    HW2 5679   0.691   6.892   6.133
 1594SOL     OW 5680   6.644   6.886   1.507
 1594SOL    HW1 5681   6.669   6.968   1.558
 1594SOL    HW2 5682   6.603   6.819   1.570
 1595SOL     OW 5683   1.422   4.288   0.345
 1595SOL    HW1 5684   1.397   4.193   0.365
 1595SOL    HW2 5685   1.380   4.315   0.258
 1596SOL     OW 5686   6.141   3.624   2.898
 1596SOL    HW1 5687   6.046   3.594   2.899
 1596SOL    HW2 5688   6.201   3.544   2.898
 1597SOL     OW 5689   3.162   5.958   1.232
 1597SOL    HW1 5690   3.077   5.989   1.276
 1597SOL    HW2 5691   3.160   5.984   1.135
 1598SOL     OW 5692   1.200   5.315   6.640
 1598SOL    HW1 5693   1.160   5.304   6.549
 1598SOL    HW2 5694   1.127   5.327   6.707
 1599SOL     OW 5695   4.299   4.818   4.915
 1599SOL    HW1 5696   4.200   4.820   4.932
 1599SOL    HW2 5697   4.331   4.724   4.915
 1600SOL     OW 5698   2.894   0.141   2.245
 1600SOL    HW1 5699   2.870   0.235   2.221
 1600SOL    HW2 5700   2.903   0.133   2.344
 1601SOL     OW 5701   0.407   6.322   4.040
 1601SOL    HW1 5702   0.347   6.252   4.000
 1601SOL    HW2 5703   0.473   6.353   3.971
 1602SOL     OW 5704   4.943   5.249   4.004
 1602SOL    HW1 5705   4.973   5.333   4.048
 1602SOL    HW2 5706   4.989   5.171   4.047
 1603SOL     OW 5707   2.869   5.485   4.242
 1603SOL    HW1 5708   2.799   5.546   4.278
 1603SOL    HW2 5709   2.892   5.513   4.148
 1604SOL     OW 5710   4.031   4.968   1.584
 1604SOL    HW1 5711   3.973   5.047   1.568
 1604SOL    HW2 5712   4.047   4.958   1.682
 1605SOL     OW 5713   5.915   5.559   1.250
 1605SOL    HW1 5714   5.978   5.567   1.327
 1605SOL    HW2 5715   5.850   5.485   1.268
 1606SOL     OW 5716   4.084   5.157   5.490
 1606SOL    HW1 5717   4.092   5.243   5.440
 1606SOL    HW2 5718   4.162   5.098   5.467
 1607SOL     OW 5719   4.162   7.002   1.689
 1607SOL    HW1 5720   4.181   0.014   1.780
 1607SOL    HW2 5721   4.070   0.006   1.660
 1608SOL     OW 5722   6.636   0.549   3.423
 1608SOL    HW1 5723   6.546   0.591   3.412
 1608SOL    HW2 5724   6.703   0.620   3.446
 1609SOL     OW 5725   2.802   6.560   0.839
 1609SOL    HW1 5726   2.809   6.647   0.790
 1609SOL    HW2 5727   2.837   6.572   0.932
 1610SOL     OW 5728   4.743   6.472   0.790
 1610SOL    HW1 5729   4.704   6.443   0.877
 1610SOL    HW2 5730   4.838   6.499   0.804
 1611SOL     OW 5731   1.595   3.741   1.048
 1611SOL    HW1 5732   1.685   3.746   1.091
 1611SOL    HW2 5733   1.527   3.781   1.108
 1612SOL     OW 5734   2.987   6.295   1.324
 1612SOL    HW1 5735   2.970   6.221   1.389
 1612SOL    HW2 5736   3.040   6.259   1.246
 1613SOL     OW 5737   0.447   5.996   2.085
 1613SOL    HW1 5738   0.509   5.997   2.164
 1613SOL    HW2 5739   0.480   5.929   2.018
 1614SOL     OW 5740   5.605   2.039   6.093
 1614SOL    HW1 5741   5.676   2.103   6.064
 1614SOL    HW2 5742   5.646   1.966   6.147
 1615SOL     OW 5743   0.052   5.079   5.893
 1615SOL    HW1 5744   0.122   5.141   5.925
 1615SOL    HW2 5745   6.984   5.117   5.913
 1616SOL     OW 5746   3.885   1.058   4.525
 1616SOL    HW1 5747   3.955   1.128   4.520
 1616SOL    HW2 5748   3.926   0.968   4.509
 1617SOL     OW 5749   4.888   6.960   3.343
 1617SOL    HW1 5750   4.899   6.920   3.434
 1617SOL    HW2 5751   4.926   6.899   3.274
 1618SOL     OW 5752   1.477   5.894   2.390
 1618SOL    HW1 5753   1.521   5.914   2.478
 1618SOL    HW2 5754   1.426   5.808   2.397
 1619SOL     OW 5755   0.283   5.199   0.109
 1619SOL    HW1 5756   0.281   5.285   0.058
 1619SOL    HW2 5757   0.242   5.213   0.200
 1620SOL     OW 5758   3.172   5.216   1.496
 1620SOL    HW1 5759   3.263   5.221   1.454
 1620SOL    HW2 5760   3.181   5.197   1.594
 1621SOL     OW 5761   6.218   0.334   1.203
 1621SOL    HW1 5762   6.175   0.419   1.234
 1621SOL    HW2 5763   6.152   0.280   1.150
 1622SOL     OW 5764   6.945   3.971   5.787
 1622SOL    HW1 5765   7.010   3.975   5.863
 1622SOL    HW2 5766   6.881   3.896   5.803
 1623SOL     OW 5767   6.963   1.837   4.373
 1623SOL    HW1 5768   0.013   1.875   4.317
 1623SOL    HW2 5769   7.001   1.805   4.460
 1624SOL     OW 5770   4.430   1.717   6.717
 1624SOL    HW1 5771   4.386   1.737   6.805
 1624SOL    HW2 5772   4.511   1.660   6.733
 1625SOL     OW 5773   1.036   5.005   6.762
 1625SOL    HW1 5774   0.956   5.032   6.816
 1625SOL    HW2 5775   1.015   5.016   6.665
 1626SOL     OW 5776   3.004   1.453   2.054
 1626SOL    HW1 5777   2.964   1.517   1.988
 1626SOL    HW2 5778   2.969   1.473   2.145
 1627SOL     OW 5779   5.715   2.858   3.664
 1627SOL    HW1 5780   5.667   2.772   3.682
 1627SOL    HW2 5781   5.649   2.933   3.663
 1628SOL     OW 5782   4.598   5.781   6.500
 1628SOL    HW1 5783   4.629   5.718   6.571
 1628SOL    HW2 5784   4.564   5.865   6.543
 1629SOL     OW 5785   2.829   1.624   3.241
 1629SOL    HW1 5786   2.845   1.565   3.162
 1629SOL    HW2 5787   2.829   1.568   3.324
 1630SOL     OW 5788   6.466   4.237   5.545
 1630SOL    HW1 5789   6.470   4.202   5.638
 1630SOL    HW2 5790   6.540   4.198   5.491
 1631SOL     OW 5791   6.895   3.164   0.659
 1631SOL    HW1 5792   6.808   3.125   0.629
 1631SOL    HW2 5793   6.950   3.188   0.579
 1632SOL     OW 5794   4.835   4.458   2.527
 1632SOL    HW1 5795   4.759   4.433   2.466
 1632SOL    HW2 5796   4.808   4.536   2.584
 1633SOL     OW 5797   4.953   4.329   4.635
 1633SOL    HW1 5798   4.935   4.426   4.621
 1633SOL    HW2 5799   4.867   4.280   4.645
 1634SOL     OW 5800   4.551   1.082   4.288
 1634SOL    HW1 5801   4.604   1.000   4.309
 1634SOL    HW2 5802   4.578   1.117   4.198
 1635SOL     OW 5803   2.181   5.645   6.582
 1635SOL    HW1 5804   2.083   5.651   6.564
 1635SOL    HW2 5805   2.196   5.612   6.675
 1636SOL     OW 5806   3.697   5.266   1.171
 1636SOL    HW1 5807   3.667   5.346   1.118
 1636SOL    HW2 5808   3.796   5.272   1.185
 1637SOL     OW 5809   6.537   6.697   4.058
 1637SOL    HW1 5810   6.614   6.677   3.997
 1637SOL    HW2 5811   6.552   6.651   4.146
 1638SOL     OW 5812   0.297   2.922   1.469
 1638SOL    HW1 5813   0.211   2.972   1.461
 1638SOL    HW2 5814   0.321   2.882   1.380
 1639SOL     OW 5815   6.825   4.734   2.313
 1639SOL    HW1 5816   6.806   4.795   2.390
 1639SOL    HW2 5817   6.924   4.718   2.307
 1640SOL     OW 5818   6.946   0.256   0.323
 1640SOL    HW1 5819   6.846   0.257   0.318
 1640SOL    HW2 5820   6.980   0.168   0.291
 1641SOL     OW 5821   6.741   2.448   3.776
 1641SOL    HW1 5822   6.775   2.520   3.714
 1641SOL    HW2 5823   6.744   2.482   3.870
 1642SOL     OW 5824   0.443   2.831   6.536
 1642SOL    HW1 5825   0.356   2.813   6.582
 1642SOL    HW2 5826   0.472   2.925   6.556
 1643SOL     OW 5827   3.272   4.886   2.851
 1643SOL    HW1 5828   3.178   4.917   2.863
 1643SOL    HW2 5829   3.320   4.891   2.939
 1644SOL     OW 5830   6.052   2.863   6.822
 1644SOL    HW1 5831   6.089   2.924   6.893
 1644SOL    HW2 5832   5.991   2.796   6.864
 1645SOL     OW 5833   3.058   6.630   6.171
 1645SOL    HW1 5834   3.074   6.726   6.194
 1645SOL    HW2 5835   2.981   6.623   6.107
 1646SOL     OW 5836   2.079   6.158   0.480
 1646SOL    HW1 5837   2.158   6.204   0.440
 1646SOL    HW2 5838   2.011   6.139   0.409
 1647SOL     OW 5839   5.521   2.740   3.943
 1647SOL    HW1 5840   5.467   2.799   3.882
 1647SOL    HW2 5841   5.535   2.786   4.030
 1648SOL     OW 5842   5.423   6.143   0.174
 1648SOL    HW1 5843   5.490   6.106   0.239
 1648SOL    HW2 5844   5.331   6.119   0.205
 1649SOL     OW 5845   3.682   1.273   3.591
 1649SOL    HW1 5846   3.659   1.329   3.671
 1649SOL    HW2 5847   3.734   1.193   3.621
 1650SOL     OW 5848   1.320   5.338   5.632
 1650SOL    HW1 5849   1.305   5.398   5.554
 1650SOL    HW2 5850   1.318   5.391   5.716
 1651SOL     OW 5851   0.506   2.257   2.604
 1651SOL    HW1 5852   0.503   2.324   2.678
 1651SOL    HW2 5853   0.434   2.189   2.617
 1652SOL     OW 5854   0.983   3.619   2.577
 1652SOL    HW1 5855   0.941   3.566   2.504
 1652SOL    HW2 5856   0.915   3.638   2.648
 1653SOL     OW 5857   6.813   5.704   1.711
 1653SOL    HW1 5858   6.878   5.760   1.761
 1653SOL    HW2 5859   6.860   5.654   1.638
 1654SOL     OW 5860   0.163   3.148   1.371
 1654SOL    HW1 5861   0.125   3.239   1.387
 1654SOL    HW2 5862   0.173   3.133   1.273
 1655SOL     OW 5863   6.679   1.238   4.704
 1655SOL    HW1 5864   6.634   1.187   4.631
 1655SOL    HW2 5865   6.752   1.294   4.664
 1656SOL     OW 5866   2.444   5.702   3.692
 1656SOL    HW1 5867   2.536   5.699   3.731
 1656SOL    HW2 5868   2.409   5.609   3.680
 1657SOL     OW 5869   6.625   0.800   5.249
 1657SOL    HW1 5870   6.677   0.727   5.294
 1657SOL    HW2 5871   6.672   0.887   5.262
 1658SOL     OW 5872   0.033   0.666   0.767
 1658SOL    HW1 5873   0.132   0.662   0.779
 1658SOL    HW2 5874   7.021   0.573   0.756
 1659SOL     OW 5875   3.787   0.405   6.808
 1659SOL    HW1 5876   3.696   0.438   6.834
 1659SOL    HW2 5877   3.852   0.481   6.814
 1660SOL     OW 5878   1.654   0.104   2.323
 1660SOL    HW1 5879   1.601   0.020   2.332
 1660SOL    HW2 5880   1.643   0.159   2.406
 1661SOL     OW 5881   3.043   5.787   2.111
 1661SOL    HW1 5882   3.031   5.826   2.202
 1661SOL    HW2 5883   3.120   5.832   2.066
 1662SOL     OW 5884   6.354   0.475   5.507
 1662SOL    HW1 5885   6.290   0.418   5.559
 1662SOL    HW2 5886   6.302   0.544   5.457
 1663SOL     OW 5887   5.321   5.556   2.196
 1663SOL    HW1 5888   5.257   5.489   2.159
 1663SOL    HW2 5889   5.404   5.557   2.140
 1664SOL     OW 5890   2.069   6.949   5.596
 1664SOL    HW1 5891   2.028   6.893   5.667
 1664SOL    HW2 5892   2.148   6.902   5.556
 1665SOL     OW 5893   0.397   3.894   1.984
 1665SOL    HW1 5894   0.479   3.924   1.936
 1665SOL    HW2 5895   0.375   3.800   1.958
 1666SOL     OW 5896   5.870   0.274   0.304
 1666SOL    HW1 5897   5.955   0.281   0.252
 1666SOL    HW2 5898   5.817   0.196   0.270
 1667SOL     OW 5899   6.733   6.247   1.330
 1667SOL    HW1 5900   6.819   6.233   1.378
 1667SOL    HW2 5901   6.659   6.200   1.379
 1668SOL     OW 5902   4.762   4.659   2.971
 1668SOL    HW1 5903   4.755   4.653   2.872
 1668SOL    HW2 5904   4.841   4.716   2.995
 1669SOL     OW 5905   6.993   4.393   5.793
 1669SOL    HW1 5906   6.895   4.409   5.802
 1669SOL    HW2 5907   7.014   4.368   5.699
 1670SOL     OW 5908   0.599   4.511   5.253
 1670SOL    HW1 5909   0.557   4.485   5.166
 1670SOL    HW2 5910   0.674   4.574   5.236
 1671SOL     OW 5911   5.638   1.586   3.111
 1671SOL    HW1 5912   5.602   1.534   3.033
 1671SOL    HW2 5913   5.709   1.648   3.080
 1672SOL     OW 5914   1.455   4.407   6.138
 1672SOL    HW1 5915   1.391   4.471   6.179
 1672SOL    HW2 5916   1.431   4.391   6.042
 1673SOL     OW 5917   1.760   1.340   4.673
 1673SOL    HW1 5918   1.765   1.245   4.703
 1673SOL    HW2 5919   1.788   1.400   4.748
 1674SOL     OW 5920   6.415   2.585   2.417
 1674SOL    HW1 5921   6.494   2.639   2.444
 1674SOL    HW2 5922   6.334   2.644   2.410
 1675SOL     OW 5923   5.346   0.315   0.624
 1675SOL    HW1 5924   5.372   0.412   0.632
 1675SOL    HW2 5925   5.340   0.291   0.527
 1676SOL     OW 5926   2.277   2.032   2.169
 1676SOL    HW1 5927   2.190   2.054   2.127
 1676SOL    HW2 5928   2.272   1.942   2.212
 1677SOL     OW 5929   3.877   3.568   3.401
 1677SOL    HW1 5930   3.959   3.626   3.407
 1677SOL    HW2 5931   3.810   3.598   3.469
 1678SOL     OW 5932   0.168   5.911   1.627
 1678SOL    HW1 5933   0.088   5.918   1.566
 1678SOL    HW2 5934   0.204   6.002   1.645
 1679SOL     OW 5935   1.642   1.159   4.238
 1679SOL    HW1 5936   1.625   1.227   4.308
 1679SOL    HW2 5937   1.724   1.106   4.261
 1680SOL     OW 5938   5.618   3.694   5.496
 1680SOL    HW1 5939   5.637   3.598   5.513
 1680SOL    HW2 5940   5.569   3.704   5.409
 1681SOL     OW 5941   1.885   5.799   5.288
 1681SOL    HW1 5942   1.944   5.865   5.335
 1681SOL    HW2 5943   1.802   5.785   5.342
 1682SOL     OW 5944   2.152   1.064   6.092
 1682SOL    HW1 5945   2.181   0.987   6.147
 1682SOL    HW2 5946   2.192   1.057   6.000
 1683SOL     OW 5947   5.982   6.152   2.871
 1683SOL    HW1 5948   5.997   6.055   2.855
 1683SOL    HW2 5949   6.070   6.199   2.879
 1684SOL     OW 5950   0.440   5.082   2.150
 1684SOL    HW1 5951   0.414   4.989   2.125
 1684SOL    HW2 5952   0.395   5.147   2.088
 1685SOL     OW 5953   2.083   1.999   5.540
 1685SOL    HW1 5954   2.049   2.039   5.625
 1685SOL    HW2 5955   2.145   1.924   5.561
 1686SOL     OW 5956   3.481   5.820   3.928
 1686SOL    HW1 5957   3.403   5.820   3.990
 1686SOL    HW2 5958   3.554   5.877   3.967
 1687SOL     OW 5959   0.598   4.011   1.861
 1687SOL    HW1 5960   0.568   4.040   1.770
 1687SOL    HW2 5961   0.654   4.083   1.902
 1688SOL     OW 5962   1.832   2.426   3.614
 1688SOL    HW1 5963   1.905   2.360   3.596
 1688SOL    HW2 5964   1.861   2.490   3.685
 1689SOL     OW 5965   6.184   1.034   2.980
 1689SOL    HW1 5966   6.229   1.026   3.069
 1689SOL    HW2 5967   6.193   0.947   2.931
 1690SOL     OW 5968   0.454   3.167   4.405
 1690SOL    HW1 5969   0.460   3.265   4.420
 1690SOL    HW2 5970   0.532   3.137   4.350
 1691SOL     OW 5971   5.223   3.096   4.062
 1691SOL    HW1 5972   5.151   3.044   4.109
 1691SOL    HW2 5973   5.232   3.186   4.103
 1692SOL     OW 5974   5.272   5.350   1.452
 1692SOL    HW1 5975   5.236   5.437   1.485
 1692SOL    HW2 5976   5.369   5.361   1.428
 1693SOL     OW 5977   6.689   1.570   4.559
 1693SOL    HW1 5978   6.765   1.507   4.545
 1693SOL    HW2 5979   6.694   1.643   4.490
 1694SOL     OW 5980   6.607   0.574   4.363
 1694SOL    HW1 5981   6.564   0.492   4.326
 1694SOL    HW2 5982   6.646   0.628   4.289
 1695SOL     OW 5983   3.388   0.917   6.823
 1695SOL    HW1 5984   3.461   0.855   6.795
 1695SOL    HW2 5985   3.404   1.008   6.785
 1696SOL     OW 5986   3.791   5.849   0.770
 1696SOL    HW1 5987   3.764   5.940   0.802
 1696SOL    HW2 5988   3.826   5.855   0.676
 1697SOL     OW 5989   6.158   2.582   1.212
 1697SOL    HW1 5990   6.067   2.552   1.183
 1697SOL    HW2 5991   6.211   2.502   1.243
 1698SOL     OW 5992   3.701   1.356   1.543
 1698SOL    HW1 5993   3.740   1.389   1.629
 1698SOL    HW2 5994   3.627   1.416   1.513
 1699SOL     OW 5995   2.451   1.756   5.884
 1699SOL    HW1 5996   2.446   1.838   5.826
 1699SOL    HW2 5997   2.477   1.677   5.827
 1700SOL     OW 5998   5.940   3.701   3.347
 1700SOL    HW1 5999   5.926   3.604   3.368
 1700SOL    HW2 6000   5.866   3.734   3.288
 1701SOL     OW 6001   5.967   5.121   5.342
 1701SOL    HW1 6002   6.014   5.036   5.367
 1701SOL    HW2 6003   5.896   5.141   5.409
 1702SOL     OW 6004   1.319   1.217   6.845
 1702SOL    HW1 6005   1.384   1.182   6.913
 1702SOL    HW2 6006   1.242   1.260   6.892
 1703SOL     OW 6007   4.505   1.563   6.372
 1703SOL    HW1 6008   4.580   1.497   6.364
 1703SOL    HW2 6009   4.418   1.515   6.363
 1704SOL     OW 6010   1.304   1.916   6.807
 1704SOL    HW1 6011   1.277   1.980   6.878
 1704SOL    HW2 6012   1.279   1.823   6.833
 1705SOL     OW 6013   3.605   1.917   1.571
 1705SOL    HW1 6014   3.609   1.906   1.670
 1705SOL    HW2 6015   3.696   1.941   1.537
 1706SOL     OW 6016   4.443   1.537   1.372
 1706SOL    HW1 6017   4.490   1.572   1.291
 1706SOL    HW2 6018   4.459   1.439   1.380
 1707SOL     OW 6019   4.736   2.544   2.548
 1707SOL    HW1 6020   4.749   2.495   2.462
 1707SOL    HW2 6021   4.823   2.550   2.597
 1708SOL     OW 6022   4.083   5.223   1.435
 1708SOL    HW1 6023   3.993   5.191   1.464
 1708SOL    HW2 6024   4.123   5.279   1.507
 1709SOL     OW 6025   3.754   6.660   0.627
 1709SOL    HW1 6026   3.676   6.722   0.621
 1709SOL    HW2 6027   3.838   6.713   0.632
 1710SOL     OW 6028   3.921   4.881   3.340
 1710SOL    HW1 6029   3.940   4.820   3.263
 1710SOL    HW2 6030   3.825   4.874   3.366
 1711SOL     OW 6031   2.077   5.195   5.349
 1711SOL    HW1 6032   2.042   5.104   5.329
 1711SOL    HW2 6033   2.151   5.188   5.417
 1712SOL     OW 6034   6.693   2.072   4.454
 1712SOL    HW1 6035   6.763   2.069   4.525
 1712SOL    HW2 6036   6.662   1.979   4.433
 1713SOL     OW 6037   3.757   1.411   3.174
 1713SOL    HW1 6038   3.662   1.416   3.144
 1713SOL    HW2 6039   3.776   1.319   3.209
 1714SOL     OW 6040   4.024   1.585   6.852
 1714SOL    HW1 6041   4.068   1.500   6.820
 1714SOL    HW2 6042   3.933   1.563   6.888
 1715SOL     OW 6043   2.625   5.875   2.671
 1715SOL    HW1 6044   2.591   5.924   2.751
 1715SOL    HW2 6045   2.558   5.808   2.641
 1716SOL     OW 6046   4.640   0.254   3.863
 1716SOL    HW1 6047   4.581   0.332   3.843
 1716SOL    HW2 6048   4.639   0.235   3.961
 1717SOL     OW 6049   3.653   5.073   5.261
 1717SOL    HW1 6050   3.555   5.091   5.248
 1717SOL    HW2 6051   3.701   5.159   5.278
 1718SOL     OW 6052   2.625   1.902   2.595
 1718SOL    HW1 6053   2.720   1.886   2.568
 1718SOL    HW2 6054   2.620   1.911   2.695
 1719SOL     OW 6055   1.891   4.321   0.935
 1719SOL    HW1 6056   1.863   4.233   0.972
 1719SOL    HW2 6057   1.816   4.386   0.942
 1720SOL     OW 6058   0.320   2.519   5.462
 1720SOL    HW1 6059   0.346   2.446   5.526
 1720SOL    HW2 6060   0.229   2.499   5.424
 1721SOL     OW 6061   1.295   0.179   2.195
 1721SOL    HW1 6062   1.367   0.114   2.170
 1721SOL    HW2 6063   1.234   0.194   2.117
 1722SOL     OW 6064   4.075   1.659   2.978
 1722SOL    HW1 6065   3.999   1.724   2.967
 1722SOL    HW2 6066   4.135   1.665   2.898
 1723SOL     OW 6067   4.182   2.142   6.595
 1723SOL    HW1 6068   4.110   2.142   6.525
 1723SOL    HW2 6069   4.227   2.231   6.596
 1724SOL     OW 6070   6.658   2.128   1.956
 1724SOL    HW1 6071   6.637   2.035   1.987
 1724SOL    HW2 6072   6.617   2.194   2.019
 1725SOL     OW 6073   2.235   5.167   6.994
 1725SOL    HW1 6074   2.315   5.121   6.954
 1725SOL    HW2 6075   2.259   5.261   7.017
 1726SOL     OW 6076   5.462   3.881   4.061
 1726SOL    HW1 6077   5.486   3.978   4.062
 1726SOL    HW2 6078   5.364   3.870   4.072
 1727SOL     OW 6079   3.832   3.558   2.936
 1727SOL    HW1 6080   3.785   3.630   2.885
 1727SOL    HW2 6081   3.778   3.533   3.016
 1728SOL     OW 6082   5.101   4.287   5.224
 1728SOL    HW1 6083   5.140   4.345   5.295
 1728SOL    HW2 6084   5.077   4.342   5.144
 1729SOL     OW 6085   1.237   3.742   2.964
 1729SOL    HW1 6086   1.267   3.652   2.933
 1729SOL    HW2 6087   1.199   3.793   2.886
 1730SOL     OW 6088   2.640   6.470   5.260
 1730SOL    HW1 6089   2.651   6.439   5.354
 1730SOL    HW2 6090   2.600   6.562   5.260
 1731SOL     OW 6091   5.821   4.901   3.668
 1731SOL    HW1 6092   5.724   4.886   3.689
 1731SOL    HW2 6093   5.858   4.971   3.729
 1732SOL     OW 6094   1.782   4.203   6.380
 1732SOL    HW1 6095   1.791   4.302   6.379
 1732SOL    HW2 6096   1.685   4.178   6.371
 1733SOL     OW 6097   2.611   4.123   1.446
 1733SOL    HW1 6098   2.585   4.182   1.522
 1733SOL    HW2 6099   2.542   4.052   1.434
 1734SOL     OW 6100   6.121   3.125   1.106
 1734SOL    HW1 6101   6.071   3.041   1.086
 1734SOL    HW2 6102   6.126   3.182   1.024
 1735SOL     OW 6103   4.513   5.506   5.886
 1735SOL    HW1 6104   4.414   5.521   5.877
 1735SOL    HW2 6105   4.539   5.425   5.833
 1736SOL     OW 6106   3.896   4.041   0.552
 1736SOL    HW1 6107   3.815   4.020   0.497
 1736SOL    HW2 6108   3.872   4.034   0.649
 1737SOL     OW 6109   5.334   6.966   4.509
 1737SOL    HW1 6110   5.385   6.911   4.443
 1737SOL    HW2 6111   5.398   7.014   4.570
 1738SOL     OW 6112   1.562   3.566   4.208
 1738SOL    HW1 6113   1.631   3.519   4.263
 1738SOL    HW2 6114   1.472   3.555   4.251
 1739SOL     OW 6115   6.385   0.321   4.336
 1739SOL    HW1 6116   6.444   0.269   4.398
 1739SOL    HW2 6117   6.387   0.279   4.245
 1740SOL     OW 6118   6.810   1.748   4.796
 1740SOL    HW1 6119   6.761   1.676   4.844
 1740SOL    HW2 6120   6.762   1.835   4.807
 1741SOL     OW 6121   2.402   1.521   3.729
 1741SOL    HW1 6122   2.456   1.572   3.796
 1741SOL    HW2 6123   2.443   1.432   3.713
 1742SOL     OW 6124   5.829   1.170   6.313
 1742SOL    HW1 6125   5.831   1.242   6.382
 1742SOL    HW2 6126   5.876   1.089   6.348
 1743SOL     OW 6127   1.297   0.997   2.437
 1743SOL    HW1 6128   1.270   0.978   2.531
 1743SOL    HW2 6129   1.393   1.026   2.434
 1744SOL     OW 6130   5.022   2.428   2.960
 1744SOL    HW1 6131   4.976   2.343   2.984
 1744SOL    HW2 6132   5.085   2.454   3.033
 1745SOL     OW 6133   6.363   6.324   2.200
 1745SOL    HW1 6134   6.339   6.336   2.296
 1745SOL    HW2 6135   6.279   6.310   2.146
 1746SOL     OW 6136   2.152   3.862   4.188
 1746SOL    HW1 6137   2.112   3.771   4.180
 1746SOL    HW2 6138   2.158   3.888   4.284
 1747SOL     OW 6139   3.921   1.314   2.077
 1747SOL    HW1 6140   3.878   1.224   2.081
 1747SOL    HW2 6141   3.852   1.386   2.088
 1748SOL     OW 6142   6.174   1.425   4.536
 1748SOL    HW1 6143   6.097   1.396   4.593
 1748SOL    HW2 6144   6.244   1.354   4.536
 1749SOL     OW 6145   3.141   6.649   0.133
 1749SOL    HW1 6146   3.184   6.565   0.167
 1749SOL    HW2 6147   3.044   6.634   0.118
 1750SOL     OW 6148   4.178   0.357   4.813
 1750SOL    HW1 6149   4.189   0.290   4.740
 1750SOL    HW2 6150   4.202   0.315   4.901
 1751SOL     OW 6151   6.046   2.215   5.008
 1751SOL    HW1 6152   5.994   2.221   4.923
 1751SOL    HW2 6153   6.061   2.307   5.045
 1752SOL     OW 6154   6.505   1.030   1.243
 1752SOL    HW1 6155   6.490   0.968   1.166
 1752SOL    HW2 6156   6.512   1.124   1.210
 1753SOL     OW 6157   6.744   1.755   1.677
 1753SOL    HW1 6158   6.707   1.671   1.717
 1753SOL    HW2 6159   6.827   1.733   1.627
 1754SOL     OW 6160   1.887   6.064   6.118
 1754SOL    HW1 6161   1.882   6.009   6.035
 1754SOL    HW2 6162   1.943   6.017   6.186
 1755SOL     OW 6163   6.463   6.032   5.687
 1755SOL    HW1 6164   6.532   6.059   5.620
 1755SOL    HW2 6165   6.467   5.934   5.703
 1756SOL     OW 6166   3.884   6.676   6.129
 1756SOL    HW1 6167   3.865   6.759   6.077
 1756SOL    HW2 6168   3.983   6.666   6.140
 1757SOL     OW 6169   3.290   5.131   4.733
 1757SOL    HW1 6170   3.362   5.169   4.674
 1757SOL    HW2 6171   3.229   5.073   4.678
 1758SOL     OW 6172   1.588   7.004   4.698
 1758SOL    HW1 6173   1.622   6.954   4.619
 1758SOL    HW2 6174   1.519   0.048   4.669
 1759SOL     OW 6175   1.426   6.997   5.698
 1759SOL    HW1 6176   1.429   6.996   5.598
 1759SOL    HW2 6177   1.361   0.043   5.729
 1760SOL     OW 6178   6.182   0.974   5.024
 1760SOL    HW1 6179   6.247   0.904   5.051
 1760SOL    HW2 6180   6.225   1.064   5.031
 1761SOL     OW 6181   0.512   0.715   0.868
 1761SOL    HW1 6182   0.580   0.666   0.922
 1761SOL    HW2 6183   0.449   0.763   0.930
 1762SOL     OW 6184   0.690   1.049   4.779
 1762SOL    HW1 6185   0.593   1.071   4.769
 1762SOL    HW2 6186   0.710   0.964   4.731
 1763SOL     OW 6187   0.764   4.234   4.897
 1763SOL    HW1 6188   0.751   4.146   4.941
 1763SOL    HW2 6189   0.831   4.225   4.823
 1764SOL     OW 6190   0.923   3.730   2.272
 1764SOL    HW1 6191   1.015   3.720   2.234
 1764SOL    HW2 6192   0.856   3.695   2.205
 1765SOL     OW 6193   4.136   2.601   1.631
 1765SOL    HW1 6194   4.135   2.697   1.660
 1765SOL    HW2 6195   4.139   2.541   1.711
 1766SOL     OW 6196   5.013   4.599   4.224
 1766SOL    HW1 6197   5.008   4.670   4.154
 1766SOL    HW2 6198   5.107   4.592   4.258
 1767SOL     OW 6199   0.663   4.585   2.695
 1767SOL    HW1 6200   0.742   4.523   2.692
 1767SOL    HW2 6201   0.671   4.653   2.622
 1768SOL     OW 6202   4.530   0.468   0.550
 1768SOL    HW1 6203   4.582   0.447   0.467
 1768SOL    HW2 6204   4.434   0.445   0.536
 1769SOL     OW 6205   5.873   1.144   0.066
 1769SOL    HW1 6206   5.955   1.196   0.040
 1769SOL    HW2 6207   5.835   1.183   0.150
 1770SOL     OW 6208   0.297   4.060   5.696
 1770SOL    HW1 6209   0.252   4.043   5.784
 1770SOL    HW2 6210   0.283   3.981   5.636
 1771SOL     OW 6211   1.466   4.965   7.004
 1771SOL    HW1 6212   1.389   4.968   6.940
 1771SOL    HW2 6213   1.547   4.929   6.958
 1772SOL     OW 6214   3.850   5.247   4.310
 1772SOL    HW1 6215   3.937   5.267   4.353
 1772SOL    HW2 6216   3.826   5.151   4.325
 1773SOL     OW 6217   1.298   1.502   5.136
 1773SOL    HW1 6218   1.306   1.578   5.201
 1773SOL    HW2 6219   1.278   1.538   5.045
 1774SOL     OW 6220   5.600   6.753   2.350
 1774SOL    HW1 6221   5.580   6.725   2.444
 1774SOL    HW2 6222   5.517   6.746   2.294
 1775SOL     OW 6223   1.958   5.580   5.998
 1775SOL    HW1 6224   1.891   5.533   5.940
 1775SOL    HW2 6225   2.049   5.571   5.958
 1776SOL     OW 6226   4.948   0.671   5.745
 1776SOL    HW1 6227   4.918   0.722   5.664
 1776SOL    HW2 6228   4.884   0.597   5.764
 1777SOL     OW 6229   3.914   6.966   6.270
 1777SOL    HW1 6230   3.886   0.019   6.212
 1777SOL    HW2 6231   3.834   6.923   6.311
 1778SOL     OW 6232   5.063   1.221   4.501
 1778SOL    HW1 6233   5.072   1.297   4.436
 1778SOL    HW2 6234   4.973   1.180   4.491
 1779SOL     OW 6235   5.063   7.012   5.543
 1779SOL    HW1 6236   5.136   0.013   5.479
 1779SOL    HW2 6237   5.079   0.032   5.631
 1780SOL     OW 6238   1.424   4.836   4.454
 1780SOL    HW1 6239   1.478   4.837   4.370
 1780SOL    HW2 6240   1.410   4.741   4.484
 1781SOL     OW 6241   5.392   6.661   4.421
 1781SOL    HW1 6242   5.377   6.620   4.511
 1781SOL    HW2 6243   5.488   6.687   4.411
 1782SOL     OW 6244   2.052   1.709   2.724
 1782SOL    HW1 6245   2.032   1.632   2.784
 1782SOL    HW2 6246   2.134   1.756   2.757
 1783SOL     OW 6247   2.149   3.490   6.308
 1783SOL    HW1 6248   2.054   3.460   6.295
 1783SOL    HW2 6249   2.167   3.568   6.249
 1784SOL     OW 6250   2.499   1.125   1.530
 1784SOL    HW1 6251   2.507   1.154   1.434
 1784SOL    HW2 6252   2.434   1.184   1.577
 1785SOL     OW 6253   0.063   6.045   4.240
 1785SOL    HW1 6254   0.120   5.984   4.295
 1785SOL    HW2 6255   0.083   6.032   4.143
 1786SOL     OW 6256   1.770   5.349   0.672
 1786SOL    HW1 6257   1.783   5.281   0.600
 1786SOL    HW2 6258   1.858   5.367   0.717
 1787SOL     OW 6259   1.323   2.591   5.284
 1787SOL    HW1 6260   1.304   2.516   5.348
 1787SOL    HW2 6261   1.422   2.605   5.278
 1788SOL     OW 6262   4.914   3.676   0.215
 1788SOL    HW1 6263   5.013   3.679   0.227
 1788SOL    HW2 6264   4.889   3.595   0.162
 1789SOL     OW 6265   6.560   3.444   1.992
 1789SOL    HW1 6266   6.476   3.454   1.939
 1789SOL    HW2 6267   6.537   3.424   2.087
 1790SOL     OW 6268   3.239   1.539   4.392
 1790SOL    HW1 6269   3.169   1.492   4.446
 1790SOL    HW2 6270   3.195   1.599   4.325
 1791SOL     OW 6271   5.525   1.108   3.834
 1791SOL    HW1 6272   5.573   1.177   3.780
 1791SOL    HW2 6273   5.442   1.080   3.787
 1792SOL     OW 6274   6.740   1.438   5.293
 1792SOL    HW1 6275   6.649   1.477   5.279
 1792SOL    HW2 6276   6.783   1.422   5.204
 1793SOL     OW 6277   6.534   1.076   4.856
 1793SOL    HW1 6278   6.438   1.066   4.831
 1793SOL    HW2 6279   6.575   1.148   4.800
 1794SOL     OW 6280   6.335   0.250   6.673
 1794SOL    HW1 6281   6.339   0.296   6.761
 1794SOL    HW2 6282   6.373   0.158   6.680
 1795SOL     OW 6283   5.618   4.717   0.398
 1795SOL    HW1 6284   5.639   4.639   0.456
 1795SOL    HW2 6285   5.663   4.798   0.433
 1796SOL     OW 6286   1.825   1.056   5.677
 1796SOL    HW1 6287   1.857   0.988   5.743
 1796SOL    HW2 6288   1.742   1.100   5.712
 1797SOL     OW 6289   1.541   6.894   4.943
 1797SOL    HW1 6290   1.548   6.965   4.873
 1797SOL    HW2 6291   1.571   6.807   4.905
 1798SOL     OW 6292   3.794   3.250   4.255
 1798SOL    HW1 6293   3.712   3.197   4.234
 1798SOL    HW2 6294   3.769   3.330   4.310
 1799SOL     OW 6295   4.102   1.366   6.501
 1799SOL    HW1 6296   4.194   1.361   6.541
 1799SOL    HW2 6297   4.093   1.451   6.450
 1800SOL     OW 6298   4.945   4.487   3.979
 1800SOL    HW1 6299   4.970   4.511   4.072
 1800SOL    HW2 6300   4.909   4.568   3.932
 1801SOL     OW 6301   1.118   1.651   2.030
 1801SOL    HW1 6302   1.187   1.681   1.964
 1801SOL    HW2 6303   1.028   1.655   1.987
 1802SOL     OW 6304   6.164   5.380   3.996
 1802SOL    HW1 6305   6.097   5.310   4.021
 1802SOL    HW2 6306   6.125   5.440   3.926
 1803SOL     OW 6307   0.241   6.031   2.252
 1803SOL    HW1 6308   0.313   6.005   2.188
 1803SOL    HW2 6309   0.283   6.073   2.333
 1804SOL     OW 6310   3.136   3.586   5.867
 1804SOL    HW1 6311   3.074   3.665   5.872
 1804SOL    HW2 6312   3.152   3.550   5.959
 1805SOL     OW 6313   1.243   6.251   5.766
 1805SOL    HW1 6314   1.160   6.199   5.746
 1805SOL    HW2 6315   1.321   6.188   5.769
 1806SOL     OW 6316   6.529   2.068   2.337
 1806SOL    HW1 6317   6.620   2.030   2.322
 1806SOL    HW2 6318   6.535   2.140   2.407
 1807SOL     OW 6319   6.391   3.536   0.652
 1807SOL    HW1 6320   6.445   3.532   0.568
 1807SOL    HW2 6321   6.298   3.504   0.633
 1808SOL     OW 6322   5.391   2.967   4.925
 1808SOL    HW1 6323   5.442   2.951   5.010
 1808SOL    HW2 6324   5.295   2.982   4.946
 1809SOL     OW 6325   3.145   2.051   5.162
 1809SOL    HW1 6326   3.085   2.043   5.242
 1809SOL    HW2 6327   3.126   2.137   5.115
 1810SOL     OW 6328   0.407   0.426   4.372
 1810SOL    HW1 6329   0.502   0.397   4.380
 1810SOL    HW2 6330   0.349   0.346   4.356
 1811SOL     OW 6331   4.606   4.637   1.808
 1811SOL    HW1 6332   4.569   4.638   1.716
 1811SOL    HW2 6333   4.653   4.550   1.825
 1812SOL     OW 6334   4.449   0.129   5.846
 1812SOL    HW1 6335   4.363   0.179   5.838
 1812SOL    HW2 6336   4.432   0.031   5.837
 1813SOL     OW 6337   4.517   4.471   2.249
 1813SOL    HW1 6338   4.530   4.566   2.221
 1813SOL    HW2 6339   4.458   4.425   2.183
 1814SOL     OW 6340   6.919   0.131   0.860
 1814SOL    HW1 6341   6.892   0.100   0.951
 1814SOL    HW2 6342   7.015   0.109   0.844
 1815SOL     OW 6343   5.469   5.757   2.617
 1815SOL    HW1 6344   5.454   5.744   2.518
 1815SOL    HW2 6345   5.385   5.734   2.666
 1816SOL     OW 6346   3.991   5.779   5.684
 1816SOL    HW1 6347   3.981   5.735   5.595
 1816SOL    HW2 6348   4.070   5.840   5.683
 1817SOL     OW 6349   3.164   1.310   3.119
 1817SOL    HW1 6350   3.233   1.242   3.144
 1817SOL    HW2 6351   3.210   1.390   3.081
 1818SOL     OW 6352   2.008   6.563   0.044
 1818SOL    HW1 6353   2.098   6.550   0.086
 1818SOL    HW2 6354   2.011   6.534   6.972
 1819SOL     OW 6355   1.036   4.672   2.762
 1819SOL    HW1 6356   0.994   4.583   2.741
 1819SOL    HW2 6357   0.973   4.745   2.736
 1820SOL     OW 6358   3.793   0.330   2.750
 1820SOL    HW1 6359   3.851   0.371   2.679
 1820SOL    HW2 6360   3.747   0.249   2.713
 1821SOL     OW 6361   3.465   0.853   2.089
 1821SOL    HW1 6362   3.433   0.888   2.001
 1821SOL    HW2 6363   3.432   0.759   2.101
 1822SOL     OW 6364   1.157   3.617   1.847
 1822SOL    HW1 6365   1.251   3.633   1.816
 1822SOL    HW2 6366   1.144   3.520   1.866
 1823SOL     OW 6367   3.430   6.064   2.447
 1823SOL    HW1 6368   3.495   6.124   2.493
 1823SOL    HW2 6369   3.463   6.042   2.356
 1824SOL     OW 6370   4.332   3.757   0.890
 1824SOL    HW1 6371   4.245   3.805   0.893
 1824SOL    HW2 6372   4.363   3.737   0.983
 1825SOL     OW 6373   1.006   2.418   4.978
 1825SOL    HW1 6374   0.931   2.474   4.941
 1825SOL    HW2 6375   1.088   2.475   4.988
 1826SOL     OW 6376   3.795   1.650   1.456
 1826SOL    HW1 6377   3.704   1.691   1.451
 1826SOL    HW2 6378   3.815   1.626   1.551
 1827SOL     OW 6379   4.889   5.135   0.857
 1827SOL    HW1 6380   4.965   5.196   0.880
 1827SOL    HW2 6381   4.907   5.044   0.895
 1828SOL     OW 6382   1.179   3.657   6.244
 1828SOL    HW1 6383   1.141   3.609   6.322
 1828SOL    HW2 6384   1.237   3.595   6.192
 1829SOL     OW 6385   3.641   0.699   3.409
 1829SOL    HW1 6386   3.720   0.657   3.364
 1829SOL    HW2 6387   3.561   0.689   3.351
 1830SOL     OW 6388   5.761   6.782   5.182
 1830SOL    HW1 6389   5.787   6.716   5.112
 1830SOL    HW2 6390   5.777   6.743   5.273
 1831SOL     OW 6391   5.187   5.754   2.795
 1831SOL    HW1 6392   5.206   5.851   2.812
 1831SOL    HW2 6393   5.192   5.703   2.881
 1832SOL     OW 6394   2.823   4.158   0.482
 1832SOL    HW1 6395   2.752   4.098   0.447
 1832SOL    HW2 6396   2.870   4.113   0.559
 1833SOL     OW 6397   4.640   6.844   1.525
 1833SOL    HW1 6398   4.616   6.936   1.496
 1833SOL    HW2 6399   4.589   6.777   1.470
 1834SOL     OW 6400   2.751   2.729   0.744
 1834SOL    HW1 6401   2.672   2.669   0.728
 1834SOL    HW2 6402   2.749   2.805   0.680
 1835SOL     OW 6403   1.300   5.353   1.303
 1835SOL    HW1 6404   1.383   5.371   1.250
 1835SOL    HW2 6405   1.292   5.255   1.321
 1836SOL     OW 6406   4.740   1.466   2.288
 1836SOL    HW1 6407   4.798   1.489   2.210
 1836SOL    HW2 6408   4.655   1.424   2.254
 1837SOL     OW 6409   2.122   1.205   5.261
 1837SOL    HW1 6410   2.059   1.202   5.339
 1837SOL    HW2 6411   2.135   1.301   5.234
 1838SOL     OW 6412   6.663   0.931   0.043
 1838SOL    HW1 6413   6.694   0.845   0.004
 1838SOL    HW2 6414   6.632   0.992   6.992
 1839SOL     OW 6415   6.417   1.664   6.713
 1839SOL    HW1 6416   6.455   1.667   6.805
 1839SOL    HW2 6417   6.474   1.719   6.652
 1840SOL     OW 6418   3.686   0.172   3.014
 1840SOL    HW1 6419   3.654   0.250   2.960
 1840SOL    HW2 6420   3.616   0.146   3.081
 1841SOL     OW 6421   2.005   0.435   2.249
 1841SOL    HW1 6422   2.064   0.359   2.223
 1841SOL    HW2 6423   1.954   0.412   2.332
 1842SOL     OW 6424   1.583   4.865   0.596
 1842SOL    HW1 6425   1.658   4.889   0.534
 1842SOL    HW2 6426   1.498   4.858   0.545
 1843SOL     OW 6427   3.763   1.412   4.932
 1843SOL    HW1 6428   3.850   1.393   4.979
 1843SOL    HW2 6429   3.713   1.481   4.984
 1844SOL     OW 6430   4.956   1.665   5.765
 1844SOL    HW1 6431   4.939   1.722   5.845
 1844SOL    HW2 6432   5.046   1.622   5.774
 1845SOL     OW 6433   2.725   0.921   3.426
 1845SOL    HW1 6434   2.808   0.874   3.395
 1845SOL    HW2 6435   2.678   0.864   3.493
 1846SOL     OW 6436   4.362   1.018   3.120
 1846SOL    HW1 6437   4.350   0.989   3.215
 1846SOL    HW2 6438   4.460   1.035   3.103
 1847SOL     OW 6439   1.786   0.368   4.558
 1847SOL    HW1 6440   1.869   0.398   4.511
 1847SOL    HW2 6441   1.811   0.303   4.630
 1848SOL     OW 6442   2.347   6.055   4.145
 1848SOL    HW1 6443   2.306   5.999   4.073
 1848SOL    HW2 6444   2.275   6.100   4.197
 1849SOL     OW 6445   5.115   2.983   2.548
 1849SOL    HW1 6446   5.134   2.886   2.537
 1849SOL    HW2 6447   5.121   3.029   2.459
 1850SOL     OW 6448   4.903   1.981   2.164
 1850SOL    HW1 6449   4.966   2.057   2.178
 1850SOL    HW2 6450   4.886   1.936   2.252
 1851SOL     OW 6451   0.455   2.946   6.898
 1851SOL    HW1 6452   0.504   3.011   6.839
 1851SOL    HW2 6453   0.475   2.853   6.868
 1852SOL     OW 6454   0.945   3.953   2.026
 1852SOL    HW1 6455   0.860   3.901   2.038
 1852SOL    HW2 6456   1.023   3.895   2.049
 1853SOL     OW 6457   0.167   3.116   4.989
 1853SOL    HW1 6458   0.166   3.034   5.046
 1853SOL    HW2 6459   0.247   3.115   4.930
 1854SOL     OW 6460   1.106   5.657   3.437
 1854SOL    HW1 6461   1.147   5.740   3.399
 1854SOL    HW2 6462   1.082   5.595   3.363
 1855SOL     OW 6463   5.603   3.242   4.268
 1855SOL    HW1 6464   5.596   3.256   4.170
 1855SOL    HW2 6465   5.697   3.221   4.293
 1856SOL     OW 6466   3.727   2.925   6.672
 1856SOL    HW1 6467   3.822   2.912   6.644
 1856SOL    HW2 6468   3.668   2.868   6.615
 1857SOL     OW 6469   5.730   0.786   0.517
 1857SOL    HW1 6470   5.687   0.706   0.558
 1857SOL    HW2 6471   5.829   0.771   0.509
 1858SOL     OW 6472   5.105   2.131   4.374
 1858SOL    HW1 6473   5.019   2.124   4.423
 1858SOL    HW2 6474   5.134   2.040   4.344
 1859SOL     OW 6475   5.234   1.872   4.945
 1859SOL    HW1 6476   5.220   1.798   5.012
 1859SOL    HW2 6477   5.289   1.838   4.869
 1860SOL     OW 6478   0.603   1.702   4.581
 1860SOL    HW1 6479   0.659   1.708   4.498
 1860SOL    HW2 6480   0.506   1.710   4.557
 1861SOL     OW 6481   5.725   0.466   2.989
 1861SOL    HW1 6482   5.634   0.429   2.973
 1861SOL    HW2 6483   5.742   0.543   2.927
 1862SOL     OW 6484   1.876   6.442   6.534
 1862SOL    HW1 6485   1.846   6.521   6.587
 1862SOL    HW2 6486   1.810   6.425   6.460
 1863SOL     OW 6487   0.618   2.779   1.082
 1863SOL    HW1 6488   0.698   2.797   1.140
 1863SOL    HW2 6489   0.645   2.785   0.986
 1864SOL     OW 6490   2.970   6.001   4.353
 1864SOL    HW1 6491   3.053   6.040   4.393
 1864SOL    HW2 6492   2.988   5.907   4.323
 1865SOL     OW 6493   4.472   1.619   1.068
 1865SOL    HW1 6494   4.572   1.617   1.067
 1865SOL    HW2 6495   4.440   1.713   1.052
 1866SOL     OW 6496   6.479   4.029   4.278
 1866SOL    HW1 6497   6.484   3.932   4.302
 1866SOL    HW2 6498   6.551   4.050   4.211
 1867SOL     OW 6499   2.689   2.690   1.303
 1867SOL    HW1 6500   2.722   2.714   1.212
 1867SOL    HW2 6501   2.616   2.622   1.295
 1868SOL     OW 6502   4.763   4.117   4.975
 1868SOL    HW1 6503   4.713   4.063   5.044
 1868SOL    HW2 6504   4.860   4.094   4.979
 1869SOL     OW 6505   4.883   2.424   4.164
 1869SOL    HW1 6506   4.947   2.425   4.240
 1869SOL    HW2 6507   4.879   2.514   4.122
 1870SOL     OW 6508   0.691   3.346   4.185
 1870SOL    HW1 6509   0.747   3.295   4.120
 1870SOL    HW2 6510   0.712   3.317   4.278
 1871SOL     OW 6511   0.287   6.486   0.151
 1871SOL    HW1 6512   0.324   6.420   0.085
 1871SOL    HW2 6513   0.326   6.467   0.241
 1872SOL     OW 6514   3.314   2.661   0.556
 1872SOL    HW1 6515   3.220   2.634   0.535
 1872SOL    HW2 6516   3.376   2.585   0.539
 1873SOL     OW 6517   6.644   1.283   7.020
 1873SOL    HW1 6518   6.681   1.314   0.085
 1873SOL    HW2 6519   6.548   1.258   0.009
 1874SOL     OW 6520   0.976   0.559   6.118
 1874SOL    HW1 6521   0.934   0.643   6.084
 1874SOL    HW2 6522   1.035   0.520   6.046
 1875SOL     OW 6523   5.898   6.575   0.144
 1875SOL    HW1 6524   5.798   6.576   0.141
 1875SOL    HW2 6525   5.930   6.633   0.219
 1876SOL     OW 6526   5.477   6.552   5.825
 1876SOL    HW1 6527   5.381   6.567   5.802
 1876SOL    HW2 6528   5.483   6.477   5.892
 1877SOL     OW 6529   0.194   0.661   2.152
 1877SOL    HW1 6530   0.237   0.579   2.114
 1877SOL    HW2 6531   0.221   0.672   2.247
 1878SOL     OW 6532   0.442   4.136   3.568
 1878SOL    HW1 6533   0.437   4.041   3.536
 1878SOL    HW2 6534   0.536   4.157   3.594
 1879SOL     OW 6535   2.364   5.196   4.780
 1879SOL    HW1 6536   2.333   5.246   4.860
 1879SOL    HW2 6537   2.396   5.105   4.808
 1880SOL     OW 6538   6.800   2.492   3.123
 1880SOL    HW1 6539   6.856   2.426   3.173
 1880SOL    HW2 6540   6.849   2.578   3.114
 1881SOL     OW 6541   1.250   2.196   3.066
 1881SOL    HW1 6542   1.215   2.190   2.972
 1881SOL    HW2 6543   1.175   2.185   3.130
 1882SOL     OW 6544   0.944   5.779   0.363
 1882SOL    HW1 6545   0.976   5.814   0.275
 1882SOL    HW2 6546   1.009   5.713   0.400
 1883SOL     OW 6547   1.697   3.609   2.503
 1883SOL    HW1 6548   1.622   3.675   2.517
 1883SOL    HW2 6549   1.784   3.658   2.498
 1884SOL     OW 6550   4.156   1.031   0.705
 1884SOL    HW1 6551   4.199   1.052   0.793
 1884SOL    HW2 6552   4.199   0.951   0.665
 1885SOL     OW 6553   6.901   2.532   0.999
 1885SOL    HW1 6554   6.826   2.526   1.066
 1885SOL    HW2 6555   6.963   2.455   1.011
 1886SOL     OW 6556   1.885   1.766   6.600
 1886SOL    HW1 6557   1.805   1.825   6.610
 1886SOL    HW2 6558   1.910   1.729   6.690
 1887SOL     OW 6559   0.391   4.791   5.731
 1887SOL    HW1 6560   0.474   4.844   5.745
 1887SOL    HW2 6561   0.404   4.699   5.766
 1888SOL     OW 6562   1.979   2.026   5.013
 1888SOL    HW1 6563   1.937   2.112   4.981
 1888SOL    HW2 6564   2.021   2.041   5.102
 1889SOL     OW 6565   4.376   3.460   0.264
 1889SOL    HW1 6566   4.286   3.459   0.307
 1889SOL    HW2 6567   4.366   3.452   0.164
 1890SOL     OW 6568   1.086   5.975   5.794
 1890SOL    HW1 6569   1.000   5.989   5.744
 1890SOL    HW2 6570   1.066   5.963   5.891
 1891SOL     OW 6571   6.073   3.412   5.930
 1891SOL    HW1 6572   6.081   3.401   6.029
 1891SOL    HW2 6573   6.156   3.457   5.895
 1892SOL     OW 6574   3.934   6.184   1.103
 1892SOL    HW1 6575   3.944   6.217   1.009
 1892SOL    HW2 6576   3.843   6.207   1.137
 1893SOL     OW 6577   3.250   2.121   4.814
 1893SOL    HW1 6578   3.231   2.167   4.727
 1893SOL    HW2 6579   3.223   2.182   4.889
 1894SOL     OW 6580   4.343   4.009   1.401
 1894SOL    HW1 6581   4.413   4.071   1.439
 1894SOL    HW2 6582   4.281   3.980   1.474
 1895SOL     OW 6583   6.008   1.103   2.305
 1895SOL    HW1 6584   5.926   1.075   2.254
 1895SOL    HW2 6585   6.070   1.151   2.243
 1896SOL     OW 6586   6.368   1.191   4.056
 1896SOL    HW1 6587   6.429   1.123   4.014
 1896SOL    HW2 6588   6.291   1.144   4.098
 1897SOL     OW 6589   6.127   5.405   3.634
 1897SOL    HW1 6590   6.107   5.362   3.546
 1897SOL    HW2 6591   6.078   5.492   3.640
 1898SOL     OW 6592   5.181   6.053   1.519
 1898SOL    HW1 6593   5.277   6.025   1.526
 1898SOL    HW2 6594   5.147   6.078   1.610
 1899SOL     OW 6595   0.317   3.761   2.685
 1899SOL    HW1 6596   0.284   3.666   2.685
 1899SOL    HW2 6597   0.407   3.764   2.643
 1900SOL     OW 6598   1.347   6.844   6.761
 1900SOL    HW1 6599   1.402   6.895   6.695
 1900SOL    HW2 6600   1.269   6.803   6.715
 1901SOL     OW 6601   2.386   1.376   0.127
 1901SOL    HW1 6602   2.348   1.435   0.199
 1901SOL    HW2 6603   2.369   1.417   0.038
 1902SOL     OW 6604   1.355   2.264   4.543
 1902SOL    HW1 6605   1.337   2.197   4.615
 1902SOL    HW2 6606   1.272   2.278   4.489
 1903SOL     OW 6607   6.494   4.738   3.508
 1903SOL    HW1 6608   6.456   4.809   3.449
 1903SOL    HW2 6609   6.425   4.710   3.574
 1904SOL     OW 6610   0.398   6.873   4.461
 1904SOL    HW1 6611   0.451   6.879   4.376
 1904SOL    HW2 6612   0.459   6.882   4.539
 1905SOL     OW 6613   0.319   2.189   3.801
 1905SOL    HW1 6614   0.286   2.248   3.728
 1905SOL    HW2 6615   0.358   2.106   3.761
 1906SOL     OW 6616   3.036   0.240   5.694
 1906SOL    HW1 6617   2.960   0.175   5.683
 1906SOL    HW2 6618   3.075   0.230   5.786
 1907SOL     OW 6619   2.852   6.858   3.318
 1907SOL    HW1 6620   2.868   6.941   3.371
 1907SOL    HW2 6621   2.939   6.817   3.291
 1908SOL     OW 6622   4.878   1.251   5.774
 1908SOL    HW1 6623   4.861   1.153   5.768
 1908SOL    HW2 6624   4.820   1.291   5.845
 1909SOL     OW 6625   2.481   4.470   4.583
 1909SOL    HW1 6626   2.396   4.513   4.553
 1909SOL    HW2 6627   2.470   4.432   4.675
 1910SOL     OW 6628   5.347   2.386   6.554
 1910SOL    HW1 6629   5.443   2.410   6.567
 1910SOL    HW2 6630   5.332   2.361   6.458
 1911SOL     OW 6631   6.769   2.001   5.150
 1911SOL    HW1 6632   6.774   1.984   5.051
 1911SOL    HW2 6633   6.707   1.934   5.192
 1912SOL     OW 6634   3.400   6.780   2.642
 1912SOL    HW1 6635   3.480   6.794   2.583
 1912SOL    HW2 6636   3.331   6.849   2.621
 1913SOL     OW 6637   1.867   6.489   5.202
 1913SOL    HW1 6638   1.778   6.501   5.245
 1913SOL    HW2 6639   1.860   6.423   5.128
 1914SOL     OW 6640   2.310   3.024   6.561
 1914SOL    HW1 6641   2.274   3.116   6.576
 1914SOL    HW2 6642   2.372   2.999   6.635
 1915SOL     OW 6643   3.801   0.962   5.786
 1915SOL    HW1 6644   3.897   0.973   5.810
 1915SOL    HW2 6645   3.793   0.917   5.697
 1916SOL     OW 6646   4.228   5.698   0.952
 1916SOL    HW1 6647   4.189   5.789   0.969
 1916SOL    HW2 6648   4.205   5.669   0.859
 1917SOL     OW 6649   3.782   3.868   4.524
 1917SOL    HW1 6650   3.683   3.858   4.533
 1917SOL    HW2 6651   3.828   3.797   4.578
 1918SOL     OW 6652   6.268   6.910   5.895
 1918SOL    HW1 6653   6.237   6.862   5.812
 1918SOL    HW2 6654   6.354   6.956   5.877
 1919SOL     OW 6655   1.187   5.986   2.132
 1919SOL    HW1 6656   1.188   5.887   2.114
 1919SOL    HW2 6657   1.270   6.011   2.182
 1920SOL     OW 6658   0.931   4.275   3.759
 1920SOL    HW1 6659   1.019   4.240   3.793
 1920SOL    HW2 6660   0.917   4.243   3.665
 1921SOL     OW 6661   0.436   5.400   6.789
 1921SOL    HW1 6662   0.447   5.487   6.743
 1921SOL    HW2 6663   0.375   5.411   6.868
 1922SOL     OW 6664   4.291   3.347   1.420
 1922SOL    HW1 6665   4.234   3.305   1.349
 1922SOL    HW2 6666   4.285   3.294   1.504
 1923SOL     OW 6667   2.971   1.312   0.499
 1923SOL    HW1 6668   2.997   1.403   0.466
 1923SOL    HW2 6669   2.923   1.263   0.427
 1924SOL     OW 6670   6.831   4.468   1.747
 1924SOL    HW1 6671   6.857   4.401   1.816
 1924SOL    HW2 6672   6.911   4.523   1.722
 1925SOL     OW 6673   2.924   3.830   1.750
 1925SOL    HW1 6674   2.974   3.912   1.720
 1925SOL    HW2 6675   2.972   3.787   1.826
 1926SOL     OW 6676   1.591   0.543   4.641
 1926SOL    HW1 6677   1.508   0.522   4.590
 1926SOL    HW2 6678   1.670   0.504   4.594
 1927SOL     OW 6679   3.666   4.080   6.937
 1927SOL    HW1 6680   3.703   4.106   6.848
 1927SOL    HW2 6681   3.724   4.117   7.010
 1928SOL     OW 6682   6.517   2.952   5.831
 1928SOL    HW1 6683   6.536   2.857   5.805
 1928SOL    HW2 6684   6.456   2.993   5.763
 1929SOL     OW 6685   1.407   5.591   2.002
 1929SOL    HW1 6686   1.418   5.591   1.903
 1929SOL    HW2 6687   1.455   5.670   2.041
 1930SOL     OW 6688   6.110   4.342   0.269
 1930SOL    HW1 6689   6.163   4.427   0.263
 1930SOL    HW2 6690   6.042   4.339   0.196
 1931SOL     OW 6691   6.809   3.494   3.132
 1931SOL    HW1 6692   6.902   3.465   3.156
 1931SOL    HW2 6693   6.767   3.426   3.073
 1932SOL     OW 6694   5.199   3.556   2.856
 1932SOL    HW1 6695   5.269   3.498   2.815
 1932SOL    HW2 6696   5.163   3.511   2.938
 1933SOL     OW 6697   2.778   5.372   0.777
 1933SOL    HW1 6698   2.799   5.312   0.854
 1933SOL    HW2 6699   2.755   5.463   0.811
 1934SOL     OW 6700   1.642   0.000   5.371
 1934SOL    HW1 6701   1.733   6.991   5.345
 1934SOL    HW2 6702   1.612   0.070   5.307
 1935SOL     OW 6703   2.874   0.162   4.751
 1935SOL    HW1 6704   2.959   0.114   4.727
 1935SOL    HW2 6705   2.884   0.204   4.841
 1936SOL     OW 6706   5.528   5.338   4.830
 1936SOL    HW1 6707   5.598   5.283   4.875
 1936SOL    HW2 6708   5.531   5.431   4.864
 1937SOL     OW 6709   4.183   6.780   1.885
 1937SOL    HW1 6710   4.280   6.802   1.879
 1937SOL    HW2 6711   4.131   6.844   1.828
 1938SOL     OW 6712   4.136   1.702   3.347
 1938SOL    HW1 6713   4.041   1.688   3.320
 1938SOL    HW2 6714   4.194   1.702   3.266
 1939SOL     OW 6715   1.165   0.565   3.494
 1939SOL    HW1 6716   1.257   0.560   3.531
 1939SOL    HW2 6717   1.111   0.489   3.529
 1940SOL     OW 6718   5.120   5.421   6.837
 1940SOL    HW1 6719   5.129   5.520   6.846
 1940SOL    HW2 6720   5.067   5.385   6.913
 1941SOL     OW 6721   6.724   4.529   2.942
 1941SOL    HW1 6722   6.717   4.513   3.040
 1941SOL    HW2 6723   6.818   4.513   2.912
 1942SOL     OW 6724   5.585   6.116   2.177
 1942SOL    HW1 6725   5.520   6.099   2.103
 1942SOL    HW2 6726   5.678   6.094   2.145
 1943SOL     OW 6727   3.383   5.716   1.902
 1943SOL    HW1 6728   3.475   5.740   1.870
 1943SOL    HW2 6729   3.351   5.786   1.966
 1944SOL     OW 6730   5.158   2.033   6.626
 1944SOL    HW1 6731   5.091   1.962   6.649
 1944SOL    HW2 6732   5.232   1.992   6.573
 1945SOL     OW 6733   4.834   5.504   3.048
 1945SOL    HW1 6734   4.765   5.559   3.002
 1945SOL    HW2 6735   4.822   5.512   3.147
 1946SOL     OW 6736   0.628   0.959   0.566
 1946SOL    HW1 6737   0.647   0.861   0.559
 1946SOL    HW2 6738   0.601   0.994   0.477
 1947SOL     OW 6739   5.516   6.329   4.501
 1947SOL    HW1 6740   5.576   6.384   4.559
 1947SOL    HW2 6741   5.425   6.369   4.500
 1948SOL     OW 6742   6.530   5.249   4.518
 1948SOL    HW1 6743   6.437   5.286   4.514
 1948SOL    HW2 6744   6.526   5.149   4.508
 1949SOL     OW 6745   4.190   3.889   5.836
 1949SOL    HW1 6746   4.166   3.869   5.741
 1949SOL    HW2 6747   4.122   3.952   5.875
 1950SOL     OW 6748   3.722   3.619   0.445
 1950SOL    HW1 6749   3.797   3.675   0.410
 1950SOL    HW2 6750   3.744   3.588   0.538
 1951SOL     OW 6751   6.965   2.754   0.447
 1951SOL    HW1 6752   6.904   2.796   0.514
 1951SOL    HW2 6753   6.948   2.792   0.357
 1952SOL     OW 6754   3.467   2.613   0.220
 1952SOL    HW1 6755   3.377   2.571   0.213
 1952SOL    HW2 6756   3.458   2.704   0.261
 1953SOL     OW 6757   6.325   1.833   7.004
 1953SOL    HW1 6758   6.231   1.809   0.008
 1953SOL    HW2 6759   6.329   1.930   6.981
 1954SOL     OW 6760   5.569   1.931   3.996
 1954SOL    HW1 6761   5.659   1.938   3.952
 1954SOL    HW2 6762   5.542   2.021   4.030
 1955SOL     OW 6763   1.323   6.798   1.757
 1955SOL    HW1 6764   1.321   6.874   1.821
 1955SOL    HW2 6765   1.397   6.735   1.782
 1956SOL     OW 6766   5.831   6.454   2.725
 1956SOL    HW1 6767   5.915   6.407   2.753
 1956SOL    HW2 6768   5.771   6.389   2.678
 1957SOL     OW 6769   6.303   5.780   5.231
 1957SOL    HW1 6770   6.334   5.817   5.319
 1957SOL    HW2 6771   6.219   5.728   5.244
 1958SOL     OW 6772   6.057   3.502   3.981
 1958SOL    HW1 6773   6.117   3.422   3.982
 1958SOL    HW2 6774   6.077   3.558   3.901
 1959SOL     OW 6775   0.756   2.393   6.066
 1959SOL    HW1 6776   0.705   2.462   6.117
 1959SOL    HW2 6777   0.792   2.434   5.981
 1960SOL     OW 6778   6.754   4.523   1.239
 1960SOL    HW1 6779   6.825   4.455   1.223
 1960SOL    HW2 6780   6.728   4.522   1.335
 1961SOL     OW 6781   5.572   4.338   4.439
 1961SOL    HW1 6782   5.534   4.344   4.531
 1961SOL    HW2 6783   5.572   4.429   4.396
 1962SOL     OW 6784   1.333   6.183   3.352
 1962SOL    HW1 6785   1.369   6.204   3.443
 1962SOL    HW2 6786   1.400   6.207   3.282
 1963SOL     OW 6787   0.754   0.801   1.926
 1963SOL    HW1 6788   0.719   0.746   2.002
 1963SOL    HW2 6789   0.691   0.876   1.908
 1964SOL     OW 6790   4.622   2.800   1.408
 1964SOL    HW1 6791   4.698   2.736   1.392
 1964SOL    HW2 6792   4.557   2.759   1.471
 1965SOL     OW 6793   0.716   3.141   2.920
 1965SOL    HW1 6794   0.780   3.214   2.942
 1965SOL    HW2 6795   0.645   3.136   2.991
 1966SOL     OW 6796   0.179   5.201   5.173
 1966SOL    HW1 6797   0.221   5.207   5.263
 1966SOL    HW2 6798   0.142   5.290   5.146
 1967SOL     OW 6799   4.652   1.916   6.171
 1967SOL    HW1 6800   4.577   1.891   6.233
 1967SOL    HW2 6801   4.631   2.003   6.126
 1968SOL     OW 6802   3.351   6.433   0.137
 1968SOL    HW1 6803   3.378   6.411   0.231
 1968SOL    HW2 6804   3.328   6.349   0.089
 1969SOL     OW 6805   0.020   1.186   1.752
 1969SOL    HW1 6806   0.058   1.249   1.820
 1969SOL    HW2 6807   6.950   1.215   1.728
 1970SOL     OW 6808   2.467   1.102   6.177
 1970SOL    HW1 6809   2.445   1.168   6.105
 1970SOL    HW2 6810   2.406   1.116   6.255
 1971SOL     OW 6811   6.600   0.087   6.328
 1971SOL    HW1 6812   6.539   0.150   6.376
 1971SOL    HW2 6813   6.599   7.021   6.373
 1972SOL     OW 6814   0.257   2.760   2.965
 1972SOL    HW1 6815   0.306   2.768   3.052
 1972SOL    HW2 6816   0.247   2.850   2.923
 1973SOL     OW 6817   3.450   3.387   1.354
 1973SOL    HW1 6818   3.525   3.450   1.334
 1973SOL    HW2 6819   3.393   3.376   1.272
 1974SOL     OW 6820   6.168   6.077   4.034
 1974SOL    HW1 6821   6.119   6.155   3.994
 1974SOL    HW2 6822   6.263   6.077   4.003
 1975SOL     OW 6823   2.601   1.159   3.008
 1975SOL    HW1 6824   2.527   1.218   3.038
 1975SOL    HW2 6825   2.564   1.079   2.960
 1976SOL     OW 6826   0.511   6.151   6.796
 1976SOL    HW1 6827   0.593   6.097   6.818
 1976SOL    HW2 6828   0.537   6.229   6.740
 1977SOL     OW 6829   1.013   2.632   3.438
 1977SOL    HW1 6830   1.008   2.631   3.338
 1977SOL    HW2 6831   1.100   2.672   3.467
 1978SOL     OW 6832   1.600   0.662   4.146
 1978SOL    HW1 6833   1.584   0.646   4.049
 1978SOL    HW2 6834   1.663   0.593   4.182
 1979SOL     OW 6835   6.752   4.130   5.003
 1979SOL    HW1 6836   6.671   4.084   4.965
 1979SOL    HW2 6837   6.769   4.215   4.954
 1980SOL     OW 6838   3.036   0.476   0.427
 1980SOL    HW1 6839   2.997   0.486   0.335
 1980SOL    HW2 6840   3.059   0.566   0.463
 1981SOL     OW 6841   5.392   2.158   2.465
 1981SOL    HW1 6842   5.303   2.142   2.509
 1981SOL    HW2 6843   5.393   2.251   2.427
 1982SOL     OW 6844   6.131   4.304   5.665
 1982SOL    HW1 6845   6.069   4.259   5.729
 1982SOL    HW2 6846   6.191   4.236   5.624
 1983SOL     OW 6847   0.844   2.590   2.475
 1983SOL    HW1 6848   0.891   2.554   2.395
 1983SOL    HW2 6849   0.748   2.562   2.474
 1984SOL     OW 6850   5.567   1.387   5.664
 1984SOL    HW1 6851   5.582   1.363   5.760
 1984SOL    HW2 6852   5.513   1.315   5.620
 1985SOL     OW 6853   1.356   0.702   2.247
 1985SOL    HW1 6854   1.417   0.739   2.316
 1985SOL    HW2 6855   1.335   0.606   2.268
 1986SOL     OW 6856   1.116   1.339   6.998
 1986SOL    HW1 6857   1.112   1.425   0.025
 1986SOL    HW2 6858   1.051   1.341   6.922
 1987SOL     OW 6859   2.192   3.246   1.499
 1987SOL    HW1 6860   2.223   3.319   1.437
 1987SOL    HW2 6861   2.169   3.286   1.587
 1988SOL     OW 6862   4.924   4.100   0.998
 1988SOL    HW1 6863   4.965   4.025   1.049
 1988SOL    HW2 6864   4.921   4.077   0.900
 1989SOL     OW 6865   2.301   0.589   5.162
 1989SOL    HW1 6866   2.205   0.609   5.179
 1989SOL    HW2 6867   2.343   0.665   5.112
 1990SOL     OW 6868   3.416   0.309   1.212
 1990SOL    HW1 6869   3.399   0.332   1.308
 1990SOL    HW2 6870   3.368   0.224   1.189
 1991SOL     OW 6871   3.637   4.883   6.135
 1991SOL    HW1 6872   3.589   4.934   6.063
 1991SOL    HW2 6873   3.647   4.941   6.216
 1992SOL     OW 6874   2.460   6.516   6.599
 1992SOL    HW1 6875   2.408   6.572   6.663
 1992SOL    HW2 6876   2.460   6.421   6.631
 1993SOL     OW 6877   4.181   3.163   5.510
 1993SOL    HW1 6878   4.097   3.166   5.564
 1993SOL    HW2 6879   4.229   3.250   5.518
 1994SOL     OW 6880   1.450   2.410   1.372
 1994SOL    HW1 6881   1.458   2.484   1.439
 1994SOL    HW2 6882   1.355   2.399   1.345
 1995SOL     OW 6883   6.513   2.240   2.133
 1995SOL    HW1 6884   6.478   2.326   2.170
 1995SOL    HW2 6885   6.515   2.171   2.206
 1996SOL     OW 6886   2.825   3.756   0.811
 1996SOL    HW1 6887   2.834   3.683   0.880
 1996SOL    HW2 6888   2.798   3.716   0.724
 1997SOL     OW 6889   4.660   0.212   5.704
 1997SOL    HW1 6890   4.579   0.174   5.749
 1997SOL    HW2 6891   4.742   0.172   5.744
 1998SOL     OW 6892   3.004   3.847   5.889
 1998SOL    HW1 6893   3.063   3.913   5.844
 1998SOL    HW2 6894   2.925   3.827   5.831
 1999SOL     OW 6895   3.055   0.024   2.029
 1999SOL    HW1 6896   3.149   0.034   2.063
 1999SOL    HW2 6897   2.992   0.062   2.096
 2000SOL     OW 6898   4.129   1.734   5.676
 2000SOL    HW1 6899   4.197   1.797   5.638
 2000SOL    HW2 6900   4.048   1.786   5.705
 2001SOL     OW 6901   3.424   2.303   1.723
 2001SOL    HW1 6902   3.518   2.285   1.754
 2001SOL    HW2 6903   3.397   2.395   1.749
 2002SOL     OW 6904   1.087   5.778   6.364
 2002SOL    HW1 6905   1.023   5.781   6.440
 2002SOL    HW2 6906   1.095   5.684   6.331
 2003SOL     OW 6907   4.623   6.836   3.627
 2003SOL    HW1 6908   4.717   6.860   3.602
 2003SOL    HW2 6909   4.570   6.821   3.544
 2004SOL     OW 6910   5.037   0.900   4.752
 2004SOL    HW1 6911   4.978   0.977   4.773
 2004SOL    HW2 6912   5.028   0.829   4.822
 2005SOL     OW 6913   1.165   5.338   0.069
 2005SOL    HW1 6914   1.122   5.385   0.145
 2005SOL    HW2 6915   1.246   5.289   0.103
 2006SOL     OW 6916   5.253   4.148   3.507
 2006SOL    HW1 6917   5.278   4.102   3.592
 2006SOL    HW2 6918   5.157   4.132   3.487
 2007SOL     OW 6919   4.825   5.904   0.495
 2007SOL    HW1 6920   4.745   5.846   0.480
 2007SOL    HW2 6921   4.795   5.997   0.519
 2008SOL     OW 6922   0.853   5.217   3.259
 2008SOL    HW1 6923   0.884   5.312   3.270
 2008SOL    HW2 6924   0.922   5.166   3.208
 2009SOL     OW 6925   6.506   0.261   1.472
 2009SOL    HW1 6926   6.487   0.249   1.374
 2009SOL    HW2 6927   6.520   0.172   1.514
 2010SOL     OW 6928   1.509   1.186   0.815
 2010SOL    HW1 6929   1.485   1.098   0.855
 2010SOL    HW2 6930   1.453   1.203   0.735
 2011SOL     OW 6931   6.297   1.512   5.078
 2011SOL    HW1 6932   6.212   1.563   5.087
 2011SOL    HW2 6933   6.342   1.536   4.992
 2012SOL     OW 6934   0.802   3.671   1.126
 2012SOL    HW1 6935   0.885   3.615   1.123
 2012SOL    HW2 6936   0.822   3.762   1.091
 2013SOL     OW 6937   5.122   1.019   2.905
 2013SOL    HW1 6938   5.200   1.073   2.873
 2013SOL    HW2 6939   5.089   0.960   2.831
 2014SOL     OW 6940   1.527   5.350   3.311
 2014SOL    HW1 6941   1.574   5.428   3.269
 2014SOL    HW2 6942   1.556   5.266   3.265
 2015SOL     OW 6943   2.680   1.419   6.665
 2015SOL    HW1 6944   2.757   1.478   6.692
 2015SOL    HW2 6945   2.604   1.475   6.633
 2016SOL     OW 6946   0.671   5.958   5.428
 2016SOL    HW1 6947   0.707   5.935   5.519
 2016SOL    HW2 6948   0.676   6.056   5.413
 2017SOL     OW 6949   3.712   6.314   3.999
 2017SOL    HW1 6950   3.759   6.265   4.073
 2017SOL    HW2 6951   3.744   6.280   3.910
 2018SOL     OW 6952   6.463   5.834   6.180
 2018SOL    HW1 6953   6.525   5.910   6.159
 2018SOL    HW2 6954   6.438   5.836   6.276
 2019SOL     OW 6955   4.848   2.783   2.093
 2019SOL    HW1 6956   4.809   2.873   2.073
 2019SOL    HW2 6957   4.774   2.718   2.111
 2020SOL     OW 6958   0.947   4.700   4.747
 2020SOL    HW1 6959   0.849   4.717   4.749
 2020SOL    HW2 6960   0.964   4.605   4.719
 2021SOL     OW 6961   2.257   6.738   3.140
 2021SOL    HW1 6962   2.168   6.698   3.164
 2021SOL    HW2 6963   2.326   6.666   3.138
 2022SOL     OW 6964   2.063   3.567   2.566
 2022SOL    HW1 6965   1.974   3.612   2.560
 2022SOL    HW2 6966   2.111   3.579   2.479
 2023SOL     OW 6967   0.158   1.901   0.488
 2023SOL    HW1 6968   0.200   1.950   0.411
 2023SOL    HW2 6969   0.201   1.811   0.498
 2024SOL     OW 6970   6.959   0.698   2.737
 2024SOL    HW1 6971   0.013   0.693   2.801
 2024SOL    HW2 6972   6.879   0.735   2.785
 2025SOL     OW 6973   1.660   2.422   2.079
 2025SOL    HW1 6974   1.732   2.492   2.083
 2025SOL    HW2 6975   1.629   2.401   2.171
 2026SOL     OW 6976   1.583   2.259   5.945
 2026SOL    HW1 6977   1.585   2.178   6.004
 2026SOL    HW2 6978   1.488   2.283   5.925
 2027SOL     OW 6979   1.479   1.434   1.201
 2027SOL    HW1 6980   1.497   1.358   1.262
 2027SOL    HW2 6981   1.465   1.400   1.108
 2028SOL     OW 6982   3.446   1.285   6.390
 2028SOL    HW1 6983   3.431   1.371   6.440
 2028SOL    HW2 6984   3.361   1.258   6.345
 2029SOL     OW 6985   0.403   0.369   0.222
 2029SOL    HW1 6986   0.370   0.355   0.315
 2029SOL    HW2 6987   0.382   0.288   0.167
 2030SOL     OW 6988   1.911   1.232   4.131
 2030SOL    HW1 6989   1.837   1.299   4.140
 2030SOL    HW2 6990   1.911   1.194   4.039
 2031SOL     OW 6991   4.899   6.143   2.329
 2031SOL    HW1 6992   4.803   6.120   2.316
 2031SOL    HW2 6993   4.908   6.240   2.352
 2032SOL     OW 6994   5.519   5.828   1.305
 2032SOL    HW1 6995   5.528   5.876   1.392
 2032SOL    HW2 6996   5.459   5.880   1.244
 2033SOL     OW 6997   3.545   4.597   6.991
 2033SOL    HW1 6998   3.528   4.521   6.927
 2033SOL    HW2 6999   3.538   4.684   6.942
 2034SOL     OW 7000   2.476   0.065   4.495
 2034SOL    HW1 7001   2.456   0.121   4.575
 2034SOL    HW2 7002   2.574   0.045   4.492
 2035SOL     OW 7003   0.421   0.590   2.611
 2035SOL    HW1 7004   0.392   0.607   2.705
 2035SOL    HW2 7005   0.457   0.497   2.604
 2036SOL     OW 7006   0.520   5.914   3.096
 2036SOL    HW1 7007   0.567   6.003   3.097
 2036SOL    HW2 7008   0.581   5.845   3.058
 2037SOL     OW 7009   6.553   1.866   5.793
 2037SOL    HW1 7010   6.506   1.925   5.858
 2037SOL    HW2 7011   6.500   1.781   5.781
 2038SOL     OW 7012   1.010   1.395   6.526
 2038SOL    HW1 7013   1.097   1.350   6.505
 2038SOL    HW2 7014   0.948   1.386   6.448
 2039SOL     OW 7015   0.840   5.261   2.931
 2039SOL    HW1 7016   0.908   5.202   2.974
 2039SOL    HW2 7017   0.856   5.356   2.959
 2040SOL     OW 7018   3.288   3.209   4.965
 2040SOL    HW1 7019   3.188   3.206   4.965
 2040SOL    HW2 7020   3.323   3.147   5.035
 2041SOL     OW 7021   6.959   6.162   6.603
 2041SOL    HW1 7022   0.024   6.116   6.615
 2041SOL    HW2 7023   6.885   6.096   6.615
 2042SOL     OW 7024   6.218   5.580   6.873
 2042SOL    HW1 7025   6.254   5.527   6.949
 2042SOL    HW2 7026   6.176   5.518   6.806
 2043SOL     OW 7027   0.017   4.489   2.470
 2043SOL    HW1 7028   7.008   4.404   2.430
 2043SOL    HW2 7029   0.039   4.474   2.567
 2044SOL     OW 7030   5.127   0.451   2.052
 2044SOL    HW1 7031   5.111   0.435   1.954
 2044SOL    HW2 7032   5.068   0.391   2.106
 2045SOL     OW 7033   2.395   4.407   5.054
 2045SOL    HW1 7034   2.368   4.374   4.964
 2045SOL    HW2 7035   2.461   4.481   5.045
 2046SOL     OW 7036   0.049   0.364   4.599
 2046SOL    HW1 7037   0.046   0.265   4.618
 2046SOL    HW2 7038   0.110   0.408   4.665
 2047SOL     OW 7039   4.520   2.007   6.882
 2047SOL    HW1 7040   4.475   2.073   6.820
 2047SOL    HW2 7041   4.450   1.950   6.925
 2048SOL     OW 7042   3.542   6.194   0.072
 2048SOL    HW1 7043   3.482   6.129   0.119
 2048SOL    HW2 7044   3.613   6.224   0.136
 2049SOL     OW 7045   4.226   2.516   6.108
 2049SOL    HW1 7046   4.208   2.524   6.206
 2049SOL    HW2 7047   4.320   2.484   6.095
 2050SOL     OW 7048   6.097   3.047   4.152
 2050SOL    HW1 7049   6.052   2.961   4.174
 2050SOL    HW2 7050   6.180   3.056   4.208
 2051SOL     OW 7051   6.819   4.935   6.995
 2051SOL    HW1 7052   6.887   4.880   6.948
 2051SOL    HW2 7053   6.850   4.954   0.065
 2052SOL     OW 7054   0.329   4.318   0.253
 2052SOL    HW1 7055   0.398   4.314   0.181
 2052SOL    HW2 7056   0.349   4.250   0.323
 2053SOL     OW 7057   6.417   0.594   0.598
 2053SOL    HW1 7058   6.418   0.501   0.560
 2053SOL    HW2 7059   6.508   0.618   0.631
 2054SOL     OW 7060   4.855   2.534   1.818
 2054SOL    HW1 7061   4.851   2.634   1.824
 2054SOL    HW2 7062   4.925   2.508   1.751
 2055SOL     OW 7063   6.107   2.996   2.597
 2055SOL    HW1 7064   6.143   3.049   2.674
 2055SOL    HW2 7065   6.035   2.935   2.630
 2056SOL     OW 7066   2.378   1.307   3.043
 2056SOL    HW1 7067   2.387   1.389   2.986
 2056SOL    HW2 7068   2.328   1.329   3.126
 2057SOL     OW 7069   5.650   2.576   3.754
 2057SOL    HW1 7070   5.719   2.508   3.777
 2057SOL    HW2 7071   5.630   2.632   3.834
 2058SOL     OW 7072   1.143   1.963   3.437
 2058SOL    HW1 7073   1.237   1.929   3.437
 2058SOL    HW2 7074   1.097   1.934   3.521
 2059SOL     OW 7075   2.825   6.572   6.006
 2059SOL    HW1 7076   2.736   6.544   6.041
 2059SOL    HW2 7077   2.878   6.491   5.980
 2060SOL     OW 7078   7.013   3.777   0.843
 2060SOL    HW1 7079   6.977   3.733   0.760
 2060SOL    HW2 7080   0.003   3.708   0.914
 2061SOL     OW 7081   1.088   1.802   3.064
 2061SOL    HW1 7082   1.026   1.728   3.092
 2061SOL    HW2 7083   1.101   1.799   2.965
 2062SOL     OW 7084   5.664   7.010   3.030
 2062SOL    HW1 7085   5.696   6.919   3.005
 2062SOL    HW2 7086   5.648   0.040   2.946
 2063SOL     OW 7087   1.093   1.381   5.937
 2063SOL    HW1 7088   1.117   1.385   5.840
 2063SOL    HW2 7089   1.014   1.441   5.953
 2064SOL     OW 7090   0.791   1.392   5.447
 2064SOL    HW1 7091   0.886   1.411   5.421
 2064SOL    HW2 7092   0.786   1.384   5.547
 2065SOL     OW 7093   6.534   4.159   2.649
 2065SOL    HW1 7094   6.507   4.199   2.737
 2065SOL    HW2 7095   6.608   4.094   2.663
 2066SOL     OW 7096   0.581   5.639   4.138
 2066SOL    HW1 7097   0.511   5.594   4.193
 2066SOL    HW2 7098   0.546   5.654   4.046
 2067SOL     OW 7099   6.905   6.706   0.790
 2067SOL    HW1 7100   6.991   6.726   0.837
 2067SOL    HW2 7101   6.859   6.792   0.768
 2068SOL     OW 7102   1.063   1.425   5.394
 2068SOL    HW1 7103   1.148   1.460   5.436
 2068SOL    HW2 7104   1.086   1.358   5.324
 2069SOL     OW 7105   0.347   2.581   3.488
 2069SOL    HW1 7106   0.436   2.567   3.531
 2069SOL    HW2 7107   0.286   2.505   3.511
 2070SOL     OW 7108   1.928   0.057   2.281
 2070SOL    HW1 7109   1.940   0.107   2.195
 2070SOL    HW2 7110   1.837   0.075   2.318
 2071SOL     OW 7111   0.159   5.648   5.795
 2071SOL    HW1 7112   0.233   5.585   5.772
 2071SOL    HW2 7113   0.186   5.741   5.771
 2072SOL     OW 7114   4.775   6.404   1.506
 2072SOL    HW1 7115   4.763   6.310   1.474
 2072SOL    HW2 7116   4.791   6.404   1.605
 2073SOL     OW 7117   3.712   0.180   4.611
 2073SOL    HW1 7118   3.634   0.234   4.643
 2073SOL    HW2 7119   3.788   0.242   4.591
 2074SOL     OW 7120   0.986   3.238   0.078
 2074SOL    HW1 7121   0.933   3.169   0.127
 2074SOL    HW2 7122   0.924   3.302   0.033
 2075SOL     OW 7123   5.291   2.738   1.688
 2075SOL    HW1 7124   5.352   2.810   1.654
 2075SOL    HW2 7125   5.335   2.690   1.764
 2076SOL     OW 7126   5.261   6.866   0.022
 2076SOL    HW1 7127   5.252   6.878   0.121
 2076SOL    HW2 7128   5.174   6.834   7.008
 2077SOL     OW 7129   4.788   2.430   2.310
 2077SOL    HW1 7130   4.758   2.357   2.248
 2077SOL    HW2 7131   4.754   2.518   2.276
 2078SOL     OW 7132   1.718   6.818   6.517
 2078SOL    HW1 7133   1.623   6.848   6.525
 2078SOL    HW2 7134   1.729   6.764   6.434
 2079SOL     OW 7135   5.276   0.902   3.355
 2079SOL    HW1 7136   5.320   0.991   3.344
 2079SOL    HW2 7137   5.205   0.909   3.425
 2080SOL     OW 7138   1.744   0.690   4.930
 2080SOL    HW1 7139   1.683   0.759   4.970
 2080SOL    HW2 7140   1.691   0.627   4.874
 2081SOL     OW 7141   1.577   5.721   4.932
 2081SOL    HW1 7142   1.622   5.804   4.967
 2081SOL    HW2 7143   1.645   5.648   4.924
 2082SOL     OW 7144   6.576   0.622   2.874
 2082SOL    HW1 7145   6.590   0.637   2.777
 2082SOL    HW2 7146   6.611   0.700   2.926
 2083SOL     OW 7147   4.719   4.427   6.530
 2083SOL    HW1 7148   4.674   4.478   6.456
 2083SOL    HW2 7149   4.675   4.338   6.540
 2084SOL     OW 7150   6.758   4.231   3.600
 2084SOL    HW1 7151   6.722   4.242   3.693
 2084SOL    HW2 7152   6.814   4.311   3.577
 2085SOL     OW 7153   5.017   1.111   0.375
 2085SOL    HW1 7154   4.991   1.049   0.301
 2085SOL    HW2 7155   4.984   1.203   0.355
 2086SOL     OW 7156   3.010   6.537   5.483
 2086SOL    HW1 7157   3.025   6.535   5.384
 2086SOL    HW2 7158   3.099   6.535   5.530
 2087SOL     OW 7159   4.964   0.222   2.137
 2087SOL    HW1 7160   4.988   0.191   2.230
 2087SOL    HW2 7161   5.013   0.166   2.070
 2088SOL     OW 7162   2.656   5.842   0.702
 2088SOL    HW1 7163   2.649   5.927   0.755
 2088SOL    HW2 7164   2.747   5.802   0.715
 2089SOL     OW 7165   4.916   1.840   6.869
 2089SOL    HW1 7166   4.877   1.919   6.822
 2089SOL    HW2 7167   4.932   1.862   6.965
 2090SOL     OW 7168   3.827   3.729   5.405
 2090SOL    HW1 7169   3.838   3.821   5.368
 2090SOL    HW2 7170   3.776   3.673   5.339
 2091SOL     OW 7171   6.668   5.680   6.935
 2091SOL    HW1 7172   6.753   5.722   6.903
 2091SOL    HW2 7173   6.658   5.697   0.010
 2092SOL     OW 7174   4.732   5.872   0.046
 2092SOL    HW1 7175   4.667   5.947   0.035
 2092SOL    HW2 7176   4.786   5.861   6.986
 2093SOL     OW 7177   1.911   2.604   1.817
 2093SOL    HW1 7178   1.883   2.535   1.884
 2093SOL    HW2 7179   1.912   2.694   1.861
 2094SOL     OW 7180   5.520   1.925   1.488
 2094SOL    HW1 7181   5.481   1.837   1.515
 2094SOL    HW2 7182   5.547   1.976   1.569
 2095SOL     OW 7183   5.558   0.058   4.657
 2095SOL    HW1 7184   5.549   0.141   4.712
 2095SOL    HW2 7185   5.563   7.002   4.717
 2096SOL     OW 7186   4.584   4.338   2.477
 2096SOL    HW1 7187   4.544   4.402   2.542
 2096SOL    HW2 7188   4.548   4.358   2.385
 2097SOL     OW 7189   1.556   3.105   0.170
 2097SOL    HW1 7190   1.471   3.058   0.193
 2097SOL    HW2 7191   1.552   3.199   0.205
 2098SOL     OW 7192   4.483   5.519   3.418
 2098SOL    HW1 7193   4.470   5.419   3.419
 2098SOL    HW2 7194   4.577   5.539   3.447
 2099SOL     OW 7195   2.945   2.931   5.354
 2099SOL    HW1 7196   2.979   2.995   5.285
 2099SOL    HW2 7197   2.853   2.957   5.382
 2100SOL     OW 7198   3.848   3.493   5.633
 2100SOL    HW1 7199   3.897   3.522   5.551
 2100SOL    HW2 7200   3.883   3.404   5.662
 2101SOL     OW 7201   1.461   6.634   2.958
 2101SOL    HW1 7202   1.368   6.656   2.987
 2101SOL    HW2 7203   1.505   6.579   3.029
 2102SOL     OW 7204   6.674   5.299   2.264
 2102SOL    HW1 7205   6.749   5.283   2.328
 2102SOL    HW2 7206   6.711   5.316   2.173
 2103SOL     OW 7207   2.792   3.234   6.546
 2103SOL    HW1 7208   2.786   3.150   6.493
 2103SOL    HW2 7209   2.702   3.255   6.585
 2104SOL     OW 7210   1.217   3.712   6.729
 2104SOL    HW1 7211   1.296   3.724   6.789
 2104SOL    HW2 7212   1.221   3.778   6.654
 2105SOL     OW 7213   4.898   5.682   4.580
 2105SOL    HW1 7214   4.810   5.717   4.611
 2105SOL    HW2 7215   4.919   5.596   4.627
 2106SOL     OW 7216   5.049   3.837   0.520
 2106SOL    HW1 7217   4.951   3.846   0.501
 2106SOL    HW2 7218   5.083   3.922   0.561
 2107SOL     OW 7219   4.829   3.074   5.916
 2107SOL    HW1 7220   4.884   3.135   5.972
 2107SOL    HW2 7221   4.826   2.983   5.957
 2108SOL     OW 7222   6.867   6.319   5.478
 2108SOL    HW1 7223   6.912   6.409   5.485
 2108SOL    HW2 7224   6.881   6.282   5.387
 2109SOL     OW 7225   4.801   6.575   3.184
 2109SOL    HW1 7226   4.877   6.511   3.193
 2109SOL    HW2 7227   4.734   6.557   3.256
 2110SOL     OW 7228   2.564   2.458   5.765
 2110SOL    HW1 7229   2.478   2.497   5.731
 2110SOL    HW2 7230   2.629   2.532   5.781
 2111SOL     OW 7231   1.216   2.079   6.593
 2111SOL    HW1 7232   1.229   2.018   6.671
 2111SOL    HW2 7233   1.141   2.045   6.537
 2112SOL     OW 7234   5.246   2.341   1.046
 2112SOL    HW1 7235   5.327   2.305   1.093
 2112SOL    HW2 7236   5.273   2.374   0.955
 2113SOL     OW 7237   1.530   0.391   5.005
 2113SOL    HW1 7238   1.484   0.439   5.079
 2113SOL    HW2 7239   1.469   0.386   4.926
 2114SOL     OW 7240   1.688   3.111   0.988
 2114SOL    HW1 7241   1.736   3.074   1.067
 2114SOL    HW2 7242   1.605   3.057   0.970
 2115SOL     OW 7243   2.181   3.891   3.059
 2115SOL    HW1 7244   2.261   3.946   3.035
 2115SOL    HW2 7245   2.153   3.837   2.980
 2116SOL     OW 7246   0.321   5.030   3.302
 2116SOL    HW1 7247   0.353   5.105   3.361
 2116SOL    HW2 7248   0.253   5.065   3.238
 2117SOL     OW 7249   6.934   4.300   1.355
 2117SOL    HW1 7250   6.874   4.353   1.415
 2117SOL    HW2 7251   6.999   4.248   1.410
 2118SOL     OW 7252   6.606   3.742   2.012
 2118SOL    HW1 7253   6.558   3.752   1.925
 2118SOL    HW2 7254   6.626   3.645   2.029
 2119SOL     OW 7255   2.536   5.895   1.234
 2119SOL    HW1 7256   2.480   5.831   1.181
 2119SOL    HW2 7257   2.531   5.986   1.192
 2120SOL     OW 7258   0.538   4.945   4.416
 2120SOL    HW1 7259   0.582   4.943   4.326
 2120SOL    HW2 7260   0.509   4.852   4.441
 2121SOL     OW 7261   0.627   4.396   5.551
 2121SOL    HW1 7262   0.545   4.448   5.574
 2121SOL    HW2 7263   0.618   4.358   5.459
 2122SOL     OW 7264   5.579   4.538   6.086
 2122SOL    HW1 7265   5.623   4.514   6.000
 2122SOL    HW2 7266   5.577   4.458   6.146
 2123SOL     OW 7267   6.747   4.997   2.003
 2123SOL    HW1 7268   6.680   5.007   2.077
 2123SOL    HW2 7269   6.801   4.914   2.018
 2124SOL     OW 7270   2.757   1.926   1.975
 2124SOL    HW1 7271   2.726   2.018   1.998
 2124SOL    HW2 7272   2.853   1.915   2.002
 2125SOL     OW 7273   1.818   0.327   0.831
 2125SOL    HW1 7274   1.903   0.286   0.865
 2125SOL    HW2 7275   1.747   0.321   0.901
 2126SOL     OW 7276   3.604   1.038   0.595
 2126SOL    HW1 7277   3.574   1.122   0.549
 2126SOL    HW2 7278   3.691   1.055   0.641
 2127SOL     OW 7279   6.622   3.547   4.256
 2127SOL    HW1 7280   6.717   3.566   4.231
 2127SOL    HW2 7281   6.619   3.466   4.315
 2128SOL     OW 7282   6.515   3.791   3.946
 2128SOL    HW1 7283   6.480   3.810   3.854
 2128SOL    HW2 7284   6.438   3.778   4.009
 2129SOL     OW 7285   4.628   3.127   5.407
 2129SOL    HW1 7286   4.553   3.136   5.472
 2129SOL    HW2 7287   4.620   3.041   5.358
 2130SOL     OW 7288   3.592   0.448   2.508
 2130SOL    HW1 7289   3.530   0.374   2.536
 2130SOL    HW2 7290   3.561   0.534   2.548
 2131SOL     OW 7291   6.486   0.387   0.919
 2131SOL    HW1 7292   6.428   0.354   0.844
 2131SOL    HW2 7293   6.438   0.376   1.006
 2132SOL     OW 7294   4.002   2.033   1.282
 2132SOL    HW1 7295   4.067   2.104   1.309
 2132SOL    HW2 7296   3.945   2.009   1.361
 2133SOL     OW 7297   2.490   3.012   6.338
 2133SOL    HW1 7298   2.507   3.106   6.309
 2133SOL    HW2 7299   2.446   3.012   6.428
 2134SOL     OW 7300   0.612   2.317   0.075
 2134SOL    HW1 7301   0.667   2.371   0.012
 2134SOL    HW2 7302   0.516   2.321   0.047
 2135SOL     OW 7303   0.637   3.841   4.924
 2135SOL    HW1 7304   0.736   3.824   4.927
 2135SOL    HW2 7305   0.619   3.925   4.873
 2136SOL     OW 7306   2.037   4.390   2.650
 2136SOL    HW1 7307   2.025   4.488   2.635
 2136SOL    HW2 7308   2.133   4.371   2.671
 2137SOL     OW 7309   2.383   5.571   5.150
 2137SOL    HW1 7310   2.313   5.641   5.139
 2137SOL    HW2 7311   2.474   5.613   5.141
 2138SOL     OW 7312   6.400   6.476   3.363
 2138SOL    HW1 7313   6.344   6.541   3.415
 2138SOL    HW2 7314   6.432   6.404   3.424
 2139SOL     OW 7315   4.428   0.958   3.796
 2139SOL    HW1 7316   4.494   0.904   3.848
 2139SOL    HW2 7317   4.457   1.054   3.795
 2140SOL     OW 7318   2.760   6.979   4.525
 2140SOL    HW1 7319   2.763   6.921   4.443
 2140SOL    HW2 7320   2.851   6.986   4.565
 2141SOL     OW 7321   6.482   2.823   2.606
 2141SOL    HW1 7322   6.575   2.789   2.588
 2141SOL    HW2 7323   6.449   2.784   2.692
 2142SOL     OW 7324   1.352   1.656   3.046
 2142SOL    HW1 7325   1.372   1.577   3.104
 2142SOL    HW2 7326   1.293   1.720   3.095
 2143SOL     OW 7327   3.172   4.976   1.239
 2143SOL    HW1 7328   3.147   4.968   1.143
 2143SOL    HW2 7329   3.246   4.913   1.261
 2144SOL     OW 7330   0.091   5.617   4.585
 2144SOL    HW1 7331   0.084   5.704   4.634
 2144SOL    HW2 7332   0.187   5.590   4.578
 2145SOL     OW 7333   3.936   6.272   4.513
 2145SOL    HW1 7334   3.917   6.370   4.519
 2145SOL    HW2 7335   4.015   6.250   4.570
 2146SOL     OW 7336   2.373   3.042   1.254
 2146SOL    HW1 7337   2.393   3.004   1.344
 2146SOL    HW2 7338   2.341   3.136   1.264
 2147SOL     OW 7339   5.853   1.334   6.787
 2147SOL    HW1 7340   5.950   1.310   6.773
 2147SOL    HW2 7341   5.847   1.426   6.824
 2148SOL     OW 7342   5.983   3.222   6.278
 2148SOL    HW1 7343   6.023   3.157   6.214
 2148SOL    HW2 7344   5.954   3.304   6.228
 2149SOL     OW 7345   2.129   1.376   0.974
 2149SOL    HW1 7346   2.219   1.347   1.007
 2149SOL    HW2 7347   2.079   1.421   1.048
 2150SOL     OW 7348   2.441   2.529   2.435
 2150SOL    HW1 7349   2.370   2.550   2.368
 2150SOL    HW2 7350   2.414   2.561   2.525
 2151SOL     OW 7351   1.731   6.339   6.320
 2151SOL    HW1 7352   1.720   6.245   6.352
 2151SOL    HW2 7353   1.694   6.347   6.228
 2152SOL     OW 7354   4.269   4.613   2.164
 2152SOL    HW1 7355   4.170   4.599   2.159
 2152SOL    HW2 7356   4.313   4.559   2.092
 2153SOL     OW 7357   3.718   1.803   2.612
 2153SOL    HW1 7358   3.746   1.806   2.516
 2153SOL    HW2 7359   3.707   1.708   2.641
 2154SOL     OW 7360   3.903   0.042   4.047
 2154SOL    HW1 7361   3.836   0.047   4.121
 2154SOL    HW2 7362   3.878   6.991   3.985
 2155SOL     OW 7363   4.309   0.162   0.777
 2155SOL    HW1 7364   4.300   0.063   0.789
 2155SOL    HW2 7365   4.218   0.202   0.766
 2156SOL     OW 7366   0.233   0.428   4.814
 2156SOL    HW1 7367   0.331   0.442   4.797
 2156SOL    HW2 7368   0.222   0.355   4.881
 2157SOL     OW 7369   5.531   6.149   3.381
 2157SOL    HW1 7370   5.438   6.183   3.391
 2157SOL    HW2 7371   5.587   6.182   3.457
 2158SOL     OW 7372   3.632   5.924   0.398
 2158SOL    HW1 7373   3.683   5.853   0.350
 2158SOL    HW2 7374   3.687   5.959   0.474
 2159SOL     OW 7375   1.514   0.870   5.011
 2159SOL    HW1 7376   1.435   0.879   5.072
 2159SOL    HW2 7377   1.483   0.837   4.921
 2160SOL     OW 7378   4.885   4.255   6.900
 2160SOL    HW1 7379   4.886   4.325   6.829
 2160SOL    HW2 7380   4.923   4.170   6.862
 2161SOL     OW 7381   6.606   4.636   1.831
 2161SOL    HW1 7382   6.633   4.657   1.925
 2161SOL    HW2 7383   6.680   4.587   1.786
 2162SOL     OW 7384   3.302   0.142   2.110
 2162SOL    HW1 7385   3.394   0.132   2.149
 2162SOL    HW2 7386   3.309   0.181   2.018
 2163SOL     OW 7387   1.875   4.887   0.524
 2163SOL    HW1 7388   1.907   4.910   0.616
 2163SOL    HW2 7389   1.939   4.822   0.483
 2164SOL     OW 7390   1.910   1.955   6.097
 2164SOL    HW1 7391   1.945   1.929   6.186
 2164SOL    HW2 7392   1.933   1.886   6.029
 2165SOL     OW 7393   0.234   2.256   3.203
 2165SOL    HW1 7394   0.255   2.258   3.106
 2165SOL    HW2 7395   0.315   2.285   3.255
 2166SOL     OW 7396   0.954   3.561   4.353
 2166SOL    HW1 7397   0.988   3.630   4.417
 2166SOL    HW2 7398   1.012   3.480   4.356
 2167SOL     OW 7399   0.821   2.848   3.756
 2167SOL    HW1 7400   0.901   2.883   3.708
 2167SOL    HW2 7401   0.782   2.920   3.814
 2168SOL     OW 7402   1.060   1.782   2.784
 2168SOL    HW1 7403   1.026   1.864   2.739
 2168SOL    HW2 7404   1.113   1.728   2.719
 2169SOL     OW 7405   6.016   1.487   0.879
 2169SOL    HW1 7406   6.037   1.419   0.949
 2169SOL    HW2 7407   5.927   1.528   0.899
 2170SOL     OW 7408   6.795   3.810   5.101
 2170SOL    HW1 7409   6.752   3.899   5.112
 2170SOL    HW2 7410   6.890   3.815   5.133
 2171SOL     OW 7411   0.425   5.626   1.202
 2171SOL    HW1 7412   0.502   5.689   1.210
 2171SOL    HW2 7413   0.348   5.660   1.256
 2172SOL     OW 7414   2.032   1.863   6.382
 2172SOL    HW1 7415   1.997   1.812   6.461
 2172SOL    HW2 7416   2.106   1.812   6.339
 2173SOL     OW 7417   4.657   0.775   5.011
 2173SOL    HW1 7418   4.677   0.693   4.957
 2173SOL    HW2 7419   4.579   0.758   5.070
 2174SOL     OW 7420   6.533   5.746   4.881
 2174SOL    HW1 7421   6.539   5.653   4.845
 2174SOL    HW2 7422   6.621   5.771   4.921
 2175SOL     OW 7423   1.694   3.396   3.919
 2175SOL    HW1 7424   1.677   3.353   4.007
 2175SOL    HW2 7425   1.684   3.495   3.927
 2176SOL     OW 7426   5.659   2.056   1.060
 2176SOL    HW1 7427   5.720   2.026   0.987
 2176SOL    HW2 7428   5.677   2.003   1.143
 2177SOL     OW 7429   0.164   0.467   2.543
 2177SOL    HW1 7430   0.122   0.378   2.529
 2177SOL    HW2 7431   0.246   0.457   2.600
 2178SOL     OW 7432   1.557   1.387   2.149
 2178SOL    HW1 7433   1.497   1.353   2.077
 2178SOL    HW2 7434   1.620   1.315   2.178
 2179SOL     OW 7435   1.452   4.100   5.744
 2179SOL    HW1 7436   1.526   4.113   5.678
 2179SOL    HW2 7437   1.484   4.045   5.821
 2180SOL     OW 7438   1.314   3.463   2.245
 2180SOL    HW1 7439   1.274   3.418   2.325
 2180SOL    HW2 7440   1.352   3.395   2.183
 2181SOL     OW 7441   4.405   4.998   4.225
 2181SOL    HW1 7442   4.396   5.005   4.126
 2181SOL    HW2 7443   4.318   4.969   4.265
 2182SOL     OW 7444   1.666   4.791   3.565
 2182SOL    HW1 7445   1.737   4.859   3.547
 2182SOL    HW2 7446   1.693   4.703   3.525
 2183SOL     OW 7447   2.146   4.225   0.286
 2183SOL    HW1 7448   2.201   4.218   0.203
 2183SOL    HW2 7449   2.071   4.159   0.281
 2184SOL     OW 7450   4.161   0.068   6.030
 2184SOL    HW1 7451   4.190   0.067   6.126
 2184SOL    HW2 7452   4.124   7.002   6.005
 2185SOL     OW 7453   0.897   1.258   0.112
 2185SOL    HW1 7454   0.814   1.277   0.059
 2185SOL    HW2 7455   0.976   1.299   0.067
 2186SOL     OW 7456   6.415   5.355   0.392
 2186SOL    HW1 7457   6.411   5.455   0.391
 2186SOL    HW2 7458   6.393   5.322   0.483
 2187SOL     OW 7459   0.197   5.754   2.048
 2187SOL    HW1 7460   0.123   5.768   2.115
 2187SOL    HW2 7461   0.271   5.703   2.091
 2188SOL     OW 7462   1.109   5.521   5.047
 2188SOL    HW1 7463   1.161   5.469   5.114
 2188SOL    HW2 7464   1.044   5.460   5.001
 2189SOL     OW 7465   1.712   7.021   1.204
 2189SOL    HW1 7466   1.737   0.089   1.172
 2189SOL    HW2 7467   1.646   6.980   1.141
 2190SOL     OW 7468   6.689   3.200   1.944
 2190SOL    HW1 7469   6.769   3.214   2.002
 2190SOL    HW2 7470   6.628   3.279   1.952
 2191SOL     OW 7471   2.242   2.079   5.930
 2191SOL    HW1 7472   2.213   2.026   5.850
 2191SOL    HW2 7473   2.255   2.174   5.905
 2192SOL     OW 7474   5.566   1.079   2.371
 2192SOL    HW1 7475   5.469   1.103   2.372
 2192SOL    HW2 7476   5.587   1.031   2.286
 2193SOL     OW 7477   6.651   0.119   6.745
 2193SOL    HW1 7478   6.581   0.092   6.679
 2193SOL    HW2 7479   6.646   0.218   6.760
 2194SOL     OW 7480   1.819   3.992   6.734
 2194SOL    HW1 7481   1.886   4.064   6.751
 2194SOL    HW2 7482   1.771   4.010   6.648
 2195SOL     OW 7483   6.599   6.532   5.388
 2195SOL    HW1 7484   6.650   6.609   5.427
 2195SOL    HW2 7485   6.557   6.560   5.301
 2196SOL     OW 7486   3.169   0.148   4.898
 2196SOL    HW1 7487   3.154   0.241   4.866
 2196SOL    HW2 7488   3.248   0.108   4.852
 2197SOL     OW 7489   2.385   3.707   6.244
 2197SOL    HW1 7490   2.291   3.724   6.216
 2197SOL    HW2 7491   2.429   3.793   6.268
 2198SOL     OW 7492   5.803   0.009   1.791
 2198SOL    HW1 7493   5.713   6.998   1.820
 2198SOL    HW2 7494   5.790   0.082   1.724
 2199SOL     OW 7495   5.218   6.837   3.830
 2199SOL    HW1 7496   5.302   6.858   3.780
 2199SOL    HW2 7497   5.237   6.834   3.928
 2200SOL     OW 7498   1.664   2.051   4.226
 2200SOL    HW1 7499   1.625   2.072   4.136
 2200SOL    HW2 7500   1.701   2.135   4.266
 2201SOL     OW 7501   6.280   2.892   3.347
 2201SOL    HW1 7502   6.331   2.968   3.389
 2201SOL    HW2 7503   6.190   2.925   3.318
 2202SOL     OW 7504   4.074   5.986   1.890
 2202SOL    HW1 7505   4.057   6.014   1.795
 2202SOL    HW2 7506   4.142   6.047   1.931
 2203SOL     OW 7507   2.351   3.608   1.305
 2203SOL    HW1 7508   2.406   3.576   1.382
 2203SOL    HW2 7509   2.388   3.694   1.271
 2204SOL     OW 7510   5.009   2.310   1.167
 2204SOL    HW1 7511   4.926   2.353   1.131
 2204SOL    HW2 7512   5.088   2.341   1.114
 2205SOL     OW 7513   1.024   6.737   6.374
 2205SOL    HW1 7514   0.937   6.760   6.416
 2205SOL    HW2 7515   1.093   6.721   6.446
 2206SOL     OW 7516   3.351   4.667   5.600
 2206SOL    HW1 7517   3.314   4.758   5.580
 2206SOL    HW2 7518   3.275   4.604   5.619
 2207SOL     OW 7519   2.993   5.166   6.308
 2207SOL    HW1 7520   2.938   5.174   6.391
 2207SOL    HW2 7521   2.982   5.074   6.269
 2208SOL     OW 7522   1.676   5.209   3.523
 2208SOL    HW1 7523   1.688   5.307   3.510
 2208SOL    HW2 7524   1.721   5.159   3.449
 2209SOL     OW 7525   2.497   0.324   4.976
 2209SOL    HW1 7526   2.552   0.347   5.057
 2209SOL    HW2 7527   2.548   0.351   4.894
 2210SOL     OW 7528   0.484   4.317   3.992
 2210SOL    HW1 7529   0.493   4.390   3.925
 2210SOL    HW2 7530   0.574   4.299   4.034
 2211SOL     OW 7531   6.793   0.602   0.417
 2211SOL    HW1 7532   6.884   0.560   0.416
 2211SOL    HW2 7533   6.803   0.702   0.414
 2212SOL     OW 7534   2.283   5.872   0.425
 2212SOL    HW1 7535   2.247   5.788   0.464
 2212SOL    HW2 7536   2.379   5.883   0.451
 2213SOL     OW 7537   3.340   1.880   5.239
 2213SOL    HW1 7538   3.279   1.952   5.205
 2213SOL    HW2 7539   3.411   1.863   5.171
 2214SOL     OW 7540   3.039   3.843   4.592
 2214SOL    HW1 7541   3.083   3.785   4.524
 2214SOL    HW2 7542   3.031   3.793   4.678
 2215SOL     OW 7543   5.528   0.861   0.352
 2215SOL    HW1 7544   5.608   0.840   0.408
 2215SOL    HW2 7545   5.504   0.957   0.362
 2216SOL     OW 7546   1.282   1.070   6.623
 2216SOL    HW1 7547   1.296   1.107   6.715
 2216SOL    HW2 7548   1.304   0.972   6.623
 2217SOL     OW 7549   3.800   6.596   2.198
 2217SOL    HW1 7550   3.844   6.676   2.240
 2217SOL    HW2 7551   3.855   6.565   2.120
 2218SOL     OW 7552   6.948   5.286   0.012
 2218SOL    HW1 7553   6.851   5.273   0.033
 2218SOL    HW2 7554   7.002   5.275   0.096
 2219SOL     OW 7555   6.210   1.689   0.846
 2219SOL    HW1 7556   6.140   1.750   0.883
 2219SOL    HW2 7557   6.168   1.604   0.815
 2220SOL     OW 7558   2.319   6.039   5.245
 2220SOL    HW1 7559   2.378   6.002   5.317
 2220SOL    HW2 7560   2.332   6.138   5.238
 2221SOL     OW 7561   6.012   1.680   5.678
 2221SOL    HW1 7562   6.060   1.595   5.653
 2221SOL    HW2 7563   5.978   1.724   5.595
 2222SOL     OW 7564   5.769   0.569   1.304
 2222SOL    HW1 7565   5.696   0.614   1.355
 2222SOL    HW2 7566   5.746   0.473   1.289
 2223SOL     OW 7567   6.045   1.314   5.766
 2223SOL    HW1 7568   5.954   1.314   5.724
 2223SOL    HW2 7569   6.083   1.222   5.764
 2224SOL     OW 7570   6.412   3.832   0.578
 2224SOL    HW1 7571   6.388   3.745   0.620
 2224SOL    HW2 7572   6.330   3.875   0.540
 2225SOL     OW 7573   6.062   6.604   4.471
 2225SOL    HW1 7574   6.068   6.523   4.529
 2225SOL    HW2 7575   6.152   6.646   4.462
 2226SOL     OW 7576   3.974   5.231   0.813
 2226SOL    HW1 7577   4.017   5.170   0.880
 2226SOL    HW2 7578   3.878   5.207   0.802
 2227SOL     OW 7579   5.847   2.397   0.075
 2227SOL    HW1 7580   5.908   2.453   0.131
 2227SOL    HW2 7581   5.764   2.449   0.055
 2228SOL     OW 7582   4.389   5.175   0.948
 2228SOL    HW1 7583   4.320   5.138   1.012
 2228SOL    HW2 7584   4.360   5.266   0.917
 2229SOL     OW 7585   4.205   2.894   5.451
 2229SOL    HW1 7586   4.174   2.985   5.478
 2229SOL    HW2 7587   4.140   2.855   5.385
 2230SOL     OW 7588   6.188   6.121   0.620
 2230SOL    HW1 7589   6.185   6.095   0.523
 2230SOL    HW2 7590   6.283   6.121   0.651
 2231SOL     OW 7591   0.422   0.932   1.293
 2231SOL    HW1 7592   0.381   0.908   1.381
 2231SOL    HW2 7593   0.413   1.030   1.277
 2232SOL     OW 7594   0.833   1.700   4.405
 2232SOL    HW1 7595   0.901   1.768   4.378
 2232SOL    HW2 7596   0.811   1.642   4.326
 2233SOL     OW 7597   2.388   3.402   0.524
 2233SOL    HW1 7598   2.421   3.357   0.607
 2233SOL    HW2 7599   2.290   3.420   0.532
 2234SOL     OW 7600   4.203   1.614   1.148
 2234SOL    HW1 7601   4.300   1.595   1.134
 2234SOL    HW2 7602   4.184   1.709   1.125
 2235SOL     OW 7603   2.809   0.255   1.661
 2235SOL    HW1 7604   2.901   0.220   1.677
 2235SOL    HW2 7605   2.810   0.321   1.587
 2236SOL     OW 7606   1.798   4.057   5.833
 2236SOL    HW1 7607   1.860   3.982   5.809
 2236SOL    HW2 7608   1.719   4.021   5.882
 2237SOL     OW 7609   5.535   4.164   4.009
 2237SOL    HW1 7610   5.500   4.179   4.102
 2237SOL    HW2 7611   5.608   4.230   3.990
 2238SOL     OW 7612   4.710   5.285   1.403
 2238SOL    HW1 7613   4.622   5.317   1.369
 2238SOL    HW2 7614   4.701   5.190   1.435
 2239SOL     OW 7615   3.760   4.916   3.943
 2239SOL    HW1 7616   3.716   4.908   3.854
 2239SOL    HW2 7617   3.690   4.927   4.014
 2240SOL     OW 7618   3.401   5.429   3.148
 2240SOL    HW1 7619   3.459   5.369   3.092
 2240SOL    HW2 7620   3.359   5.498   3.089
 2241SOL     OW 7621   0.069   5.664   3.043
 2241SOL    HW1 7622   0.060   5.574   3.085
 2241SOL    HW2 7623   0.126   5.722   3.101
 2242SOL     OW 7624   5.201   3.061   2.888
 2242SOL    HW1 7625   5.209   2.968   2.852
 2242SOL    HW2 7626   5.126   3.109   2.843
 2243SOL     OW 7627   1.687   6.362   5.703
 2243SOL    HW1 7628   1.656   6.369   5.609
 2243SOL    HW2 7629   1.710   6.454   5.737
 2244SOL     OW 7630   2.331   0.059   1.058
 2244SOL    HW1 7631   2.382   0.016   1.132
 2244SOL    HW2 7632   2.273   0.131   1.095
 2245SOL     OW 7633   0.862   1.641   1.922
 2245SOL    HW1 7634   0.873   1.563   1.861
 2245SOL    HW2 7635   0.792   1.621   1.990
 2246SOL     OW 7636   1.785   0.873   4.095
 2246SOL    HW1 7637   1.820   0.935   4.166
 2246SOL    HW2 7638   1.706   0.823   4.131
 2247SOL     OW 7639   3.197   2.998   3.585
 2247SOL    HW1 7640   3.110   2.955   3.609
 2247SOL    HW2 7641   3.232   2.958   3.501
 2248SOL     OW 7642   6.541   3.945   5.137
 2248SOL    HW1 7643   6.553   3.873   5.068
 2248SOL    HW2 7644   6.482   4.017   5.100
 2249SOL     OW 7645   5.836   6.810   4.011
 2249SOL    HW1 7646   5.742   6.787   4.036
 2249SOL    HW2 7647   5.865   6.753   3.934
 2250SOL     OW 7648   3.597   3.491   4.774
 2250SOL    HW1 7649   3.630   3.435   4.851
 2250SOL    HW2 7650   3.565   3.579   4.809
 2251SOL     OW 7651   4.991   0.365   6.678
 2251SOL    HW1 7652   5.053   0.367   6.600
 2251SOL    HW2 7653   4.908   0.315   6.653
 2252SOL     OW 7654   4.507   2.082   2.573
 2252SOL    HW1 7655   4.477   1.988   2.587
 2252SOL    HW2 7656   4.574   2.106   2.643
 2253SOL     OW 7657   0.015   3.737   6.805
 2253SOL    HW1 7658   0.091   3.799   6.788
 2253SOL    HW2 7659   7.013   3.691   6.720
 2254SOL     OW 7660   3.485   2.889   4.579
 2254SOL    HW1 7661   3.510   2.921   4.670
 2254SOL    HW2 7662   3.558   2.829   4.544
 2255SOL     OW 7663   3.915   3.283   6.065
 2255SOL    HW1 7664   3.943   3.323   6.153
 2255SOL    HW2 7665   3.827   3.323   6.037
 2256SOL     OW 7666   4.899   6.403   2.436
 2256SOL    HW1 7667   4.871   6.497   2.414
 2256SOL    HW2 7668   4.961   6.405   2.514
 2257SOL     OW 7669   0.078   1.464   4.267
 2257SOL    HW1 7670   0.076   1.380   4.213
 2257SOL    HW2 7671   7.020   1.518   4.246
 2258SOL     OW 7672   1.569   5.376   4.245
 2258SOL    HW1 7673   1.611   5.352   4.332
 2258SOL    HW2 7674   1.546   5.473   4.244
 2259SOL     OW 7675   5.066   3.009   5.627
 2259SOL    HW1 7676   4.987   3.069   5.635
 2259SOL    HW2 7677   5.149   3.061   5.648
 2260SOL     OW 7678   0.565   4.641   1.413
 2260SOL    HW1 7679   0.585   4.581   1.491
 2260SOL    HW2 7680   0.636   4.711   1.405
 2261SOL     OW 7681   5.339   5.041   0.100
 2261SOL    HW1 7682   5.433   5.010   0.108
 2261SOL    HW2 7683   5.337   5.128   0.050
 2262SOL     OW 7684   5.994   0.710   3.802
 2262SOL    HW1 7685   5.954   0.618   3.803
 2262SOL    HW2 7686   5.938   0.771   3.859
 2263SOL     OW 7687   3.382   5.985   0.213
 2263SOL    HW1 7688   3.455   5.917   0.221
 2263SOL    HW2 7689   3.313   5.970   0.284
 2264SOL     OW 7690   3.032   5.519   6.791
 2264SOL    HW1 7691   3.031   5.474   6.881
 2264SOL    HW2 7692   2.943   5.562   6.775
 2265SOL     OW 7693   1.727   0.845   3.827
 2265SOL    HW1 7694   1.751   0.861   3.923
 2265SOL    HW2 7695   1.774   0.763   3.794
 2266SOL     OW 7696   5.508   1.529   0.284
 2266SOL    HW1 7697   5.557   1.493   0.364
 2266SOL    HW2 7698   5.409   1.525   0.301
 2267SOL     OW 7699   4.709   2.781   4.532
 2267SOL    HW1 7700   4.667   2.737   4.611
 2267SOL    HW2 7701   4.724   2.878   4.552
 2268SOL     OW 7702   5.923   4.207   6.596
 2268SOL    HW1 7703   5.891   4.114   6.580
 2268SOL    HW2 7704   5.846   4.271   6.589
 2269SOL     OW 7705   6.790   4.977   5.595
 2269SOL    HW1 7706   6.856   4.931   5.654
 2269SOL    HW2 7707   6.815   5.073   5.584
 2270SOL     OW 7708   2.902   2.501   5.855
 2270SOL    HW1 7709   2.901   2.487   5.756
 2270SOL    HW2 7710   2.825   2.558   5.881
 2271SOL     OW 7711   5.449   4.268   0.136
 2271SOL    HW1 7712   5.394   4.352   0.131
 2271SOL    HW2 7713   5.545   4.292   0.152
 2272SOL     OW 7714   6.260   2.123   6.539
 2272SOL    HW1 7715   6.184   2.090   6.483
 2272SOL    HW2 7716   6.278   2.058   6.613
 2273SOL     OW 7717   1.886   1.352   1.840
 2273SOL    HW1 7718   1.847   1.298   1.765
 2273SOL    HW2 7719   1.966   1.304   1.878
 2274SOL     OW 7720   1.002   2.048   6.046
 2274SOL    HW1 7721   1.097   2.052   6.076
 2274SOL    HW2 7722   0.947   2.111   6.100
 2275SOL     OW 7723   6.316   6.291   4.746
 2275SOL    HW1 7724   6.348   6.222   4.680
 2275SOL    HW2 7725   6.337   6.382   4.711
 2276SOL     OW 7726   2.445   5.677   1.971
 2276SOL    HW1 7727   2.490   5.678   1.882
 2276SOL    HW2 7728   2.433   5.771   2.003
 2277SOL     OW 7729   4.108   3.778   4.145
 2277SOL    HW1 7730   4.138   3.781   4.241
 2277SOL    HW2 7731   4.082   3.870   4.116
 2278SOL     OW 7732   6.081   4.538   4.453
 2278SOL    HW1 7733   6.178   4.551   4.474
 2278SOL    HW2 7734   6.068   4.449   4.408
 2279SOL     OW 7735   5.514   6.836   5.839
 2279SOL    HW1 7736   5.443   6.895   5.801
 2279SOL    HW2 7737   5.494   6.741   5.815
 2280SOL     OW 7738   7.008   6.942   4.806
 2280SOL    HW1 7739   6.951   7.001   4.865
 2280SOL    HW2 7740   6.960   6.857   4.789
 2281SOL     OW 7741   3.161   0.936   2.155
 2281SOL    HW1 7742   3.255   0.927   2.120
 2281SOL    HW2 7743   3.125   1.026   2.131
 2282SOL     OW 7744   5.766   0.110   5.016
 2282SOL    HW1 7745   5.854   0.095   5.060
 2282SOL    HW2 7746   5.772   0.188   4.954
 2283SOL     OW 7747   1.226   5.711   1.727
 2283SOL    HW1 7748   1.249   5.807   1.715
 2283SOL    HW2 7749   1.127   5.701   1.736
 2284SOL     OW 7750   1.770   2.695   6.991
 2284SOL    HW1 7751   1.852   2.752   6.987
 2284SOL    HW2 7752   1.796   2.602   7.018
 2285SOL     OW 7753   1.994   2.674   1.400
 2285SOL    HW1 7754   2.009   2.680   1.301
 2285SOL    HW2 7755   2.014   2.763   1.442
 2286SOL     OW 7756   6.014   0.206   3.635
 2286SOL    HW1 7757   5.959   0.126   3.657
 2286SOL    HW2 7758   5.988   0.241   3.545
 2287SOL     OW 7759   2.406   7.020   3.439
 2287SOL    HW1 7760   2.317   7.022   3.392
 2287SOL    HW2 7761   2.476   6.985   3.377
 2288SOL     OW 7762   5.758   4.819   4.038
 2288SOL    HW1 7763   5.835   4.864   3.995
 2288SOL    HW2 7764   5.736   4.864   4.125
 2289SOL     OW 7765   0.629   5.222   0.664
 2289SOL    HW1 7766   0.604   5.140   0.611
 2289SOL    HW2 7767   0.616   5.303   0.606
 2290SOL     OW 7768   0.573   3.819   0.740
 2290SOL    HW1 7769   0.570   3.841   0.643
 2290SOL    HW2 7770   0.620   3.892   0.790
 2291SOL     OW 7771   2.059   2.410   5.227
 2291SOL    HW1 7772   2.018   2.323   5.254
 2291SOL    HW2 7773   2.020   2.483   5.283
 2292SOL     OW 7774   0.459   2.075   4.389
 2292SOL    HW1 7775   0.395   2.007   4.424
 2292SOL    HW2 7776   0.431   2.103   4.297
 2293SOL     OW 7777   4.823   5.617   1.939
 2293SOL    HW1 7778   4.784   5.560   1.867
 2293SOL    HW2 7779   4.905   5.663   1.905
 2294SOL     OW 7780   3.412   0.570   6.964
 2294SOL    HW1 7781   3.359   0.518   6.897
 2294SOL    HW2 7782   3.424   0.664   6.932
 2295SOL     OW 7783   0.863   1.944   3.074
 2295SOL    HW1 7784   0.949   1.893   3.070
 2295SOL    HW2 7785   0.819   1.942   2.984
 2296SOL     OW 7786   4.759   5.165   0.624
 2296SOL    HW1 7787   4.822   5.147   0.699
 2296SOL    HW2 7788   4.810   5.175   0.539
 2297SOL     OW 7789   4.410   4.246   5.310
 2297SOL    HW1 7790   4.504   4.245   5.274
 2297SOL    HW2 7791   4.354   4.306   5.254
 2298SOL     OW 7792   4.203   3.004   1.454
 2298SOL    HW1 7793   4.180   2.937   1.525
 2298SOL    HW2 7794   4.122   3.060   1.435
 2299SOL     OW 7795   4.392   6.166   5.313
 2299SOL    HW1 7796   4.444   6.082   5.308
 2299SOL    HW2 7797   4.321   6.167   5.242
 2300SOL     OW 7798   2.160   5.497   2.630
 2300SOL    HW1 7799   2.199   5.477   2.721
 2300SOL    HW2 7800   2.235   5.512   2.565
 2301SOL     OW 7801   2.998   3.104   2.890
 2301SOL    HW1 7802   3.029   3.053   2.809
 2301SOL    HW2 7803   3.072   3.162   2.923
 2302SOL     OW 7804   3.557   0.188   0.608
 2302SOL    HW1 7805   3.528   0.125   0.679
 2302SOL    HW2 7806   3.602   0.268   0.649
 2303SOL     OW 7807   2.139   3.023   5.938
 2303SOL    HW1 7808   2.187   3.071   6.011
 2303SOL    HW2 7809   2.112   2.932   5.969
 2304SOL     OW 7810   4.408   6.676   3.802
 2304SOL    HW1 7811   4.497   6.674   3.758
 2304SOL    HW2 7812   4.416   6.716   3.894
 2305SOL     OW 7813   2.751   6.251   2.804
 2305SOL    HW1 7814   2.757   6.280   2.899
 2305SOL    HW2 7815   2.844   6.248   2.765
 2306SOL     OW 7816   2.333   5.114   2.220
 2306SOL    HW1 7817   2.319   5.135   2.317
 2306SOL    HW2 7818   2.245   5.102   2.175
 2307SOL     OW 7819   0.490   4.135   2.863
 2307SOL    HW1 7820   0.443   4.211   2.909
 2307SOL    HW2 7821   0.448   4.049   2.891
 2308SOL     OW 7822   1.487   6.401   0.576
 2308SOL    HW1 7823   1.448   6.440   0.493
 2308SOL    HW2 7824   1.414   6.360   0.631
 2309SOL     OW 7825   2.045   6.497   6.806
 2309SOL    HW1 7826   2.140   6.510   6.775
 2309SOL    HW2 7827   1.983   6.515   6.730
 2310SOL     OW 7828   5.560   6.407   1.189
 2310SOL    HW1 7829   5.585   6.465   1.266
 2310SOL    HW2 7830   5.467   6.372   1.201
 2311SOL     OW 7831   1.939   5.926   1.859
 2311SOL    HW1 7832   1.969   5.907   1.765
 2311SOL    HW2 7833   1.858   5.984   1.858
 2312SOL     OW 7834   3.697   6.639   4.160
 2312SOL    HW1 7835   3.678   6.561   4.101
 2312SOL    HW2 7836   3.792   6.667   4.150
 2313SOL     OW 7837   4.950   5.397   1.446
 2313SOL    HW1 7838   4.941   5.485   1.399
 2313SOL    HW2 7839   4.862   5.349   1.444
 2314SOL     OW 7840   5.379   0.305   5.027
 2314SOL    HW1 7841   5.434   0.325   5.107
 2314SOL    HW2 7842   5.438   0.286   4.949
 2315SOL     OW 7843   4.889   3.160   5.383
 2315SOL    HW1 7844   4.791   3.149   5.401
 2315SOL    HW2 7845   4.902   3.227   5.309
 2316SOL     OW 7846   2.930   0.594   4.177
 2316SOL    HW1 7847   2.853   0.651   4.149
 2316SOL    HW2 7848   2.906   0.497   4.166
 2317SOL     OW 7849   6.995   6.179   3.536
 2317SOL    HW1 7850   0.028   6.261   3.545
 2317SOL    HW2 7851   0.006   6.123   3.460
 2318SOL     OW 7852   2.189   2.725   4.340
 2318SOL    HW1 7853   2.234   2.693   4.423
 2318SOL    HW2 7854   2.165   2.647   4.283
 2319SOL     OW 7855   2.510   5.503   4.470
 2319SOL    HW1 7856   2.597   5.544   4.441
 2319SOL    HW2 7857   2.485   5.429   4.407
 2320SOL     OW 7858   1.039   3.051   4.953
 2320SOL    HW1 7859   1.016   3.097   4.868
 2320SOL    HW2 7860   1.138   3.055   4.967
 2321SOL     OW 7861   2.183   6.275   0.099
 2321SOL    HW1 7862   2.282   6.267   0.108
 2321SOL    HW2 7863   2.157   6.259   0.004
 2322SOL     OW 7864   1.585   3.476   3.306
 2322SOL    HW1 7865   1.575   3.411   3.231
 2322SOL    HW2 7866   1.562   3.568   3.275
 2323SOL     OW 7867   3.397   4.923   1.645
 2323SOL    HW1 7868   3.440   4.953   1.730
 2323SOL    HW2 7869   3.463   4.928   1.570
 2324SOL     OW 7870   6.673   5.689   1.018
 2324SOL    HW1 7871   6.704   5.617   0.955
 2324SOL    HW2 7872   6.752   5.725   1.068
 2325SOL     OW 7873   1.019   4.627   1.452
 2325SOL    HW1 7874   0.986   4.601   1.361
 2325SOL    HW2 7875   0.947   4.677   1.501
 2326SOL     OW 7876   3.736   5.350   6.445
 2326SOL    HW1 7877   3.834   5.331   6.451
 2326SOL    HW2 7878   3.698   5.358   6.537
 2327SOL     OW 7879   6.587   1.464   4.125
 2327SOL    HW1 7880   6.623   1.393   4.185
 2327SOL    HW2 7881   6.660   1.498   4.066
 2328SOL     OW 7882   1.872   1.889   2.907
 2328SOL    HW1 7883   1.874   1.795   2.874
 2328SOL    HW2 7884   1.796   1.901   2.971
 2329SOL     OW 7885   1.273   4.308   4.477
 2329SOL    HW1 7886   1.308   4.402   4.473
 2329SOL    HW2 7887   1.316   4.260   4.554
 2330SOL     OW 7888   1.011   3.916   1.364
 2330SOL    HW1 7889   1.099   3.873   1.344
 2330SOL    HW2 7890   1.014   3.960   1.453
 2331SOL     OW 7891   4.192   5.580   6.645
 2331SOL    HW1 7892   4.129   5.648   6.608
 2331SOL    HW2 7893   4.270   5.571   6.583
 2332SOL     OW 7894   5.429   1.560   5.339
 2332SOL    HW1 7895   5.385   1.647   5.319
 2332SOL    HW2 7896   5.505   1.574   5.402
 2333SOL     OW 7897   0.165   4.517   3.351
 2333SOL    HW1 7898   0.099   4.574   3.301
 2333SOL    HW2 7899   0.257   4.555   3.340
 2334SOL     OW 7900   2.296   0.784   0.074
 2334SOL    HW1 7901   2.260   0.865   0.026
 2334SOL    HW2 7902   2.394   0.795   0.088
 2335SOL     OW 7903   6.136   1.236   3.365
 2335SOL    HW1 7904   6.075   1.168   3.406
 2335SOL    HW2 7905   6.215   1.249   3.425
 2336SOL     OW 7906   4.502   2.498   4.984
 2336SOL    HW1 7907   4.407   2.469   4.972
 2336SOL    HW2 7908   4.515   2.536   5.076
 2337SOL     OW 7909   4.620   1.085   1.906
 2337SOL    HW1 7910   4.704   1.036   1.927
 2337SOL    HW2 7911   4.546   1.051   1.965
 2338SOL     OW 7912   1.029   2.748   5.953
 2338SOL    HW1 7913   1.091   2.757   6.030
 2338SOL    HW2 7914   1.056   2.812   5.881
 2339SOL     OW 7915   3.113   3.491   4.413
 2339SOL    HW1 7916   3.041   3.488   4.482
 2339SOL    HW2 7917   3.175   3.567   4.432
 2340SOL     OW 7918   5.844   4.324   0.394
 2340SOL    HW1 7919   5.847   4.225   0.406
 2340SOL    HW2 7920   5.934   4.356   0.363
 2341SOL     OW 7921   4.244   4.601   1.768
 2341SOL    HW1 7922   4.228   4.581   1.671
 2341SOL    HW2 7923   4.271   4.517   1.815
 2342SOL     OW 7924   0.509   0.516   4.802
 2342SOL    HW1 7925   0.547   0.448   4.739
 2342SOL    HW2 7926   0.583   0.574   4.836
 2343SOL     OW 7927   2.143   5.594   3.278
 2343SOL    HW1 7928   2.229   5.646   3.275
 2343SOL    HW2 7929   2.136   5.547   3.366
 2344SOL     OW 7930   1.910   6.318   0.199
 2344SOL    HW1 7931   1.899   6.415   0.222
 2344SOL    HW2 7932   2.004   6.301   0.170
 2345SOL     OW 7933   3.506   5.733   4.514
 2345SOL    HW1 7934   3.560   5.718   4.432
 2345SOL    HW2 7935   3.485   5.646   4.557
 2346SOL     OW 7936   3.928   2.918   5.556
 2346SOL    HW1 7937   3.834   2.926   5.522
 2346SOL    HW2 7938   3.968   2.832   5.523
 2347SOL     OW 7939   2.909   2.838   1.551
 2347SOL    HW1 7940   2.838   2.836   1.622
 2347SOL    HW2 7941   2.912   2.750   1.505
 2348SOL     OW 7942   2.550   0.221   3.548
 2348SOL    HW1 7943   2.604   0.201   3.630
 2348SOL    HW2 7944   2.531   0.137   3.498
 2349SOL     OW 7945   0.582   4.442   6.710
 2349SOL    HW1 7946   0.601   4.454   6.612
 2349SOL    HW2 7947   0.667   4.450   6.762
 2350SOL     OW 7948   4.105   6.794   6.347
 2350SOL    HW1 7949   4.031   6.856   6.324
 2350SOL    HW2 7950   4.073   6.727   6.415
 2351SOL     OW 7951   2.803   5.242   3.737
 2351SOL    HW1 7952   2.894   5.223   3.774
 2351SOL    HW2 7953   2.787   5.185   3.657
 2352SOL     OW 7954   0.937   4.975   2.488
 2352SOL    HW1 7955   0.943   4.985   2.389
 2352SOL    HW2 7956   0.936   5.065   2.531
 2353SOL     OW 7957   2.821   4.511   6.264
 2353SOL    HW1 7958   2.737   4.538   6.217
 2353SOL    HW2 7959   2.891   4.582   6.250
 2354SOL     OW 7960   3.282   1.361   5.543
 2354SOL    HW1 7961   3.282   1.284   5.606
 2354SOL    HW2 7962   3.285   1.327   5.449
 2355SOL     OW 7963   2.443   5.578   0.386
 2355SOL    HW1 7964   2.524   5.574   0.328
 2355SOL    HW2 7965   2.431   5.671   0.420
 2356SOL     OW 7966   1.453   3.730   6.862
 2356SOL    HW1 7967   1.411   3.818   6.887
 2356SOL    HW2 7968   1.547   3.728   6.894
 2357SOL     OW 7969   4.389   6.872   2.908
 2357SOL    HW1 7970   4.446   6.950   2.936
 2357SOL    HW2 7971   4.297   6.883   2.944
 2358SOL     OW 7972   4.291   5.017   5.277
 2358SOL    HW1 7973   4.273   4.930   5.231
 2358SOL    HW2 7974   4.244   5.091   5.229
 2359SOL     OW 7975   6.035   0.826   5.906
 2359SOL    HW1 7976   6.063   0.740   5.861
 2359SOL    HW2 7977   5.937   0.842   5.888
 2360SOL     OW 7978   5.540   4.685   6.995
 2360SOL    HW1 7979   5.446   4.697   0.003
 2360SOL    HW2 7980   5.603   4.726   0.038
 2361SOL     OW 7981   2.138   0.924   4.909
 2361SOL    HW1 7982   2.129   1.022   4.924
 2361SOL    HW2 7983   2.169   0.907   4.815
 2362SOL     OW 7984   2.153   7.022   4.897
 2362SOL    HW1 7985   2.180   6.999   4.804
 2362SOL    HW2 7986   2.194   0.086   4.923
 2363SOL     OW 7987   4.479   2.298   5.193
 2363SOL    HW1 7988   4.526   2.210   5.196
 2363SOL    HW2 7989   4.546   2.371   5.182
 2364SOL     OW 7990   0.870   1.550   2.565
 2364SOL    HW1 7991   0.785   1.602   2.580
 2364SOL    HW2 7992   0.948   1.612   2.570
 2365SOL     OW 7993   6.823   2.829   6.610
 2365SOL    HW1 7994   6.918   2.851   6.635
 2365SOL    HW2 7995   6.791   2.754   6.667
 2366SOL     OW 7996   1.378   5.380   6.323
 2366SOL    HW1 7997   1.450   5.395   6.391
 2366SOL    HW2 7998   1.416   5.390   6.231
 2367SOL     OW 7999   2.751   4.674   0.655
 2367SOL    HW1 8000   2.771   4.657   0.751
 2367SOL    HW2 8001   2.748   4.588   0.605
 2368SOL     OW 8002   4.446   0.213   3.357
 2368SOL    HW1 8003   4.414   0.142   3.420
 2368SOL    HW2 8004   4.388   0.294   3.367
 2369SOL     OW 8005   0.785   2.636   5.913
 2369SOL    HW1 8006   0.873   2.674   5.942
 2369SOL    HW2 8007   0.711   2.681   5.963
 2370SOL     OW 8008   5.222   3.417   7.001
 2370SOL    HW1 8009   5.260   3.366   0.056
 2370SOL    HW2 8010   5.138   3.372   6.971
 2371SOL     OW 8011   0.583   0.180   2.148
 2371SOL    HW1 8012   0.565   0.188   2.050
 2371SOL    HW2 8013   0.612   0.269   2.184
 2372SOL     OW 8014   6.760   2.399   2.134
 2372SOL    HW1 8015   6.744   2.342   2.215
 2372SOL    HW2 8016   6.676   2.447   2.110
 2373SOL     OW 8017   0.289   1.296   0.445
 2373SOL    HW1 8018   0.384   1.317   0.468
 2373SOL    HW2 8019   0.228   1.352   0.502
 2374SOL     OW 8020   5.895   1.160   3.986
 2374SOL    HW1 8021   5.976   1.182   4.040
 2374SOL    HW2 8022   5.825   1.230   4.002
 2375SOL     OW 8023   2.726   6.954   4.789
 2375SOL    HW1 8024   2.711   6.967   4.691
 2375SOL    HW2 8025   2.781   0.006   4.825
 2376SOL     OW 8026   6.408   2.876   4.143
 2376SOL    HW1 8027   6.388   2.889   4.045
 2376SOL    HW2 8028   6.350   2.803   4.179
 2377SOL     OW 8029   3.501   4.078   3.375
 2377SOL    HW1 8030   3.515   4.121   3.465
 2377SOL    HW2 8031   3.577   4.102   3.315
 2378SOL     OW 8032   5.179   2.550   0.072
 2378SOL    HW1 8033   5.202   2.453   0.076
 2378SOL    HW2 8034   5.254   2.604   0.111
 2379SOL     OW 8035   5.608   2.261   6.699
 2379SOL    HW1 8036   5.536   2.199   6.670
 2379SOL    HW2 8037   5.569   2.335   6.754
 2380SOL     OW 8038   0.812   0.228   5.929
 2380SOL    HW1 8039   0.823   0.169   5.849
 2380SOL    HW2 8040   0.883   0.206   5.996
 2381SOL     OW 8041   2.103   3.867   4.442
 2381SOL    HW1 8042   2.113   3.891   4.539
 2381SOL    HW2 8043   2.014   3.825   4.428
 2382SOL     OW 8044   2.355   4.449   3.855
 2382SOL    HW1 8045   2.354   4.417   3.950
 2382SOL    HW2 8046   2.312   4.380   3.797
 2383SOL     OW 8047   6.105   6.457   1.335
 2383SOL    HW1 8048   6.033   6.515   1.373
 2383SOL    HW2 8049   6.152   6.409   1.408
 2384SOL     OW 8050   6.483   6.923   2.777
 2384SOL    HW1 8051   6.459   6.866   2.855
 2384SOL    HW2 8052   6.579   6.953   2.785
 2385SOL     OW 8053   0.636   6.228   1.067
 2385SOL    HW1 8054   0.731   6.247   1.044
 2385SOL    HW2 8055   0.580   6.309   1.050
 2386SOL     OW 8056   5.295   4.897   4.235
 2386SOL    HW1 8057   5.348   4.978   4.262
 2386SOL    HW2 8058   5.320   4.870   4.143
 2387SOL     OW 8059   1.427   1.451   3.612
 2387SOL    HW1 8060   1.441   1.365   3.661
 2387SOL    HW2 8061   1.366   1.510   3.666
 2388SOL     OW 8062   1.562   2.456   3.549
 2388SOL    HW1 8063   1.656   2.454   3.584
 2388SOL    HW2 8064   1.563   2.447   3.450
 2389SOL     OW 8065   4.870   3.652   2.747
 2389SOL    HW1 8066   4.934   3.680   2.818
 2389SOL    HW2 8067   4.817   3.731   2.716
 2390SOL     OW 8068   4.003   3.858   3.126
 2390SOL    HW1 8069   4.017   3.765   3.162
 2390SOL    HW2 8070   3.986   3.920   3.202
 2391SOL     OW 8071   4.674   4.641   5.815
 2391SOL    HW1 8072   4.716   4.729   5.834
 2391SOL    HW2 8073   4.739   4.568   5.839
 2392SOL     OW 8074   3.591   6.657   5.598
 2392SOL    HW1 8075   3.628   6.583   5.654
 2392SOL    HW2 8076   3.615   6.641   5.502
 2393SOL     OW 8077   4.970   3.724   6.024
 2393SOL    HW1 8078   4.926   3.791   5.964
 2393SOL    HW2 8079   4.958   3.632   5.987
 2394SOL     OW 8080   1.690   3.266   4.336
 2394SOL    HW1 8081   1.595   3.293   4.319
 2394SOL    HW2 8082   1.723   3.210   4.260
 2395SOL     OW 8083   6.275   2.715   7.019
 2395SOL    HW1 8084   6.325   2.666   0.067
 2395SOL    HW2 8085   6.318   2.698   6.930
 2396SOL     OW 8086   4.366   4.904   0.995
 2396SOL    HW1 8087   4.426   4.980   0.970
 2396SOL    HW2 8088   4.417   4.818   0.985
 2397SOL     OW 8089   0.452   4.064   6.902
 2397SOL    HW1 8090   0.494   4.115   6.827
 2397SOL    HW2 8091   0.385   4.000   6.865
 2398SOL     OW 8092   2.816   3.900   6.731
 2398SOL    HW1 8093   2.819   3.887   6.830
 2398SOL    HW2 8094   2.854   3.820   6.685
 2399SOL     OW 8095   4.345   1.463   2.395
 2399SOL    HW1 8096   4.325   1.478   2.298
 2399SOL    HW2 8097   4.299   1.380   2.426
 2400SOL     OW 8098   2.989   4.684   6.993
 2400SOL    HW1 8099   3.065   4.623   7.014
 2400SOL    HW2 8100   2.983   4.697   6.894
 2401SOL     OW 8101   3.638   6.639   6.050
 2401SOL    HW1 8102   3.583   6.616   6.129
 2401SOL    HW2 8103   3.730   6.667   6.080
 2402SOL     OW 8104   0.282   0.784   3.893
 2402SOL    HW1 8105   0.325   0.757   3.807
 2402SOL    HW2 8106   0.276   0.884   3.897
 2403SOL     OW 8107   1.990   2.852   0.935
 2403SOL    HW1 8108   2.046   2.856   0.852
 2403SOL    HW2 8109   1.898   2.885   0.915
 2404SOL     OW 8110   4.829   0.944   1.148
 2404SOL    HW1 8111   4.767   0.866   1.142
 2404SOL    HW2 8112   4.909   0.929   1.090
 2405SOL     OW 8113   3.808   3.371   2.754
 2405SOL    HW1 8114   3.827   3.431   2.832
 2405SOL    HW2 8115   3.816   3.424   2.669
 2406SOL     OW 8116   2.745   6.346   3.072
 2406SOL    HW1 8117   2.771   6.442   3.072
 2406SOL    HW2 8118   2.772   6.304   3.159
 2407SOL     OW 8119   5.149   2.249   2.598
 2407SOL    HW1 8120   5.052   2.257   2.576
 2407SOL    HW2 8121   5.177   2.328   2.653
 2408SOL     OW 8122   4.282   5.013   3.522
 2408SOL    HW1 8123   4.230   5.095   3.546
 2408SOL    HW2 8124   4.220   4.945   3.483
 2409SOL     OW 8125   1.153   3.711   2.100
 2409SOL    HW1 8126   1.249   3.708   2.127
 2409SOL    HW2 8127   1.140   3.664   2.013
 2410SOL     OW 8128   5.094   2.535   5.708
 2410SOL    HW1 8129   5.022   2.465   5.695
 2410SOL    HW2 8130   5.051   2.625   5.716
 2411SOL     OW 8131   4.440   5.094   5.474
 2411SOL    HW1 8132   4.533   5.101   5.438
 2411SOL    HW2 8133   4.377   5.073   5.399
 2412SOL     OW 8134   4.488   4.647   1.290
 2412SOL    HW1 8135   4.519   4.589   1.215
 2412SOL    HW2 8136   4.389   4.659   1.285
 2413SOL     OW 8137   6.362   2.448   0.986
 2413SOL    HW1 8138   6.340   2.544   1.005
 2413SOL    HW2 8139   6.277   2.395   0.983
 2414SOL     OW 8140   4.804   4.163   2.395
 2414SOL    HW1 8141   4.724   4.212   2.429
 2414SOL    HW2 8142   4.816   4.181   2.297
 2415SOL     OW 8143   6.856   6.820   1.703
 2415SOL    HW1 8144   6.860   6.801   1.801
 2415SOL    HW2 8145   6.825   6.914   1.688
 2416SOL     OW 8146   4.135   2.125   5.149
 2416SOL    HW1 8147   4.039   2.108   5.125
 2416SOL    HW2 8148   4.188   2.041   5.135
 2417SOL     OW 8149   3.711   3.703   6.167
 2417SOL    HW1 8150   3.789   3.765   6.158
 2417SOL    HW2 8151   3.642   3.725   6.098
 2418SOL     OW 8152   3.059   3.935   3.687
 2418SOL    HW1 8153   3.154   3.905   3.680
 2418SOL    HW2 8154   3.050   4.002   3.760
 2419SOL     OW 8155   0.787   6.153   4.751
 2419SOL    HW1 8156   0.843   6.236   4.756
 2419SOL    HW2 8157   0.806   6.096   4.831
 2420SOL     OW 8158   3.122   1.228   1.992
 2420SOL    HW1 8159   3.215   1.232   2.029
 2420SOL    HW2 8160   3.075   1.313   2.014
 2421SOL     OW 8161   2.600   1.527   4.930
 2421SOL    HW1 8162   2.622   1.430   4.926
 2421SOL    HW2 8163   2.645   1.575   4.854
 2422SOL     OW 8164   5.944   0.668   1.629
 2422SOL    HW1 8165   6.032   0.631   1.601
 2422SOL    HW2 8166   5.902   0.607   1.696
 2423SOL     OW 8167   0.938   6.027   3.440
 2423SOL    HW1 8168   0.929   6.018   3.340
 2423SOL    HW2 8169   0.861   5.981   3.484
 2424SOL     OW 8170   6.137   6.688   6.538
 2424SOL    HW1 8171   6.135   6.637   6.624
 2424SOL    HW2 8172   6.166   6.627   6.464
 2425SOL     OW 8173   6.335   0.148   4.118
 2425SOL    HW1 8174   6.343   0.050   4.138
 2425SOL    HW2 8175   6.244   0.168   4.082
 2426SOL     OW 8176   1.184   5.541   4.478
 2426SOL    HW1 8177   1.186   5.480   4.399
 2426SOL    HW2 8178   1.189   5.487   4.562
 2427SOL     OW 8179   5.752   5.150   5.534
 2427SOL    HW1 8180   5.668   5.203   5.521
 2427SOL    HW2 8181   5.808   5.192   5.606
 2428SOL     OW 8182   6.246   0.075   3.678
 2428SOL    HW1 8183   6.266   0.031   3.590
 2428SOL    HW2 8184   6.171   0.139   3.667
 2429SOL     OW 8185   5.341   5.167   3.640
 2429SOL    HW1 8186   5.363   5.238   3.573
 2429SOL    HW2 8187   5.246   5.178   3.670
 2430SOL     OW 8188   6.396   2.030   1.181
 2430SOL    HW1 8189   6.436   1.968   1.113
 2430SOL    HW2 8190   6.445   2.118   1.177
 2431SOL     OW 8191   4.554   0.844   2.847
 2431SOL    HW1 8192   4.477   0.780   2.849
 2431SOL    HW2 8193   4.633   0.800   2.804
 2432SOL     OW 8194   3.447   6.621   2.893
 2432SOL    HW1 8195   3.470   6.654   2.985
 2432SOL    HW2 8196   3.406   6.695   2.840
 2433SOL     OW 8197   3.301   0.652   1.500
 2433SOL    HW1 8198   3.394   0.616   1.511
 2433SOL    HW2 8199   3.285   0.674   1.404
 2434SOL     OW 8200   4.532   0.373   5.047
 2434SOL    HW1 8201   4.460   0.441   5.037
 2434SOL    HW2 8202   4.607   0.395   4.985
 2435SOL     OW 8203   4.464   4.797   6.433
 2435SOL    HW1 8204   4.370   4.831   6.443
 2435SOL    HW2 8205   4.529   4.869   6.457
 2436SOL     OW 8206   1.621   5.976   1.661
 2436SOL    HW1 8207   1.575   5.974   1.750
 2436SOL    HW2 8208   1.583   5.906   1.602
 2437SOL     OW 8209   5.079   5.897   6.759
 2437SOL    HW1 8210   5.128   5.852   6.684
 2437SOL    HW2 8211   5.137   5.968   6.798
 2438SOL     OW 8212   3.826   1.219   6.121
 2438SOL    HW1 8213   3.889   1.209   6.199
 2438SOL    HW2 8214   3.765   1.140   6.118
 2439SOL     OW 8215   1.000   4.646   6.459
 2439SOL    HW1 8216   0.923   4.651   6.523
 2439SOL    HW2 8217   0.968   4.615   6.370
 2440SOL     OW 8218   4.894   5.669   5.599
 2440SOL    HW1 8219   4.989   5.691   5.579
 2440SOL    HW2 8220   4.875   5.687   5.696
 2441SOL     OW 8221   0.584   0.501   6.843
 2441SOL    HW1 8222   0.615   0.407   6.857
 2441SOL    HW2 8223   0.517   0.525   6.913
 2442SOL     OW 8224   6.915   4.643   5.049
 2442SOL    HW1 8225   6.829   4.609   5.087
 2442SOL    HW2 8226   6.905   4.741   5.028
 2443SOL     OW 8227   4.295   5.860   5.673
 2443SOL    HW1 8228   4.383   5.817   5.657
 2443SOL    HW2 8229   4.237   5.851   5.592
 2444SOL     OW 8230   2.945   4.266   6.270
 2444SOL    HW1 8231   2.932   4.219   6.357
 2444SOL    HW2 8232   2.887   4.347   6.267
 2445SOL     OW 8233   0.297   0.446   2.083
 2445SOL    HW1 8234   0.243   0.364   2.105
 2445SOL    HW2 8235   0.325   0.442   1.987
 2446SOL     OW 8236   0.193   4.875   3.808
 2446SOL    HW1 8237   0.223   4.951   3.866
 2446SOL    HW2 8238   0.093   4.869   3.810
 2447SOL     OW 8239   2.264   2.292   1.048
 2447SOL    HW1 8240   2.223   2.326   1.133
 2447SOL    HW2 8241   2.362   2.315   1.047
 2448SOL     OW 8242   0.606   0.240   4.392
 2448SOL    HW1 8243   0.676   0.168   4.389
 2448SOL    HW2 8244   0.515   0.197   4.392
 2449SOL     OW 8245   0.202   5.098   0.999
 2449SOL    HW1 8246   0.135   5.128   1.067
 2449SOL    HW2 8247   0.170   5.121   0.907
 2450SOL     OW 8248   2.511   4.934   3.138
 2450SOL    HW1 8249   2.483   4.906   3.047
 2450SOL    HW2 8250   2.453   4.888   3.206
 2451SOL     OW 8251   0.790   0.359   3.290
 2451SOL    HW1 8252   0.701   0.393   3.259
 2451SOL    HW2 8253   0.776   0.277   3.346
 2452SOL     OW 8254   1.502   3.285   2.751
 2452SOL    HW1 8255   1.524   3.380   2.731
 2452SOL    HW2 8256   1.510   3.231   2.667
 2453SOL     OW 8257   5.975   4.032   1.026
 2453SOL    HW1 8258   5.961   3.982   1.111
 2453SOL    HW2 8259   6.021   3.973   0.959
 2454SOL     OW 8260   2.890   1.192   0.734
 2454SOL    HW1 8261   2.925   1.228   0.647
 2454SOL    HW2 8262   2.794   1.219   0.745
 2455SOL     OW 8263   5.418   6.003   0.531
 2455SOL    HW1 8264   5.500   6.031   0.482
 2455SOL    HW2 8265   5.402   5.905   0.516
 2456SOL     OW 8266   5.879   6.667   1.112
 2456SOL    HW1 8267   5.890   6.620   1.200
 2456SOL    HW2 8268   5.857   6.763   1.128
 2457SOL     OW 8269   6.436   6.483   0.231
 2457SOL    HW1 8270   6.455   6.453   0.325
 2457SOL    HW2 8271   6.522   6.483   0.179
 2458SOL     OW 8272   2.867   5.934   3.454
 2458SOL    HW1 8273   2.926   5.987   3.515
 2458SOL    HW2 8274   2.904   5.841   3.445
 2459SOL     OW 8275   2.484   6.823   0.689
 2459SOL    HW1 8276   2.389   6.853   0.700
 2459SOL    HW2 8277   2.505   6.816   0.592
 2460SOL     OW 8278   1.748   0.777   1.073
 2460SOL    HW1 8279   1.794   0.728   0.999
 2460SOL    HW2 8280   1.809   0.784   1.152
 2461SOL     OW 8281   4.846   0.836   3.000
 2461SOL    HW1 8282   4.800   0.913   2.957
 2461SOL    HW2 8283   4.858   0.853   3.097
 2462SOL     OW 8284   2.454   5.652   0.020
 2462SOL    HW1 8285   2.449   5.655   6.943
 2462SOL    HW2 8286   2.436   5.742   0.057
 2463SOL     OW 8287   5.892   2.680   3.992
 2463SOL    HW1 8288   5.811   2.644   3.946
 2463SOL    HW2 8289   5.924   2.763   3.946
 2464SOL     OW 8290   1.081   5.306   1.591
 2464SOL    HW1 8291   1.123   5.239   1.652
 2464SOL    HW2 8292   1.131   5.393   1.596
 2465SOL     OW 8293   0.156   5.440   1.406
 2465SOL    HW1 8294   0.203   5.528   1.406
 2465SOL    HW2 8295   0.188   5.385   1.328
 2466SOL     OW 8296   3.401   0.507   1.784
 2466SOL    HW1 8297   3.457   0.561   1.722
 2466SOL    HW2 8298   3.304   0.527   1.768
 2467SOL     OW 8299   5.592   0.628   5.763
 2467SOL    HW1 8300   5.543   0.621   5.676
 2467SOL    HW2 8301   5.535   0.673   5.830
 2468SOL     OW 8302   6.608   6.222   2.241
 2468SOL    HW1 8303   6.532   6.286   2.226
 2468SOL    HW2 8304   6.596   6.142   2.182
 2469SOL     OW 8305   3.817   4.197   5.552
 2469SOL    HW1 8306   3.913   4.225   5.556
 2469SOL    HW2 8307   3.771   4.246   5.478
 2470SOL     OW 8308   2.523   3.941   6.089
 2470SOL    HW1 8309   2.461   3.879   6.041
 2470SOL    HW2 8310   2.612   3.941   6.044
 2471SOL     OW 8311   1.744   6.917   0.811
 2471SOL    HW1 8312   1.742   6.840   0.874
 2471SOL    HW2 8313   1.663   6.974   0.824
 2472SOL     OW 8314   5.362   1.163   4.638
 2472SOL    HW1 8315   5.279   1.207   4.604
 2472SOL    HW2 8316   5.404   1.220   4.708
 2473SOL     OW 8317   2.180   4.157   4.892
 2473SOL    HW1 8318   2.247   4.216   4.848
 2473SOL    HW2 8319   2.226   4.097   4.958
 2474SOL     OW 8320   6.928   4.972   0.211
 2474SOL    HW1 8321   6.983   5.039   0.260
 2474SOL    HW2 8322   6.956   4.880   0.236
 2475SOL     OW 8323   4.174   2.120   0.637
 2475SOL    HW1 8324   4.252   2.143   0.695
 2475SOL    HW2 8325   4.094   2.102   0.694
 2476SOL     OW 8326   0.576   2.512   3.032
 2476SOL    HW1 8327   0.567   2.582   3.103
 2476SOL    HW2 8328   0.636   2.438   3.065
 2477SOL     OW 8329   6.064   7.017   1.892
 2477SOL    HW1 8330   6.088   0.072   1.949
 2477SOL    HW2 8331   5.966   7.019   1.872
 2478SOL     OW 8332   5.240   6.918   2.710
 2478SOL    HW1 8333   5.250   6.989   2.780
 2478SOL    HW2 8334   5.234   6.829   2.754
 2479SOL     OW 8335   0.742   3.426   1.423
 2479SOL    HW1 8336   0.645   3.415   1.446
 2479SOL    HW2 8337   0.770   3.354   1.360
 2480SOL     OW 8338   6.955   2.995   1.056
 2480SOL    HW1 8339   6.960   2.963   1.150
 2480SOL    HW2 8340   6.900   2.932   1.002
 2481SOL     OW 8341   3.481   6.135   0.480
 2481SOL    HW1 8342   3.536   6.170   0.555
 2481SOL    HW2 8343   3.535   6.070   0.426
 2482SOL     OW 8344   4.575   3.132   5.980
 2482SOL    HW1 8345   4.671   3.113   5.961
 2482SOL    HW2 8346   4.542   3.203   5.918
 2483SOL     OW 8347   2.295   1.328   0.539
 2483SOL    HW1 8348   2.271   1.412   0.588
 2483SOL    HW2 8349   2.376   1.344   0.483
 2484SOL     OW 8350   1.944   0.668   0.893
 2484SOL    HW1 8351   1.951   0.605   0.970
 2484SOL    HW2 8352   2.004   0.637   0.819
 2485SOL     OW 8353   4.911   5.268   2.654
 2485SOL    HW1 8354   4.959   5.346   2.694
 2485SOL    HW2 8355   4.961   5.235   2.574
 2486SOL     OW 8356   1.893   5.736   3.193
 2486SOL    HW1 8357   1.956   5.666   3.227
 2486SOL    HW2 8358   1.942   5.795   3.128
 2487SOL     OW 8359   4.169   6.144   0.131
 2487SOL    HW1 8360   4.253   6.176   0.085
 2487SOL    HW2 8361   4.090   6.169   0.076
 2488SOL     OW 8362   2.782   4.325   1.684
 2488SOL    HW1 8363   2.818   4.342   1.592
 2488SOL    HW2 8364   2.824   4.388   1.749
 2489SOL     OW 8365   2.372   5.242   4.207
 2489SOL    HW1 8366   2.283   5.217   4.170
 2489SOL    HW2 8367   2.385   5.341   4.198
 2490SOL     OW 8368   6.298   5.088   1.085
 2490SOL    HW1 8369   6.299   4.990   1.107
 2490SOL    HW2 8370   6.316   5.140   1.168
 2491SOL     OW 8371   3.097   5.929   2.775
 2491SOL    HW1 8372   3.178   5.893   2.822
 2491SOL    HW2 8373   3.015   5.897   2.821
 2492SOL     OW 8374   4.082   3.033   6.353
 2492SOL    HW1 8375   4.134   3.106   6.397
 2492SOL    HW2 8376   3.985   3.057   6.351
 2493SOL     OW 8377   6.137   7.002   2.651
 2493SOL    HW1 8378   6.213   7.021   2.714
 2493SOL    HW2 8379   6.056   6.975   2.704
 2494SOL     OW 8380   4.862   2.988   2.707
 2494SOL    HW1 8381   4.868   2.915   2.775
 2494SOL    HW2 8382   4.954   3.008   2.672
 2495SOL     OW 8383   5.026   1.259   5.178
 2495SOL    HW1 8384   4.986   1.287   5.090
 2495SOL    HW2 8385   5.066   1.338   5.224
 2496SOL     OW 8386   1.368   5.081   0.323
 2496SOL    HW1 8387   1.400   5.158   0.268
 2496SOL    HW2 8388   1.398   4.995   0.281
 2497SOL     OW 8389   0.290   1.664   0.276
 2497SOL    HW1 8390   0.384   1.651   0.307
 2497SOL    HW2 8391   0.227   1.654   0.353
 2498SOL     OW 8392   2.154   3.073   3.817
 2498SOL    HW1 8393   2.207   3.036   3.741
 2498SOL    HW2 8394   2.201   3.055   3.903
 2499SOL     OW 8395   5.462   0.381   4.497
 2499SOL    HW1 8396   5.559   0.372   4.471
 2499SOL    HW2 8397   5.410   0.411   4.417
 2500SOL     OW 8398   4.737   3.767   6.293
 2500SOL    HW1 8399   4.643   3.791   6.317
 2500SOL    HW2 8400   4.751   3.668   6.305
 2501SOL     OW 8401   5.951   4.147   6.901
 2501SOL    HW1 8402   6.008   4.073   6.937
 2501SOL    HW2 8403   5.935   4.133   6.803
 2502SOL     OW 8404   2.648   6.867   3.809
 2502SOL    HW1 8405   2.572   6.888   3.747
 2502SOL    HW2 8406   2.613   6.846   3.900
 2503SOL     OW 8407   4.099   5.627   6.066
 2503SOL    HW1 8408   4.034   5.698   6.092
 2503SOL    HW2 8409   4.118   5.569   6.146
 2504SOL     OW 8410   2.314   4.734   4.914
 2504SOL    HW1 8411   2.393   4.705   4.966
 2504SOL    HW2 8412   2.231   4.693   4.952
 2505SOL     OW 8413   3.710   5.830   4.697
 2505SOL    HW1 8414   3.652   5.767   4.645
 2505SOL    HW2 8415   3.653   5.903   4.736
 2506SOL     OW 8416   6.449   3.363   5.834
 2506SOL    HW1 8417   6.520   3.325   5.776
 2506SOL    HW2 8418   6.366   3.307   5.826
 2507SOL     OW 8419   5.945   5.061   0.499
 2507SOL    HW1 8420   5.922   5.135   0.562
 2507SOL    HW2 8421   5.880   4.986   0.511
 2508SOL     OW 8422   3.031   2.237   1.687
 2508SOL    HW1 8423   3.016   2.295   1.768
 2508SOL    HW2 8424   3.085   2.287   1.620
 2509SOL     OW 8425   5.961   2.006   2.392
 2509SOL    HW1 8426   6.020   1.933   2.358
 2509SOL    HW2 8427   5.965   2.084   2.330
 2510SOL     OW 8428   2.949   4.454   0.368
 2510SOL    HW1 8429   3.008   4.374   0.353
 2510SOL    HW2 8430   2.882   4.433   0.439
 2511SOL     OW 8431   1.381   1.211   4.554
 2511SOL    HW1 8432   1.469   1.252   4.529
 2511SOL    HW2 8433   1.320   1.211   4.475
 2512SOL     OW 8434   5.419   4.245   4.237
 2512SOL    HW1 8435   5.332   4.219   4.278
 2512SOL    HW2 8436   5.481   4.278   4.309
 2513SOL     OW 8437   0.663   2.462   6.565
 2513SOL    HW1 8438   0.633   2.556   6.581
 2513SOL    HW2 8439   0.659   2.411   6.651
 2514SOL     OW 8440   0.336   1.692   4.523
 2514SOL    HW1 8441   0.265   1.628   4.553
 2514SOL    HW2 8442   0.295   1.782   4.507
 2515SOL     OW 8443   1.145   6.601   0.723
 2515SOL    HW1 8444   1.069   6.605   0.787
 2515SOL    HW2 8445   1.119   6.646   0.637
 2516SOL     OW 8446   6.201   5.560   2.993
 2516SOL    HW1 8447   6.145   5.545   2.911
 2516SOL    HW2 8448   6.219   5.473   3.037
 2517SOL     OW 8449   2.192   4.258   6.266
 2517SOL    HW1 8450   2.200   4.270   6.167
 2517SOL    HW2 8451   2.255   4.186   6.296
 2518SOL     OW 8452   2.015   2.846   6.931
 2518SOL    HW1 8453   2.078   2.789   6.880
 2518SOL    HW2 8454   2.061   2.929   6.960
 2519SOL     OW 8455   4.666   5.526   4.344
 2519SOL    HW1 8456   4.751   5.572   4.317
 2519SOL    HW2 8457   4.675   5.491   4.438
 2520SOL     OW 8458   1.550   3.604   0.829
 2520SOL    HW1 8459   1.576   3.631   0.922
 2520SOL    HW2 8460   1.607   3.527   0.800
 2521SOL     OW 8461   1.055   7.020   5.507
 2521SOL    HW1 8462   1.018   0.076   5.459
 2521SOL    HW2 8463   1.154   7.017   5.496
 2522SOL     OW 8464   1.426   3.281   4.332
 2522SOL    HW1 8465   1.401   3.252   4.424
 2522SOL    HW2 8466   1.347   3.322   4.287
 2523SOL     OW 8467   6.482   3.148   1.003
 2523SOL    HW1 8468   6.447   3.233   0.963
 2523SOL    HW2 8469   6.574   3.164   1.040
 2524SOL     OW 8470   0.415   5.982   4.085
 2524SOL    HW1 8471   0.501   5.940   4.115
 2524SOL    HW2 8472   0.342   5.915   4.090
 2525SOL     OW 8473   0.719   4.228   4.116
 2525SOL    HW1 8474   0.810   4.268   4.113
 2525SOL    HW2 8475   0.726   4.129   4.124
 2526SOL     OW 8476   0.604   2.753   5.144
 2526SOL    HW1 8477   0.593   2.844   5.185
 2526SOL    HW2 8478   0.576   2.756   5.049
 2527SOL     OW 8479   5.759   6.656   5.435
 2527SOL    HW1 8480   5.669   6.647   5.476
 2527SOL    HW2 8481   5.808   6.569   5.440
 2528SOL     OW 8482   5.724   4.916   0.559
 2528SOL    HW1 8483   5.707   5.013   0.542
 2528SOL    HW2 8484   5.654   4.881   0.621
 2529SOL     OW 8485   5.038   5.136   5.639
 2529SOL    HW1 8486   5.003   5.227   5.660
 2529SOL    HW2 8487   5.035   5.079   5.721
 2530SOL     OW 8488   0.914   6.086   3.816
 2530SOL    HW1 8489   0.941   6.138   3.735
 2530SOL    HW2 8490   0.925   5.988   3.798
 2531SOL     OW 8491   5.339   6.900   4.947
 2531SOL    HW1 8492   5.326   6.805   4.976
 2531SOL    HW2 8493   5.430   6.931   4.974
 2532SOL     OW 8494   0.738   5.711   0.883
 2532SOL    HW1 8495   0.711   5.790   0.938
 2532SOL    HW2 8496   0.728   5.734   0.786
 2533SOL     OW 8497   5.496   6.483   4.845
 2533SOL    HW1 8498   5.451   6.411   4.897
 2533SOL    HW2 8499   5.588   6.452   4.819
 2534SOL     OW 8500   2.764   0.241   3.165
 2534SOL    HW1 8501   2.665   0.238   3.152
 2534SOL    HW2 8502   2.809   0.222   3.078
 2535SOL     OW 8503   1.837   2.295   4.971
 2535SOL    HW1 8504   1.885   2.324   4.888
 2535SOL    HW2 8505   1.739   2.287   4.952
 2536SOL     OW 8506   6.727   1.117   4.052
 2536SOL    HW1 8507   6.657   1.048   4.032
 2536SOL    HW2 8508   6.701   1.168   4.135
 2537SOL     OW 8509   4.947   6.776   0.856
 2537SOL    HW1 8510   4.936   6.748   0.761
 2537SOL    HW2 8511   4.859   6.768   0.903
 2538SOL     OW 8512   1.516   4.610   4.940
 2538SOL    HW1 8513   1.477   4.625   5.031
 2538SOL    HW2 8514   1.576   4.529   4.943
 2539SOL     OW 8515   4.554   6.949   5.171
 2539SOL    HW1 8516   4.517   6.856   5.172
 2539SOL    HW2 8517   4.540   6.992   5.260
 2540SOL     OW 8518   5.552   0.687   1.431
 2540SOL    HW1 8519   5.482   0.704   1.500
 2540SOL    HW2 8520   5.545   0.755   1.359
 2541SOL     OW 8521   1.850   0.254   5.307
 2541SOL    HW1 8522   1.942   0.275   5.276
 2541SOL    HW2 8523   1.823   0.163   5.275
 2542SOL     OW 8524   4.382   1.920   4.613
 2542SOL    HW1 8525   4.366   2.013   4.580
 2542SOL    HW2 8526   4.479   1.907   4.631
 2543SOL     OW 8527   1.005   0.549   3.269
 2543SOL    HW1 8528   0.935   0.479   3.282
 2543SOL    HW2 8529   1.074   0.540   3.341
 2544SOL     OW 8530   0.348   4.759   1.519
 2544SOL    HW1 8531   0.368   4.855   1.539
 2544SOL    HW2 8532   0.419   4.722   1.459
 2545SOL     OW 8533   1.813   1.951   1.065
 2545SOL    HW1 8534   1.801   1.982   0.971
 2545SOL    HW2 8535   1.756   2.006   1.126
 2546SOL     OW 8536   6.488   3.740   1.780
 2546SOL    HW1 8537   6.395   3.703   1.771
 2546SOL    HW2 8538   6.550   3.686   1.724
 2547SOL     OW 8539   5.489   5.399   0.922
 2547SOL    HW1 8540   5.448   5.321   0.969
 2547SOL    HW2 8541   5.516   5.468   0.990
 2548SOL     OW 8542   1.973   0.007   4.555
 2548SOL    HW1 8543   1.916   0.051   4.625
 2548SOL    HW2 8544   1.935   0.024   4.465
 2549SOL     OW 8545   1.847   2.949   1.893
 2549SOL    HW1 8546   1.945   2.963   1.876
 2549SOL    HW2 8547   1.834   2.922   1.989
 2550SOL     OW 8548   5.379   0.056   6.865
 2550SOL    HW1 8549   5.379   0.120   6.942
 2550SOL    HW2 8550   5.338   6.992   6.894
 2551SOL     OW 8551   3.536   4.412   0.183
 2551SOL    HW1 8552   3.526   4.490   0.121
 2551SOL    HW2 8553   3.469   4.342   0.159
 2552SOL     OW 8554   2.414   5.144   6.592
 2552SOL    HW1 8555   2.409   5.065   6.531
 2552SOL    HW2 8556   2.357   5.217   6.556
 2553SOL     OW 8557   3.934   2.408   6.162
 2553SOL    HW1 8558   3.888   2.407   6.073
 2553SOL    HW2 8559   3.877   2.359   6.229
 2554SOL     OW 8560   2.076   5.700   0.025
 2554SOL    HW1 8561   2.119   5.649   0.100
 2554SOL    HW2 8562   2.001   5.755   0.061
 2555SOL     OW 8563   6.519   6.137   6.368
 2555SOL    HW1 8564   6.446   6.117   6.433
 2555SOL    HW2 8565   6.598   6.173   6.417
 2556SOL     OW 8566   4.143   0.397   0.785
 2556SOL    HW1 8567   4.172   0.475   0.840
 2556SOL    HW2 8568   4.060   0.357   0.824
 2557SOL     OW 8569   3.136   0.828   6.863
 2557SOL    HW1 8570   3.081   0.798   6.785
 2557SOL    HW2 8571   3.215   0.880   6.829
 2558SOL     OW 8572   5.578   4.105   5.898
 2558SOL    HW1 8573   5.608   4.045   5.972
 2558SOL    HW2 8574   5.482   4.086   5.876
 2559SOL     OW 8575   6.692   3.342   3.485
 2559SOL    HW1 8576   6.790   3.324   3.480
 2559SOL    HW2 8577   6.664   3.342   3.581
 2560SOL     OW 8578   5.084   3.522   3.522
 2560SOL    HW1 8579   5.007   3.479   3.571
 2560SOL    HW2 8580   5.084   3.620   3.542
 2561SOL     OW 8581   3.816   1.020   3.647
 2561SOL    HW1 8582   3.776   1.008   3.738
 2561SOL    HW2 8583   3.904   0.971   3.642
 2562SOL     OW 8584   3.523   6.644   3.181
 2562SOL    HW1 8585   3.486   6.600   3.262
 2562SOL    HW2 8586   3.574   6.577   3.126
 2563SOL     OW 8587   3.302   1.665   6.728
 2563SOL    HW1 8588   3.242   1.674   6.807
 2563SOL    HW2 8589   3.327   1.756   6.694
 2564SOL     OW 8590   2.026   0.327   0.293
 2564SOL    HW1 8591   1.928   0.310   0.279
 2564SOL    HW2 8592   2.076   0.303   0.210
 2565SOL     OW 8593   0.744   1.557   6.288
 2565SOL    HW1 8594   0.829   1.598   6.254
 2565SOL    HW2 8595   0.766   1.475   6.342
 2566SOL     OW 8596   2.363   6.706   1.209
 2566SOL    HW1 8597   2.444   6.760   1.186
 2566SOL    HW2 8598   2.287   6.733   1.150
 2567SOL     OW 8599   1.540   1.303   0.471
 2567SOL    HW1 8600   1.539   1.386   0.415
 2567SOL    HW2 8601   1.635   1.276   0.488
 2568SOL     OW 8602   2.866   6.916   1.038
 2568SOL    HW1 8603   2.905   7.008   1.048
 2568SOL    HW2 8604   2.811   6.911   0.955
 2569SOL     OW 8605   2.979   1.445   1.368
 2569SOL    HW1 8606   3.005   1.450   1.271
 2569SOL    HW2 8607   3.054   1.406   1.421
 2570SOL     OW 8608   5.774   5.782   6.091
 2570SOL    HW1 8609   5.790   5.683   6.094
 2570SOL    HW2 8610   5.796   5.822   6.180
 2571SOL     OW 8611   3.701   2.903   4.833
 2571SOL    HW1 8612   3.767   2.974   4.808
 2571SOL    HW2 8613   3.749   2.818   4.855
 2572SOL     OW 8614   3.122   5.917   1.608
 2572SOL    HW1 8615   3.086   5.887   1.697
 2572SOL    HW2 8616   3.222   5.908   1.608
 2573SOL     OW 8617   6.464   2.661   3.815
 2573SOL    HW1 8618   6.477   2.685   3.719
 2573SOL    HW2 8619   6.454   2.562   3.824
 2574SOL     OW 8620   6.349   2.941   1.133
 2574SOL    HW1 8621   6.390   3.020   1.087
 2574SOL    HW2 8622   6.265   2.970   1.179
 2575SOL     OW 8623   5.148   3.553   0.990
 2575SOL    HW1 8624   5.077   3.580   1.054
 2575SOL    HW2 8625   5.107   3.532   0.901
 2576SOL     OW 8626   3.111   6.746   3.256
 2576SOL    HW1 8627   3.168   6.822   3.225
 2576SOL    HW2 8628   3.159   6.660   3.241
 2577SOL     OW 8629   4.145   0.482   4.085
 2577SOL    HW1 8630   4.067   0.475   4.024
 2577SOL    HW2 8631   4.115   0.516   4.174
 2578SOL     OW 8632   5.014   2.834   5.074
 2578SOL    HW1 8633   4.917   2.857   5.076
 2578SOL    HW2 8634   5.068   2.918   5.074
 2579SOL     OW 8635   0.957   1.631   5.554
 2579SOL    HW1 8636   1.002   1.542   5.542
 2579SOL    HW2 8637   0.976   1.689   5.475
 2580SOL     OW 8638   1.559   2.546   5.480
 2580SOL    HW1 8639   1.501   2.470   5.452
 2580SOL    HW2 8640   1.638   2.511   5.530
 2581SOL     OW 8641   5.691   5.057   1.834
 2581SOL    HW1 8642   5.756   5.034   1.761
 2581SOL    HW2 8643   5.604   5.085   1.794
 2582SOL     OW 8644   2.261   5.206   3.090
 2582SOL    HW1 8645   2.352   5.247   3.097
 2582SOL    HW2 8646   2.191   5.276   3.102
 2583SOL     OW 8647   1.003   0.877   1.348
 2583SOL    HW1 8648   1.018   0.778   1.344
 2583SOL    HW2 8649   0.996   0.913   1.255
 2584SOL     OW 8650   3.725   6.683   1.069
 2584SOL    HW1 8651   3.783   6.717   0.995
 2584SOL    HW2 8652   3.655   6.622   1.031
 2585SOL     OW 8653   3.280   0.418   0.973
 2585SOL    HW1 8654   3.291   0.517   0.962
 2585SOL    HW2 8655   3.332   0.388   1.054
 2586SOL     OW 8656   5.609   1.531   5.006
 2586SOL    HW1 8657   5.593   1.629   4.995
 2586SOL    HW2 8658   5.534   1.491   5.058
 2587SOL     OW 8659   6.769   0.077   4.547
 2587SOL    HW1 8660   6.788   7.012   4.505
 2587SOL    HW2 8661   6.800   0.151   4.487
 2588SOL     OW 8662   5.571   0.081   1.107
 2588SOL    HW1 8663   5.479   0.058   1.140
 2588SOL    HW2 8664   5.565   0.161   1.047
 2589SOL     OW 8665   6.986   6.964   5.458
 2589SOL    HW1 8666   7.017   6.960   5.552
 2589SOL    HW2 8667   6.893   7.001   5.455
 2590SOL     OW 8668   3.914   6.810   2.286
 2590SOL    HW1 8669   3.924   6.897   2.237
 2590SOL    HW2 8670   3.922   6.826   2.384
 2591SOL     OW 8671   5.466   6.016   0.810
 2591SOL    HW1 8672   5.546   6.060   0.768
 2591SOL    HW2 8673   5.453   5.925   0.770
 2592SOL     OW 8674   2.912   6.015   1.415
 2592SOL    HW1 8675   2.824   5.971   1.436
 2592SOL    HW2 8676   2.973   6.005   1.493
 2593SOL     OW 8677   4.371   6.884   2.557
 2593SOL    HW1 8678   4.348   6.868   2.653
 2593SOL    HW2 8679   4.384   6.981   2.541
 2594SOL     OW 8680   0.502   0.138   6.006
 2594SOL    HW1 8681   0.579   0.077   6.021
 2594SOL    HW2 8682   0.458   0.157   6.094
 2595SOL     OW 8683   0.510   2.064   5.216
 2595SOL    HW1 8684   0.453   2.003   5.161
 2595SOL    HW2 8685   0.478   2.158   5.205
 2596SOL     OW 8686   3.726   2.488   1.669
 2596SOL    HW1 8687   3.679   2.425   1.732
 2596SOL    HW2 8688   3.682   2.578   1.672
 2597SOL     OW 8689   1.713   3.829   0.797
 2597SOL    HW1 8690   1.792   3.842   0.857
 2597SOL    HW2 8691   1.637   3.790   0.850
 2598SOL     OW 8692   6.380   2.706   4.594
 2598SOL    HW1 8693   6.417   2.640   4.530
 2598SOL    HW2 8694   6.284   2.726   4.570
 2599SOL     OW 8695   3.678   5.862   6.677
 2599SOL    HW1 8696   3.737   5.784   6.696
 2599SOL    HW2 8697   3.584   5.831   6.663
 2600SOL     OW 8698   4.821   3.784   4.111
 2600SOL    HW1 8699   4.819   3.717   4.185
 2600SOL    HW2 8700   4.805   3.876   4.149
 2601SOL     OW 8701   3.021   2.458   6.662
 2601SOL    HW1 8702   3.069   2.542   6.638
 2601SOL    HW2 8703   2.923   2.476   6.669
 2602SOL     OW 8704   0.262   4.670   4.023
 2602SOL    HW1 8705   0.236   4.590   3.968
 2602SOL    HW2 8706   0.196   4.743   4.007
 2603SOL     OW 8707   2.896   2.582   1.441
 2603SOL    HW1 8708   2.827   2.620   1.379
 2603SOL    HW2 8709   2.888   2.482   1.442
 2604SOL     OW 8710   5.076   0.927   0.995
 2604SOL    HW1 8711   5.030   0.860   0.937
 2604SOL    HW2 8712   5.142   0.979   0.940
 2605SOL     OW 8713   4.513   5.269   3.091
 2605SOL    HW1 8714   4.582   5.313   3.033
 2605SOL    HW2 8715   4.502   5.174   3.064
 2606SOL     OW 8716   6.976   4.718   0.254
 2606SOL    HW1 8717   6.908   4.685   0.319
 2606SOL    HW2 8718   0.030   4.653   0.251
 2607SOL     OW 8719   0.539   1.670   4.854
 2607SOL    HW1 8720   0.560   1.708   4.764
 2607SOL    HW2 8721   0.468   1.601   4.845
 2608SOL     OW 8722   5.062   6.530   2.641
 2608SOL    HW1 8723   5.089   6.449   2.694
 2608SOL    HW2 8724   4.980   6.570   2.680
 2609SOL     OW 8725   0.750   2.010   2.042
 2609SOL    HW1 8726   0.842   2.046   2.028
 2609SOL    HW2 8727   0.692   2.038   1.965
 2610SOL     OW 8728   6.762   5.263   5.011
 2610SOL    HW1 8729   6.857   5.293   5.010
 2610SOL    HW2 8730   6.737   5.228   4.920
 2611SOL     OW 8731   6.063   6.638   1.599
 2611SOL    HW1 8732   5.984   6.683   1.556
 2611SOL    HW2 8733   6.147   6.666   1.553
 2612SOL     OW 8734   5.950   5.903   4.871
 2612SOL    HW1 8735   6.000   5.989   4.873
 2612SOL    HW2 8736   6.008   5.830   4.909
 2613SOL     OW 8737   3.088   6.148   2.245
 2613SOL    HW1 8738   3.128   6.066   2.285
 2613SOL    HW2 8739   3.113   6.228   2.301
 2614SOL     OW 8740   6.382   6.208   5.929
 2614SOL    HW1 8741   6.428   6.135   5.878
 2614SOL    HW2 8742   6.355   6.281   5.866
 2615SOL     OW 8743   5.654   5.451   3.206
 2615SOL    HW1 8744   5.712   5.504   3.267
 2615SOL    HW2 8745   5.672   5.477   3.111
 2616SOL     OW 8746   4.072   3.574   3.975
 2616SOL    HW1 8747   4.117   3.493   4.014
 2616SOL    HW2 8748   4.109   3.657   4.017
 2617SOL     OW 8749   3.036   5.707   0.980
 2617SOL    HW1 8750   3.093   5.641   1.029
 2617SOL    HW2 8751   2.958   5.732   1.037
 2618SOL     OW 8752   7.004   6.447   3.631
 2618SOL    HW1 8753   6.963   6.392   3.703
 2618SOL    HW2 8754   0.081   6.439   3.636
 2619SOL     OW 8755   3.983   1.688   2.389
 2619SOL    HW1 8756   3.887   1.709   2.374
 2619SOL    HW2 8757   3.996   1.589   2.395
 2620SOL     OW 8758   1.450   5.921   3.551
 2620SOL    HW1 8759   1.354   5.903   3.529
 2620SOL    HW2 8760   1.506   5.844   3.519
 2621SOL     OW 8761   1.653   6.043   3.418
 2621SOL    HW1 8762   1.582   6.052   3.488
 2621SOL    HW2 8763   1.742   6.030   3.462
 2622SOL     OW 8764   1.787   3.048   6.171
 2622SOL    HW1 8765   1.691   3.060   6.146
 2622SOL    HW2 8766   1.798   3.061   6.270
 2623SOL     OW 8767   4.018   1.227   4.981
 2623SOL    HW1 8768   3.941   1.163   4.979
 2623SOL    HW2 8769   4.037   1.254   5.075
 2624SOL     OW 8770   6.512   2.988   3.082
 2624SOL    HW1 8771   6.591   3.027   3.131
 2624SOL    HW2 8772   6.491   2.898   3.120
 2625SOL     OW 8773   1.343   3.071   5.592
 2625SOL    HW1 8774   1.270   3.007   5.617
 2625SOL    HW2 8775   1.411   3.024   5.536
 2626SOL     OW 8776   0.435   5.839   3.747
 2626SOL    HW1 8777   0.343   5.833   3.708
 2626SOL    HW2 8778   0.478   5.925   3.719
 2627SOL     OW 8779   0.678   0.811   4.608
 2627SOL    HW1 8780   0.664   0.782   4.703
 2627SOL    HW2 8781   0.597   0.789   4.554
 2628SOL     OW 8782   3.664   5.395   6.714
 2628SOL    HW1 8783   3.683   5.493   6.719
 2628SOL    HW2 8784   3.566   5.380   6.726
 2629SOL     OW 8785   3.835   3.986   1.798
 2629SOL    HW1 8786   3.849   3.912   1.863
 2629SOL    HW2 8787   3.818   3.948   1.707
 2630SOL     OW 8788   3.480   1.908   2.382
 2630SOL    HW1 8789   3.482   1.953   2.293
 2630SOL    HW2 8790   3.499   1.975   2.454
 2631SOL     OW 8791   4.210   6.816   3.506
 2631SOL    HW1 8792   4.299   6.776   3.484
 2631SOL    HW2 8793   4.148   6.804   3.429
 2632SOL     OW 8794   3.246   2.125   5.659
 2632SOL    HW1 8795   3.194   2.187   5.718
 2632SOL    HW2 8796   3.339   2.161   5.647
 2633SOL     OW 8797   6.305   2.241   6.201
 2633SOL    HW1 8798   6.330   2.145   6.212
 2633SOL    HW2 8799   6.239   2.250   6.126
 2634SOL     OW 8800   2.014   4.216   3.035
 2634SOL    HW1 8801   2.032   4.314   3.037
 2634SOL    HW2 8802   2.095   4.167   3.005
 2635SOL     OW 8803   5.330   5.634   3.738
 2635SOL    HW1 8804   5.245   5.669   3.699
 2635SOL    HW2 8805   5.309   5.555   3.795
 2636SOL     OW 8806   5.191   0.400   6.443
 2636SOL    HW1 8807   5.268   0.402   6.506
 2636SOL    HW2 8808   5.222   0.376   6.351
 2637SOL     OW 8809   6.284   0.952   3.739
 2637SOL    HW1 8810   6.261   0.863   3.699
 2637SOL    HW2 8811   6.204   1.012   3.735
 2638SOL     OW 8812   6.343   6.847   2.550
 2638SOL    HW1 8813   6.267   6.910   2.539
 2638SOL    HW2 8814   6.404   6.881   2.622
 2639SOL     OW 8815   7.007   6.757   2.219
 2639SOL    HW1 8816   0.024   6.848   2.234
 2639SOL    HW2 8817   6.917   6.753   2.261
 2640SOL     OW 8818   6.864   6.363   5.764
 2640SOL    HW1 8819   6.775   6.396   5.730
 2640SOL    HW2 8820   6.897   6.290   5.704
 2641SOL     OW 8821   6.369   3.233   1.284
 2641SOL    HW1 8822   6.384   3.332   1.283
 2641SOL    HW2 8823   6.301   3.209   1.215
 2642SOL     OW 8824   5.226   0.201   4.533
 2642SOL    HW1 8825   5.224   0.256   4.450
 2642SOL    HW2 8826   5.261   0.109   4.510
 2643SOL     OW 8827   0.777   4.839   3.049
 2643SOL    HW1 8828   0.822   4.751   3.062
 2643SOL    HW2 8829   0.838   4.912   3.080
 2644SOL     OW 8830   0.347   4.327   5.584
 2644SOL    HW1 8831   0.356   4.228   5.587
 2644SOL    HW2 8832   0.311   4.354   5.494
 2645SOL     OW 8833   4.290   6.362   5.114
 2645SOL    HW1 8834   4.299   6.435   5.047
 2645SOL    HW2 8835   4.230   6.392   5.188
 2646SOL     OW 8836   6.574   6.876   6.477
 2646SOL    HW1 8837   6.663   6.873   6.522
 2646SOL    HW2 8838   6.541   6.783   6.462
 2647SOL     OW 8839   5.418   0.743   1.159
 2647SOL    HW1 8840   5.344   0.777   1.217
 2647SOL    HW2 8841   5.455   0.819   1.104
 2648SOL     OW 8842   6.268   6.343   3.700
 2648SOL    HW1 8843   6.291   6.413   3.768
 2648SOL    HW2 8844   6.352   6.311   3.656
 2649SOL     OW 8845   4.163   1.769   5.954
 2649SOL    HW1 8846   4.173   1.734   5.861
 2649SOL    HW2 8847   4.229   1.843   5.969
 2650SOL     OW 8848   1.022   4.265   4.088
 2650SOL    HW1 8849   1.070   4.210   4.019
 2650SOL    HW2 8850   1.034   4.223   4.178
 2651SOL     OW 8851   1.466   1.690   0.843
 2651SOL    HW1 8852   1.466   1.707   0.942
 2651SOL    HW2 8853   1.510   1.602   0.825
 2652SOL     OW 8854   3.000   3.390   3.542
 2652SOL    HW1 8855   2.969   3.356   3.631
 2652SOL    HW2 8856   3.048   3.477   3.555
 2653SOL     OW 8857   4.798   6.791   4.989
 2653SOL    HW1 8858   4.743   6.852   5.046
 2653SOL    HW2 8859   4.812   6.834   4.899
 2654SOL     OW 8860   4.784   3.145   0.461
 2654SOL    HW1 8861   4.777   3.068   0.397
 2654SOL    HW2 8862   4.851   3.211   0.427
 2655SOL     OW 8863   4.631   4.766   4.411
 2655SOL    HW1 8864   4.649   4.671   4.385
 2655SOL    HW2 8865   4.684   4.827   4.352
 2656SOL     OW 8866   4.397   4.634   4.129
 2656SOL    HW1 8867   4.354   4.693   4.197
 2656SOL    HW2 8868   4.466   4.576   4.174
 2657SOL     OW 8869   2.703   4.394   6.490
 2657SOL    HW1 8870   2.741   4.440   6.411
 2657SOL    HW2 8871   2.741   4.433   6.574
 2658SOL     OW 8872   5.919   4.617   6.913
 2658SOL    HW1 8873   5.871   4.678   6.976
 2658SOL    HW2 8874   5.962   4.671   6.840
 2659SOL     OW 8875   6.566   2.540   4.456
 2659SOL    HW1 8876   6.540   2.533   4.359
 2659SOL    HW2 8877   6.572   2.449   4.496
 2660SOL     OW 8878   0.810   1.763   1.017
 2660SOL    HW1 8879   0.771   1.855   1.012
 2660SOL    HW2 8880   0.867   1.747   0.936
 2661SOL     OW 8881   1.815   6.451   1.783
 2661SOL    HW1 8882   1.872   6.461   1.865
 2661SOL    HW2 8883   1.832   6.362   1.742
 2662SOL     OW 8884   4.348   6.977   4.797
 2662SOL    HW1 8885   4.360   0.012   4.877
 2662SOL    HW2 8886   4.425   6.989   4.735
 2663SOL     OW 8887   2.228   5.057   1.057
 2663SOL    HW1 8888   2.325   5.056   1.033
 2663SOL    HW2 8889   2.208   5.137   1.113
 2664SOL     OW 8890   3.618   3.818   3.362
 2664SOL    HW1 8891   3.586   3.759   3.287
 2664SOL    HW2 8892   3.565   3.903   3.362
 2665SOL     OW 8893   3.622   1.865   5.099
 2665SOL    HW1 8894   3.592   1.940   5.039
 2665SOL    HW2 8895   3.603   1.778   5.055
 2666SOL     OW 8896   4.875   3.430   1.104
 2666SOL    HW1 8897   4.830   3.341   1.100
 2666SOL    HW2 8898   4.849   3.484   1.024
 2667SOL     OW 8899   1.191   6.009   4.936
 2667SOL    HW1 8900   1.108   6.053   4.970
 2667SOL    HW2 8901   1.210   5.927   4.990
 2668SOL     OW 8902   6.553   3.573   3.383
 2668SOL    HW1 8903   6.457   3.558   3.360
 2668SOL    HW2 8904   6.600   3.485   3.390
 2669SOL     OW 8905   2.953   4.828   5.546
 2669SOL    HW1 8906   2.958   4.787   5.454
 2669SOL    HW2 8907   3.044   4.827   5.587
 2670SOL     OW 8908   6.352   1.224   6.484
 2670SOL    HW1 8909   6.339   1.128   6.506
 2670SOL    HW2 8910   6.310   1.281   6.555
 2671SOL     OW 8911   2.817   4.361   0.051
 2671SOL    HW1 8912   2.785   4.450   0.084
 2671SOL    HW2 8913   2.754   4.326   7.005
 2672SOL     OW 8914   0.790   5.586   0.016
 2672SOL    HW1 8915   0.746   5.605   0.103
 2672SOL    HW2 8916   0.878   5.634   0.011
 2673SOL     OW 8917   5.267   2.576   3.732
 2673SOL    HW1 8918   5.258   2.666   3.776
 2673SOL    HW2 8919   5.180   2.528   3.736
 2674SOL     OW 8920   2.321   4.228   4.119
 2674SOL    HW1 8921   2.263   4.204   4.196
 2674SOL    HW2 8922   2.391   4.292   4.149
 2675SOL     OW 8923   0.886   4.480   5.098
 2675SOL    HW1 8924   0.826   4.420   5.046
 2675SOL    HW2 8925   0.903   4.441   5.188
 2676SOL     OW 8926   4.335   1.087   2.697
 2676SOL    HW1 8927   4.290   1.029   2.764
 2676SOL    HW2 8928   4.427   1.112   2.729
 2677SOL     OW 8929   3.653   4.945   1.530
 2677SOL    HW1 8930   3.646   4.947   1.430
 2677SOL    HW2 8931   3.695   5.030   1.563
 2678SOL     OW 8932   0.352   4.867   0.696
 2678SOL    HW1 8933   0.289   4.804   0.741
 2678SOL    HW2 8934   0.318   4.961   0.705
 2679SOL     OW 8935   4.420   5.629   1.159
 2679SOL    HW1 8936   4.350   5.680   1.210
 2679SOL    HW2 8937   4.395   5.627   1.062
 2680SOL     OW 8938   1.706   1.320   1.007
 2680SOL    HW1 8939   1.765   1.248   1.043
 2680SOL    HW2 8940   1.671   1.293   0.917
 2681SOL     OW 8941   1.352   2.869   4.123
 2681SOL    HW1 8942   1.400   2.881   4.036
 2681SOL    HW2 8943   1.419   2.868   4.198
 2682SOL     OW 8944   5.439   3.025   2.597
 2682SOL    HW1 8945   5.347   2.988   2.615
 2682SOL    HW2 8946   5.443   3.059   2.503
 2683SOL     OW 8947   1.341   4.095   1.124
 2683SOL    HW1 8948   1.386   4.009   1.146
 2683SOL    HW2 8949   1.361   4.119   1.029
 2684SOL     OW 8950   4.034   5.392   2.436
 2684SOL    HW1 8951   4.113   5.454   2.438
 2684SOL    HW2 8952   3.996   5.389   2.344
 2685SOL     OW 8953   6.513   6.539   5.116
 2685SOL    HW1 8954   6.482   6.452   5.076
 2685SOL    HW2 8955   6.447   6.611   5.094
 2686SOL     OW 8956   1.798   2.277   4.337
 2686SOL    HW1 8957   1.779   2.363   4.385
 2686SOL    HW2 8958   1.816   2.295   4.241
 2687SOL     OW 8959   4.338   4.633   2.593
 2687SOL    HW1 8960   4.404   4.696   2.552
 2687SOL    HW2 8961   4.248   4.649   2.552
 2688SOL     OW 8962   4.419   6.188   6.390
 2688SOL    HW1 8963   4.332   6.208   6.435
 2688SOL    HW2 8964   4.404   6.127   6.312
 2689SOL     OW 8965   2.220   2.030   3.650
 2689SOL    HW1 8966   2.317   2.030   3.674
 2689SOL    HW2 8967   2.165   2.029   3.734
 2690SOL     OW 8968   3.395   3.572   3.522
 2690SOL    HW1 8969   3.296   3.583   3.518
 2690SOL    HW2 8970   3.422   3.491   3.470
 2691SOL     OW 8971   1.867   5.348   2.469
 2691SOL    HW1 8972   1.824   5.363   2.380
 2691SOL    HW2 8973   1.797   5.329   2.538
 2692SOL     OW 8974   5.633   6.012   4.088
 2692SOL    HW1 8975   5.564   5.966   4.144
 2692SOL    HW2 8976   5.697   6.060   4.148
 2693SOL     OW 8977   2.257   4.152   2.957
 2693SOL    HW1 8978   2.266   4.223   3.027
 2693SOL    HW2 8979   2.314   4.176   2.878
 2694SOL     OW 8980   3.505   0.494   3.083
 2694SOL    HW1 8981   3.446   0.457   3.011
 2694SOL    HW2 8982   3.592   0.522   3.044
 2695SOL     OW 8983   5.354   1.774   2.692
 2695SOL    HW1 8984   5.435   1.825   2.721
 2695SOL    HW2 8985   5.281   1.839   2.669
 2696SOL     OW 8986   3.263   2.576   5.336
 2696SOL    HW1 8987   3.353   2.574   5.379
 2696SOL    HW2 8988   3.248   2.491   5.286
 2697SOL     OW 8989   4.672   2.085   4.139
 2697SOL    HW1 8990   4.736   2.106   4.065
 2697SOL    HW2 8991   4.594   2.034   4.102
 2698SOL     OW 8992   1.934   4.937   0.776
 2698SOL    HW1 8993   1.943   5.032   0.805
 2698SOL    HW2 8994   1.932   4.878   0.856
 2699SOL     OW 8995   3.672   5.120   0.142
 2699SOL    HW1 8996   3.664   5.215   0.112
 2699SOL    HW2 8997   3.761   5.084   0.115
 2700SOL     OW 8998   2.033   3.253   1.987
 2700SOL    HW1 8999   2.113   3.311   2.003
 2700SOL    HW2 9000   1.977   3.293   1.914
 2701SOL     OW 9001   3.885   7.003   6.781
 2701SOL    HW1 9002   3.937   6.996   6.696
 2701SOL    HW2 9003   3.948   7.011   6.858
 2702SOL     OW 9004   0.009   1.244   3.003
 2702SOL    HW1 9005   7.002   1.187   2.927
 2702SOL    HW2 9006   6.953   1.291   3.042
 2703SOL     OW 9007   2.270   0.821   2.770
 2703SOL    HW1 9008   2.340   0.837   2.700
 2703SOL    HW2 9009   2.262   0.902   2.828
 2704SOL     OW 9010   1.186   5.610   0.770
 2704SOL    HW1 9011   1.275   5.646   0.800
 2704SOL    HW2 9012   1.131   5.586   0.849
 2705SOL     OW 9013   0.652   5.257   4.192
 2705SOL    HW1 9014   0.715   5.273   4.268
 2705SOL    HW2 9015   0.642   5.158   4.178
 2706SOL     OW 9016   0.515   0.719   1.585
 2706SOL    HW1 9017   0.573   0.799   1.604
 2706SOL    HW2 9018   0.424   0.751   1.558
 2707SOL     OW 9019   2.271   1.031   5.835
 2707SOL    HW1 9020   2.244   0.935   5.832
 2707SOL    HW2 9021   2.356   1.040   5.887
 2708SOL     OW 9022   1.725   3.050   1.664
 2708SOL    HW1 9023   1.764   2.983   1.600
 2708SOL    HW2 9024   1.721   3.009   1.756
 2709SOL     OW 9025   5.670   6.571   0.973
 2709SOL    HW1 9026   5.754   6.592   1.024
 2709SOL    HW2 9027   5.618   6.502   1.022
 2710SOL     OW 9028   6.484   3.803   2.722
 2710SOL    HW1 9029   6.575   3.842   2.727
 2710SOL    HW2 9030   6.488   3.713   2.677
 2711SOL     OW 9031   2.700   6.981   2.625
 2711SOL    HW1 9032   2.698   0.044   2.676
 2711SOL    HW2 9033   2.623   6.924   2.654
 2712SOL     OW 9034   3.970   4.869   0.332
 2712SOL    HW1 9035   3.957   4.822   0.245
 2712SOL    HW2 9036   4.033   4.946   0.319
 2713SOL     OW 9037   1.605   2.798   4.580
 2713SOL    HW1 9038   1.641   2.863   4.646
 2713SOL    HW2 9039   1.539   2.738   4.625
 2714SOL     OW 9040   4.743   2.152   0.352
 2714SOL    HW1 9041   4.759   2.059   0.384
 2714SOL    HW2 9042   4.729   2.152   0.253
 2715SOL     OW 9043   6.086   0.294   0.146
 2715SOL    HW1 9044   6.060   0.293   0.049
 2715SOL    HW2 9045   6.108   0.387   0.174
 2716SOL     OW 9046   6.300   5.101   2.139
 2716SOL    HW1 9047   6.315   5.187   2.091
 2716SOL    HW2 9048   6.226   5.050   2.095
 2717SOL     OW 9049   0.982   5.473   2.123
 2717SOL    HW1 9050   1.044   5.419   2.181
 2717SOL    HW2 9051   0.888   5.458   2.151
 2718SOL     OW 9052   2.001   3.601   4.211
 2718SOL    HW1 9053   1.912   3.590   4.256
 2718SOL    HW2 9054   1.989   3.597   4.112
 2719SOL     OW 9055   4.862   4.671   1.345
 2719SOL    HW1 9056   4.856   4.687   1.246
 2719SOL    HW2 9057   4.816   4.586   1.367
 2720SOL     OW 9058   2.252   6.584   3.994
 2720SOL    HW1 9059   2.332   6.529   3.971
 2720SOL    HW2 9060   2.200   6.537   4.066
 2721SOL     OW 9061   2.671   0.266   5.213
 2721SOL    HW1 9062   2.760   0.313   5.219
 2721SOL    HW2 9063   2.687   0.169   5.194
 2722SOL     OW 9064   6.274   5.256   2.760
 2722SOL    HW1 9065   6.368   5.274   2.731
 2722SOL    HW2 9066   6.264   5.276   2.857
 2723SOL     OW 9067   1.831   0.781   6.705
 2723SOL    HW1 9068   1.834   0.861   6.765
 2723SOL    HW2 9069   1.921   0.765   6.666
 2724SOL     OW 9070   3.236   6.791   5.460
 2724SOL    HW1 9071   3.190   6.820   5.544
 2724SOL    HW2 9072   3.283   6.868   5.419
 2725SOL     OW 9073   6.106   5.232   2.998
 2725SOL    HW1 9074   6.084   5.141   2.962
 2725SOL    HW2 9075   6.026   5.271   3.043
 2726SOL     OW 9076   6.492   4.257   1.666
 2726SOL    HW1 9077   6.523   4.169   1.630
 2726SOL    HW2 9078   6.402   4.247   1.708
 2727SOL     OW 9079   0.413   4.699   2.716
 2727SOL    HW1 9080   0.498   4.648   2.700
 2727SOL    HW2 9081   0.355   4.692   2.634
 2728SOL     OW 9082   3.197   0.709   4.942
 2728SOL    HW1 9083   3.174   0.649   4.865
 2728SOL    HW2 9084   3.180   0.804   4.915
 2729SOL     OW 9085   0.099   5.479   1.796
 2729SOL    HW1 9086   0.068   5.575   1.796
 2729SOL    HW2 9087   0.185   5.472   1.746
 2730SOL     OW 9088   1.368   6.641   0.938
 2730SOL    HW1 9089   1.306   6.651   0.860
 2730SOL    HW2 9090   1.419   6.556   0.929
 2731SOL     OW 9091   3.244   3.372   1.160
 2731SOL    HW1 9092   3.150   3.389   1.189
 2731SOL    HW2 9093   3.249   3.371   1.061
 2732SOL     OW 9094   5.806   3.424   2.262
 2732SOL    HW1 9095   5.790   3.341   2.315
 2732SOL    HW2 9096   5.795   3.504   2.320
 2733SOL     OW 9097   0.525   0.037   5.013
 2733SOL    HW1 9098   0.576   0.077   4.937
 2733SOL    HW2 9099   0.503   0.107   5.080
 2734SOL     OW 9100   2.250   5.435   2.872
 2734SOL    HW1 9101   2.187   5.450   2.948
 2734SOL    HW2 9102   2.344   5.436   2.905
 2735SOL     OW 9103   0.759   3.022   2.676
 2735SOL    HW1 9104   0.736   3.097   2.738
 2735SOL    HW2 9105   0.854   3.031   2.648
 2736SOL     OW 9106   5.063   0.606   4.243
 2736SOL    HW1 9107   4.988   0.590   4.180
 2736SOL    HW2 9108   5.102   0.697   4.226
 2737SOL     OW 9109   3.298   3.366   5.546
 2737SOL    HW1 9110   3.305   3.325   5.637
 2737SOL    HW2 9111   3.365   3.439   5.537
 2738SOL     OW 9112   5.086   5.804   4.755
 2738SOL    HW1 9113   5.126   5.879   4.703
 2738SOL    HW2 9114   5.023   5.753   4.696
 2739SOL     OW 9115   5.934   3.885   0.344
 2739SOL    HW1 9116   5.838   3.869   0.319
 2739SOL    HW2 9117   5.993   3.825   0.290
 2740SOL     OW 9118   5.468   1.956   2.267
 2740SOL    HW1 9119   5.443   1.978   2.362
 2740SOL    HW2 9120   5.567   1.963   2.257
 2741SOL     OW 9121   0.351   1.667   6.160
 2741SOL    HW1 9122   0.305   1.756   6.164
 2741SOL    HW2 9123   0.300   1.601   6.216
 2742SOL     OW 9124   1.518   5.717   6.293
 2742SOL    HW1 9125   1.437   5.724   6.235
 2742SOL    HW2 9126   1.600   5.710   6.235
 2743SOL     OW 9127   5.934   5.252   1.721
 2743SOL    HW1 9128   6.008   5.315   1.743
 2743SOL    HW2 9129   5.848   5.286   1.758
 2744SOL     OW 9130   3.678   2.805   0.079
 2744SOL    HW1 9131   3.637   2.824   7.013
 2744SOL    HW2 9132   3.634   2.724   0.119
 2745SOL     OW 9133   2.310   6.762   6.965
 2745SOL    HW1 9134   2.314   6.682   0.003
 2745SOL    HW2 9135   2.283   6.732   6.874
 2746SOL     OW 9136   1.934   3.129   4.830
 2746SOL    HW1 9137   1.904   3.223   4.822
 2746SOL    HW2 9138   2.020   3.118   4.780
 2747SOL     OW 9139   5.663   4.111   5.054
 2747SOL    HW1 9140   5.719   4.158   4.985
 2747SOL    HW2 9141   5.720   4.084   5.131
 2748SOL     OW 9142   3.382   1.207   2.086
 2748SOL    HW1 9143   3.460   1.249   2.040
 2748SOL    HW2 9144   3.401   1.199   2.184
 2749SOL     OW 9145   5.449   5.017   3.821
 2749SOL    HW1 9146   5.511   5.063   3.885
 2749SOL    HW2 9147   5.418   5.082   3.752
 2750SOL     OW 9148   0.705   5.375   1.123
 2750SOL    HW1 9149   0.688   5.281   1.091
 2750SOL    HW2 9150   0.641   5.397   1.196
 2751SOL     OW 9151   1.728   0.253   6.917
 2751SOL    HW1 9152   1.778   0.169   6.937
 2751SOL    HW2 9153   1.785   0.315   6.864
 2752SOL     OW 9154   5.154   5.751   5.589
 2752SOL    HW1 9155   5.187   5.695   5.513
 2752SOL    HW2 9156   5.189   5.714   5.675
 2753SOL     OW 9157   2.146   6.606   6.508
 2753SOL    HW1 9158   2.069   6.544   6.519
 2753SOL    HW2 9159   2.203   6.575   6.432
 2754SOL     OW 9160   6.497   0.396   4.686
 2754SOL    HW1 9161   6.513   0.312   4.635
 2754SOL    HW2 9162   6.551   0.471   4.646
 2755SOL     OW 9163   3.194   6.458   3.189
 2755SOL    HW1 9164   3.235   6.400   3.259
 2755SOL    HW2 9165   3.200   6.412   3.100
 2756SOL     OW 9166   5.745   4.316   3.972
 2756SOL    HW1 9167   5.774   4.365   3.889
 2756SOL    HW2 9168   5.825   4.298   4.029
 2757SOL     OW 9169   2.898   1.572   6.681
 2757SOL    HW1 9170   2.982   1.521   6.663
 2757SOL    HW2 9171   2.900   1.659   6.632
 2758SOL     OW 9172   5.185   6.007   3.394
 2758SOL    HW1 9173   5.191   6.003   3.294
 2758SOL    HW2 9174   5.094   5.979   3.423
 2759SOL     OW 9175   3.519   4.572   5.401
 2759SOL    HW1 9176   3.474   4.597   5.487
 2759SOL    HW2 9177   3.470   4.495   5.360
 2760SOL     OW 9178   6.175   5.937   2.836
 2760SOL    HW1 9179   6.172   5.864   2.768
 2760SOL    HW2 9180   6.233   5.909   2.913
 2761SOL     OW 9181   1.348   3.568   3.644
 2761SOL    HW1 9182   1.445   3.545   3.634
 2761SOL    HW2 9183   1.292   3.500   3.597
 2762SOL     OW 9184   1.217   2.263   0.111
 2762SOL    HW1 9185   1.214   2.172   0.070
 2762SOL    HW2 9186   1.206   2.332   0.039
 2763SOL     OW 9187   5.520   1.861   5.694
 2763SOL    HW1 9188   5.453   1.789   5.674
 2763SOL    HW2 9189   5.593   1.824   5.751
 2764SOL     OW 9190   0.354   4.877   2.894
 2764SOL    HW1 9191   0.329   4.830   2.979
 2764SOL    HW2 9192   0.407   4.814   2.837
 2765SOL     OW 9193   0.362   0.137   1.171
 2765SOL    HW1 9194   0.388   0.075   1.244
 2765SOL    HW2 9195   0.335   0.085   1.090
 2766SOL     OW 9196   4.227   1.081   6.683
 2766SOL    HW1 9197   4.178   1.150   6.735
 2766SOL    HW2 9198   4.319   1.115   6.661
 2767SOL     OW 9199   5.879   5.772   6.730
 2767SOL    HW1 9200   5.899   5.860   6.773
 2767SOL    HW2 9201   5.917   5.771   6.637
 2768SOL     OW 9202   4.342   0.951   0.326
 2768SOL    HW1 9203   4.270   0.926   0.391
 2768SOL    HW2 9204   4.408   0.876   0.319
 2769SOL     OW 9205   1.497   4.168   6.304
 2769SOL    HW1 9206   1.489   4.256   6.257
 2769SOL    HW2 9207   1.476   4.094   6.241
 2770SOL     OW 9208   3.261   6.438   6.084
 2770SOL    HW1 9209   3.337   6.488   6.125
 2770SOL    HW2 9210   3.174   6.476   6.116
 2771SOL     OW 9211   5.620   6.778   4.470
 2771SOL    HW1 9212   5.709   6.746   4.438
 2771SOL    HW2 9213   5.616   6.772   4.570
 2772SOL     OW 9214   3.482   0.732   2.660
 2772SOL    HW1 9215   3.545   0.754   2.734
 2772SOL    HW2 9216   3.507   0.784   2.578
 2773SOL     OW 9217   0.170   2.366   3.591
 2773SOL    HW1 9218   0.188   2.302   3.515
 2773SOL    HW2 9219   0.072   2.366   3.610
 2774SOL     OW 9220   4.932   2.803   2.911
 2774SOL    HW1 9221   4.940   2.726   2.847
 2774SOL    HW2 9222   5.007   2.800   2.977
 2775SOL     OW 9223   6.870   3.631   3.689
 2775SOL    HW1 9224   6.899   3.537   3.670
 2775SOL    HW2 9225   6.946   3.693   3.670
 2776SOL     OW 9226   5.187   5.824   6.503
 2776SOL    HW1 9227   5.171   5.763   6.426
 2776SOL    HW2 9228   5.284   5.848   6.507
 2777SOL     OW 9229   2.471   2.068   6.085
 2777SOL    HW1 9230   2.484   1.983   6.135
 2777SOL    HW2 9231   2.392   2.060   6.024
 2778SOL     OW 9232   1.799   6.122   6.441
 2778SOL    HW1 9233   1.889   6.143   6.479
 2778SOL    HW2 9234   1.766   6.035   6.479
 2779SOL     OW 9235   5.877   6.113   2.164
 2779SOL    HW1 9236   5.941   6.051   2.118
 2779SOL    HW2 9237   5.890   6.107   2.263
 2780SOL     OW 9238   0.009   0.398   6.122
 2780SOL    HW1 9239   7.007   0.491   6.148
 2780SOL    HW2 9240   6.992   0.333   6.187
 2781SOL     OW 9241   6.034   0.494   2.760
 2781SOL    HW1 9242   6.013   0.442   2.843
 2781SOL    HW2 9243   6.132   0.488   2.741
 2782SOL     OW 9244   4.571   1.208   5.478
 2782SOL    HW1 9245   4.622   1.236   5.397
 2782SOL    HW2 9246   4.630   1.154   5.537
 2783SOL     OW 9247   6.251   3.489   1.473
 2783SOL    HW1 9248   6.159   3.452   1.476
 2783SOL    HW2 9249   6.261   3.549   1.393
 2784SOL     OW 9250   2.859   1.972   2.260
 2784SOL    HW1 9251   2.945   2.007   2.297
 2784SOL    HW2 9252   2.783   2.027   2.295
 2785SOL     OW 9253   5.001   2.330   1.448
 2785SOL    HW1 9254   4.999   2.304   1.352
 2785SOL    HW2 9255   4.936   2.274   1.500
 2786SOL     OW 9256   6.160   6.071   1.435
 2786SOL    HW1 9257   6.069   6.113   1.437
 2786SOL    HW2 9258   6.168   6.012   1.355
 2787SOL     OW 9259   6.822   5.910   5.626
 2787SOL    HW1 9260   6.766   5.860   5.692
 2787SOL    HW2 9261   6.771   5.987   5.589
 2788SOL     OW 9262   3.158   6.004   6.357
 2788SOL    HW1 9263   3.202   5.915   6.373
 2788SOL    HW2 9264   3.221   6.064   6.308
 2789SOL     OW 9265   0.842   2.570   3.648
 2789SOL    HW1 9266   0.816   2.649   3.703
 2789SOL    HW2 9267   0.913   2.596   3.583
 2790SOL     OW 9268   2.756   4.941   0.605
 2790SOL    HW1 9269   2.677   4.974   0.553
 2790SOL    HW2 9270   2.754   4.841   0.609
 2791SOL     OW 9271   0.613   4.146   2.350
 2791SOL    HW1 9272   0.533   4.153   2.290
 2791SOL    HW2 9273   0.583   4.130   2.444
 2792SOL     OW 9274   3.347   0.763   4.432
 2792SOL    HW1 9275   3.273   0.787   4.494
 2792SOL    HW2 9276   3.313   0.759   4.338
 2793SOL     OW 9277   5.053   4.072   1.682
 2793SOL    HW1 9278   5.151   4.081   1.663
 2793SOL    HW2 9279   5.020   3.985   1.647
 2794SOL     OW 9280   0.159   1.474   6.280
 2794SOL    HW1 9281   0.064   1.480   6.248
 2794SOL    HW2 9282   0.162   1.426   6.368
 2795SOL     OW 9283   1.122   5.309   1.017
 2795SOL    HW1 9284   1.042   5.352   0.975
 2795SOL    HW2 9285   1.117   5.318   1.116
 2796SOL     OW 9286   0.660   5.157   5.091
 2796SOL    HW1 9287   0.683   5.081   5.029
 2796SOL    HW2 9288   0.581   5.207   5.054
 2797SOL     OW 9289   5.313   5.025   5.639
 2797SOL    HW1 9290   5.229   4.992   5.684
 2797SOL    HW2 9291   5.364   5.082   5.704
 2798SOL     OW 9292   6.840   5.964   2.697
 2798SOL    HW1 9293   6.835   5.917   2.609
 2798SOL    HW2 9294   6.926   5.942   2.742
 2799SOL     OW 9295   4.614   5.401   5.420
 2799SOL    HW1 9296   4.675   5.351   5.482
 2799SOL    HW2 9297   4.591   5.490   5.461
 2800SOL     OW 9298   5.638   0.730   6.872
 2800SOL    HW1 9299   5.607   0.712   6.965
 2800SOL    HW2 9300   5.724   0.780   6.874
 2801SOL     OW 9301   1.149   5.697   5.815
 2801SOL    HW1 9302   1.113   5.784   5.782
 2801SOL    HW2 9303   1.145   5.629   5.742
 2802SOL     OW 9304   6.987   6.386   5.134
 2802SOL    HW1 9305   7.018   6.296   5.163
 2802SOL    HW2 9306   6.898   6.378   5.088
 2803SOL     OW 9307   3.210   4.011   5.832
 2803SOL    HW1 9308   3.255   3.962   5.758
 2803SOL    HW2 9309   3.242   3.975   5.920
 2804SOL     OW 9310   0.398   2.870   4.144
 2804SOL    HW1 9311   0.443   2.930   4.210
 2804SOL    HW2 9312   0.402   2.911   4.053
 2805SOL     OW 9313   5.359   3.817   2.074
 2805SOL    HW1 9314   5.381   3.891   2.139
 2805SOL    HW2 9315   5.347   3.732   2.124
 2806SOL     OW 9316   2.303   4.616   6.397
 2806SOL    HW1 9317   2.237   4.555   6.440
 2806SOL    HW2 9318   2.379   4.634   6.459
 2807SOL     OW 9319   2.824   0.469   2.896
 2807SOL    HW1 9320   2.866   0.378   2.903
 2807SOL    HW2 9321   2.780   0.492   2.983
 2808SOL     OW 9322   5.796   5.522   0.889
 2808SOL    HW1 9323   5.707   5.501   0.850
 2808SOL    HW2 9324   5.817   5.619   0.876
 2809SOL     OW 9325   5.545   3.087   1.711
 2809SOL    HW1 9326   5.516   2.998   1.677
 2809SOL    HW2 9327   5.531   3.156   1.640
 2810SOL     OW 9328   2.534   6.012   3.162
 2810SOL    HW1 9329   2.579   5.964   3.087
 2810SOL    HW2 9330   2.446   6.048   3.130
 2811SOL     OW 9331   1.065   0.822   2.897
 2811SOL    HW1 9332   1.066   0.739   2.953
 2811SOL    HW2 9333   0.997   0.811   2.824
 2812SOL     OW 9334   0.471   3.050   0.696
 2812SOL    HW1 9335   0.456   3.110   0.617
 2812SOL    HW2 9336   0.525   2.971   0.668
 2813SOL     OW 9337   0.992   1.527   1.371
 2813SOL    HW1 9338   1.091   1.534   1.363
 2813SOL    HW2 9339   0.952   1.512   1.280
 2814SOL     OW 9340   2.905   4.062   6.480
 2814SOL    HW1 9341   2.860   4.048   6.392
 2814SOL    HW2 9342   2.850   4.022   6.553
 2815SOL     OW 9343   0.198   5.930   5.821
 2815SOL    HW1 9344   0.266   5.998   5.796
 2815SOL    HW2 9345   0.107   5.971   5.818
 2816SOL     OW 9346   6.859   6.105   5.036
 2816SOL    HW1 9347   6.809   6.188   5.008
 2816SOL    HW2 9348   6.853   6.094   5.135
 2817SOL     OW 9349   3.901   0.738   1.983
 2817SOL    HW1 9350   3.847   0.793   2.047
 2817SOL    HW2 9351   3.943   0.799   1.915
 2818SOL     OW 9352   0.772   0.972   0.849
 2818SOL    HW1 9353   0.725   0.945   0.765
 2818SOL    HW2 9354   0.871   0.965   0.835
 2819SOL     OW 9355   1.076   0.597   0.730
 2819SOL    HW1 9356   1.142   0.589   0.656
 2819SOL    HW2 9357   1.060   0.693   0.751
 2820SOL     OW 9358   1.338   1.679   2.235
 2820SOL    HW1 9359   1.385   1.668   2.147
 2820SOL    HW2 9360   1.266   1.611   2.243
 2821SOL     OW 9361   3.417   5.197   6.079
 2821SOL    HW1 9362   3.339   5.178   6.140
 2821SOL    HW2 9363   3.450   5.111   6.040
 2822SOL     OW 9364   3.762   3.017   0.427
 2822SOL    HW1 9365   3.711   3.051   0.348
 2822SOL    HW2 9366   3.726   2.927   0.454
 2823SOL     OW 9367   5.262   1.023   0.790
 2823SOL    HW1 9368   5.211   1.078   0.724
 2823SOL    HW2 9369   5.259   0.927   0.764
 2824SOL     OW 9370   1.694   3.748   5.191
 2824SOL    HW1 9371   1.704   3.649   5.201
 2824SOL    HW2 9372   1.720   3.793   5.276
 2825SOL     OW 9373   5.293   0.675   0.023
 2825SOL    HW1 9374   5.266   0.762   7.005
 2825SOL    HW2 9375   5.288   0.603   6.977
 2826SOL     OW 9376   1.556   3.441   6.288
 2826SOL    HW1 9377   1.560   3.349   6.249
 2826SOL    HW2 9378   1.649   3.475   6.301
 2827SOL     OW 9379   0.588   0.678   6.395
 2827SOL    HW1 9380   0.659   0.626   6.347
 2827SOL    HW2 9381   0.584   0.771   6.359
 2828SOL     OW 9382   1.774   3.554   1.173
 2828SOL    HW1 9383   1.750   3.560   1.270
 2828SOL    HW2 9384   1.696   3.521   1.121
 2829SOL     OW 9385   3.510   3.801   2.921
 2829SOL    HW1 9386   3.478   3.708   2.936
 2829SOL    HW2 9387   3.603   3.811   2.956
 2830SOL     OW 9388   3.804   4.385   5.322
 2830SOL    HW1 9389   3.901   4.390   5.345
 2830SOL    HW2 9390   3.767   4.477   5.312
 2831SOL     OW 9391   0.020   1.793   2.338
 2831SOL    HW1 9392   0.091   1.851   2.299
 2831SOL    HW2 9393   0.052   1.755   2.425
 2832SOL     OW 9394   1.022   3.372   1.361
 2832SOL    HW1 9395   1.112   3.407   1.387
 2832SOL    HW2 9396   0.953   3.409   1.424
 2833SOL     OW 9397   2.414   0.746   1.895
 2833SOL    HW1 9398   2.443   0.657   1.859
 2833SOL    HW2 9399   2.446   0.819   1.835
 2834SOL     OW 9400   4.422   6.254   4.878
 2834SOL    HW1 9401   4.468   6.207   4.803
 2834SOL    HW2 9402   4.485   6.268   4.953
 2835SOL     OW 9403   1.357   6.566   0.374
 2835SOL    HW1 9404   1.330   6.553   0.278
 2835SOL    HW2 9405   1.282   6.610   0.424
 2836SOL     OW 9406   3.940   6.388   3.274
 2836SOL    HW1 9407   3.869   6.320   3.254
 2836SOL    HW2 9408   3.960   6.441   3.192
 2837SOL     OW 9409   5.716   4.079   2.092
 2837SOL    HW1 9410   5.786   4.147   2.113
 2837SOL    HW2 9411   5.625   4.119   2.109
 2838SOL     OW 9412   5.165   4.067   6.345
 2838SOL    HW1 9413   5.173   4.121   6.429
 2838SOL    HW2 9414   5.253   4.066   6.297
 2839SOL     OW 9415   6.542   3.124   3.741
 2839SOL    HW1 9416   6.527   3.144   3.644
 2839SOL    HW2 9417   6.559   3.209   3.790
 2840SOL     OW 9418   1.549   5.741   2.941
 2840SOL    HW1 9419   1.466   5.685   2.938
 2840SOL    HW2 9420   1.523   5.836   2.958
 2841SOL     OW 9421   6.185   2.539   0.556
 2841SOL    HW1 9422   6.232   2.604   0.616
 2841SOL    HW2 9423   6.188   2.448   0.597
 2842SOL     OW 9424   1.260   5.498   4.788
 2842SOL    HW1 9425   1.210   5.506   4.874
 2842SOL    HW2 9426   1.327   5.424   4.794
 2843SOL     OW 9427   2.413   2.504   2.948
 2843SOL    HW1 9428   2.484   2.455   2.897
 2843SOL    HW2 9429   2.343   2.439   2.977
 2844SOL     OW 9430   4.514   4.230   1.461
 2844SOL    HW1 9431   4.422   4.251   1.496
 2844SOL    HW2 9432   4.574   4.210   1.538
 2845SOL     OW 9433   5.140   3.041   3.803
 2845SOL    HW1 9434   5.040   3.051   3.810
 2845SOL    HW2 9435   5.183   3.074   3.886
 2846SOL     OW 9436   3.846   0.767   0.092
 2846SOL    HW1 9437   3.937   0.805   0.108
 2846SOL    HW2 9438   3.777   0.829   0.129
 2847SOL     OW 9439   4.711   4.247   2.140
 2847SOL    HW1 9440   4.641   4.276   2.074
 2847SOL    HW2 9441   4.742   4.155   2.116
 2848SOL     OW 9442   1.061   2.339   5.254
 2848SOL    HW1 9443   1.157   2.311   5.247
 2848SOL    HW2 9444   1.027   2.366   5.164
 2849SOL     OW 9445   3.583   0.656   1.621
 2849SOL    HW1 9446   3.564   0.746   1.658
 2849SOL    HW2 9447   3.657   0.613   1.673
 2850SOL     OW 9448   2.036   6.894   3.424
 2850SOL    HW1 9449   1.942   6.906   3.392
 2850SOL    HW2 9450   2.038   6.902   3.524
 2851SOL     OW 9451   3.996   3.170   6.671
 2851SOL    HW1 9452   4.022   3.186   6.766
 2851SOL    HW2 9453   3.964   3.076   6.660
 2852SOL     OW 9454   6.330   4.170   0.056
 2852SOL    HW1 9455   6.390   4.248   0.038
 2852SOL    HW2 9456   6.350   4.133   0.147
 2853SOL     OW 9457   0.155   3.546   7.012
 2853SOL    HW1 9458   0.059   3.564   6.987
 2853SOL    HW2 9459   0.171   3.576   0.083
 2854SOL     OW 9460   3.479   0.947   6.274
 2854SOL    HW1 9461   3.514   1.023   6.220
 2854SOL    HW2 9462   3.426   0.983   6.351
 2855SOL     OW 9463   0.746   2.547   4.304
 2855SOL    HW1 9464   0.836   2.561   4.346
 2855SOL    HW2 9465   0.689   2.628   4.320
 2856SOL     OW 9466   1.615   3.300   3.028
 2856SOL    HW1 9467   1.594   3.295   2.930
 2856SOL    HW2 9468   1.713   3.288   3.042
 2857SOL     OW 9469   0.376   3.651   0.484
 2857SOL    HW1 9470   0.372   3.640   0.583
 2857SOL    HW2 9471   0.400   3.563   0.442
 2858SOL     OW 9472   5.741   6.080   2.772
 2858SOL    HW1 9473   5.671   6.048   2.837
 2858SOL    HW2 9474   5.815   6.125   2.823
 2859SOL     OW 9475   5.542   5.651   0.461
 2859SOL    HW1 9476   5.600   5.701   0.397
 2859SOL    HW2 9477   5.446   5.672   0.444
 2860SOL     OW 9478   1.609   6.169   1.482
 2860SOL    HW1 9479   1.625   6.108   1.560
 2860SOL    HW2 9480   1.685   6.160   1.417
 2861SOL     OW 9481   2.918   5.040   5.832
 2861SOL    HW1 9482   2.879   5.034   5.740
 2861SOL    HW2 9483   2.859   4.992   5.896
 2862SOL     OW 9484   4.377   2.717   1.494
 2862SOL    HW1 9485   4.297   2.710   1.435
 2862SOL    HW2 9486   4.362   2.664   1.577
 2863SOL     OW 9487   5.301   0.788   6.259
 2863SOL    HW1 9488   5.235   0.863   6.247
 2863SOL    HW2 9489   5.315   0.772   6.356
 2864SOL     OW 9490   4.531   2.706   1.142
 2864SOL    HW1 9491   4.514   2.744   1.233
 2864SOL    HW2 9492   4.445   2.693   1.094
 2865SOL     OW 9493   4.268   6.333   4.456
 2865SOL    HW1 9494   4.243   6.359   4.550
 2865SOL    HW2 9495   4.185   6.315   4.403
 2866SOL     OW 9496   5.929   4.389   0.046
 2866SOL    HW1 9497   5.950   4.313   7.008
 2866SOL    HW2 9498   5.906   4.470   7.015
 2867SOL     OW 9499   6.739   6.613   2.290
 2867SOL    HW1 9500   6.650   6.620   2.245
 2867SOL    HW2 9501   6.784   6.528   2.262
 2868SOL     OW 9502   1.042   1.284   5.647
 2868SOL    HW1 9503   1.131   1.240   5.663
 2868SOL    HW2 9504   1.050   1.348   5.571
 2869SOL     OW 9505   6.085   6.974   4.406
 2869SOL    HW1 9506   6.018   0.025   4.405
 2869SOL    HW2 9507   6.075   6.922   4.491
 2870SOL     OW 9508   1.431   1.958   0.134
 2870SOL    HW1 9509   1.428   2.023   0.210
 2870SOL    HW2 9510   1.489   1.880   0.159
 2871SOL     OW 9511   0.041   0.757   1.023
 2871SOL    HW1 9512   0.061   0.735   0.927
 2871SOL    HW2 9513   6.981   0.708   1.051
 2872SOL     OW 9514   2.662   1.429   1.704
 2872SOL    HW1 9515   2.760   1.410   1.698
 2872SOL    HW2 9516   2.649   1.526   1.726
 2873SOL     OW 9517   0.563   5.330   1.364
 2873SOL    HW1 9518   0.499   5.254   1.373
 2873SOL    HW2 9519   0.639   5.318   1.428
 2874SOL     OW 9520   3.498   0.095   2.539
 2874SOL    HW1 9521   3.423   0.029   2.535
 2874SOL    HW2 9522   3.540   0.093   2.630
 2875SOL     OW 9523   2.908   6.788   2.880
 2875SOL    HW1 9524   2.833   6.737   2.923
 2875SOL    HW2 9525   2.899   6.783   2.780
 2876SOL     OW 9526   1.137   6.392   1.665
 2876SOL    HW1 9527   1.201   6.318   1.647
 2876SOL    HW2 9528   1.137   6.413   1.763
 2877SOL     OW 9529   2.179   2.080   6.216
 2877SOL    HW1 9530   2.192   1.986   6.246
 2877SOL    HW2 9531   2.160   2.082   6.118
 2878SOL     OW 9532   3.154   3.021   4.652
 2878SOL    HW1 9533   3.136   3.085   4.577
 2878SOL    HW2 9534   3.210   2.945   4.619
 2879SOL     OW 9535   4.558   5.098   5.855
 2879SOL    HW1 9536   4.498   5.022   5.829
 2879SOL    HW2 9537   4.535   5.178   5.799
 2880SOL     OW 9538   0.660   2.177   3.480
 2880SOL    HW1 9539   0.677   2.153   3.384
 2880SOL    HW2 9540   0.733   2.143   3.537
 2881SOL     OW 9541   3.083   5.205   6.973
 2881SOL    HW1 9542   3.041   5.286   7.013
 2881SOL    HW2 9543   3.116   5.144   0.022
 2882SOL     OW 9544   5.605   6.424   0.459
 2882SOL    HW1 9545   5.547   6.351   0.495
 2882SOL    HW2 9546   5.695   6.420   0.503
 2883SOL     OW 9547   6.632   6.549   3.228
 2883SOL    HW1 9548   6.564   6.529   3.298
 2883SOL    HW2 9549   6.698   6.474   3.223
 2884SOL     OW 9550   0.033   4.944   2.523
 2884SOL    HW1 9551   0.073   5.022   2.474
 2884SOL    HW2 9552   6.962   4.930   2.491
 2885SOL     OW 9553   1.270   2.525   4.305
 2885SOL    HW1 9554   1.247   2.485   4.394
 2885SOL    HW2 9555   1.257   2.624   4.309
 2886SOL     OW 9556   2.620   4.509   0.307
 2886SOL    HW1 9557   2.634   4.608   0.310
 2886SOL    HW2 9558   2.669   4.466   0.383
 2887SOL     OW 9559   0.261   5.776   4.019
 2887SOL    HW1 9560   0.212   5.695   4.053
 2887SOL    HW2 9561   0.351   5.748   3.984
 2888SOL     OW 9562   0.230   5.667   6.624
 2888SOL    HW1 9563   0.199   5.713   6.707
 2888SOL    HW2 9564   0.151   5.624   6.579
 2889SOL     OW 9565   3.268   6.392   2.921
 2889SOL    HW1 9566   3.331   6.470   2.915
 2889SOL    HW2 9567   3.218   6.383   2.835
 2890SOL     OW 9568   2.349   6.165   0.742
 2890SOL    HW1 9569   2.296   6.081   0.759
 2890SOL    HW2 9570   2.287   6.243   0.741
 2891SOL     OW 9571   1.051   3.036   2.601
 2891SOL    HW1 9572   1.099   3.120   2.625
 2891SOL    HW2 9573   1.097   2.958   2.644
 2892SOL     OW 9574   6.404   3.495   1.161
 2892SOL    HW1 9575   6.393   3.479   1.063
 2892SOL    HW2 9576   6.496   3.529   1.179
 2893SOL     OW 9577   1.079   5.311   4.648
 2893SOL    HW1 9578   1.021   5.234   4.673
 2893SOL    HW2 9579   1.048   5.394   4.695
 2894SOL     OW 9580   2.270   4.329   1.880
 2894SOL    HW1 9581   2.309   4.412   1.840
 2894SOL    HW2 9582   2.170   4.335   1.878
 2895SOL     OW 9583   3.703   0.689   6.082
 2895SOL    HW1 9584   3.771   0.681   6.155
 2895SOL    HW2 9585   3.638   0.613   6.090
 2896SOL     OW 9586   5.854   0.052   5.788
 2896SOL    HW1 9587   5.857   0.137   5.736
 2896SOL    HW2 9588   5.868   6.998   5.726
 2897SOL     OW 9589   3.309   5.196   2.728
 2897SOL    HW1 9590   3.374   5.250   2.674
 2897SOL    HW2 9591   3.326   5.099   2.712
 2898SOL     OW 9592   6.064   3.953   3.084
 2898SOL    HW1 9593   6.087   3.914   3.174
 2898SOL    HW2 9594   6.144   4.002   3.048
 2899SOL     OW 9595   6.964   2.242   1.525
 2899SOL    HW1 9596   6.895   2.233   1.596
 2899SOL    HW2 9597   0.018   2.295   1.560
 2900SOL     OW 9598   3.648   4.533   6.656
 2900SOL    HW1 9599   3.583   4.492   6.719
 2900SOL    HW2 9600   3.631   4.498   6.564
 2901SOL     OW 9601   1.453   4.895   3.952
 2901SOL    HW1 9602   1.489   4.930   4.038
 2901SOL    HW2 9603   1.407   4.808   3.968
 2902SOL     OW 9604   6.987   5.980   3.739
 2902SOL    HW1 9605   6.913   5.918   3.714
 2902SOL    HW2 9606   6.991   6.055   3.672
 2903SOL     OW 9607   4.472   6.250   0.875
 2903SOL    HW1 9608   4.513   6.261   0.965
 2903SOL    HW2 9609   4.539   6.208   0.813
 2904SOL     OW 9610   2.845   4.851   5.194
 2904SOL    HW1 9611   2.828   4.768   5.141
 2904SOL    HW2 9612   2.937   4.848   5.232
 2905SOL     OW 9613   1.363   4.253   3.253
 2905SOL    HW1 9614   1.353   4.161   3.289
 2905SOL    HW2 9615   1.443   4.258   3.194
 2906SOL     OW 9616   5.496   6.036   2.888
 2906SOL    HW1 9617   5.490   6.105   2.961
 2906SOL    HW2 9618   5.462   5.949   2.922
 2907SOL     OW 9619   0.869   0.677   4.052
 2907SOL    HW1 9620   0.799   0.710   3.989
 2907SOL    HW2 9621   0.904   0.754   4.106
 2908SOL     OW 9622   5.320   0.302   3.621
 2908SOL    HW1 9623   5.313   0.381   3.682
 2908SOL    HW2 9624   5.359   0.225   3.671
 2909SOL     OW 9625   1.141   6.640   2.984
 2909SOL    HW1 9626   1.144   6.580   2.904
 2909SOL    HW2 9627   1.071   6.710   2.970
 2910SOL     OW 9628   6.756   0.823   3.882
 2910SOL    HW1 9629   6.850   0.823   3.917
 2910SOL    HW2 9630   6.758   0.818   3.782
 2911SOL     OW 9631   1.160   4.891   3.908
 2911SOL    HW1 9632   1.251   4.920   3.935
 2911SOL    HW2 9633   1.125   4.952   3.837
 2912SOL     OW 9634   6.842   6.364   0.571
 2912SOL    HW1 9635   6.923   6.398   0.524
 2912SOL    HW2 9636   6.832   6.266   0.553
 2913SOL     OW 9637   2.311   4.496   2.077
 2913SOL    HW1 9638   2.403   4.525   2.052
 2913SOL    HW2 9639   2.287   4.413   2.027
 2914SOL     OW 9640   5.082   5.257   1.230
 2914SOL    HW1 9641   5.002   5.252   1.171
 2914SOL    HW2 9642   5.054   5.285   1.322
 2915SOL     OW 9643   2.918   2.244   3.166
 2915SOL    HW1 9644   2.954   2.241   3.072
 2915SOL    HW2 9645   2.838   2.304   3.169
 2916SOL     OW 9646   2.430   5.395   0.082
 2916SOL    HW1 9647   2.428   5.492   0.057
 2916SOL    HW2 9648   2.486   5.345   0.016
 2917SOL     OW 9649   2.670   0.214   3.785
 2917SOL    HW1 9650   2.697   0.175   3.873
 2917SOL    HW2 9651   2.688   0.312   3.785
 2918SOL     OW 9652   6.303   3.249   0.718
 2918SOL    HW1 9653   6.212   3.271   0.752
 2918SOL    HW2 9654   6.300   3.242   0.618
 2919SOL     OW 9655   6.572   5.750   4.169
 2919SOL    HW1 9656   6.659   5.800   4.161
 2919SOL    HW2 9657   6.505   5.808   4.215
 2920SOL     OW 9658   2.271   0.289   1.728
 2920SOL    HW1 9659   2.226   0.273   1.816
 2920SOL    HW2 9660   2.351   0.348   1.742
 2921SOL     OW 9661   6.684   0.015   5.529
 2921SOL    HW1 9662   6.682   0.011   5.429
 2921SOL    HW2 9663   6.691   0.111   5.558
 2922SOL     OW 9664   4.463   0.342   2.249
 2922SOL    HW1 9665   4.436   0.404   2.323
 2922SOL    HW2 9666   4.563   0.331   2.249
 2923SOL     OW 9667   6.476   4.949   4.524
 2923SOL    HW1 9668   6.548   4.974   4.460
 2923SOL    HW2 9669   6.515   4.933   4.614
 2924SOL     OW 9670   6.845   1.419   5.041
 2924SOL    HW1 9671   6.801   1.440   4.954
 2924SOL    HW2 9672   6.931   1.470   5.049
 2925SOL     OW 9673   5.397   0.978   7.005
 2925SOL    HW1 9674   5.323   0.932   6.955
 2925SOL    HW2 9675   5.410   0.933   0.070
 2926SOL     OW 9676   0.053   2.106   5.073
 2926SOL    HW1 9677   0.020   2.200   5.071
 2926SOL    HW2 9678   0.004   2.055   5.144
 2927SOL     OW 9679   2.266   3.492   0.963
 2927SOL    HW1 9680   2.194   3.463   1.026
 2927SOL    HW2 9681   2.250   3.452   0.873
 2928SOL     OW 9682   6.404   1.366   0.414
 2928SOL    HW1 9683   6.463   1.408   0.482
 2928SOL    HW2 9684   6.313   1.408   0.416
 2929SOL     OW 9685   1.060   2.651   5.191
 2929SOL    HW1 9686   0.996   2.576   5.206
 2929SOL    HW2 9687   1.154   2.618   5.204
 2930SOL     OW 9688   6.075   5.726   5.567
 2930SOL    HW1 9689   6.027   5.813   5.582
 2930SOL    HW2 9690   6.013   5.650   5.584
 2931SOL     OW 9691   4.429   4.881   0.351
 2931SOL    HW1 9692   4.438   4.910   0.255
 2931SOL    HW2 9693   4.364   4.940   0.398
 2932SOL     OW 9694   6.944   5.496   2.269
 2932SOL    HW1 9695   6.907   5.413   2.310
 2932SOL    HW2 9696   7.010   5.537   2.332
 2933SOL     OW 9697   0.052   0.057   1.728
 2933SOL    HW1 9698   0.137   0.110   1.733
 2933SOL    HW2 9699   0.023   0.049   1.632
 2934SOL     OW 9700   4.359   2.928   1.257
 2934SOL    HW1 9701   4.446   2.974   1.272
 2934SOL    HW2 9702   4.289   2.970   1.316
 2935SOL     OW 9703   1.242   2.606   6.566
 2935SOL    HW1 9704   1.334   2.637   6.540
 2935SOL    HW2 9705   1.250   2.530   6.631
 2936SOL     OW 9706   4.715   0.242   0.513
 2936SOL    HW1 9707   4.624   0.200   0.513
 2936SOL    HW2 9708   4.729   0.292   0.428
 2937SOL     OW 9709   4.797   4.721   1.049
 2937SOL    HW1 9710   4.710   4.715   1.001
 2937SOL    HW2 9711   4.846   4.635   1.040
 2938SOL     OW 9712   6.345   5.482   0.092
 2938SOL    HW1 9713   6.285   5.500   0.170
 2938SOL    HW2 9714   6.433   5.525   0.108
 2939SOL     OW 9715   0.339   6.864   1.759
 2939SOL    HW1 9716   0.404   6.915   1.702
 2939SOL    HW2 9717   0.379   6.776   1.783
 2940SOL     OW 9718   5.800   5.799   4.242
 2940SOL    HW1 9719   5.792   5.852   4.326
 2940SOL    HW2 9720   5.733   5.725   4.243
 2941SOL     OW 9721   2.067   2.707   2.960
 2941SOL    HW1 9722   2.167   2.711   2.955
 2941SOL    HW2 9723   2.037   2.613   2.944
 2942SOL     OW 9724   3.067   2.621   0.446
 2942SOL    HW1 9725   3.104   2.593   0.357
 2942SOL    HW2 9726   2.979   2.667   0.432
 2943SOL     OW 9727   6.109   4.726   4.243
 2943SOL    HW1 9728   6.013   4.735   4.216
 2943SOL    HW2 9729   6.114   4.674   4.328
 2944SOL     OW 9730   2.945   6.313   4.160
 2944SOL    HW1 9731   3.003   6.302   4.079
 2944SOL    HW2 9732   2.858   6.267   4.145
 2945SOL     OW 9733   5.107   3.590   1.496
 2945SOL    HW1 9734   5.071   3.498   1.491
 2945SOL    HW2 9735   5.122   3.615   1.592
 2946SOL     OW 9736   2.338   4.100   5.782
 2946SOL    HW1 9737   2.275   4.036   5.738
 2946SOL    HW2 9738   2.384   4.155   5.713
 2947SOL     OW 9739   0.308   6.047   0.385
 2947SOL    HW1 9740   0.352   5.961   0.413
 2947SOL    HW2 9741   0.248   6.030   0.307
 2948SOL     OW 9742   5.867   4.981   3.259
 2948SOL    HW1 9743   5.958   4.960   3.221
 2948SOL    HW2 9744   5.809   4.900   3.252
 2949SOL     OW 9745   0.993   6.501   0.247
 2949SOL    HW1 9746   1.083   6.530   0.215
 2949SOL    HW2 9747   0.942   6.461   0.171
 2950SOL     OW 9748   5.834   4.885   2.755
 2950SOL    HW1 9749   5.747   4.933   2.754
 2950SOL    HW2 9750   5.835   4.815   2.684
 2951SOL     OW 9751   6.016   0.871   1.459
 2951SOL    HW1 9752   5.978   0.857   1.368
 2951SOL    HW2 9753   5.994   0.794   1.517
 2952SOL     OW 9754   6.176   0.631   5.370
 2952SOL    HW1 9755   6.189   0.598   5.277
 2952SOL    HW2 9756   6.216   0.722   5.380
 2953SOL     OW 9757   6.650   5.036   3.347
 2953SOL    HW1 9758   6.573   5.092   3.316
 2953SOL    HW2 9759   6.642   4.944   3.308
 2954SOL     OW 9760   0.359   4.732   6.759
 2954SOL    HW1 9761   0.383   4.675   6.680
 2954SOL    HW2 9762   0.307   4.812   6.728
 2955SOL     OW 9763   1.089   4.175   0.158
 2955SOL    HW1 9764   1.042   4.154   0.072
 2955SOL    HW2 9765   1.145   4.096   0.185
 2956SOL     OW 9766   6.865   5.211   4.084
 2956SOL    HW1 9767   6.862   5.234   4.181
 2956SOL    HW2 9768   6.953   5.237   4.046
 2957SOL     OW 9769   4.260   4.874   1.234
 2957SOL    HW1 9770   4.294   4.897   1.143
 2957SOL    HW2 9771   4.174   4.824   1.226
 2958SOL     OW 9772   2.072   5.094   3.499
 2958SOL    HW1 9773   2.079   5.002   3.538
 2958SOL    HW2 9774   2.110   5.160   3.563
 2959SOL     OW 9775   5.271   2.804   2.804
 2959SOL    HW1 9776   5.248   2.768   2.714
 2959SOL    HW2 9777   5.368   2.786   2.823
 2960SOL     OW 9778   3.348   0.918   0.109
 2960SOL    HW1 9779   3.347   0.843   0.174
 2960SOL    HW2 9780   3.310   0.888   0.021
 2961SOL     OW 9781   6.060   4.977   2.929
 2961SOL    HW1 9782   6.056   4.911   3.004
 2961SOL    HW2 9783   5.989   4.955   2.862
 2962SOL     OW 9784   5.066   6.654   3.658
 2962SOL    HW1 9785   5.131   6.657   3.582
 2962SOL    HW2 9786   5.112   6.685   3.742
 2963SOL     OW 9787   1.459   1.327   6.375
 2963SOL    HW1 9788   1.392   1.338   6.449
 2963SOL    HW2 9789   1.412   1.337   6.287
 2964SOL     OW 9790   0.610   2.676   6.856
 2964SOL    HW1 9791   0.619   2.678   6.956
 2964SOL    HW2 9792   0.699   2.655   6.816
 2965SOL     OW 9793   1.337   0.658   4.332
 2965SOL    HW1 9794   1.427   0.677   4.295
 2965SOL    HW2 9795   1.298   0.743   4.370
 2966SOL     OW 9796   4.630   5.916   4.028
 2966SOL    HW1 9797   4.715   5.944   3.984
 2966SOL    HW2 9798   4.643   5.915   4.128
 2967SOL     OW 9799   7.001   1.136   6.176
 2967SOL    HW1 9800   6.924   1.112   6.117
 2967SOL    HW2 9801   6.969   1.192   6.252
 2968SOL     OW 9802   2.265   3.190   0.877
 2968SOL    HW1 9803   2.172   3.169   0.846
 2968SOL    HW2 9804   2.274   3.168   0.974
 2969SOL     OW 9805   4.828   4.015   4.703
 2969SOL    HW1 9806   4.807   4.038   4.798
 2969SOL    HW2 9807   4.924   4.035   4.683
 2970SOL     OW 9808   3.027   2.683   5.441
 2970SOL    HW1 9809   3.014   2.768   5.390
 2970SOL    HW2 9810   3.111   2.638   5.412
 2971SOL     OW 9811   5.562   4.029   0.107
 2971SOL    HW1 9812   5.571   3.987   0.197
 2971SOL    HW2 9813   5.519   4.119   0.116
 2972SOL     OW 9814   5.608   4.964   0.164
 2972SOL    HW1 9815   5.691   4.909   0.159
 2972SOL    HW2 9816   5.622   5.037   0.232
 2973SOL     OW 9817   4.800   6.623   2.767
 2973SOL    HW1 9818   4.716   6.648   2.721
 2973SOL    HW2 9819   4.796   6.526   2.794
 2974SOL     OW 9820   6.107   4.267   3.221
 2974SOL    HW1 9821   6.188   4.234   3.173
 2974SOL    HW2 9822   6.024   4.228   3.180
 2975SOL     OW 9823   4.868   4.686   3.791
 2975SOL    HW1 9824   4.901   4.698   3.698
 2975SOL    HW2 9825   4.810   4.764   3.816
 2976SOL     OW 9826   4.708   1.683   2.860
 2976SOL    HW1 9827   4.656   1.766   2.841
 2976SOL    HW2 9828   4.654   1.603   2.831
 2977SOL     OW 9829   0.989   0.321   2.581
 2977SOL    HW1 9830   0.993   0.248   2.513
 2977SOL    HW2 9831   0.966   0.407   2.536
 2978SOL     OW 9832   4.068   4.065   6.783
 2978SOL    HW1 9833   4.094   4.021   6.869
 2978SOL    HW2 9834   4.146   4.117   6.748
 2979SOL     OW 9835   3.515   1.359   4.471
 2979SOL    HW1 9836   3.427   1.386   4.431
 2979SOL    HW2 9837   3.523   1.397   4.563
 2980SOL     OW 9838   2.705   4.813   6.297
 2980SOL    HW1 9839   2.662   4.903   6.291
 2980SOL    HW2 9840   2.647   4.745   6.251
 2981SOL     OW 9841   2.171   1.979   6.816
 2981SOL    HW1 9842   2.084   2.027   6.803
 2981SOL    HW2 9843   2.229   1.994   6.736
 2982SOL     OW 9844   2.052   6.569   2.436
 2982SOL    HW1 9845   1.985   6.496   2.424
 2982SOL    HW2 9846   2.006   6.658   2.432
 2983SOL     OW 9847   0.104   2.737   0.099
 2983SOL    HW1 9848   0.084   2.728   0.001
 2983SOL    HW2 9849   0.108   2.646   0.140
 2984SOL     OW 9850   6.576   4.606   6.730
 2984SOL    HW1 9851   6.580   4.661   6.646
 2984SOL    HW2 9852   6.584   4.665   6.809
 2985SOL     OW 9853   0.883   0.456   4.534
 2985SOL    HW1 9854   0.914   0.538   4.486
 2985SOL    HW2 9855   0.960   0.394   4.549
 2986SOL     OW 9856   3.175   4.016   2.115
 2986SOL    HW1 9857   3.094   4.070   2.088
 2986SOL    HW2 9858   3.221   4.062   2.191
 2987SOL     OW 9859   1.217   2.114   3.681
 2987SOL    HW1 9860   1.189   2.126   3.586
 2987SOL    HW2 9861   1.315   2.131   3.690
 2988SOL     OW 9862   1.036   0.275   1.637
 2988SOL    HW1 9863   0.964   0.344   1.639
 2988SOL    HW2 9864   1.125   0.320   1.624
 2989SOL     OW 9865   5.319   3.890   5.507
 2989SOL    HW1 9866   5.285   3.840   5.586
 2989SOL    HW2 9867   5.336   3.827   5.431
 2990SOL     OW 9868   5.570   2.399   4.154
 2990SOL    HW1 9869   5.583   2.300   4.148
 2990SOL    HW2 9870   5.475   2.418   4.179
 2991SOL     OW 9871   6.164   3.450   0.295
 2991SOL    HW1 9872   6.176   3.355   0.266
 2991SOL    HW2 9873   6.143   3.507   0.215
 2992SOL     OW 9874   0.701   4.535   4.450
 2992SOL    HW1 9875   0.728   4.439   4.443
 2992SOL    HW2 9876   0.773   4.592   4.410
 2993SOL     OW 9877   0.016   5.217   0.284
 2993SOL    HW1 9878   0.101   5.199   0.333
 2993SOL    HW2 9879   6.997   5.300   0.321
 2994SOL     OW 9880   4.589   6.486   0.014
 2994SOL    HW1 9881   4.578   6.387   0.025
 2994SOL    HW2 9882   4.510   6.534   0.053
 2995SOL     OW 9883   4.619   0.397   0.291
 2995SOL    HW1 9884   4.524   0.408   0.261
 2995SOL    HW2 9885   4.680   0.434   0.221
 2996SOL     OW 9886   1.673   2.010   4.785
 2996SOL    HW1 9887   1.767   2.032   4.759
 2996SOL    HW2 9888   1.648   1.922   4.746
 2997SOL     OW 9889   4.187   0.717   3.163
 2997SOL    HW1 9890   4.122   0.761   3.224
 2997SOL    HW2 9891   4.279   0.723   3.202
 2998SOL     OW 9892   3.043   0.649   3.889
 2998SOL    HW1 9893   3.046   0.564   3.943
 2998SOL    HW2 9894   2.972   0.708   3.925
 2999SOL     OW 9895   2.798   4.800   6.553
 2999SOL    HW1 9896   2.785   4.875   6.618
 2999SOL    HW2 9897   2.794   4.836   6.460
 3000SOL     OW 9898   2.796   3.761   5.694
 3000SOL    HW1 9899   2.797   3.662   5.684
 3000SOL    HW2 9900   2.703   3.795   5.679
 3001SOL     OW 9901   6.071   1.836   0.087
 3001SOL    HW1 9902   5.982   1.809   0.051
 3001SOL    HW2 9903   6.079   1.936   0.085
 3002SOL     OW 9904   2.963   1.466   1.026
 3002SOL    HW1 9905   2.901   1.388   1.030
 3002SOL    HW2 9906   3.006   1.469   0.935
 3003SOL     OW 9907   0.664   6.488   1.199
 3003SOL    HW1 9908   0.758   6.507   1.226
 3003SOL    HW2 9909   0.627   6.414   1.256
 3004SOL     OW 9910   1.863   4.406   4.381
 3004SOL    HW1 9911   1.937   4.354   4.338
 3004SOL    HW2 9912   1.778   4.386   4.333
 3005SOL     OW 9913   0.687   3.302   5.638
 3005SOL    HW1 9914   0.743   3.244   5.698
 3005SOL    HW2 9915   0.732   3.309   5.549
 3006SOL     OW 9916   5.668   2.001   5.514
 3006SOL    HW1 9917   5.600   1.975   5.583
 3006SOL    HW2 9918   5.623   2.046   5.437
 3007SOL     OW 9919   4.934   5.585   0.154
 3007SOL    HW1 9920   5.034   5.593   0.154
 3007SOL    HW2 9921   4.906   5.517   0.222
 3008SOL     OW 9922   3.638   2.309   5.842
 3008SOL    HW1 9923   3.729   2.342   5.814
 3008SOL    HW2 9924   3.596   2.260   5.766
 3009SOL     OW 9925   6.622   2.493   2.908
 3009SOL    HW1 9926   6.583   2.584   2.900
 3009SOL    HW2 9927   6.675   2.487   2.993
 3010SOL     OW 9928   3.481   5.914   5.777
 3010SOL    HW1 9929   3.439   5.937   5.689
 3010SOL    HW2 9930   3.580   5.909   5.766
 3011SOL     OW 9931   6.392   0.361   1.893
 3011SOL    HW1 9932   6.377   0.262   1.892
 3011SOL    HW2 9933   6.344   0.401   1.971
 3012SOL     OW 9934   2.619   3.583   6.747
 3012SOL    HW1 9935   2.688   3.640   6.702
 3012SOL    HW2 9936   2.577   3.523   6.678
 3013SOL     OW 9937   6.428   5.208   3.254
 3013SOL    HW1 9938   6.478   5.230   3.171
 3013SOL    HW2 9939   6.408   5.292   3.305
 3014SOL     OW 9940   5.159   1.025   6.647
 3014SOL    HW1 9941   5.248   1.066   6.668
 3014SOL    HW2 9942   5.106   1.089   6.590
 3015SOL     OW 9943   2.599   0.978   0.683
 3015SOL    HW1 9944   2.698   0.965   0.691
 3015SOL    HW2 9945   2.554   0.889   0.675
 3016SOL     OW 9946   3.193   0.207   4.127
 3016SOL    HW1 9947   3.236   0.117   4.129
 3016SOL    HW2 9948   3.171   0.236   4.220
 3017SOL     OW 9949   6.056   4.689   2.117
 3017SOL    HW1 9950   6.134   4.690   2.179
 3017SOL    HW2 9951   5.974   4.718   2.166
 3018SOL     OW 9952   3.737   6.750   6.660
 3018SOL    HW1 9953   3.660   6.733   6.722
 3018SOL    HW2 9954   3.798   6.817   6.702
 3019SOL     OW 9955   0.968   6.865   0.111
 3019SOL    HW1 9956   0.972   6.963   0.095
 3019SOL    HW2 9957   1.027   6.817   0.046
 3020SOL     OW 9958   4.980   3.179   6.984
 3020SOL    HW1 9959   4.951   3.241   6.912
 3020SOL    HW2 9960   4.918   3.187   0.039
 3021SOL     OW 9961   2.518   6.861   4.296
 3021SOL    HW1 9962   2.614   6.879   4.320
 3021SOL    HW2 9963   2.487   6.779   4.343
 3022SOL     OW 9964   3.789   5.857   4.029
 3022SOL    HW1 9965   3.788   5.894   3.936
 3022SOL    HW2 9966   3.752   5.925   4.092
 3023SOL     OW 9967   3.937   6.925   2.527
 3023SOL    HW1 9968   3.912   7.016   2.496
 3023SOL    HW2 9969   3.996   6.932   2.608
 3024SOL     OW 9970   6.099   5.990   5.389
 3024SOL    HW1 9971   6.146   6.007   5.475
 3024SOL    HW2 9972   6.167   5.971   5.318
 3025SOL     OW 9973   4.181   6.011   0.728
 3025SOL    HW1 9974   4.168   5.982   0.823
 3025SOL    HW2 9975   4.145   6.103   0.716
 3026SOL     OW 9976   6.869   1.185   6.932
 3026SOL    HW1 9977   6.935   1.192   7.006
 3026SOL    HW2 9978   6.781   1.222   6.962
 3027SOL     OW 9979   4.203   1.385   2.051
 3027SOL    HW1 9980   4.116   1.340   2.072
 3027SOL    HW2 9981   4.266   1.318   2.012
 3028SOL     OW 9982   1.791   3.944   6.446
 3028SOL    HW1 9983   1.796   4.039   6.418
 3028SOL    HW2 9984   1.695   3.914   6.447
 3029SOL     OW 9985   0.507   2.353   3.890
 3029SOL    HW1 9986   0.589   2.309   3.925
 3029SOL    HW2 9987   0.439   2.284   3.866
 3030SOL     OW 9988   1.441   4.139   0.856
 3030SOL    HW1 9989   1.526   4.141   0.804
 3030SOL    HW2 9990   1.413   4.233   0.878
 3031SOL     OW 9991   1.438   5.555   1.723
 3031SOL    HW1 9992   1.483   5.524   1.639
 3031SOL    HW2 9993   1.348   5.591   1.701
 3032SOL     OW 9994   1.545   6.134   3.195
 3032SOL    HW1 9995   1.583   6.115   3.286
 3032SOL    HW2 9996   1.615   6.176   3.137
 3033SOL     OW 9997   6.605   2.479   3.393
 3033SOL    HW1 9998   6.544   2.552   3.423
 3033SOL    HW2 9999   6.693   2.518   3.366
 3034SOL     OW10000   1.202   5.658   3.695
 3034SOL    HW110001   1.163   5.587   3.753
 3034SOL    HW210002   1.161   5.653   3.604
 3035SOL     OW10003   1.333   3.050   6.391
 3035SOL    HW110004   1.308   3.143   6.419
 3035SOL    HW210005   1.263   2.986   6.421
 3036SOL     OW10006   1.433   2.090   5.592
 3036SOL    HW110007   1.509   2.070   5.654
 3036SOL    HW210008   1.349   2.104   5.645
 3037SOL     OW10009   0.065   5.591   5.450
 3037SOL    HW110010   0.105   5.502   5.475
 3037SOL    HW210011   6.989   5.585   5.456
 3038SOL     OW10012   4.987   5.592   6.015
 3038SOL    HW110013   4.903   5.624   6.057
 3038SOL    HW210014   5.064   5.649   6.045
 3039SOL     OW10015   6.770   3.252   6.663
 3039SOL    HW110016   6.735   3.185   6.597
 3039SOL    HW210017   6.858   3.286   6.632
 3040SOL     OW10018   3.520   4.341   5.871
 3040SOL    HW110019   3.546   4.252   5.836
 3040SOL    HW210020   3.429   4.335   5.912
 3041SOL     OW10021   0.910   3.993   5.593
 3041SOL    HW110022   0.884   3.950   5.679
 3041SOL    HW210023   0.891   4.091   5.596
 3042SOL     OW10024   6.775   5.677   2.170
 3042SOL    HW110025   6.712   5.632   2.107
 3042SOL    HW210026   6.836   5.609   2.211
 3043SOL     OW10027   2.871   3.748   0.199
 3043SOL    HW110028   2.844   3.838   0.163
 3043SOL    HW210029   2.935   3.761   0.275
 3044SOL     OW10030   3.117   4.207   5.688
 3044SOL    HW110031   3.167   4.133   5.733
 3044SOL    HW210032   3.117   4.191   5.589
 3045SOL     OW10033   4.309   0.475   3.295
 3045SOL    HW110034   4.297   0.559   3.349
 3045SOL    HW210035   4.381   0.489   3.228
 3046SOL     OW10036   4.457   5.989   0.068
 3046SOL    HW110037   4.420   5.989   6.998
 3046SOL    HW210038   4.398   5.933   0.127
 3047SOL     OW10039   6.201   6.691   0.558
 3047SOL    HW110040   6.277   6.732   0.608
 3047SOL    HW210041   6.122   6.681   0.618
 3048SOL     OW10042   4.252   2.706   0.655
 3048SOL    HW110043   4.161   2.669   0.636
 3048SOL    HW210044   4.259   2.799   0.619
 3049SOL     OW10045   1.031   0.684   4.462
 3049SOL    HW110046   1.112   0.737   4.483
 3049SOL    HW210047   0.999   0.706   4.370
 3050SOL     OW10048   2.300   2.525   1.575
 3050SOL    HW110049   2.220   2.508   1.632
 3050SOL    HW210050   2.297   2.467   1.494
 3051SOL     OW10051   2.903   0.112   6.190
 3051SOL    HW110052   2.861   0.049   6.125
 3051SOL    HW210053   2.834   0.148   6.252
 3052SOL     OW10054   5.728   6.225   2.556
 3052SOL    HW110055   5.712   6.154   2.626
 3052SOL    HW210056   5.814   6.206   2.509
 3053SOL     OW10057   1.077   4.146   1.003
 3053SOL    HW110058   1.145   4.150   0.931
 3053SOL    HW210059   1.018   4.067   0.990
 3054SOL     OW10060   5.411   1.141   3.250
 3054SOL    HW110061   5.476   1.084   3.199
 3054SOL    HW210062   5.356   1.194   3.186
 3055SOL     OW10063   6.296   6.933   6.282
 3055SOL    HW110064   6.204   6.920   6.246
 3055SOL    HW210065   6.346   6.846   6.277
 3056SOL     OW10066   5.771   1.819   5.804
 3056SOL    HW110067   5.829   1.843   5.726
 3056SOL    HW210068   5.777   1.720   5.822
 3057SOL     OW10069   5.686   6.218   3.612
 3057SOL    HW110070   5.701   6.236   3.709
 3057SOL    HW210071   5.751   6.271   3.557
 3058SOL     OW10072   6.778   4.101   1.136
 3058SOL    HW110073   6.691   4.139   1.105
 3058SOL    HW210074   6.822   4.165   1.199
 3059SOL     OW10075   2.141   2.474   4.170
 3059SOL    HW110076   2.150   2.421   4.254
 3059SOL    HW210077   2.139   2.411   4.092
 3060SOL     OW10078   2.832   5.184   6.625
 3060SOL    HW110079   2.775   5.105   6.648
 3060SOL    HW210080   2.802   5.264   6.677
 3061SOL     OW10081   5.881   5.104   6.054
 3061SOL    HW110082   5.868   5.189   6.003
 3061SOL    HW210083   5.844   5.113   6.146
 3062SOL     OW10084   4.053   5.035   1.024
 3062SOL    HW110085   4.050   4.940   1.056
 3062SOL    HW210086   4.035   5.097   1.100
 3063SOL     OW10087   0.768   4.981   0.517
 3063SOL    HW110088   0.811   4.949   0.433
 3063SOL    HW210089   0.817   4.945   0.596
 3064SOL     OW10090   4.654   2.972   0.262
 3064SOL    HW110091   4.615   3.057   0.299
 3064SOL    HW210092   4.611   2.893   0.306
 3065SOL     OW10093   0.769   1.309   6.385
 3065SOL    HW110094   0.819   1.235   6.341
 3065SOL    HW210095   0.731   1.276   6.471
 3066SOL     OW10096   4.795   5.211   5.957
 3066SOL    HW110097   4.769   5.205   6.053
 3066SOL    HW210098   4.744   5.144   5.904
 3067SOL     OW10099   1.998   2.049   0.409
 3067SOL    HW110100   1.901   2.029   0.414
 3067SOL    HW210101   2.048   1.986   0.468
 3068SOL     OW10102   0.706   1.046   1.321
 3068SOL    HW110103   0.716   0.964   1.264
 3068SOL    HW210104   0.624   1.096   1.293
 3069SOL     OW10105   6.168   6.726   3.472
 3069SOL    HW110106   6.223   6.809   3.460
 3069SOL    HW210107   6.099   6.721   3.400
 3070SOL     OW10108   3.098   1.278   6.862
 3070SOL    HW110109   3.073   1.185   6.889
 3070SOL    HW210110   3.036   1.344   6.906
 3071SOL     OW10111   6.940   4.561   4.068
 3071SOL    HW110112   7.014   4.522   4.014
 3071SOL    HW210113   6.854   4.515   4.045
 3072SOL     OW10114   1.902   5.834   0.196
 3072SOL    HW110115   1.977   5.900   0.194
 3072SOL    HW210116   1.814   5.882   0.187
 3073SOL     OW10117   0.497   4.502   1.193
 3073SOL    HW110118   0.517   4.539   1.284
 3073SOL    HW210119   0.566   4.533   1.129
 3074SOL     OW10120   1.286   4.167   1.415
 3074SOL    HW110121   1.217   4.239   1.419
 3074SOL    HW210122   1.308   4.147   1.319
 3075SOL     OW10123   2.271   5.014   3.953
 3075SOL    HW110124   2.222   4.982   3.873
 3075SOL    HW210125   2.218   5.087   3.998
 3076SOL     OW10126   0.195   1.114   5.155
 3076SOL    HW110127   0.236   1.202   5.181
 3076SOL    HW210128   0.184   1.111   5.056
 3077SOL     OW10129   6.205   3.990   1.952
 3077SOL    HW110130   6.221   3.947   1.864
 3077SOL    HW210131   6.291   4.028   1.987
 3078SOL     OW10132   6.701   3.150   2.305
 3078SOL    HW110133   6.669   3.084   2.238
 3078SOL    HW210134   6.639   3.229   2.306
 3079SOL     OW10135   2.586   2.306   4.070
 3079SOL    HW110136   2.598   2.400   4.038
 3079SOL    HW210137   2.664   2.250   4.041
 3080SOL     OW10138   4.614   4.115   1.695
 3080SOL    HW110139   4.648   4.028   1.731
 3080SOL    HW210140   4.541   4.149   1.754
 3081SOL     OW10141   0.777   4.378   0.033
 3081SOL    HW110142   0.790   4.446   0.104
 3081SOL    HW210143   0.679   4.355   0.026
 3082SOL     OW10144   3.055   5.483   4.755
 3082SOL    HW110145   3.002   5.443   4.830
 3082SOL    HW210146   3.031   5.437   4.669
 3083SOL     OW10147   2.769   5.557   2.401
 3083SOL    HW110148   2.685   5.504   2.411
 3083SOL    HW210149   2.848   5.497   2.411
 3084SOL     OW10150   0.839   3.867   2.697
 3084SOL    HW110151   0.806   3.775   2.721
 3084SOL    HW210152   0.844   3.876   2.598
 3085SOL     OW10153   5.174   4.366   0.546
 3085SOL    HW110154   5.145   4.458   0.521
 3085SOL    HW210155   5.271   4.354   0.524
 3086SOL     OW10156   4.929   1.394   0.331
 3086SOL    HW110157   4.982   1.442   0.402
 3086SOL    HW210158   4.922   1.451   0.250
 3087SOL     OW10159   2.561   6.244   2.106
 3087SOL    HW110160   2.655   6.264   2.080
 3087SOL    HW210161   2.553   6.241   2.206
 3088SOL     OW10162   0.646   3.181   6.073
 3088SOL    HW110163   0.664   3.203   5.977
 3088SOL    HW210164   0.574   3.241   6.108
 3089SOL     OW10165   5.235   1.087   5.254
 3089SOL    HW110166   5.212   0.998   5.215
 3089SOL    HW210167   5.177   1.157   5.212
 3090SOL     OW10168   1.776   1.142   2.027
 3090SOL    HW110169   1.770   1.189   1.938
 3090SOL    HW210170   1.816   1.051   2.014
 3091SOL     OW10171   1.314   1.216   0.622
 3091SOL    HW110172   1.341   1.233   0.527
 3091SOL    HW210173   1.220   1.182   0.624
 3092SOL     OW10174   5.158   0.082   1.997
 3092SOL    HW110175   5.167   7.018   2.046
 3092SOL    HW210176   5.151   0.064   1.899
 3093SOL     OW10177   5.715   6.206   5.882
 3093SOL    HW110178   5.628   6.214   5.930
 3093SOL    HW210179   5.742   6.110   5.877
 3094SOL     OW10180   2.865   0.826   4.012
 3094SOL    HW110181   2.918   0.906   3.985
 3094SOL    HW210182   2.804   0.850   4.087
 3095SOL     OW10183   2.687   2.955   5.388
 3095SOL    HW110184   2.646   2.986   5.474
 3095SOL    HW210185   2.625   2.977   5.312
 3096SOL     OW10186   0.708   3.353   4.927
 3096SOL    HW110187   0.719   3.421   5.000
 3096SOL    HW210188   0.787   3.355   4.867
 3097SOL     OW10189   5.861   2.970   0.074
 3097SOL    HW110190   5.914   2.885   0.076
 3097SOL    HW210191   5.769   2.951   0.040
 3098SOL     OW10192   1.784   2.479   2.410
 3098SOL    HW110193   1.699   2.506   2.455
 3098SOL    HW210194   1.862   2.515   2.461
 3099SOL     OW10195   0.940   5.824   3.777
 3099SOL    HW110196   0.996   5.765   3.719
 3099SOL    HW210197   0.874   5.769   3.827
 3100SOL     OW10198   7.020   6.108   2.912
 3100SOL    HW110199   6.952   6.118   2.985
 3100SOL    HW210200   6.974   6.115   2.823
 3101SOL     OW10201   4.882   6.831   5.633
 3101SOL    HW110202   4.802   6.834   5.573
 3101SOL    HW210203   4.955   6.888   5.595
 3102SOL     OW10204   6.885   5.709   0.226
 3102SOL    HW110205   6.922   5.793   0.186
 3102SOL    HW210206   6.834   5.732   0.309
 3103SOL     OW10207   4.222   0.478   1.181
 3103SOL    HW110208   4.311   0.501   1.221
 3103SOL    HW210209   4.185   0.398   1.227
 3104SOL     OW10210   4.329   0.045   6.574
 3104SOL    HW110211   4.411   7.012   6.565
 3104SOL    HW210212   4.337   0.125   6.514
 3105SOL     OW10213   5.112   3.080   0.695
 3105SOL    HW110214   5.143   3.099   0.789
 3105SOL    HW210215   5.043   3.008   0.696
 3106SOL     OW10216   5.139   0.944   5.729
 3106SOL    HW110217   5.134   1.005   5.650
 3106SOL    HW210218   5.227   0.957   5.775
 3107SOL     OW10219   4.245   1.722   4.505
 3107SOL    HW110220   4.298   1.794   4.549
 3107SOL    HW210221   4.304   1.666   4.448
 3108SOL     OW10222   2.344   4.834   4.653
 3108SOL    HW110223   2.308   4.757   4.601
 3108SOL    HW210224   2.330   4.818   4.751
 3109SOL     OW10225   6.373   0.355   4.930
 3109SOL    HW110226   6.409   0.351   4.837
 3109SOL    HW210227   6.438   0.404   4.989
 3110SOL     OW10228   2.339   4.632   3.624
 3110SOL    HW110229   2.249   4.661   3.656
 3110SOL    HW210230   2.371   4.556   3.681
 3111SOL     OW10231   6.298   4.867   4.092
 3111SOL    HW110232   6.228   4.816   4.141
 3111SOL    HW210233   6.364   4.803   4.053
 3112SOL     OW10234   3.428   3.131   6.718
 3112SOL    HW110235   3.514   3.130   6.666
 3112SOL    HW210236   3.356   3.172   6.662
 3113SOL     OW10237   3.426   5.606   2.414
 3113SOL    HW110238   3.473   5.582   2.329
 3113SOL    HW210239   3.479   5.675   2.463
 3114SOL     OW10240   3.951   1.165   0.467
 3114SOL    HW110241   3.920   1.195   0.557
 3114SOL    HW210242   4.005   1.081   0.477
 3115SOL     OW10243   4.112   4.419   5.334
 3115SOL    HW110244   4.151   4.426   5.426
 3115SOL    HW210245   4.184   4.426   5.266
 3116SOL     OW10246   1.186   2.011   0.761
 3116SOL    HW110247   1.087   2.010   0.775
 3116SOL    HW210248   1.225   2.092   0.806
 3117SOL     OW10249   4.694   2.383   5.794
 3117SOL    HW110250   4.713   2.475   5.830
 3117SOL    HW210251   4.778   2.330   5.794
 3118SOL     OW10252   1.369   0.211   2.926
 3118SOL    HW110253   1.350   0.241   2.832
 3118SOL    HW210254   1.436   0.272   2.968
 3119SOL     OW10255   2.951   2.453   5.587
 3119SOL    HW110256   2.994   2.390   5.523
 3119SOL    HW210257   2.980   2.547   5.568
 3120SOL     OW10258   3.475   0.366   5.256
 3120SOL    HW110259   3.470   0.443   5.192
 3120SOL    HW210260   3.385   0.350   5.296
 3121SOL     OW10261   5.119   1.838   4.328
 3121SOL    HW110262   5.165   1.821   4.415
 3121SOL    HW210263   5.187   1.854   4.257
 3122SOL     OW10264   4.533   4.530   4.759
 3122SOL    HW110265   4.485   4.562   4.677
 3122SOL    HW210266   4.472   4.535   4.837
 3123SOL     OW10267   2.300   0.360   3.456
 3123SOL    HW110268   2.306   0.456   3.482
 3123SOL    HW210269   2.379   0.310   3.492
 3124SOL     OW10270   5.301   6.445   4.265
 3124SOL    HW110271   5.305   6.469   4.168
 3124SOL    HW210272   5.311   6.527   4.320
 3125SOL     OW10273   0.695   2.918   5.915
 3125SOL    HW110274   0.708   2.910   6.013
 3125SOL    HW210275   0.738   3.003   5.882
 3126SOL     OW10276   5.661   4.987   5.741
 3126SOL    HW110277   5.581   5.037   5.773
 3126SOL    HW210278   5.703   5.037   5.665
 3127SOL     OW10279   1.392   2.335   5.401
 3127SOL    HW110280   1.411   2.255   5.458
 3127SOL    HW210281   1.428   2.320   5.309
 3128SOL     OW10282   3.444   0.864   0.751
 3128SOL    HW110283   3.461   0.905   0.841
 3128SOL    HW210284   3.476   0.926   0.679
 3129SOL     OW10285   5.523   3.017   0.769
 3129SOL    HW110286   5.471   3.094   0.733
 3129SOL    HW210287   5.474   2.977   0.846
 3130SOL     OW10288   1.431   4.524   1.237
 3130SOL    HW110289   1.470   4.602   1.188
 3130SOL    HW210290   1.491   4.500   1.314
 3131SOL     OW10291   0.179   3.691   2.130
 3131SOL    HW110292   0.242   3.613   2.135
 3131SOL    HW210293   0.192   3.749   2.210
 3132SOL     OW10294   4.358   4.575   6.705
 3132SOL    HW110295   4.260   4.554   6.702
 3132SOL    HW210296   4.371   4.673   6.697
 3133SOL     OW10297   3.843   1.129   3.284
 3133SOL    HW110298   3.910   1.176   3.341
 3133SOL    HW210299   3.780   1.078   3.342
 3134SOL     OW10300   3.625   4.978   1.837
 3134SOL    HW110301   3.725   4.980   1.845
 3134SOL    HW210302   3.589   4.898   1.883
 3135SOL     OW10303   5.642   6.727   6.331
 3135SOL    HW110304   5.657   6.732   6.233
 3135SOL    HW210305   5.652   6.633   6.363
 3136SOL     OW10306   5.856   0.761   2.304
 3136SOL    HW110307   5.760   0.763   2.330
 3136SOL    HW210308   5.886   0.853   2.280
 3137SOL     OW10309   6.961   0.018   2.161
 3137SOL    HW110310   6.920   0.070   2.086
 3137SOL    HW210311   6.890   7.015   2.226
 3138SOL     OW10312   5.811   5.470   3.439
 3138SOL    HW110313   5.826   5.373   3.462
 3138SOL    HW210314   5.872   5.496   3.364
 3139SOL     OW10315   3.488   4.898   1.034
 3139SOL    HW110316   3.441   4.835   1.095
 3139SOL    HW210317   3.522   4.848   0.954
 3140SOL     OW10318   6.989   6.142   5.292
 3140SOL    HW110319   6.978   6.049   5.326
 3140SOL    HW210320   0.051   6.181   5.328
 3141SOL     OW10321   6.912   1.874   0.596
 3141SOL    HW110322   6.873   1.952   0.548
 3141SOL    HW210323   7.001   1.851   0.557
 3142SOL     OW10324   4.058   0.784   2.708
 3142SOL    HW110325   4.122   0.835   2.765
 3142SOL    HW210326   4.028   0.841   2.631
 3143SOL     OW10327   6.479   1.856   0.222
 3143SOL    HW110328   6.456   1.926   0.155
 3143SOL    HW210329   6.573   1.870   0.253
 3144SOL     OW10330   4.276   3.761   6.860
 3144SOL    HW110331   4.233   3.820   6.928
 3144SOL    HW210332   4.324   3.687   6.907
 3145SOL     OW10333   1.795   6.530   2.192
 3145SOL    HW110334   1.853   6.604   2.158
 3145SOL    HW210335   1.852   6.465   2.242
 3146SOL     OW10336   1.226   1.183   4.824
 3146SOL    HW110337   1.297   1.172   4.754
 3146SOL    HW210338   1.166   1.258   4.799
 3147SOL     OW10339   3.358   5.229   6.881
 3147SOL    HW110340   3.390   5.151   6.935
 3147SOL    HW210341   3.259   5.235   6.886
 3148SOL     OW10342   0.364   0.190   3.623
 3148SOL    HW110343   0.390   0.285   3.606
 3148SOL    HW210344   0.264   0.183   3.625
 3149SOL     OW10345   3.162   1.212   6.406
 3149SOL    HW110346   3.143   1.288   6.468
 3149SOL    HW210347   3.088   1.145   6.410
 3150SOL     OW10348   6.402   5.180   6.012
 3150SOL    HW110349   6.496   5.155   6.037
 3150SOL    HW210350   6.366   5.111   5.949
 3151SOL     OW10351   6.907   2.076   6.065
 3151SOL    HW110352   6.844   2.008   6.029
 3151SOL    HW210353   6.860   2.133   6.132
 3152SOL     OW10354   0.844   4.400   6.791
 3152SOL    HW110355   0.903   4.480   6.806
 3152SOL    HW210356   0.816   4.362   6.879
 3153SOL     OW10357   6.174   4.772   0.551
 3153SOL    HW110358   6.153   4.819   0.465
 3153SOL    HW210359   6.269   4.791   0.576
 3154SOL     OW10360   5.829   0.841   1.246
 3154SOL    HW110361   5.771   0.895   1.308
 3154SOL    HW210362   5.789   0.751   1.233
 3155SOL     OW10363   6.582   4.564   0.871
 3155SOL    HW110364   6.621   4.638   0.927
 3155SOL    HW210365   6.655   4.505   0.838
 3156SOL     OW10366   3.456   4.007   1.984
 3156SOL    HW110367   3.367   4.007   2.030
 3156SOL    HW210368   3.465   3.923   1.930
 3157SOL     OW10369   1.549   2.247   4.866
 3157SOL    HW110370   1.568   2.320   4.801
 3157SOL    HW210371   1.588   2.161   4.834
 3158SOL     OW10372   2.663   1.859   5.375
 3158SOL    HW110373   2.760   1.876   5.358
 3158SOL    HW210374   2.619   1.945   5.402
 3159SOL     OW10375   5.086   0.150   0.209
 3159SOL    HW110376   5.073   0.075   0.274
 3159SOL    HW210377   4.999   0.172   0.166
 3160SOL     OW10378   2.051   6.755   5.216
 3160SOL    HW110379   2.003   6.669   5.232
 3160SOL    HW210380   2.129   6.739   5.156
 3161SOL     OW10381   1.975   2.865   2.667
 3161SOL    HW110382   1.916   2.946   2.671
 3161SOL    HW210383   1.978   2.821   2.757
 3162SOL     OW10384   2.183   5.570   0.226
 3162SOL    HW110385   2.273   5.572   0.269
 3162SOL    HW210386   2.145   5.478   0.232
 3163SOL     OW10387   3.664   3.420   0.290
 3163SOL    HW110388   3.686   3.498   0.350
 3163SOL    HW210389   3.620   3.348   0.344
 3164SOL     OW10390   3.683   5.777   2.198
 3164SOL    HW110391   3.771   5.764   2.152
 3164SOL    HW210392   3.638   5.688   2.208
 3165SOL     OW10393   1.373   5.346   0.951
 3165SOL    HW110394   1.406   5.359   0.857
 3165SOL    HW210395   1.274   5.342   0.952
 3166SOL     OW10396   4.601   1.111   4.013
 3166SOL    HW110397   4.590   1.013   3.999
 3166SOL    HW210398   4.603   1.158   3.924
 3167SOL     OW10399   5.765   4.467   0.943
 3167SOL    HW110400   5.692   4.495   1.006
 3167SOL    HW210401   5.825   4.545   0.925
 3168SOL     OW10402   5.912   2.415   1.143
 3168SOL    HW110403   5.827   2.466   1.134
 3168SOL    HW210404   5.904   2.350   1.220
 3169SOL     OW10405   2.046   4.496   3.110
 3169SOL    HW110406   2.137   4.454   3.112
 3169SOL    HW210407   2.015   4.513   3.204
 3170SOL     OW10408   4.335   6.071   2.501
 3170SOL    HW110409   4.236   6.084   2.506
 3170SOL    HW210410   4.380   6.160   2.489
 3171SOL     OW10411   5.585   2.182   1.892
 3171SOL    HW110412   5.532   2.131   1.825
 3171SOL    HW210413   5.632   2.118   1.954
 3172SOL     OW10414   0.282   5.442   7.008
 3172SOL    HW110415   0.191   5.480   0.002
 3172SOL    HW210416   0.351   5.504   0.023
 3173SOL     OW10417   2.760   2.571   6.709
 3173SOL    HW110418   2.670   2.584   6.667
 3173SOL    HW210419   2.805   2.659   6.719
 3174SOL     OW10420   2.491   2.783   6.171
 3174SOL    HW110421   2.471   2.849   6.243
 3174SOL    HW210422   2.407   2.740   6.140
 3175SOL     OW10423   5.956   1.319   2.106
 3175SOL    HW110424   5.912   1.230   2.093
 3175SOL    HW210425   6.044   1.307   2.151
 3176SOL     OW10426   0.211   2.980   5.466
 3176SOL    HW110427   0.248   3.072   5.467
 3176SOL    HW210428   0.282   2.915   5.497
 3177SOL     OW10429   5.068   4.117   3.944
 3177SOL    HW110430   5.116   4.033   3.971
 3177SOL    HW210431   4.981   4.093   3.902
 3178SOL     OW10432   6.372   2.187   0.374
 3178SOL    HW110433   6.276   2.157   0.374
 3178SOL    HW210434   6.383   2.262   0.309
 3179SOL     OW10435   1.454   1.687   1.953
 3179SOL    HW110436   1.527   1.619   1.958
 3179SOL    HW210437   1.488   1.776   1.982
 3180SOL     OW10438   5.621   6.379   0.197
 3180SOL    HW110439   5.622   6.421   0.287
 3180SOL    HW210440   5.556   6.303   0.195
 3181SOL     OW10441   6.701   1.299   4.296
 3181SOL    HW110442   6.638   1.281   4.372
 3181SOL    HW210443   6.787   1.253   4.313
 3182SOL     OW10444   2.600   0.585   6.218
 3182SOL    HW110445   2.643   0.521   6.281
 3182SOL    HW210446   2.538   0.644   6.269
 3183SOL     OW10447   4.479   4.996   2.124
 3183SOL    HW110448   4.513   4.954   2.040
 3183SOL    HW210449   4.537   5.073   2.149
 3184SOL     OW10450   0.305   2.102   2.662
 3184SOL    HW110451   0.257   2.089   2.748
 3184SOL    HW210452   0.241   2.129   2.591
 3185SOL     OW10453   6.036   6.893   6.205
 3185SOL    HW110454   5.973   6.971   6.211
 3185SOL    HW210455   5.991   6.818   6.156
 3186SOL     OW10456   2.870   1.654   0.688
 3186SOL    HW110457   2.824   1.600   0.618
 3186SOL    HW210458   2.949   1.604   0.722
 3187SOL     OW10459   3.505   5.169   2.223
 3187SOL    HW110460   3.409   5.144   2.209
 3187SOL    HW210461   3.560   5.086   2.232
 3188SOL     OW10462   2.167   5.567   4.758
 3188SOL    HW110463   2.190   5.660   4.787
 3188SOL    HW210464   2.092   5.570   4.692
 3189SOL     OW10465   1.989   1.518   0.329
 3189SOL    HW110466   1.925   1.442   0.321
 3189SOL    HW210467   1.955   1.584   0.396
 3190SOL     OW10468   6.465   5.739   6.723
 3190SOL    HW110469   6.542   5.722   6.785
 3190SOL    HW210470   6.418   5.653   6.703
 3191SOL     OW10471   4.664   5.330   1.921
 3191SOL    HW110472   4.646   5.319   2.019
 3191SOL    HW210473   4.604   5.269   1.869
 3192SOL     OW10474   0.180   2.544   0.715
 3192SOL    HW110475   0.132   2.496   0.789
 3192SOL    HW210476   0.177   2.643   0.732
 3193SOL     OW10477   4.119   1.327   5.237
 3193SOL    HW110478   4.189   1.304   5.304
 3193SOL    HW210479   4.116   1.426   5.224
 3194SOL     OW10480   0.876   1.032   5.072
 3194SOL    HW110481   0.778   1.052   5.083
 3194SOL    HW210482   0.911   0.993   5.157
 3195SOL     OW10483   0.496   1.442   1.807
 3195SOL    HW110484   0.540   1.521   1.764
 3195SOL    HW210485   0.561   1.367   1.812
 3196SOL     OW10486   6.647   0.596   6.525
 3196SOL    HW110487   6.598   0.626   6.607
 3196SOL    HW210488   6.745   0.596   6.542
 3197SOL     OW10489   2.273   0.038   5.369
 3197SOL    HW110490   2.249   6.965   5.380
 3197SOL    HW210491   2.291   0.079   5.458
 3198SOL     OW10492   6.100   2.473   3.349
 3198SOL    HW110493   6.049   2.554   3.378
 3198SOL    HW210494   6.195   2.497   3.331
 3199SOL     OW10495   5.347   4.804   3.046
 3199SOL    HW110496   5.406   4.884   3.061
 3199SOL    HW210497   5.393   4.722   3.080
 3200SOL     OW10498   6.113   3.208   2.899
 3200SOL    HW110499   6.158   3.128   2.939
 3200SOL    HW210500   6.103   3.278   2.970
 3201SOL     OW10501   6.335   4.937   3.376
 3201SOL    HW110502   6.352   5.023   3.327
 3201SOL    HW210503   6.249   4.943   3.426
 3202SOL     OW10504   0.857   5.486   0.634
 3202SOL    HW110505   0.944   5.460   0.592
 3202SOL    HW210506   0.782   5.464   0.571
 3203SOL     OW10507   5.627   1.441   1.570
 3203SOL    HW110508   5.691   1.426   1.646
 3203SOL    HW210509   5.618   1.539   1.553
 3204SOL     OW10510   2.787   0.825   3.114
 3204SOL    HW110511   2.781   0.790   3.207
 3204SOL    HW210512   2.719   0.778   3.057
 3205SOL     OW10513   4.950   2.777   5.752
 3205SOL    HW110514   5.002   2.856   5.720
 3205SOL    HW210515   4.916   2.795   5.844
 3206SOL     OW10516   2.505   3.835   1.210
 3206SOL    HW110517   2.477   3.929   1.193
 3206SOL    HW210518   2.471   3.776   1.137
 3207SOL     OW10519   1.260   1.021   6.350
 3207SOL    HW110520   1.319   0.943   6.328
 3207SOL    HW210521   1.271   1.045   6.447
 3208SOL     OW10522   5.583   6.119   6.302
 3208SOL    HW110523   5.534   6.203   6.324
 3208SOL    HW210524   5.519   6.042   6.301
 3209SOL     OW10525   3.117   4.979   4.610
 3209SOL    HW110526   3.071   4.932   4.686
 3209SOL    HW210527   3.048   5.017   4.548
 3210SOL     OW10528   1.270   5.042   1.380
 3210SOL    HW110529   1.213   4.989   1.442
 3210SOL    HW210530   1.220   5.062   1.296
 3211SOL     OW10531   2.039   4.713   0.408
 3211SOL    HW110532   2.028   4.620   0.374
 3211SOL    HW210533   2.131   4.723   0.446
 3212SOL     OW10534   3.031   6.832   2.426
 3212SOL    HW110535   3.117   6.788   2.399
 3212SOL    HW210536   2.966   6.827   2.349
 3213SOL     OW10537   1.819   0.590   6.478
 3213SOL    HW110538   1.812   0.689   6.490
 3213SOL    HW210539   1.901   0.569   6.425
 3214SOL     OW10540   4.756   6.355   2.810
 3214SOL    HW110541   4.697   6.321   2.884
 3214SOL    HW210542   4.840   6.301   2.807
 3215SOL     OW10543   0.974   3.879   1.014
 3215SOL    HW110544   0.953   3.830   0.929
 3215SOL    HW210545   1.064   3.850   1.047
 3216SOL     OW10546   5.677   5.169   0.913
 3216SOL    HW110547   5.607   5.239   0.901
 3216SOL    HW210548   5.639   5.093   0.966
 3217SOL     OW10549   0.289   5.523   2.346
 3217SOL    HW110550   0.372   5.559   2.304
 3217SOL    HW210551   0.293   5.423   2.347
 3218SOL     OW10552   5.888   2.392   3.526
 3218SOL    HW110553   5.820   2.448   3.479
 3218SOL    HW210554   5.978   2.409   3.487
 3219SOL     OW10555   6.736   0.394   4.899
 3219SOL    HW110556   6.660   0.450   4.933
 3219SOL    HW210557   6.752   0.415   4.802
 3220SOL     OW10558   0.317   5.666   6.155
 3220SOL    HW110559   0.391   5.641   6.092
 3220SOL    HW210560   0.249   5.721   6.106
 3221SOL     OW10561   3.173   6.569   2.710
 3221SOL    HW110562   3.228   6.645   2.676
 3221SOL    HW210563   3.076   6.593   2.705
 3222SOL     OW10564   3.016   0.826   2.370
 3222SOL    HW110565   3.057   0.858   2.284
 3222SOL    HW210566   3.029   0.895   2.441
 3223SOL     OW10567   2.864   0.031   0.064
 3223SOL    HW110568   2.853   6.970   0.012
 3223SOL    HW210569   2.953   0.031   0.110
 3224SOL     OW10570   4.743   2.349   5.035
 3224SOL    HW110571   4.659   2.388   4.998
 3224SOL    HW210572   4.770   2.269   4.981
 3225SOL     OW10573   4.477   1.492   5.139
 3225SOL    HW110574   4.458   1.400   5.173
 3225SOL    HW210575   4.445   1.560   5.206
 3226SOL     OW10576   1.697   0.467   1.691
 3226SOL    HW110577   1.626   0.500   1.754
 3226SOL    HW210578   1.682   0.506   1.601
 3227SOL     OW10579   3.189   3.205   6.562
 3227SOL    HW110580   3.204   3.263   6.482
 3227SOL    HW210581   3.150   3.118   6.532
 3228SOL     OW10582   6.950   3.648   0.609
 3228SOL    HW110583   6.880   3.582   0.582
 3228SOL    HW210584   6.985   3.694   0.528
 3229SOL     OW10585   3.633   0.682   5.394
 3229SOL    HW110586   3.537   0.686   5.423
 3229SOL    HW210587   3.692   0.685   5.474
 3230SOL     OW10588   1.724   5.722   6.115
 3230SOL    HW110589   1.778   5.639   6.103
 3230SOL    HW210590   1.775   5.800   6.078
 3231SOL     OW10591   2.567   0.959   2.827
 3231SOL    HW110592   2.666   0.970   2.817
 3231SOL    HW210593   2.546   0.866   2.858
 3232SOL     OW10594   3.960   5.628   4.046
 3232SOL    HW110595   3.898   5.692   4.091
 3232SOL    HW210596   4.027   5.680   3.992
 3233SOL     OW10597   0.202   2.783   0.392
 3233SOL    HW110598   0.116   2.768   0.441
 3233SOL    HW210599   0.226   2.700   0.341
 3234SOL     OW10600   1.150   2.915   0.327
 3234SOL    HW110601   1.181   2.961   0.244
 3234SOL    HW210602   1.220   2.924   0.398
 3235SOL     OW10603   6.307   0.119   1.823
 3235SOL    HW110604   6.223   0.065   1.819
 3235SOL    HW210605   6.383   0.059   1.846
 3236SOL     OW10606   1.051   4.690   0.797
 3236SOL    HW110607   1.009   4.779   0.813
 3236SOL    HW210608   1.079   4.684   0.700
 3237SOL     OW10609   6.050   1.288   2.912
 3237SOL    HW110610   6.041   1.357   2.984
 3237SOL    HW210611   6.090   1.205   2.950
 3238SOL     OW10612   6.056   5.091   0.029
 3238SOL    HW110613   6.056   4.991   0.034
 3238SOL    HW210614   6.149   5.124   0.017
 3239SOL     OW10615   0.105   0.208   3.609
 3239SOL    HW110616   0.063   0.298   3.620
 3239SOL    HW210617   0.035   0.142   3.581
 3240SOL     OW10618   0.571   0.492   5.722
 3240SOL    HW110619   0.486   0.544   5.713
 3240SOL    HW210620   0.579   0.458   5.815
 3241SOL     OW10621   5.377   1.564   5.749
 3241SOL    HW110622   5.446   1.496   5.725
 3241SOL    HW210623   5.289   1.538   5.708
 3242SOL     OW10624   4.839   3.714   5.747
 3242SOL    HW110625   4.781   3.632   5.748
 3242SOL    HW210626   4.790   3.790   5.705
 3243SOL     OW10627   4.719   5.404   0.240
 3243SOL    HW110628   4.754   5.454   0.319
 3243SOL    HW210629   4.650   5.339   0.269
 3244SOL     OW10630   5.732   6.258   7.002
 3244SOL    HW110631   5.679   6.283   0.061
 3244SOL    HW210632   5.830   6.270   7.022
 3245SOL     OW10633   5.003   1.774   4.708
 3245SOL    HW110634   4.935   1.719   4.661
 3245SOL    HW210635   5.086   1.779   4.653
 3246SOL     OW10636   6.334   0.121   2.762
 3246SOL    HW110637   6.348   0.171   2.677
 3246SOL    HW210638   6.418   0.073   2.788
 3247SOL     OW10639   6.649   4.680   2.104
 3247SOL    HW110640   6.593   4.763   2.104
 3247SOL    HW210641   6.721   4.688   2.173
 3248SOL     OW10642   5.225   2.417   2.775
 3248SOL    HW110643   5.140   2.414   2.827
 3248SOL    HW210644   5.301   2.437   2.837
 3249SOL     OW10645   3.334   4.163   3.754
 3249SOL    HW110646   3.271   4.190   3.682
 3249SOL    HW210647   3.315   4.069   3.782
 3250SOL     OW10648   5.461   0.388   2.927
 3250SOL    HW110649   5.405   0.417   2.849
 3250SOL    HW210650   5.422   0.422   3.012
 3251SOL     OW10651   3.099   0.999   4.237
 3251SOL    HW110652   3.006   0.966   4.217
 3251SOL    HW210653   3.148   1.016   4.152
 3252SOL     OW10654   2.647   0.527   2.637
 3252SOL    HW110655   2.716   0.470   2.682
 3252SOL    HW210656   2.692   0.587   2.571
 3253SOL     OW10657   4.550   3.594   0.422
 3253SOL    HW110658   4.638   3.550   0.443
 3253SOL    HW210659   4.487   3.526   0.384
 3254SOL     OW10660   5.175   6.766   6.356
 3254SOL    HW110661   5.116   6.687   6.374
 3254SOL    HW210662   5.238   6.779   6.432
 3255SOL     OW10663   5.160   6.472   1.200
 3255SOL    HW110664   5.208   6.547   1.246
 3255SOL    HW210665   5.075   6.506   1.161
 3256SOL     OW10666   3.655   1.999   0.909
 3256SOL    HW110667   3.652   1.943   0.992
 3256SOL    HW210668   3.599   2.082   0.923
 3257SOL     OW10669   2.118   1.715   1.808
 3257SOL    HW110670   2.071   1.782   1.751
 3257SOL    HW210671   2.135   1.753   1.899
 3258SOL     OW10672   3.969   5.538   3.439
 3258SOL    HW110673   3.988   5.572   3.347
 3258SOL    HW210674   3.902   5.464   3.434
 3259SOL     OW10675   5.035   5.441   4.194
 3259SOL    HW110676   5.100   5.423   4.268
 3259SOL    HW210677   4.983   5.523   4.214
 3260SOL     OW10678   1.714   3.473   1.485
 3260SOL    HW110679   1.688   3.536   1.558
 3260SOL    HW210680   1.811   3.450   1.494
 3261SOL     OW10681   5.103   0.616   1.287
 3261SOL    HW110682   5.006   0.622   1.261
 3261SOL    HW210683   5.147   0.704   1.270
 3262SOL     OW10684   3.861   2.045   1.942
 3262SOL    HW110685   3.784   2.098   1.979
 3262SOL    HW210686   3.856   1.951   1.977
 3263SOL     OW10687   3.195   1.111   2.860
 3263SOL    HW110688   3.259   1.187   2.870
 3263SOL    HW210689   3.113   1.129   2.915
 3264SOL     OW10690   2.007   5.454   1.142
 3264SOL    HW110691   1.935   5.394   1.178
 3264SOL    HW210692   2.095   5.406   1.144
 3265SOL     OW10693   5.666   6.837   6.599
 3265SOL    HW110694   5.584   6.893   6.618
 3265SOL    HW210695   5.662   6.802   6.506
 3266SOL     OW10696   3.160   4.487   6.756
 3266SOL    HW110697   3.092   4.554   6.727
 3266SOL    HW210698   3.148   4.403   6.703
 3267SOL     OW10699   2.631   6.834   2.425
 3267SOL    HW110700   2.646   6.740   2.458
 3267SOL    HW210701   2.664   6.899   2.493
 3268SOL     OW10702   1.693   4.519   0.992
 3268SOL    HW110703   1.720   4.561   0.905
 3268SOL    HW210704   1.752   4.552   1.065
 3269SOL     OW10705   6.556   5.629   1.968
 3269SOL    HW110706   6.604   5.572   1.901
 3269SOL    HW210707   6.602   5.717   1.977
 3270SOL     OW10708   1.629   3.478   0.034
 3270SOL    HW110709   1.634   3.572   0.066
 3270SOL    HW210710   1.566   3.426   0.092
 3271SOL     OW10711   6.761   3.301   1.641
 3271SOL    HW110712   6.731   3.266   1.553
 3271SOL    HW210713   6.681   3.329   1.695
 3272SOL     OW10714   2.751   4.466   6.751
 3272SOL    HW110715   2.821   4.494   6.816
 3272SOL    HW210716   2.682   4.538   6.743
 3273SOL     OW10717   6.369   4.904   6.869
 3273SOL    HW110718   6.464   4.924   6.846
 3273SOL    HW210719   6.309   4.949   6.803
 3274SOL     OW10720   5.965   0.380   1.060
 3274SOL    HW110721   5.986   0.466   1.107
 3274SOL    HW210722   5.866   0.371   1.051
 3275SOL     OW10723   4.599   0.725   0.057
 3275SOL    HW110724   4.548   0.740   6.996
 3275SOL    HW210725   4.697   0.723   0.036
 3276SOL     OW10726   4.047   6.543   6.612
 3276SOL    HW110727   4.031   6.468   6.675
 3276SOL    HW210728   4.021   6.515   6.519
 3277SOL     OW10729   3.536   1.591   0.998
 3277SOL    HW110730   3.604   1.601   1.071
 3277SOL    HW210731   3.446   1.575   1.038
 3278SOL     OW10732   1.230   0.709   5.813
 3278SOL    HW110733   1.131   0.699   5.801
 3278SOL    HW210734   1.249   0.757   5.898
 3279SOL     OW10735   5.388   6.915   0.766
 3279SOL    HW110736   5.464   6.856   0.739
 3279SOL    HW210737   5.336   6.869   0.839
 3280SOL     OW10738   4.879   4.829   4.723
 3280SOL    HW110739   4.925   4.874   4.647
 3280SOL    HW210740   4.781   4.848   4.718
 3281SOL     OW10741   1.183   5.064   1.120
 3281SOL    HW110742   1.149   5.129   1.052
 3281SOL    HW210743   1.132   4.978   1.111
 3282SOL     OW10744   6.675   4.546   5.100
 3282SOL    HW110745   6.654   4.494   5.184
 3282SOL    HW210746   6.683   4.482   5.023
 3283SOL     OW10747   3.367   0.937   1.476
 3283SOL    HW110748   3.406   0.987   1.398
 3283SOL    HW210749   3.324   0.853   1.443
 3284SOL     OW10750   1.018   5.845   5.458
 3284SOL    HW110751   0.989   5.839   5.554
 3284SOL    HW210752   0.982   5.766   5.408
 3285SOL     OW10753   4.995   2.235   4.803
 3285SOL    HW110754   5.086   2.193   4.795
 3285SOL    HW210755   4.985   2.305   4.732
 3286SOL     OW10756   3.385   2.649   1.497
 3286SOL    HW110757   3.307   2.711   1.510
 3286SOL    HW210758   3.468   2.691   1.534
 3287SOL     OW10759   0.667   0.324   0.186
 3287SOL    HW110760   0.748   0.371   0.151
 3287SOL    HW210761   0.595   0.391   0.206
 3288SOL     OW10762   1.873   0.005   0.093
 3288SOL    HW110763   1.963   6.991   0.118
 3288SOL    HW210764   1.846   6.993   0.003
 3289SOL     OW10765   2.589   1.592   6.079
 3289SOL    HW110766   2.665   1.545   6.033
 3289SOL    HW210767   2.550   1.660   6.016
 3290SOL     OW10768   6.718   5.254   0.991
 3290SOL    HW110769   6.636   5.269   0.937
 3290SOL    HW210770   6.692   5.239   1.087
 3291SOL     OW10771   2.563   1.013   5.801
 3291SOL    HW110772   2.558   1.042   5.705
 3291SOL    HW210773   2.633   0.942   5.810
 3292SOL     OW10774   0.016   1.239   0.553
 3292SOL    HW110775   6.966   1.275   0.612
 3292SOL    HW210776   0.091   1.206   0.609
 3293SOL     OW10777   6.605   4.853   1.591
 3293SOL    HW110778   6.657   4.775   1.625
 3293SOL    HW210779   6.511   4.825   1.573
 3294SOL     OW10780   4.959   2.324   6.054
 3294SOL    HW110781   5.036   2.278   6.099
 3294SOL    HW210782   4.941   2.278   5.966
 3295SOL     OW10783   1.173   3.346   1.833
 3295SOL    HW110784   1.104   3.322   1.901
 3295SOL    HW210785   1.147   3.305   1.745
 3296SOL     OW10786   0.672   0.834   3.397
 3296SOL    HW110787   0.674   0.753   3.456
 3296SOL    HW210788   0.589   0.886   3.416
 3297SOL     OW10789   2.628   1.142   5.522
 3297SOL    HW110790   2.550   1.193   5.487
 3297SOL    HW210791   2.671   1.090   5.448
 3298SOL     OW10792   6.799   2.224   5.274
 3298SOL    HW110793   6.788   2.130   5.243
 3298SOL    HW210794   6.893   2.254   5.257
 3299SOL     OW10795   3.779   5.877   3.190
 3299SOL    HW110796   3.770   5.802   3.255
 3299SOL    HW210797   3.854   5.937   3.218
 3300SOL     OW10798   1.679   0.581   6.099
 3300SOL    HW110799   1.611   0.640   6.055
 3300SOL    HW210800   1.659   0.572   6.196
 3301SOL     OW10801   2.123   3.342   3.914
 3301SOL    HW110802   2.144   3.354   4.011
 3301SOL    HW210803   2.129   3.245   3.890
 3302SOL     OW10804   0.828   5.165   5.326
 3302SOL    HW110805   0.923   5.141   5.304
 3302SOL    HW210806   0.772   5.157   5.244
 3303SOL     OW10807   3.103   3.773   6.949
 3303SOL    HW110808   3.034   3.840   6.978
 3303SOL    HW210809   3.149   3.808   6.867
 3304SOL     OW10810   1.533   5.060   6.158
 3304SOL    HW110811   1.434   5.055   6.169
 3304SOL    HW210812   1.573   4.970   6.178
 3305SOL     OW10813   2.892   1.077   1.888
 3305SOL    HW110814   2.840   1.068   1.973
 3305SOL    HW210815   2.989   1.090   1.909
 3306SOL     OW10816   1.110   4.722   4.512
 3306SOL    HW110817   1.170   4.799   4.492
 3306SOL    HW210818   1.063   4.738   4.599
 3307SOL     OW10819   1.131   0.193   5.083
 3307SOL    HW110820   1.052   0.141   5.053
 3307SOL    HW210821   1.200   0.195   5.011
 3308SOL     OW10822   3.207   5.473   1.092
 3308SOL    HW110823   3.297   5.474   1.136
 3308SOL    HW210824   3.217   5.444   0.997
 3309SOL     OW10825   6.398   4.677   4.471
 3309SOL    HW110826   6.450   4.647   4.391
 3309SOL    HW210827   6.428   4.768   4.498
 3310SOL     OW10828   6.883   4.291   4.707
 3310SOL    HW110829   6.890   4.381   4.663
 3310SOL    HW210830   6.850   4.224   4.641
 3311SOL     OW10831   3.233   4.103   0.466
 3311SOL    HW110832   3.205   4.185   0.516
 3311SOL    HW210833   3.158   4.072   0.407
 3312SOL     OW10834   4.109   3.144   5.925
 3312SOL    HW110835   4.029   3.179   5.973
 3312SOL    HW210836   4.161   3.221   5.887
 3313SOL     OW10837   1.365   6.572   3.566
 3313SOL    HW110838   1.388   6.640   3.636
 3313SOL    HW210839   1.380   6.612   3.475
 3314SOL     OW10840   2.472   0.548   1.727
 3314SOL    HW110841   2.535   0.473   1.745
 3314SOL    HW210842   2.501   0.597   1.645
 3315SOL     OW10843   0.604   4.152   5.131
 3315SOL    HW110844   0.517   4.104   5.124
 3315SOL    HW210845   0.609   4.222   5.059
 3316SOL     OW10846   4.313   0.905   4.929
 3316SOL    HW110847   4.288   1.002   4.937
 3316SOL    HW210848   4.385   0.895   4.861
 3317SOL     OW10849   5.073   2.451   2.354
 3317SOL    HW110850   4.990   2.418   2.400
 3317SOL    HW210851   5.061   2.548   2.330
 3318SOL     OW10852   1.798   1.328   0.281
 3318SOL    HW110853   1.806   1.274   0.365
 3318SOL    HW210854   1.703   1.358   0.269
 3319SOL     OW10855   5.329   1.000   3.678
 3319SOL    HW110856   5.274   0.951   3.746
 3319SOL    HW210857   5.350   0.940   3.602
 3320SOL     OW10858   5.949   0.883   0.142
 3320SOL    HW110859   5.890   0.962   0.126
 3320SOL    HW210860   6.007   0.901   0.221
 3321SOL     OW10861   5.795   1.663   0.873
 3321SOL    HW110862   5.861   1.720   0.922
 3321SOL    HW210863   5.717   1.719   0.845
 3322SOL     OW10864   0.302   2.548   1.278
 3322SOL    HW110865   0.394   2.531   1.311
 3322SOL    HW210866   0.277   2.643   1.297
 3323SOL     OW10867   2.458   2.582   0.848
 3323SOL    HW110868   2.439   2.672   0.887
 3323SOL    HW210869   2.386   2.558   0.783
 3324SOL     OW10870   4.426   5.160   6.103
 3324SOL    HW110871   4.472   5.186   6.018
 3324SOL    HW210872   4.354   5.094   6.082
 3325SOL     OW10873   0.362   3.938   0.185
 3325SOL    HW110874   0.304   3.988   0.121
 3325SOL    HW210875   0.429   4.000   0.226
 3326SOL     OW10876   4.540   1.387   1.676
 3326SOL    HW110877   4.450   1.429   1.684
 3326SOL    HW210878   4.556   1.360   1.581
 3327SOL     OW10879   2.759   5.756   1.104
 3327SOL    HW110880   2.696   5.777   1.179
 3327SOL    HW210881   2.768   5.835   1.044
 3328SOL     OW10882   4.037   1.789   0.592
 3328SOL    HW110883   4.131   1.762   0.573
 3328SOL    HW210884   3.989   1.807   0.506
 3329SOL     OW10885   5.455   0.221   5.571
 3329SOL    HW110886   5.357   0.218   5.589
 3329SOL    HW210887   5.494   0.130   5.585
 3330SOL     OW10888   6.230   3.566   1.745
 3330SOL    HW110889   6.159   3.636   1.756
 3330SOL    HW210890   6.262   3.566   1.651
 3331SOL     OW10891   2.631   3.171   1.495
 3331SOL    HW110892   2.580   3.204   1.574
 3331SOL    HW210893   2.592   3.084   1.463
 3332SOL     OW10894   5.950   5.352   0.215
 3332SOL    HW110895   5.988   5.324   0.303
 3332SOL    HW210896   5.978   5.287   0.144
 3333SOL     OW10897   3.861   5.879   6.332
 3333SOL    HW110898   3.761   5.889   6.326
 3333SOL    HW210899   3.898   5.861   6.241
 3334SOL     OW10900   3.493   3.633   1.194
 3334SOL    HW110901   3.519   3.715   1.142
 3334SOL    HW210902   3.437   3.574   1.136
 3335SOL     OW10903   4.826   5.140   5.254
 3335SOL    HW110904   4.771   5.065   5.290
 3335SOL    HW210905   4.914   5.141   5.300
 3336SOL     OW10906   3.118   4.906   4.979
 3336SOL    HW110907   3.035   4.891   4.926
 3336SOL    HW210908   3.196   4.865   4.932
 3337SOL     OW10909   3.145   2.809   1.962
 3337SOL    HW110910   3.148   2.743   1.886
 3337SOL    HW210911   3.109   2.764   2.044
 3338SOL     OW10912   6.207   3.623   0.928
 3338SOL    HW110913   6.191   3.680   0.848
 3338SOL    HW210914   6.297   3.580   0.922
 3339SOL     OW10915   6.889   0.003   6.688
 3339SOL    HW110916   6.953   0.072   6.655
 3339SOL    HW210917   6.802   0.046   6.711
 3340SOL     OW10918   3.771   0.078   1.313
 3340SOL    HW110919   3.849   0.067   1.252
 3340SOL    HW210920   3.747   0.175   1.319
 3341SOL     OW10921   1.664   6.065   3.750
 3341SOL    HW110922   1.748   6.037   3.702
 3341SOL    HW210923   1.587   6.013   3.713
 3342SOL     OW10924   2.391   6.613   4.408
 3342SOL    HW110925   2.359   6.584   4.499
 3342SOL    HW210926   2.407   6.532   4.351
 3343SOL     OW10927   4.999   2.819   0.351
 3343SOL    HW110928   5.063   2.804   0.425
 3343SOL    HW210929   4.908   2.787   0.378
 3344SOL     OW10930   5.909   3.404   4.600
 3344SOL    HW110931   5.924   3.477   4.534
 3344SOL    HW210932   5.839   3.432   4.666
 3345SOL     OW10933   1.975   3.838   5.755
 3345SOL    HW110934   2.061   3.865   5.712
 3345SOL    HW210935   1.910   3.810   5.684
 3346SOL     OW10936   1.603   1.008   1.519
 3346SOL    HW110937   1.537   0.949   1.566
 3346SOL    HW210938   1.555   1.068   1.456
 3347SOL     OW10939   0.543   4.937   3.731
 3347SOL    HW110940   0.608   5.014   3.728
 3347SOL    HW210941   0.550   4.892   3.820
 3348SOL     OW10942   2.922   3.231   3.157
 3348SOL    HW110943   2.912   3.189   3.067
 3348SOL    HW210944   2.958   3.163   3.222
 3349SOL     OW10945   0.457   4.677   4.442
 3349SOL    HW110946   0.541   4.623   4.442
 3349SOL    HW210947   0.384   4.627   4.394
 3350SOL     OW10948   1.210   2.040   6.229
 3350SOL    HW110949   1.135   2.007   6.287
 3350SOL    HW210950   1.254   2.118   6.273
 3351SOL     OW10951   5.164   0.301   2.631
 3351SOL    HW110952   5.132   0.249   2.710
 3351SOL    HW210953   5.236   0.364   2.660
 3352SOL     OW10954   0.133   3.458   0.576
 3352SOL    HW110955   0.091   3.548   0.587
 3352SOL    HW210956   0.088   3.409   0.501
 3353SOL     OW10957   0.875   6.295   2.055
 3353SOL    HW110958   0.824   6.374   2.090
 3353SOL    HW210959   0.962   6.326   2.017
 3354SOL     OW10960   5.987   2.770   4.264
 3354SOL    HW110961   5.945   2.741   4.178
 3354SOL    HW210962   5.925   2.750   4.340
 3355SOL     OW10963   1.520   1.301   0.140
 3355SOL    HW110964   1.577   1.328   0.062
 3355SOL    HW210965   1.488   1.207   0.126
 3356SOL     OW10966   1.831   3.192   0.316
 3356SOL    HW110967   1.806   3.135   0.394
 3356SOL    HW210968   1.860   3.282   0.349
 3357SOL     OW10969   2.291   5.212   1.906
 3357SOL    HW110970   2.332   5.121   1.895
 3357SOL    HW210971   2.357   5.281   1.877
 3358SOL     OW10972   4.554   0.170   1.729
 3358SOL    HW110973   4.483   0.213   1.786
 3358SOL    HW210974   4.513   0.132   1.647
 3359SOL     OW10975   6.661   0.108   4.063
 3359SOL    HW110976   6.561   0.108   4.072
 3359SOL    HW210977   6.698   0.192   4.103
 3360SOL     OW10978   0.009   1.019   0.915
 3360SOL    HW110979   0.001   1.097   0.978
 3360SOL    HW210980   6.991   0.938   0.956
 3361SOL     OW10981   0.307   4.820   2.155
 3361SOL    HW110982   0.342   4.828   2.249
 3361SOL    HW210983   0.312   4.725   2.126
 3362SOL     OW10984   3.765   1.483   4.463
 3362SOL    HW110985   3.679   1.435   4.448
 3362SOL    HW210986   3.765   1.525   4.554
 3363SOL     OW10987   1.120   0.564   6.516
 3363SOL    HW110988   1.096   0.500   6.444
 3363SOL    HW210989   1.069   0.649   6.503
 3364SOL     OW10990   1.384   4.479   4.073
 3364SOL    HW110991   1.373   4.381   4.092
 3364SOL    HW210992   1.321   4.506   4.000
 3365SOL     OW10993   0.894   2.205   4.845
 3365SOL    HW110994   0.859   2.152   4.923
 3365SOL    HW210995   0.961   2.271   4.878
 3366SOL     OW10996   6.517   0.355   5.331
 3366SOL    HW110997   6.479   0.436   5.376
 3366SOL    HW210998   6.612   0.343   5.358
 3367SOL     OW10999   2.151   2.640   2.094
 3367SOL    HW111000   2.178   2.736   2.092
 3367SOL    HW211001   2.194   2.591   2.018
 3368SOL     OW11002   0.784   6.127   6.519
 3368SOL    HW111003   0.872   6.173   6.527
 3368SOL    HW211004   0.716   6.174   6.575
 3369SOL     OW11005   3.568   2.139   5.646
 3369SOL    HW111006   3.664   2.114   5.664
 3369SOL    HW211007   3.565   2.209   5.575
 3370SOL     OW11008   6.630   6.156   5.476
 3370SOL    HW111009   6.558   6.178   5.410
 3370SOL    HW211010   6.706   6.220   5.464
 3371SOL     OW11011   0.734   4.631   2.030
 3371SOL    HW111012   0.676   4.699   1.984
 3371SOL    HW211013   0.680   4.551   2.053
 3372SOL     OW11014   1.093   0.883   2.323
 3372SOL    HW111015   1.058   0.814   2.386
 3372SOL    HW211016   1.170   0.932   2.365
 3373SOL     OW11017   6.381   1.237   3.703
 3373SOL    HW111018   6.300   1.273   3.750
 3373SOL    HW211019   6.433   1.179   3.765
 3374SOL     OW11020   2.711   5.661   4.382
 3374SOL    HW111021   2.648   5.738   4.377
 3374SOL    HW211022   2.781   5.680   4.451
 3375SOL     OW11023   4.892   5.212   4.996
 3375SOL    HW111024   4.862   5.168   5.081
 3375SOL    HW211025   4.823   5.199   4.925
 3376SOL     OW11026   4.022   3.554   3.131
 3376SOL    HW111027   3.976   3.565   3.043
 3376SOL    HW211028   3.956   3.522   3.199
 3377SOL     OW11029   7.023   6.199   4.638
 3377SOL    HW111030   0.045   6.253   4.709
 3377SOL    HW211031   0.057   6.198   4.556
 3378SOL     OW11032   6.406   0.529   1.186
 3378SOL    HW111033   6.337   0.466   1.222
 3378SOL    HW211034   6.405   0.614   1.238
 3379SOL     OW11035   6.813   5.049   6.216
 3379SOL    HW111036   6.838   5.127   6.273
 3379SOL    HW211037   6.715   5.030   6.226
 3380SOL     OW11038   6.024   6.306   5.981
 3380SOL    HW111039   5.998   6.240   5.910
 3380SOL    HW211040   5.989   6.275   6.069
 3381SOL     OW11041   1.994   2.461   0.682
 3381SOL    HW111042   2.069   2.401   0.710
 3381SOL    HW211043   1.929   2.410   0.626
 3382SOL     OW11044   1.023   1.215   0.528
 3382SOL    HW111045   0.950   1.180   0.587
 3382SOL    HW211046   1.057   1.141   0.470
 3383SOL     OW11047   4.760   5.271   2.924
 3383SOL    HW111048   4.807   5.343   2.974
 3383SOL    HW211049   4.805   5.256   2.836
 3384SOL     OW11050   2.990   3.107   4.877
 3384SOL    HW111051   2.913   3.054   4.913
 3384SOL    HW211052   3.032   3.057   4.801
 3385SOL     OW11053   0.184   3.572   3.954
 3385SOL    HW111054   0.180   3.658   4.006
 3385SOL    HW211055   0.178   3.495   4.017
 3386SOL     OW11056   6.068   2.917   5.331
 3386SOL    HW111057   6.084   3.007   5.291
 3386SOL    HW211058   6.001   2.924   5.404
 3387SOL     OW11059   2.399   0.416   2.632
 3387SOL    HW111060   2.495   0.442   2.631
 3387SOL    HW211061   2.350   0.465   2.560
 3388SOL     OW11062   5.979   3.434   1.536
 3388SOL    HW111063   5.984   3.378   1.619
 3388SOL    HW211064   5.997   3.529   1.560
 3389SOL     OW11065   4.628   5.213   4.865
 3389SOL    HW111066   4.584   5.257   4.944
 3389SOL    HW211067   4.660   5.283   4.801
 3390SOL     OW11068   5.452   4.526   5.817
 3390SOL    HW111069   5.393   4.484   5.886
 3390SOL    HW211070   5.439   4.625   5.817
 3391SOL     OW11071   5.986   2.298   4.418
 3391SOL    HW111072   5.899   2.347   4.417
 3391SOL    HW211073   6.055   2.353   4.465
 3392SOL     OW11074   2.442   0.994   3.393
 3392SOL    HW111075   2.405   1.074   3.441
 3392SOL    HW211076   2.542   0.993   3.401
 3393SOL     OW11077   0.245   6.507   0.690
 3393SOL    HW111078   0.236   6.420   0.740
 3393SOL    HW211079   0.158   6.531   0.648
 3394SOL     OW11080   6.080   3.305   0.869
 3394SOL    HW111081   6.102   3.399   0.896
 3394SOL    HW211082   6.009   3.307   0.798
 3395SOL     OW11083   6.762   3.671   3.924
 3395SOL    HW111084   6.802   3.662   3.833
 3395SOL    HW211085   6.669   3.709   3.916
 3396SOL     OW11086   6.977   1.948   3.499
 3396SOL    HW111087   6.994   1.903   3.411
 3396SOL    HW211088   6.916   1.892   3.554
 3397SOL     OW11089   2.843   1.233   5.723
 3397SOL    HW111090   2.914   1.293   5.686
 3397SOL    HW211091   2.774   1.217   5.652
 3398SOL     OW11092   1.036   6.694   4.010
 3398SOL    HW111093   0.946   6.662   4.041
 3398SOL    HW211094   1.091   6.615   3.982
 3399SOL     OW11095   4.820   4.420   4.296
 3399SOL    HW111096   4.893   4.358   4.324
 3399SOL    HW211097   4.860   4.510   4.275
 3400SOL     OW11098   4.095   1.607   5.258
 3400SOL    HW111099   4.190   1.634   5.268
 3400SOL    HW211100   4.042   1.683   5.221
 3401SOL     OW11101   6.791   3.347   1.224
 3401SOL    HW111102   6.872   3.361   1.281
 3401SOL    HW211103   6.813   3.287   1.148
 3402SOL     OW11104   4.191   6.409   0.519
 3402SOL    HW111105   4.272   6.443   0.472
 3402SOL    HW211106   4.215   6.379   0.612
 3403SOL     OW11107   3.367   0.426   4.494
 3403SOL    HW111108   3.419   0.398   4.575
 3403SOL    HW211109   3.410   0.507   4.453
 3404SOL     OW11110   5.207   1.668   6.956
 3404SOL    HW111111   5.242   1.757   6.985
 3404SOL    HW211112   5.246   1.645   6.867
 3405SOL     OW11113   6.188   3.791   4.008
 3405SOL    HW111114   6.098   3.802   3.966
 3405SOL    HW211115   6.178   3.784   4.107
 3406SOL     OW11116   1.364   4.227   1.913
 3406SOL    HW111117   1.432   4.207   1.843
 3406SOL    HW211118   1.404   4.215   2.004
 3407SOL     OW11119   1.423   5.224   0.090
 3407SOL    HW111120   1.449   5.301   0.031
 3407SOL    HW211121   1.434   5.139   0.040
 3408SOL     OW11122   5.383   4.191   4.912
 3408SOL    HW111123   5.302   4.248   4.899
 3408SOL    HW211124   5.418   4.203   5.005
 3409SOL     OW11125   3.125   6.420   5.818
 3409SOL    HW111126   3.192   6.456   5.754
 3409SOL    HW211127   3.157   6.434   5.912
 3410SOL     OW11128   6.036   5.785   0.250
 3410SOL    HW111129   5.998   5.755   0.162
 3410SOL    HW211130   6.100   5.716   0.283
 3411SOL     OW11131   0.285   2.685   1.994
 3411SOL    HW111132   0.320   2.714   1.904
 3411SOL    HW211133   0.315   2.591   2.012
 3412SOL     OW11134   4.510   2.551   6.829
 3412SOL    HW111135   4.545   2.629   6.777
 3412SOL    HW211136   4.422   2.523   6.791
 3413SOL     OW11137   4.834   1.080   2.829
 3413SOL    HW111138   4.931   1.085   2.854
 3413SOL    HW211139   4.826   1.062   2.731
 3414SOL     OW11140   2.287   1.802   5.581
 3414SOL    HW111141   2.293   1.719   5.526
 3414SOL    HW211142   2.379   1.836   5.600
 3415SOL     OW11143   2.258   4.608   4.504
 3415SOL    HW111144   2.271   4.621   4.406
 3415SOL    HW211145   2.162   4.625   4.528
 3416SOL     OW11146   6.567   5.628   0.255
 3416SOL    HW111147   6.640   5.564   0.277
 3416SOL    HW211148   6.547   5.685   0.335
 3417SOL     OW11149   6.689   5.674   3.486
 3417SOL    HW111150   6.687   5.574   3.479
 3417SOL    HW211151   6.605   5.706   3.530
 3418SOL     OW11152   3.954   0.077   4.860
 3418SOL    HW111153   3.918   0.168   4.884
 3418SOL    HW211154   3.948   0.064   4.761
 3419SOL     OW11155   3.402   5.415   4.961
 3419SOL    HW111156   3.405   5.454   4.869
 3419SOL    HW211157   3.322   5.451   5.010
 3420SOL     OW11158   5.178   2.750   3.058
 3420SOL    HW111159   5.213   2.772   2.967
 3420SOL    HW211160   5.219   2.666   3.090
 3421SOL     OW11161   6.158   0.508   6.245
 3421SOL    HW111162   6.184   0.596   6.284
 3421SOL    HW211163   6.164   0.437   6.315
 3422SOL     OW11164   2.092   6.528   1.149
 3422SOL    HW111165   2.143   6.452   1.109
 3422SOL    HW211166   2.133   6.615   1.120
 3423SOL     OW11167   1.975   7.005   0.437
 3423SOL    HW111168   1.986   0.072   0.396
 3423SOL    HW211169   2.008   7.006   0.531
 3424SOL     OW11170   2.830   6.356   2.446
 3424SOL    HW111171   2.901   6.381   2.381
 3424SOL    HW211172   2.870   6.302   2.520
 3425SOL     OW11173   5.218   3.913   1.873
 3425SOL    HW111174   5.122   3.924   1.899
 3425SOL    HW211175   5.272   3.886   1.952
 3426SOL     OW11176   2.878   2.975   6.995
 3426SOL    HW111177   2.863   2.974   6.897
 3426SOL    HW211178   2.807   2.922   0.018
 3427SOL     OW11179   6.919   6.955   6.223
 3427SOL    HW111180   6.854   0.008   6.215
 3427SOL    HW211181   6.999   6.984   6.274
 3428SOL     OW11182   3.638   5.024   1.256
 3428SOL    HW111183   3.605   4.965   1.182
 3428SOL    HW211184   3.658   5.115   1.220
 3429SOL     OW11185   0.923   1.395   6.783
 3429SOL    HW111186   0.949   1.424   6.691
 3429SOL    HW211187   0.875   1.308   6.778
 3430SOL     OW11188   0.278   6.699   5.251
 3430SOL    HW111189   0.365   6.652   5.240
 3430SOL    HW211190   0.211   6.661   5.187
 3431SOL     OW11191   1.930   0.219   1.217
 3431SOL    HW111192   2.030   0.222   1.220
 3431SOL    HW211193   1.895   0.204   1.310
 3432SOL     OW11194   2.623   2.718   6.511
 3432SOL    HW111195   2.708   2.753   6.471
 3432SOL    HW211196   2.585   2.648   6.451
 3433SOL     OW11197   1.223   6.976   6.360
 3433SOL    HW111198   1.150   6.912   6.385
 3433SOL    HW211199   1.188   0.047   6.368
 3434SOL     OW11200   3.778   2.609   1.012
 3434SOL    HW111201   3.710   2.674   1.047
 3434SOL    HW211202   3.869   2.647   1.024
 3435SOL     OW11203   1.211   1.805   1.516
 3435SOL    HW111204   1.253   1.836   1.431
 3435SOL    HW211205   1.112   1.793   1.502
 3436SOL     OW11206   4.049   6.443   5.723
 3436SOL    HW111207   4.115   6.498   5.672
 3436SOL    HW211208   4.014   6.496   5.800
 3437SOL     OW11209   3.829   0.621   6.330
 3437SOL    HW111210   3.752   0.601   6.391
 3437SOL    HW211211   3.897   0.548   6.337
 3438SOL     OW11212   1.401   2.674   0.168
 3438SOL    HW111213   1.391   2.774   0.160
 3438SOL    HW211214   1.391   2.632   0.078
 3439SOL     OW11215   1.983   6.894   6.107
 3439SOL    HW111216   1.984   6.796   6.130
 3439SOL    HW211217   1.975   6.948   6.191
 3440SOL     OW11218   4.290   3.185   1.670
 3440SOL    HW111219   4.219   3.196   1.739
 3440SOL    HW211220   4.263   3.115   1.604
 3441SOL     OW11221   4.993   0.434   3.895
 3441SOL    HW111222   4.949   0.402   3.811
 3441SOL    HW211223   4.954   0.385   3.973
 3442SOL     OW11224   3.077   4.883   2.579
 3442SOL    HW111225   2.984   4.849   2.568
 3442SOL    HW211226   3.089   4.917   2.673
 3443SOL     OW11227   5.562   0.692   2.351
 3443SOL    HW111228   5.613   0.608   2.335
 3443SOL    HW211229   5.507   0.683   2.434
 3444SOL     OW11230   4.992   5.150   6.978
 3444SOL    HW111231   5.090   5.170   6.974
 3444SOL    HW211232   4.961   5.115   6.889
 3445SOL     OW11233   5.719   5.179   4.157
 3445SOL    HW111234   5.719   5.259   4.217
 3445SOL    HW211235   5.705   5.096   4.212
 3446SOL     OW11236   6.333   1.106   3.214
 3446SOL    HW111237   6.290   1.193   3.235
 3446SOL    HW211238   6.328   1.045   3.293
 3447SOL     OW11239   5.652   4.236   0.832
 3447SOL    HW111240   5.733   4.198   0.788
 3447SOL    HW211241   5.680   4.306   0.898
 3448SOL     OW11242   2.915   0.418   1.072
 3448SOL    HW111243   2.964   0.486   1.019
 3448SOL    HW211244   2.819   0.445   1.081
 3449SOL     OW11245   6.040   6.348   4.277
 3449SOL    HW111246   6.046   6.400   4.362
 3449SOL    HW211247   6.094   6.393   4.206
 3450SOL     OW11248   0.900   2.533   0.064
 3450SOL    HW111249   0.960   2.602   0.103
 3450SOL    HW211250   0.861   2.567   7.001
 3451SOL     OW11251   1.326   5.526   3.085
 3451SOL    HW111252   1.317   5.430   3.059
 3451SOL    HW211253   1.406   5.536   3.144
 3452SOL     OW11254   5.375   1.998   0.067
 3452SOL    HW111255   5.376   1.950   7.003
 3452SOL    HW211256   5.384   1.932   0.142
 3453SOL     OW11257   6.648   6.016   6.112
 3453SOL    HW111258   6.616   6.079   6.182
 3453SOL    HW211259   6.681   6.067   6.033
 3454SOL     OW11260   1.593   1.085   6.509
 3454SOL    HW111261   1.576   1.139   6.427
 3454SOL    HW211262   1.510   1.082   6.565
 3455SOL     OW11263   2.156   3.162   4.440
 3455SOL    HW111264   2.145   3.066   4.414
 3455SOL    HW211265   2.187   3.167   4.535
 3456SOL     OW11266   5.537   6.593   2.634
 3456SOL    HW111267   5.437   6.591   2.622
 3456SOL    HW211268   5.564   6.684   2.664
 3457SOL     OW11269   2.317   5.508   4.144
 3457SOL    HW111270   2.402   5.551   4.112
 3457SOL    HW211271   2.285   5.557   4.226
 3458SOL     OW11272   5.241   6.943   0.529
 3458SOL    HW111273   5.290   6.937   0.615
 3458SOL    HW211274   5.292   6.894   0.458
 3459SOL     OW11275   6.211   3.852   2.731
 3459SOL    HW111276   6.161   3.840   2.817
 3459SOL    HW211277   6.306   3.823   2.745
 3460SOL     OW11278   2.663   3.925   0.042
 3460SOL    HW111279   2.680   3.828   0.029
 3460SOL    HW211280   2.582   3.938   0.099
 3461SOL     OW11281   4.522   5.781   4.459
 3461SOL    HW111282   4.560   5.764   4.550
 3461SOL    HW211283   4.440   5.725   4.447
 3462SOL     OW11284   0.135   3.868   2.334
 3462SOL    HW111285   0.234   3.860   2.345
 3462SOL    HW211286   0.089   3.805   2.396
 3463SOL     OW11287   1.009   3.203   3.049
 3463SOL    HW111288   1.039   3.252   2.967
 3463SOL    HW211289   1.090   3.175   3.102
 3464SOL     OW11290   6.428   2.274   6.894
 3464SOL    HW111291   6.447   2.327   6.811
 3464SOL    HW211292   6.511   2.226   6.923
 3465SOL     OW11293   0.441   2.931   1.845
 3465SOL    HW111294   0.360   2.985   1.823
 3465SOL    HW211295   0.476   2.888   1.761
 3466SOL     OW11296   6.847   4.560   6.367
 3466SOL    HW111297   6.816   4.488   6.429
 3466SOL    HW211298   6.940   4.539   6.335
 3467SOL     OW11299   2.197   1.887   0.558
 3467SOL    HW111300   2.283   1.837   0.564
 3467SOL    HW211301   2.185   1.943   0.640
 3468SOL     OW11302   5.181   1.224   3.090
 3468SOL    HW111303   5.152   1.317   3.067
 3468SOL    HW211304   5.120   1.159   3.046
 3469SOL     OW11305   4.368   0.654   4.405
 3469SOL    HW111306   4.331   0.717   4.474
 3469SOL    HW211307   4.432   0.591   4.449
 3470SOL     OW11308   0.591   2.081   1.841
 3470SOL    HW111309   0.519   2.105   1.906
 3470SOL    HW211310   0.567   2.119   1.751
 3471SOL     OW11311   4.644   4.309   3.718
 3471SOL    HW111312   4.559   4.318   3.666
 3471SOL    HW211313   4.632   4.352   3.808
 3472SOL     OW11314   2.820   0.865   1.699
 3472SOL    HW111315   2.873   0.923   1.761
 3472SOL    HW211316   2.724   0.892   1.702
 3473SOL     OW11317   6.693   3.257   2.664
 3473SOL    HW111318   6.708   3.316   2.584
 3473SOL    HW211319   6.598   3.228   2.668
 3474SOL     OW11320   0.289   4.615   2.477
 3474SOL    HW111321   0.199   4.577   2.458
 3474SOL    HW211322   0.291   4.712   2.451
 3475SOL     OW11323   1.208   4.623   3.882
 3475SOL    HW111324   1.122   4.573   3.880
 3475SOL    HW211325   1.189   4.721   3.888
 3476SOL     OW11326   2.474   2.154   2.581
 3476SOL    HW111327   2.527   2.071   2.565
 3476SOL    HW211328   2.530   2.234   2.561
 3477SOL     OW11329   1.956   4.742   1.038
 3477SOL    HW111330   1.949   4.812   1.109
 3477SOL    HW211331   1.938   4.652   1.079
 3478SOL     OW11332   2.080   5.926   6.261
 3478SOL    HW111333   2.167   5.952   6.302
 3478SOL    HW211334   2.082   5.829   6.237
 3479SOL     OW11335   0.894   0.791   3.230
 3479SOL    HW111336   0.910   0.692   3.232
 3479SOL    HW211337   0.817   0.813   3.290
 3480SOL     OW11338   6.881   5.704   4.847
 3480SOL    HW111339   6.978   5.693   4.870
 3480SOL    HW211340   6.865   5.796   4.813
 3481SOL     OW11341   5.144   0.806   0.432
 3481SOL    HW111342   5.200   0.723   0.435
 3481SOL    HW211343   5.124   0.836   0.525
 3482SOL     OW11344   6.703   1.082   2.027
 3482SOL    HW111345   6.785   1.027   2.046
 3482SOL    HW211346   6.700   1.160   2.090
 3483SOL     OW11347   5.347   2.188   2.138
 3483SOL    HW111348   5.374   2.099   2.175
 3483SOL    HW211349   5.349   2.183   2.038
 3484SOL     OW11350   1.012   2.746   0.586
 3484SOL    HW111351   1.072   2.707   0.656
 3484SOL    HW211352   1.065   2.762   0.502
 3485SOL     OW11353   2.106   1.516   4.632
 3485SOL    HW111354   2.034   1.579   4.602
 3485SOL    HW211355   2.170   1.565   4.692
 3486SOL     OW11356   2.485   0.344   3.054
 3486SOL    HW111357   2.478   0.316   2.958
 3486SOL    HW211358   2.404   0.313   3.104
 3487SOL     OW11359   0.095   2.101   0.758
 3487SOL    HW111360   0.015   2.094   0.817
 3487SOL    HW211361   0.074   2.058   0.669
 3488SOL     OW11362   5.945   0.988   5.257
 3488SOL    HW111363   5.934   0.957   5.351
 3488SOL    HW211364   5.949   0.908   5.196
 3489SOL     OW11365   3.691   0.356   1.893
 3489SOL    HW111366   3.646   0.375   1.980
 3489SOL    HW211367   3.713   0.442   1.848
 3490SOL     OW11368   3.991   4.488   1.248
 3490SOL    HW111369   4.068   4.511   1.189
 3490SOL    HW211370   4.024   4.446   1.333
 3491SOL     OW11371   4.327   2.187   5.833
 3491SOL    HW111372   4.384   2.240   5.771
 3491SOL    HW211373   4.381   2.156   5.911
 3492SOL     OW11374   6.878   4.005   0.889
 3492SOL    HW111375   6.947   3.933   0.881
 3492SOL    HW211376   6.831   3.996   0.977
 3493SOL     OW11377   4.775   4.015   4.266
 3493SOL    HW111378   4.728   4.061   4.191
 3493SOL    HW211379   4.829   4.082   4.317
 3494SOL     OW11380   2.824   1.169   1.562
 3494SOL    HW111381   2.821   1.099   1.633
 3494SOL    HW211382   2.863   1.254   1.599
 3495SOL     OW11383   6.147   4.800   1.765
 3495SOL    HW111384   6.134   4.802   1.666
 3495SOL    HW211385   6.203   4.720   1.789
 3496SOL     OW11386   6.119   4.951   0.760
 3496SOL    HW111387   6.128   4.868   0.705
 3496SOL    HW211388   6.207   4.970   0.805
 3497SOL     OW11389   2.958   1.709   3.578
 3497SOL    HW111390   2.996   1.764   3.652
 3497SOL    HW211391   2.914   1.628   3.616
 3498SOL     OW11392   3.068   1.746   1.389
 3498SOL    HW111393   3.076   1.833   1.437
 3498SOL    HW211394   3.026   1.679   1.449
 3499SOL     OW11395   5.828   4.023   4.123
 3499SOL    HW111396   5.919   4.042   4.161
 3499SOL    HW211397   5.827   3.933   4.081
 3500SOL     OW11398   1.597   3.256   3.693
 3500SOL    HW111399   1.574   3.335   3.637
 3500SOL    HW211400   1.618   3.286   3.786
 3501SOL     OW11401   2.990   5.931   5.930
 3501SOL    HW111402   2.966   5.944   6.026
 3501SOL    HW211403   3.056   6.000   5.902
 3502SOL     OW11404   6.841   1.931   1.283
 3502SOL    HW111405   6.832   1.915   1.184
 3502SOL    HW211406   6.789   2.013   1.308
 3503SOL     OW11407   6.189   5.717   4.929
 3503SOL    HW111408   6.261   5.758   4.985
 3503SOL    HW211409   6.154   5.636   4.975
 3504SOL     OW11410   2.152   0.146   1.515
 3504SOL    HW111411   2.186   0.198   1.593
 3504SOL    HW211412   2.184   0.051   1.523
 3505SOL     OW11413   5.065   4.207   6.053
 3505SOL    HW111414   5.088   4.166   6.141
 3505SOL    HW211415   5.008   4.288   6.067
 3506SOL     OW11416   5.101   4.971   5.092
 3506SOL    HW111417   5.044   4.997   5.014
 3506SOL    HW211418   5.050   4.908   5.151
 3507SOL     OW11419   2.776   0.690   0.907
 3507SOL    HW111420   2.873   0.704   0.927
 3507SOL    HW211421   2.721   0.728   0.983
 3508SOL     OW11422   2.000   2.235   6.081
 3508SOL    HW111423   1.990   2.183   6.166
 3508SOL    HW211424   2.090   2.278   6.078
 3509SOL     OW11425   4.847   0.187   0.072
 3509SOL    HW111426   4.883   0.151   7.009
 3509SOL    HW211427   4.811   0.279   0.058
 3510SOL     OW11428   1.368   0.961   2.057
 3510SOL    HW111429   1.381   0.960   1.958
 3510SOL    HW211430   1.312   0.883   2.084
 3511SOL     OW11431   2.061   4.370   1.562
 3511SOL    HW111432   1.990   4.308   1.528
 3511SOL    HW211433   2.076   4.354   1.660
 3512SOL     OW11434   0.532   5.058   0.432
 3512SOL    HW111435   0.621   5.035   0.472
 3512SOL    HW211436   0.492   4.976   0.390
 3513SOL     OW11437   5.682   2.199   0.397
 3513SOL    HW111438   5.592   2.217   0.357
 3513SOL    HW211439   5.734   2.138   0.337
 3514SOL     OW11440   0.149   0.930   1.766
 3514SOL    HW111441   0.102   1.018   1.770
 3514SOL    HW211442   0.206   0.919   1.848
 3515SOL     OW11443   4.597   5.990   3.028
 3515SOL    HW111444   4.692   5.983   2.996
 3515SOL    HW211445   4.542   5.921   2.983
 3516SOL     OW11446   5.237   6.772   0.930
 3516SOL    HW111447   5.141   6.764   0.904
 3516SOL    HW211448   5.284   6.686   0.909
 3517SOL     OW11449   0.941   1.757   1.492
 3517SOL    HW111450   0.921   1.677   1.435
 3517SOL    HW211451   0.869   1.766   1.561
 3518SOL     OW11452   4.843   3.134   5.019
 3518SOL    HW111453   4.822   3.094   4.930
 3518SOL    HW211454   4.939   3.114   5.043
 3519SOL     OW11455   1.424   1.208   5.968
 3519SOL    HW111456   1.414   1.273   6.044
 3519SOL    HW211457   1.446   1.118   6.004
 3520SOL     OW11458   3.242   5.757   6.963
 3520SOL    HW111459   3.239   5.702   6.880
 3520SOL    HW211460   3.300   5.838   6.948
 3521SOL     OW11461   4.693   2.538   0.236
 3521SOL    HW111462   4.659   2.453   0.197
 3521SOL    HW211463   4.733   2.594   0.163
 3522SOL     OW11464   0.522   4.820   0.939
 3522SOL    HW111465   0.435   4.841   0.894
 3522SOL    HW211466   0.591   4.802   0.869
 3523SOL     OW11467   1.354   4.495   5.424
 3523SOL    HW111468   1.411   4.533   5.497
 3523SOL    HW211469   1.408   4.432   5.369
 3524SOL     OW11470   5.128   1.378   1.915
 3524SOL    HW111471   5.109   1.321   1.835
 3524SOL    HW211472   5.042   1.412   1.953
 3525SOL     OW11473   6.713   4.638   3.631
 3525SOL    HW111474   6.622   4.671   3.608
 3525SOL    HW211475   6.758   4.604   3.548
 3526SOL     OW11476   2.507   6.763   4.036
 3526SOL    HW111477   2.513   6.663   4.030
 3526SOL    HW211478   2.513   6.792   4.131
 3527SOL     OW11479   5.636   3.131   6.211
 3527SOL    HW111480   5.719   3.139   6.267
 3527SOL    HW211481   5.611   3.221   6.175
 3528SOL     OW11482   1.268   6.588   5.075
 3528SOL    HW111483   1.259   6.530   5.155
 3528SOL    HW211484   1.310   6.675   5.102
 3529SOL     OW11485   3.920   0.367   0.413
 3529SOL    HW111486   3.945   0.461   0.388
 3529SOL    HW211487   4.000   0.308   0.405
 3530SOL     OW11488   6.297   5.875   2.410
 3530SOL    HW111489   6.381   5.838   2.451
 3530SOL    HW211490   6.234   5.903   2.482
 3531SOL     OW11491   5.344   2.916   0.987
 3531SOL    HW111492   5.283   2.996   0.988
 3531SOL    HW211493   5.374   2.896   1.080
 3532SOL     OW11494   2.537   6.637   1.853
 3532SOL    HW111495   2.506   6.606   1.943
 3532SOL    HW211496   2.605   6.709   1.864
 3533SOL     OW11497   0.764   1.700   2.805
 3533SOL    HW111498   0.862   1.692   2.825
 3533SOL    HW211499   0.714   1.636   2.862
 3534SOL     OW11500   6.942   2.089   0.979
 3534SOL    HW111501   6.931   2.169   1.038
 3534SOL    HW211502   6.862   2.029   0.990
 3535SOL     OW11503   1.609   5.362   6.488
 3535SOL    HW111504   1.615   5.461   6.501
 3535SOL    HW211505   1.701   5.325   6.476
 3536SOL     OW11506   3.424   1.810   3.095
 3536SOL    HW111507   3.479   1.794   3.176
 3536SOL    HW211508   3.400   1.907   3.089
 3537SOL     OW11509   3.060   5.852   2.503
 3537SOL    HW111510   2.974   5.900   2.486
 3537SOL    HW211511   3.107   5.894   2.581
 3538SOL     OW11512   2.294   6.838   6.228
 3538SOL    HW111513   2.336   6.766   6.282
 3538SOL    HW211514   2.241   6.899   6.289
 3539SOL     OW11515   3.689   3.137   5.815
 3539SOL    HW111516   3.602   3.089   5.820
 3539SOL    HW211517   3.763   3.074   5.839
 3540SOL     OW11518   1.920   2.577   5.375
 3540SOL    HW111519   1.879   2.546   5.460
 3540SOL    HW211520   1.853   2.570   5.301
 3541SOL     OW11521   1.915   2.862   6.050
 3541SOL    HW111522   1.885   2.954   6.076
 3541SOL    HW211523   1.836   2.806   6.026
 3542SOL     OW11524   1.724   5.745   3.412
 3542SOL    HW111525   1.781   5.748   3.330
 3542SOL    HW211526   1.700   5.839   3.439
 3543SOL     OW11527   0.617   2.249   4.803
 3543SOL    HW111528   0.581   2.156   4.814
 3543SOL    HW211529   0.714   2.250   4.825
 3544SOL     OW11530   2.015   4.273   5.897
 3544SOL    HW111531   2.110   4.271   5.927
 3544SOL    HW211532   1.971   4.185   5.919
 3545SOL     OW11533   3.901   5.505   0.428
 3545SOL    HW111534   3.865   5.422   0.470
 3545SOL    HW211535   3.983   5.535   0.476
 3546SOL     OW11536   1.520   4.005   4.345
 3546SOL    HW111537   1.558   4.019   4.436
 3546SOL    HW211538   1.510   3.907   4.327
 3547SOL     OW11539   6.952   4.409   3.670
 3547SOL    HW111540   0.029   4.414   3.660
 3547SOL    HW211541   6.926   4.436   3.763
 3548SOL     OW11542   5.921   1.998   5.980
 3548SOL    HW111543   5.905   2.096   5.987
 3548SOL    HW211544   5.852   1.957   5.919
 3549SOL     OW11545   6.301   5.016   6.307
 3549SOL    HW111546   6.257   5.010   6.217
 3549SOL    HW211547   6.247   4.966   6.374
 3550SOL     OW11548   6.224   2.165   2.591
 3550SOL    HW111549   6.191   2.218   2.669
 3550SOL    HW211550   6.148   2.141   2.531
 3551SOL     OW11551   3.574   0.397   2.156
 3551SOL    HW111552   3.476   0.415   2.168
 3551SOL    HW211553   3.606   0.340   2.231
 3552SOL     OW11554   5.654   6.499   2.142
 3552SOL    HW111555   5.678   6.478   2.236
 3552SOL    HW211556   5.625   6.594   2.134
 3553SOL     OW11557   5.330   3.761   1.073
 3553SOL    HW111558   5.285   3.672   1.056
 3553SOL    HW211559   5.314   3.788   1.168
 3554SOL     OW11560   4.029   2.374   0.991
 3554SOL    HW111561   3.979   2.319   0.925
 3554SOL    HW211562   3.990   2.359   1.082
 3555SOL     OW11563   0.994   3.846   3.756
 3555SOL    HW111564   0.999   3.805   3.665
 3555SOL    HW211565   1.020   3.942   3.751
 3556SOL     OW11566   4.788   1.216   3.181
 3556SOL    HW111567   4.705   1.185   3.134
 3556SOL    HW211568   4.793   1.316   3.175
 3557SOL     OW11569   1.081   0.146   3.847
 3557SOL    HW111570   1.141   0.108   3.776
 3557SOL    HW211571   1.101   0.243   3.860
 3558SOL     OW11572   1.103   6.435   1.241
 3558SOL    HW111573   1.121   6.528   1.209
 3558SOL    HW211574   1.189   6.391   1.266
 3559SOL     OW11575   0.497   6.187   4.803
 3559SOL    HW111576   0.577   6.140   4.765
 3559SOL    HW211577   0.493   6.281   4.767
 3560SOL     OW11578   0.886   5.623   1.422
 3560SOL    HW111579   0.869   5.646   1.326
 3560SOL    HW211580   0.982   5.602   1.435
 3561SOL     OW11581   4.336   4.733   5.265
 3561SOL    HW111582   4.306   4.773   5.352
 3561SOL    HW211583   4.258   4.693   5.218
 3562SOL     OW11584   5.014   0.999   3.501
 3562SOL    HW111585   5.017   1.094   3.531
 3562SOL    HW211586   4.984   0.941   3.578
 3563SOL     OW11587   5.935   1.271   0.695
 3563SOL    HW111588   5.910   1.263   0.791
 3563SOL    HW211589   5.937   1.367   0.668
 3564SOL     OW11590   1.621   4.410   4.202
 3564SOL    HW111591   1.527   4.430   4.177
 3564SOL    HW211592   1.664   4.355   4.129
 3565SOL     OW11593   3.722   5.770   5.300
 3565SOL    HW111594   3.796   5.732   5.355
 3565SOL    HW211595   3.677   5.697   5.248
 3566SOL     OW11596   6.524   3.670   6.246
 3566SOL    HW111597   6.441   3.614   6.253
 3566SOL    HW211598   6.599   3.626   6.294
 3567SOL     OW11599   1.234   3.227   0.169
 3567SOL    HW111600   1.147   3.238   0.122
 3567SOL    HW211601   1.253   3.307   0.225
 3568SOL     OW11602   5.001   5.918   4.187
 3568SOL    HW111603   5.001   5.952   4.093
 3568SOL    HW211604   4.944   5.978   4.244
 3569SOL     OW11605   2.942   2.804   5.954
 3569SOL    HW111606   2.848   2.815   5.988
 3569SOL    HW211607   2.964   2.879   5.891
 3570SOL     OW11608   5.062   6.974   4.704
 3570SOL    HW111609   5.154   6.999   4.674
 3570SOL    HW211610   5.051   7.000   4.800
 3571SOL     OW11611   2.073   0.770   5.135
 3571SOL    HW111612   1.987   0.718   5.141
 3571SOL    HW211613   2.073   0.822   5.050
 3572SOL     OW11614   5.566   3.540   2.568
 3572SOL    HW111615   5.663   3.552   2.546
 3572SOL    HW211616   5.510   3.596   2.506
 3573SOL     OW11617   6.322   4.007   2.519
 3573SOL    HW111618   6.274   3.948   2.584
 3573SOL    HW211619   6.391   4.061   2.567
 3574SOL     OW11620   1.111   3.172   0.785
 3574SOL    HW111621   1.147   3.136   0.871
 3574SOL    HW211622   1.187   3.194   0.724
 3575SOL     OW11623   4.869   5.679   2.518
 3575SOL    HW111624   4.924   5.638   2.445
 3575SOL    HW211625   4.793   5.618   2.540
 3576SOL     OW11626   0.763   1.909   0.443
 3576SOL    HW111627   0.664   1.905   0.443
 3576SOL    HW211628   0.800   1.828   0.397
 3577SOL     OW11629   1.707   2.934   6.517
 3577SOL    HW111630   1.679   3.022   6.478
 3577SOL    HW211631   1.708   2.864   6.445
 3578SOL     OW11632   5.135   1.698   1.077
 3578SOL    HW111633   5.045   1.716   1.038
 3578SOL    HW211634   5.169   1.781   1.122
 3579SOL     OW11635   6.796   2.430   2.708
 3579SOL    HW111636   6.842   2.343   2.720
 3579SOL    HW211637   6.721   2.438   2.775
 3580SOL     OW11638   6.129   3.060   0.386
 3580SOL    HW111639   6.154   2.965   0.373
 3580SOL    HW211640   6.030   3.067   0.400
 3581SOL     OW11641   0.639   5.594   3.360
 3581SOL    HW111642   0.621   5.536   3.440
 3581SOL    HW211643   0.552   5.619   3.318
 3582SOL     OW11644   1.824   4.353   5.475
 3582SOL    HW111645   1.899   4.356   5.410
 3582SOL    HW211646   1.782   4.444   5.482
 3583SOL     OW11647   1.304   4.811   0.187
 3583SOL    HW111648   1.246   4.730   0.194
 3583SOL    HW211649   1.357   4.807   0.103
 3584SOL     OW11650   5.499   4.661   5.367
 3584SOL    HW111651   5.581   4.710   5.397
 3584SOL    HW211652   5.451   4.624   5.447
 3585SOL     OW11653   2.703   2.428   4.798
 3585SOL    HW111654   2.764   2.348   4.795
 3585SOL    HW211655   2.671   2.442   4.892
 3586SOL     OW11656   6.660   1.526   4.866
 3586SOL    HW111657   6.693   1.527   4.771
 3586SOL    HW211658   6.560   1.532   4.865
 3587SOL     OW11659   1.921   5.879   5.917
 3587SOL    HW111660   1.967   5.932   5.846
 3587SOL    HW211661   1.901   5.787   5.883
 3588SOL     OW11662   6.955   2.803   5.129
 3588SOL    HW111663   0.019   2.851   5.122
 3588SOL    HW211664   6.895   2.852   5.193
 3589SOL     OW11665   5.914   0.587   6.721
 3589SOL    HW111666   5.821   0.556   6.739
 3589SOL    HW211667   5.932   0.585   6.623
 3590SOL     OW11668   0.047   3.772   0.399
 3590SOL    HW111669   0.105   3.847   0.431
 3590SOL    HW211670   0.099   3.713   0.337
 3591SOL     OW11671   5.492   3.833   6.950
 3591SOL    HW111672   5.417   3.772   6.973
 3591SOL    HW211673   5.505   3.899   0.001
 3592SOL     OW11674   0.365   0.056   3.192
 3592SOL    HW111675   0.400   7.023   3.266
 3592SOL    HW211676   0.441   0.086   3.134
 3593SOL     OW11677   0.186   4.145   6.160
 3593SOL    HW111678   0.165   4.140   6.258
 3593SOL    HW211679   0.199   4.240   6.133
 3594SOL     OW11680   4.586   0.229   4.121
 3594SOL    HW111681   4.497   0.209   4.163
 3594SOL    HW211682   4.657   0.173   4.164
 3595SOL     OW11683   5.409   5.922   6.253
 3595SOL    HW111684   5.320   5.880   6.236
 3595SOL    HW211685   5.474   5.890   6.185
 3596SOL     OW11686   5.056   2.858   3.563
 3596SOL    HW111687   5.091   2.924   3.629
 3596SOL    HW211688   5.011   2.906   3.488
 3597SOL     OW11689   1.568   2.867   5.437
 3597SOL    HW111690   1.665   2.887   5.454
 3597SOL    HW211691   1.555   2.768   5.434
 3598SOL     OW11692   1.931   6.471   5.923
 3598SOL    HW111693   1.940   6.519   6.010
 3598SOL    HW211694   2.010   6.493   5.865
 3599SOL     OW11695   4.891   2.137   0.834
 3599SOL    HW111696   4.823   2.069   0.806
 3599SOL    HW211697   4.974   2.127   0.779
 3600SOL     OW11698   0.581   3.301   2.167
 3600SOL    HW111699   0.603   3.233   2.236
 3600SOL    HW211700   0.665   3.333   2.123
 3601SOL     OW11701   5.402   2.895   6.037
 3601SOL    HW111702   5.413   2.919   6.134
 3601SOL    HW211703   5.314   2.928   6.005
 3602SOL     OW11704   1.199   3.667   0.977
 3602SOL    HW111705   1.297   3.651   0.990
 3602SOL    HW211706   1.147   3.604   1.033
 3603SOL     OW11707   3.626   1.088   4.548
 3603SOL    HW111708   3.720   1.115   4.528
 3603SOL    HW211709   3.565   1.131   4.481
 3604SOL     OW11710   6.677   6.851   3.810
 3604SOL    HW111711   6.613   6.872   3.885
 3604SOL    HW211712   6.749   6.791   3.843
 3605SOL     OW11713   0.899   4.534   3.847
 3605SOL    HW111714   0.901   4.596   3.768
 3605SOL    HW211715   0.918   4.441   3.816
 3606SOL     OW11716   1.116   6.481   3.467
 3606SOL    HW111717   1.161   6.520   3.547
 3606SOL    HW211718   1.167   6.505   3.384
 3607SOL     OW11719   5.442   3.926   1.670
 3607SOL    HW111720   5.468   3.830   1.665
 3607SOL    HW211721   5.380   3.940   1.747
 3608SOL     OW11722   4.845   1.363   4.618
 3608SOL    HW111723   4.756   1.388   4.656
 3608SOL    HW211724   4.843   1.372   4.519
 3609SOL     OW11725   2.450   0.067   4.098
 3609SOL    HW111726   2.421   0.011   4.176
 3609SOL    HW211727   2.420   0.023   4.013
 3610SOL     OW11728   1.683   1.254   5.843
 3610SOL    HW111729   1.587   1.243   5.871
 3610SOL    HW211730   1.737   1.283   5.922
 3611SOL     OW11731   4.120   4.839   3.733
 3611SOL    HW111732   4.164   4.826   3.644
 3611SOL    HW211733   4.172   4.791   3.803
 3612SOL     OW11734   0.481   0.940   6.324
 3612SOL    HW111735   0.486   0.984   6.234
 3612SOL    HW211736   0.386   0.918   6.345
 3613SOL     OW11737   5.061   4.492   1.961
 3613SOL    HW111738   5.127   4.419   1.974
 3613SOL    HW211739   4.994   4.491   2.035
 3614SOL     OW11740   3.038   3.852   0.406
 3614SOL    HW111741   3.131   3.817   0.406
 3614SOL    HW211742   3.018   3.894   0.495
 3615SOL     OW11743   5.614   2.339   6.222
 3615SOL    HW111744   5.603   2.264   6.286
 3615SOL    HW211745   5.635   2.303   6.131
 3616SOL     OW11746   1.034   0.190   6.087
 3616SOL    HW111747   1.096   0.111   6.090
 3616SOL    HW211748   1.083   0.268   6.047
 3617SOL     OW11749   4.461   0.770   5.217
 3617SOL    HW111750   4.394   0.840   5.240
 3617SOL    HW211751   4.531   0.766   5.288
 3618SOL     OW11752   2.677   3.316   5.389
 3618SOL    HW111753   2.650   3.343   5.296
 3618SOL    HW211754   2.673   3.396   5.449
 3619SOL     OW11755   5.737   3.470   6.574
 3619SOL    HW111756   5.712   3.374   6.565
 3619SOL    HW211757   5.719   3.501   6.667
 3620SOL     OW11758   5.607   5.374   5.820
 3620SOL    HW111759   5.553   5.410   5.744
 3620SOL    HW211760   5.688   5.430   5.833
 3621SOL     OW11761   3.484   3.172   4.756
 3621SOL    HW111762   3.400   3.154   4.807
 3621SOL    HW211763   3.463   3.227   4.675
 3622SOL     OW11764   2.298   0.792   0.782
 3622SOL    HW111765   2.262   0.879   0.749
 3622SOL    HW211766   2.270   0.778   0.877
 3623SOL     OW11767   6.601   5.490   4.765
 3623SOL    HW111768   6.645   5.404   4.740
 3623SOL    HW211769   6.533   5.513   4.696
 3624SOL     OW11770   1.095   6.743   2.128
 3624SOL    HW111771   1.028   6.694   2.073
 3624SOL    HW211772   1.166   6.680   2.160
 3625SOL     OW11773   0.116   3.281   6.326
 3625SOL    HW111774   0.180   3.211   6.295
 3625SOL    HW211775   0.147   3.371   6.295
 3626SOL     OW11776   0.538   3.000   5.259
 3626SOL    HW111777   0.599   3.039   5.190
 3626SOL    HW211778   0.488   3.073   5.306
 3627SOL     OW11779   4.571   3.153   1.675
 3627SOL    HW111780   4.477   3.174   1.702
 3627SOL    HW211781   4.615   3.100   1.747
 3628SOL     OW11782   1.346   1.212   2.097
 3628SOL    HW111783   1.356   1.113   2.097
 3628SOL    HW211784   1.297   1.241   2.180
 3629SOL     OW11785   1.174   0.606   4.971
 3629SOL    HW111786   1.115   0.589   5.049
 3629SOL    HW211787   1.119   0.612   4.888
 3630SOL     OW11788   6.590   3.123   3.349
 3630SOL    HW111789   6.636   3.040   3.380
 3630SOL    HW211790   6.632   3.203   3.392
 3631SOL     OW11791   1.781   6.948   3.392
 3631SOL    HW111792   1.767   6.851   3.413
 3631SOL    HW211793   1.717   6.975   3.320
 3632SOL     OW11794   4.793   4.480   0.398
 3632SOL    HW111795   4.726   4.546   0.362
 3632SOL    HW211796   4.798   4.401   0.337
 3633SOL     OW11797   4.505   2.939   6.227
 3633SOL    HW111798   4.591   2.952   6.275
 3633SOL    HW211799   4.513   2.975   6.134
 3634SOL     OW11800   1.999   6.304   6.250
 3634SOL    HW111801   1.912   6.325   6.295
 3634SOL    HW211802   1.984   6.234   6.180
 3635SOL     OW11803   2.594   1.239   0.799
 3635SOL    HW111804   2.583   1.139   0.793
 3635SOL    HW211805   2.506   1.281   0.816
 3636SOL     OW11806   6.469   5.634   1.296
 3636SOL    HW111807   6.373   5.658   1.284
 3636SOL    HW211808   6.526   5.715   1.282
 3637SOL     OW11809   0.841   2.879   1.210
 3637SOL    HW111810   0.828   2.971   1.247
 3637SOL    HW211811   0.898   2.884   1.128
 3638SOL     OW11812   6.771   4.255   2.778
 3638SOL    HW111813   6.829   4.285   2.853
 3638SOL    HW211814   6.710   4.329   2.751
 3639SOL     OW11815   3.537   5.007   6.564
 3639SOL    HW111816   3.604   5.029   6.635
 3639SOL    HW211817   3.581   5.014   6.474
 3640SOL     OW11818   5.090   2.132   0.657
 3640SOL    HW111819   5.154   2.068   0.700
 3640SOL    HW211820   5.127   2.225   0.664
 3641SOL     OW11821   5.593   3.754   1.345
 3641SOL    HW111822   5.501   3.787   1.324
 3641SOL    HW211823   5.592   3.705   1.432
 3642SOL     OW11824   4.966   2.199   6.424
 3642SOL    HW111825   5.026   2.193   6.504
 3642SOL    HW211826   4.986   2.123   6.363
 3643SOL     OW11827   4.091   6.098   6.092
 3643SOL    HW111828   4.095   6.183   6.145
 3643SOL    HW211829   4.091   6.020   6.153
 3644SOL     OW11830   2.192   0.526   1.540
 3644SOL    HW111831   2.120   0.458   1.552
 3644SOL    HW211832   2.253   0.525   1.620
 3645SOL     OW11833   0.875   3.630   4.101
 3645SOL    HW111834   0.858   3.536   4.072
 3645SOL    HW211835   0.906   3.631   4.196
 3646SOL     OW11836   1.675   4.168   5.247
 3646SOL    HW111837   1.714   4.119   5.168
 3646SOL    HW211838   1.698   4.119   5.331
 3647SOL     OW11839   2.600   6.074   6.713
 3647SOL    HW111840   2.634   5.998   6.769
 3647SOL    HW211841   2.603   6.159   6.766
 3648SOL     OW11842   4.962   6.026   3.044
 3648SOL    HW111843   4.920   5.954   2.989
 3648SOL    HW211844   5.045   6.058   2.999
 3649SOL     OW11845   6.535   3.368   0.330
 3649SOL    HW111846   6.471   3.311   0.382
 3649SOL    HW211847   6.489   3.404   0.249
 3650SOL     OW11848   6.308   4.397   0.816
 3650SOL    HW111849   6.365   4.463   0.767
 3650SOL    HW211850   6.231   4.445   0.859
 3651SOL     OW11851   2.028   0.422   4.390
 3651SOL    HW111852   2.037   0.341   4.331
 3651SOL    HW211853   2.088   0.495   4.356
 3652SOL     OW11854   5.769   6.775   2.973
 3652SOL    HW111855   5.744   6.683   2.942
 3652SOL    HW211856   5.851   6.770   3.030
 3653SOL     OW11857   2.044   1.082   3.120
 3653SOL    HW111858   1.994   0.996   3.109
 3653SOL    HW211859   2.068   1.119   3.030
 3654SOL     OW11860   4.951   5.897   0.229
 3654SOL    HW111861   4.919   5.822   0.171
 3654SOL    HW211862   4.918   5.882   0.323
 3655SOL     OW11863   3.123   1.358   4.004
 3655SOL    HW111864   3.189   1.423   4.042
 3655SOL    HW211865   3.166   1.304   3.932
 3656SOL     OW11866   1.164   5.552   1.438
 3656SOL    HW111867   1.201   5.481   1.378
 3656SOL    HW211868   1.239   5.599   1.484
 3657SOL     OW11869   4.873   5.927   5.337
 3657SOL    HW111870   4.833   5.988   5.269
 3657SOL    HW211871   4.825   5.840   5.338
 3658SOL     OW11872   1.706   5.113   6.653
 3658SOL    HW111873   1.627   5.061   6.622
 3658SOL    HW211874   1.745   5.163   6.576
 3659SOL     OW11875   0.695   1.766   6.712
 3659SOL    HW111876   0.673   1.720   6.626
 3659SOL    HW211877   0.716   1.862   6.694
 3660SOL     OW11878   5.926   5.632   4.550
 3660SOL    HW111879   5.953   5.587   4.465
 3660SOL    HW211880   5.980   5.596   4.626
 3661SOL     OW11881   0.664   0.343   4.630
 3661SOL    HW111882   0.745   0.401   4.636
 3661SOL    HW211883   0.643   0.323   4.534
 3662SOL     OW11884   4.281   0.993   4.362
 3662SOL    HW111885   4.375   1.023   4.352
 3662SOL    HW211886   4.224   1.069   4.391
 3663SOL     OW11887   1.623   2.929   6.798
 3663SOL    HW111888   1.662   2.972   6.716
 3663SOL    HW211889   1.687   2.862   6.835
 3664SOL     OW11890   3.860   1.982   1.506
 3664SOL    HW111891   3.837   2.051   1.574
 3664SOL    HW211892   3.885   1.897   1.552
 3665SOL     OW11893   0.840   5.582   5.645
 3665SOL    HW111894   0.861   5.523   5.724
 3665SOL    HW211895   0.871   5.537   5.561
 3666SOL     OW11896   0.826   3.160   3.279
 3666SOL    HW111897   0.869   3.177   3.190
 3666SOL    HW211898   0.793   3.065   3.281
 3667SOL     OW11899   0.672   1.036   3.679
 3667SOL    HW111900   0.581   1.067   3.654
 3667SOL    HW211901   0.673   0.936   3.685
 3668SOL     OW11902   1.387   0.703   1.454
 3668SOL    HW111903   1.309   0.759   1.482
 3668SOL    HW211904   1.394   0.702   1.354
 3669SOL     OW11905   5.304   1.483   3.969
 3669SOL    HW111906   5.366   1.461   3.894
 3669SOL    HW211907   5.243   1.406   3.985
 3670SOL     OW11908   2.911   5.165   0.676
 3670SOL    HW111909   2.843   5.093   0.661
 3670SOL    HW211910   2.864   5.253   0.684
 3671SOL     OW11911   7.019   0.775   3.922
 3671SOL    HW111912   6.997   0.703   3.988
 3671SOL    HW211913   0.079   0.751   3.872
 3672SOL     OW11914   4.457   1.824   2.598
 3672SOL    HW111915   4.456   1.802   2.500
 3672SOL    HW211916   4.460   1.739   2.651
 3673SOL     OW11917   3.820   5.653   6.733
 3673SOL    HW111918   3.819   5.597   6.816
 3673SOL    HW211919   3.887   5.616   6.669
 3674SOL     OW11920   1.607   6.055   5.372
 3674SOL    HW111921   1.527   6.093   5.419
 3674SOL    HW211922   1.690   6.098   5.407
 3675SOL     OW11923   0.581   2.800   4.403
 3675SOL    HW111924   0.500   2.806   4.461
 3675SOL    HW211925   0.621   2.892   4.393
 3676SOL     OW11926   5.645   3.021   2.752
 3676SOL    HW111927   5.687   3.112   2.747
 3676SOL    HW211928   5.574   3.014   2.682
 3677SOL     OW11929   2.359   0.788   4.960
 3677SOL    HW111930   2.423   0.860   4.989
 3677SOL    HW211931   2.268   0.826   4.951
 3678SOL     OW11932   1.712   1.434   4.041
 3678SOL    HW111933   1.617   1.402   4.041
 3678SOL    HW211934   1.715   1.530   4.012
 3679SOL     OW11935   6.714   0.238   3.827
 3679SOL    HW111936   6.614   0.240   3.816
 3679SOL    HW211937   6.737   0.199   3.915
 3680SOL     OW11938   4.570   2.389   4.618
 3680SOL    HW111939   4.587   2.479   4.656
 3680SOL    HW211940   4.623   2.378   4.534
 3681SOL     OW11941   1.280   0.903   6.033
 3681SOL    HW111942   1.222   0.984   6.022
 3681SOL    HW211943   1.305   0.894   6.130
 3682SOL     OW11944   5.866   2.737   0.360
 3682SOL    HW111945   5.928   2.685   0.301
 3682SOL    HW211946   5.858   2.691   0.448
 3683SOL     OW11947   0.738   1.322   4.727
 3683SOL    HW111948   0.719   1.246   4.788
 3683SOL    HW211949   0.659   1.338   4.668
 3684SOL     OW11950   1.077   5.993   0.185
 3684SOL    HW111951   1.039   6.009   0.276
 3684SOL    HW211952   1.169   6.033   0.179
 3685SOL     OW11953   2.410   6.329   5.179
 3685SOL    HW111954   2.481   6.398   5.184
 3685SOL    HW211955   2.322   6.372   5.160
 3686SOL     OW11956   6.477   4.394   4.285
 3686SOL    HW111957   6.467   4.336   4.366
 3686SOL    HW211958   6.546   4.464   4.303
 3687SOL     OW11959   4.625   6.567   3.409
 3687SOL    HW111960   4.547   6.504   3.414
 3687SOL    HW211961   4.682   6.557   3.490
 3688SOL     OW11962   6.400   3.134   6.699
 3688SOL    HW111963   6.301   3.143   6.707
 3688SOL    HW211964   6.441   3.224   6.683
 3689SOL     OW11965   2.565   2.110   5.461
 3689SOL    HW111966   2.631   2.175   5.498
 3689SOL    HW211967   2.540   2.135   5.368
 3690SOL     OW11968   5.027   6.012   1.111
 3690SOL    HW111969   5.055   6.105   1.089
 3690SOL    HW211970   5.017   5.959   1.027
 3691SOL     OW11971   2.742   2.085   6.010
 3691SOL    HW111972   2.751   2.033   5.925
 3691SOL    HW211973   2.646   2.091   6.036
 3692SOL     OW11974   6.705   4.360   6.034
 3692SOL    HW111975   6.659   4.326   6.116
 3692SOL    HW211976   6.776   4.297   6.006
 3693SOL     OW11977   2.281   1.686   3.069
 3693SOL    HW111978   2.251   1.726   2.982
 3693SOL    HW211979   2.320   1.596   3.053
 3694SOL     OW11980   1.261   6.675   1.510
 3694SOL    HW111981   1.303   6.709   1.595
 3694SOL    HW211982   1.166   6.704   1.506
 3695SOL     OW11983   6.566   1.801   2.058
 3695SOL    HW111984   6.485   1.806   2.000
 3695SOL    HW211985   6.549   1.740   2.135
 3696SOL     OW11986   4.280   6.919   5.455
 3696SOL    HW111987   4.186   6.928   5.422
 3696SOL    HW211988   4.339   6.983   5.406
 3697SOL     OW11989   6.782   6.163   3.059
 3697SOL    HW111990   6.764   6.077   3.012
 3697SOL    HW211991   6.740   6.238   3.009
 3698SOL     OW11992   2.099   1.239   3.615
 3698SOL    HW111993   2.024   1.293   3.654
 3698SOL    HW211994   2.071   1.202   3.526
 3699SOL     OW11995   2.069   1.906   3.453
 3699SOL    HW111996   2.127   1.946   3.524
 3699SOL    HW211997   2.122   1.893   3.369
 3700SOL     OW11998   1.322   5.166   4.652
 3700SOL    HW111999   1.239   5.221   4.662
 3700SOL    HW212000   1.303   5.071   4.677
 3701SOL     OW12001   0.721   6.456   2.665
 3701SOL    HW112002   0.750   6.452   2.761
 3701SOL    HW212003   0.681   6.367   2.640
 3702SOL     OW12004   5.693   6.496   3.295
 3702SOL    HW112005   5.708   6.593   3.275
 3702SOL    HW212006   5.694   6.443   3.211
 3703SOL     OW12007   0.843   0.564   6.628
 3703SOL    HW112008   0.938   0.532   6.621
 3703SOL    HW212009   0.803   0.568   6.536
 3704SOL     OW12010   5.590   2.932   1.117
 3704SOL    HW112011   5.610   2.903   1.024
 3704SOL    HW212012   5.639   2.874   1.182
 3705SOL     OW12013   4.534   4.924   3.584
 3705SOL    HW112014   4.437   4.941   3.568
 3705SOL    HW212015   4.560   4.961   3.673
 3706SOL     OW12016   0.519   4.178   0.119
 3706SOL    HW112017   0.446   4.146   0.059
 3706SOL    HW212018   0.595   4.112   0.117
 3707SOL     OW12019   4.151   5.741   3.875
 3707SOL    HW112020   4.160   5.790   3.789
 3707SOL    HW212021   4.232   5.758   3.931
 3708SOL     OW12022   4.931   6.656   1.141
 3708SOL    HW112023   5.002   6.725   1.155
 3708SOL    HW212024   4.865   6.688   1.074
 3709SOL     OW12025   2.416   0.035   1.337
 3709SOL    HW112026   2.390   7.021   1.426
 3709SOL    HW212027   2.502   0.086   1.346
 3710SOL     OW12028   0.476   5.785   5.005
 3710SOL    HW112029   0.421   5.704   4.986
 3710SOL    HW212030   0.475   5.804   5.103
 3711SOL     OW12031   1.208   6.362   4.893
 3711SOL    HW112032   1.191   6.296   4.966
 3711SOL    HW212033   1.219   6.453   4.933
 3712SOL     OW12034   1.582   6.035   6.795
 3712SOL    HW112035   1.516   5.981   6.847
 3712SOL    HW212036   1.655   6.065   6.857
 3713SOL     OW12037   0.981   0.643   4.738
 3713SOL    HW112038   0.942   0.552   4.725
 3713SOL    HW212039   1.023   0.673   4.653
 3714SOL     OW12040   6.621   5.279   0.019
 3714SOL    HW112041   6.523   5.265   0.002
 3714SOL    HW212042   6.651   5.218   0.091
 3715SOL     OW12043   0.587   5.172   2.777
 3715SOL    HW112044   0.528   5.153   2.856
 3715SOL    HW212045   0.668   5.222   2.806
 3716SOL     OW12046   5.992   5.319   4.567
 3716SOL    HW112047   5.899   5.285   4.585
 3716SOL    HW212048   6.024   5.371   4.646
 3717SOL     OW12049   6.468   1.330   0.861
 3717SOL    HW112050   6.546   1.276   0.893
 3717SOL    HW212051   6.501   1.417   0.825
 3718SOL     OW12052   6.604   0.383   6.814
 3718SOL    HW112053   6.655   0.458   6.856
 3718SOL    HW212054   6.519   0.368   6.863
 3719SOL     OW12055   4.111   3.358   6.257
 3719SOL    HW112056   4.198   3.339   6.211
 3719SOL    HW212057   4.120   3.340   6.355
 3720SOL     OW12058   5.650   3.575   0.528
 3720SOL    HW112059   5.750   3.577   0.524
 3720SOL    HW212060   5.614   3.553   0.437
 3721SOL     OW12061   6.721   4.940   0.646
 3721SOL    HW112062   6.722   4.968   0.742
 3721SOL    HW212063   6.681   5.013   0.590
 3722SOL     OW12064   5.444   6.565   1.708
 3722SOL    HW112065   5.543   6.563   1.713
 3722SOL    HW212066   5.414   6.527   1.620
 3723SOL     OW12067   4.818   5.355   6.992
 3723SOL    HW112068   4.819   5.394   0.061
 3723SOL    HW212069   4.888   5.285   6.984
 3724SOL     OW12070   1.578   4.757   5.394
 3724SOL    HW112071   1.542   4.734   5.485
 3724SOL    HW212072   1.604   4.673   5.346
 3725SOL     OW12073   0.612   6.494   0.033
 3725SOL    HW112074   0.643   6.523   0.124
 3725SOL    HW212075   0.523   6.449   0.040
 3726SOL     OW12076   5.654   3.536   5.921
 3726SOL    HW112077   5.603   3.609   5.875
 3726SOL    HW212078   5.729   3.506   5.861
 3727SOL     OW12079   6.668   3.284   4.973
 3727SOL    HW112080   6.633   3.251   5.060
 3727SOL    HW212081   6.689   3.382   4.981
 3728SOL     OW12082   2.468   3.789   6.565
 3728SOL    HW112083   2.450   3.740   6.480
 3728SOL    HW212084   2.539   3.857   6.551
 3729SOL     OW12085   0.685   0.321   4.077
 3729SOL    HW112086   0.639   0.407   4.100
 3729SOL    HW212087   0.780   0.325   4.109
 3730SOL     OW12088   3.749   5.942   5.688
 3730SOL    HW112089   3.818   5.872   5.705
 3730SOL    HW212090   3.751   6.009   5.763
 3731SOL     OW12091   0.611   1.594   0.098
 3731SOL    HW112092   0.674   1.672   0.094
 3731SOL    HW212093   0.596   1.567   0.193
 3732SOL     OW12094   1.851   2.326   0.491
 3732SOL    HW112095   1.757   2.341   0.520
 3732SOL    HW212096   1.852   2.279   0.403
 3733SOL     OW12097   1.900   2.598   3.808
 3733SOL    HW112098   1.852   2.681   3.836
 3733SOL    HW212099   1.986   2.591   3.859
 3734SOL     OW12100   4.409   0.604   1.533
 3734SOL    HW112101   4.484   0.544   1.561
 3734SOL    HW212102   4.322   0.556   1.546
 3735SOL     OW12103   4.024   0.488   2.640
 3735SOL    HW112104   4.008   0.487   2.541
 3735SOL    HW212105   4.067   0.575   2.666
 3736SOL     OW12106   6.965   1.170   1.330
 3736SOL    HW112107   0.017   1.180   1.396
 3736SOL    HW212108   6.882   1.211   1.368
 3737SOL     OW12109   6.321   2.086   3.642
 3737SOL    HW112110   6.307   2.019   3.715
 3737SOL    HW212111   6.385   2.157   3.673
 3738SOL     OW12112   6.441   6.331   0.944
 3738SOL    HW112113   6.509   6.405   0.947
 3738SOL    HW212114   6.358   6.361   0.990
 3739SOL     OW12115   2.840   4.622   1.633
 3739SOL    HW112116   2.753   4.664   1.658
 3739SOL    HW212117   2.902   4.622   1.712
 3740SOL     OW12118   6.171   5.522   0.297
 3740SOL    HW112119   6.078   5.511   0.263
 3740SOL    HW212120   6.182   5.468   0.381
 3741SOL     OW12121   3.970   2.891   6.603
 3741SOL    HW112122   4.036   2.884   6.678
 3741SOL    HW212123   4.020   2.901   6.516
 3742SOL     OW12124   4.388   0.151   0.523
 3742SOL    HW112125   4.360   0.149   0.620
 3742SOL    HW212126   4.336   0.222   0.475
 3743SOL     OW12127   5.297   4.137   1.579
 3743SOL    HW112128   5.359   4.068   1.615
 3743SOL    HW212129   5.297   4.217   1.640
 3744SOL     OW12130   0.785   6.240   2.420
 3744SOL    HW112131   0.840   6.313   2.380
 3744SOL    HW212132   0.688   6.255   2.397
 3745SOL     OW12133   5.382   4.144   2.438
 3745SOL    HW112134   5.392   4.045   2.446
 3745SOL    HW212135   5.422   4.175   2.351
 3746SOL     OW12136   5.843   0.426   3.484
 3746SOL    HW112137   5.744   0.425   3.465
 3746SOL    HW212138   5.889   0.360   3.425
 3747SOL     OW12139   5.025   6.593   5.531
 3747SOL    HW112140   4.957   6.656   5.568
 3747SOL    HW212141   5.095   6.646   5.482
 3748SOL     OW12142   5.278   0.420   2.399
 3748SOL    HW112143   5.242   0.328   2.416
 3748SOL    HW212144   5.203   0.486   2.404
 3749SOL     OW12145   2.089   4.562   3.365
 3749SOL    HW112146   2.160   4.493   3.356
 3749SOL    HW212147   2.131   4.653   3.368
 3750SOL     OW12148   6.139   4.266   1.082
 3750SOL    HW112149   6.223   4.228   1.043
 3750SOL    HW212150   6.059   4.228   1.035
 3751SOL     OW12151   0.468   2.630   0.801
 3751SOL    HW112152   0.386   2.667   0.846
 3751SOL    HW212153   0.444   2.547   0.750
 3752SOL     OW12154   0.735   6.844   0.262
 3752SOL    HW112155   0.751   6.888   0.350
 3752SOL    HW212156   0.820   6.841   0.210
 3753SOL     OW12157   0.242   0.064   4.153
 3753SOL    HW112158   0.317   0.091   4.214
 3753SOL    HW212159   0.272   0.073   4.058
 3754SOL     OW12160   4.761   6.122   1.761
 3754SOL    HW112161   4.697   6.198   1.769
 3754SOL    HW212162   4.712   6.040   1.729
 3755SOL     OW12163   5.261   5.663   4.873
 3755SOL    HW112164   5.220   5.640   4.961
 3755SOL    HW212165   5.197   5.719   4.820
 3756SOL     OW12166   1.619   0.818   6.501
 3756SOL    HW112167   1.655   0.775   6.584
 3756SOL    HW212168   1.607   0.916   6.517
 3757SOL     OW12169   3.573   5.922   6.923
 3757SOL    HW112170   3.600   5.922   6.827
 3757SOL    HW212171   3.563   6.016   6.955
 3758SOL     OW12172   1.492   1.291   4.039
 3758SOL    HW112173   1.472   1.234   3.959
 3758SOL    HW212174   1.544   1.239   4.105
 3759SOL     OW12175   4.067   4.689   5.241
 3759SOL    HW112176   3.993   4.736   5.289
 3759SOL    HW212177   4.057   4.590   5.252
 3760SOL     OW12178   0.700   3.547   4.489
 3760SOL    HW112179   0.747   3.580   4.571
 3760SOL    HW212180   0.768   3.522   4.420
 3761SOL     OW12181   0.696   6.834   5.033
 3761SOL    HW112182   0.617   6.894   5.049
 3761SOL    HW212183   0.668   6.760   4.972
 3762SOL     OW12184   0.745   5.368   6.894
 3762SOL    HW112185   0.728   5.436   6.966
 3762SOL    HW212186   0.658   5.337   6.856
 3763SOL     OW12187   6.304   5.160   0.238
 3763SOL    HW112188   6.359   5.222   0.294
 3763SOL    HW212189   6.330   5.169   0.142
 3764SOL     OW12190   2.263   0.322   3.761
 3764SOL    HW112191   2.285   0.297   3.666
 3764SOL    HW212192   2.261   0.422   3.769
 3765SOL     OW12193   5.434   1.717   1.820
 3765SOL    HW112194   5.392   1.761   1.900
 3765SOL    HW212195   5.518   1.766   1.796
 3766SOL     OW12196   1.062   1.060   4.558
 3766SOL    HW112197   1.067   1.092   4.653
 3766SOL    HW212198   0.976   1.091   4.518
 3767SOL     OW12199   2.278   5.411   0.579
 3767SOL    HW112200   2.377   5.418   0.569
 3767SOL    HW212201   2.248   5.318   0.558
 3768SOL     OW12202   2.224   5.898   5.767
 3768SOL    HW112203   2.311   5.892   5.817
 3768SOL    HW212204   2.190   5.992   5.770
 3769SOL     OW12205   5.412   5.680   5.373
 3769SOL    HW112206   5.447   5.720   5.289
 3769SOL    HW212207   5.488   5.648   5.429
 3770SOL     OW12208   1.312   0.602   6.681
 3770SOL    HW112209   1.363   0.526   6.720
 3770SOL    HW212210   1.244   0.567   6.617
 3771SOL     OW12211   5.898   2.039   0.301
 3771SOL    HW112212   5.899   2.077   0.208
 3771SOL    HW212213   5.859   1.947   0.299
 3772SOL     OW12214   6.846   1.359   0.712
 3772SOL    HW112215   6.821   1.350   0.809
 3772SOL    HW212216   6.902   1.441   0.699
 3773SOL     OW12217   5.813   2.771   6.325
 3773SOL    HW112218   5.772   2.753   6.414
 3773SOL    HW212219   5.912   2.755   6.330
 3774SOL     OW12220   0.683   6.559   6.809
 3774SOL    HW112221   0.603   6.596   6.762
 3774SOL    HW212222   0.656   6.527   6.900
 3775SOL     OW12223   5.171   4.234   1.972
 3775SOL    HW112224   5.247   4.260   1.913
 3775SOL    HW212225   5.147   4.138   1.956
 3776SOL     OW12226   3.399   1.246   0.938
 3776SOL    HW112227   3.340   1.183   0.887
 3776SOL    HW212228   3.343   1.313   0.985
 3777SOL     OW12229   3.039   4.892   4.116
 3777SOL    HW112230   3.011   4.923   4.206
 3777SOL    HW212231   2.958   4.878   4.059
 3778SOL     OW12232   2.757   5.748   3.239
 3778SOL    HW112233   2.850   5.718   3.261
 3778SOL    HW212234   2.729   5.819   3.304
 3779SOL     OW12235   2.179   4.438   0.957
 3779SOL    HW112236   2.236   4.407   1.033
 3779SOL    HW212237   2.083   4.415   0.976
 3780SOL     OW12238   4.581   4.721   5.564
 3780SOL    HW112239   4.482   4.730   5.560
 3780SOL    HW212240   4.609   4.701   5.658
 3781SOL     OW12241   1.254   6.389   4.392
 3781SOL    HW112242   1.251   6.350   4.484
 3781SOL    HW212243   1.161   6.403   4.359
 3782SOL     OW12244   2.784   2.048   4.271
 3782SOL    HW112245   2.701   2.075   4.223
 3782SOL    HW212246   2.834   1.982   4.216
 3783SOL     OW12247   5.439   6.462   5.179
 3783SOL    HW112248   5.483   6.550   5.158
 3783SOL    HW212249   5.453   6.440   5.275
 3784SOL     OW12250   4.777   1.853   3.454
 3784SOL    HW112251   4.806   1.891   3.367
 3784SOL    HW212252   4.858   1.824   3.506
 3785SOL     OW12253   1.919   1.141   0.111
 3785SOL    HW112254   2.017   1.148   0.129
 3785SOL    HW212255   1.869   1.199   0.175
 3786SOL     OW12256   2.895   6.454   3.469
 3786SOL    HW112257   2.876   6.408   3.382
 3786SOL    HW212258   2.850   6.543   3.470
 3787SOL     OW12259   5.985   6.078   3.514
 3787SOL    HW112260   5.927   6.151   3.478
 3787SOL    HW212261   5.956   6.055   3.607
 3788SOL     OW12262   0.350   2.929   3.464
 3788SOL    HW112263   0.373   2.858   3.397
 3788SOL    HW212264   0.433   2.960   3.510
 3789SOL     OW12265   1.297   3.136   4.072
 3789SOL    HW112266   1.298   3.040   4.103
 3789SOL    HW212267   1.389   3.163   4.045
 3790SOL     OW12268   1.475   3.872   4.986
 3790SOL    HW112269   1.503   3.954   4.936
 3790SOL    HW212270   1.549   3.842   5.046
 3791SOL     OW12271   6.390   0.046   0.924
 3791SOL    HW112272   6.396   6.970   0.907
 3791SOL    HW212273   6.295   0.074   0.922
 3792SOL     OW12274   7.001   0.772   4.264
 3792SOL    HW112275   0.027   0.685   4.257
 3792SOL    HW212276   0.038   0.847   4.236
 3793SOL     OW12277   3.734   6.851   2.700
 3793SOL    HW112278   3.810   6.878   2.641
 3793SOL    HW212279   3.709   6.756   2.682
 3794SOL     OW12280   3.357   4.754   1.246
 3794SOL    HW112281   3.326   4.723   1.336
 3794SOL    HW212282   3.295   4.721   1.176
 3795SOL     OW12283   3.585   6.547   0.059
 3795SOL    HW112284   3.591   6.634   0.109
 3795SOL    HW212285   3.500   6.501   0.082
 3796SOL     OW12286   2.457   2.165   1.350
 3796SOL    HW112287   2.383   2.104   1.379
 3796SOL    HW212288   2.482   2.225   1.426
 3797SOL     OW12289   6.637   4.724   2.565
 3797SOL    HW112290   6.593   4.791   2.624
 3797SOL    HW212291   6.594   4.634   2.578
 3798SOL     OW12292   3.454   5.593   3.383
 3798SOL    HW112293   3.473   5.511   3.329
 3798SOL    HW212294   3.500   5.586   3.471
 3799SOL     OW12295   0.340   2.494   4.731
 3799SOL    HW112296   0.410   2.457   4.670
 3799SOL    HW212297   0.265   2.531   4.677
 3800SOL     OW12298   5.040   2.984   4.613
 3800SOL    HW112299   5.103   2.949   4.682
 3800SOL    HW212300   5.066   3.077   4.588
 3801SOL     OW12301   6.978   6.517   4.289
 3801SOL    HW112302   6.951   6.592   4.229
 3801SOL    HW212303   0.051   6.494   4.272
 3802SOL     OW12304   0.100   1.879   4.152
 3802SOL    HW112305   0.144   1.798   4.114
 3802SOL    HW212306   0.105   1.954   4.086
 3803SOL     OW12307   3.817   1.552   1.725
 3803SOL    HW112308   3.743   1.608   1.763
 3803SOL    HW212309   3.889   1.541   1.793
 3804SOL     OW12310   5.326   2.111   4.026
 3804SOL    HW112311   5.239   2.159   4.020
 3804SOL    HW212312   5.386   2.140   3.952
 3805SOL     OW12313   2.723   3.689   1.602
 3805SOL    HW112314   2.785   3.737   1.665
 3805SOL    HW212315   2.651   3.751   1.573
 3806SOL     OW12316   2.491   3.853   0.270
 3806SOL    HW112317   2.493   3.771   0.326
 3806SOL    HW212318   2.400   3.867   0.232
 3807SOL     OW12319   2.070   0.859   3.773
 3807SOL    HW112320   2.153   0.807   3.753
 3807SOL    HW212321   2.033   0.829   3.861
 3808SOL     OW12322   3.666   1.310   1.266
 3808SOL    HW112323   3.686   1.394   1.216
 3808SOL    HW212324   3.691   1.321   1.362
 3809SOL     OW12325   6.355   2.672   0.712
 3809SOL    HW112326   6.300   2.754   0.694
 3809SOL    HW212327   6.451   2.697   0.713
 3810SOL     OW12328   4.359   2.577   5.274
 3810SOL    HW112329   4.366   2.615   5.367
 3810SOL    HW212330   4.263   2.569   5.249
 3811SOL     OW12331   0.478   4.789   4.699
 3811SOL    HW112332   0.385   4.806   4.731
 3811SOL    HW212333   0.476   4.767   4.602
 3812SOL     OW12334   5.714   1.212   5.361
 3812SOL    HW112335   5.649   1.156   5.310
 3812SOL    HW212336   5.735   1.295   5.309
 3813SOL     OW12337   4.165   3.992   0.573
 3813SOL    HW112338   4.066   4.006   0.569
 3813SOL    HW212339   4.187   3.931   0.649
 3814SOL     OW12340   6.761   6.483   1.635
 3814SOL    HW112341   6.703   6.563   1.618
 3814SOL    HW212342   6.853   6.501   1.602
 3815SOL     OW12343   5.285   2.488   0.414
 3815SOL    HW112344   5.302   2.554   0.342
 3815SOL    HW212345   5.200   2.438   0.394
 3816SOL     OW12346   6.719   6.094   0.675
 3816SOL    HW112347   6.715   6.009   0.623
 3816SOL    HW212348   6.803   6.097   0.728
 3817SOL     OW12349   4.865   2.995   3.834
 3817SOL    HW112350   4.802   2.921   3.857
 3817SOL    HW212351   4.838   3.038   3.748
 3818SOL     OW12352   5.328   6.992   1.075
 3818SOL    HW112353   5.329   0.001   0.980
 3818SOL    HW212354   5.335   6.892   1.076
 3819SOL     OW12355   5.414   5.115   0.716
 3819SOL    HW112356   5.400   5.043   0.648
 3819SOL    HW212357   5.373   5.086   0.803
 3820SOL     OW12358   6.888   6.759   4.200
 3820SOL    HW112359   6.918   6.854   4.186
 3820SOL    HW212360   6.856   6.748   4.294
 3821SOL     OW12361   1.873   3.256   1.751
 3821SOL    HW112362   1.807   3.307   1.807
 3821SOL    HW212363   1.828   3.175   1.713
 3822SOL     OW12364   1.284   5.576   2.706
 3822SOL    HW112365   1.284   5.603   2.803
 3822SOL    HW212366   1.306   5.656   2.650
 3823SOL     OW12367   3.887   2.600   5.573
 3823SOL    HW112368   3.985   2.613   5.589
 3823SOL    HW212369   3.850   2.537   5.641
 3824SOL     OW12370   5.927   1.556   5.946
 3824SOL    HW112371   5.999   1.623   5.965
 3824SOL    HW212372   5.941   1.517   5.855
 3825SOL     OW12373   0.390   0.591   0.637
 3825SOL    HW112374   0.421   0.604   0.543
 3825SOL    HW212375   0.442   0.652   0.698
 3826SOL     OW12376   0.915   3.868   6.578
 3826SOL    HW112377   1.015   3.867   6.588
 3826SOL    HW212378   0.888   3.801   6.509
 3827SOL     OW12379   3.294   3.605   0.616
 3827SOL    HW112380   3.330   3.601   0.523
 3827SOL    HW212381   3.369   3.620   0.680
 3828SOL     OW12382   4.145   2.239   1.387
 3828SOL    HW112383   4.074   2.268   1.451
 3828SOL    HW212384   4.194   2.319   1.352
 3829SOL     OW12385   2.180   4.766   4.274
 3829SOL    HW112386   2.174   4.862   4.302
 3829SOL    HW212387   2.091   4.734   4.243
 3830SOL     OW12388   0.825   0.050   4.468
 3830SOL    HW112389   0.799   6.977   4.462
 3830SOL    HW212390   0.903   0.058   4.531
 3831SOL     OW12391   4.315   1.779   2.118
 3831SOL    HW112392   4.246   1.808   2.184
 3831SOL    HW212393   4.350   1.859   2.069
 3832SOL     OW12394   6.212   0.614   2.415
 3832SOL    HW112395   6.138   0.569   2.364
 3832SOL    HW212396   6.299   0.570   2.392
 3833SOL     OW12397   0.710   5.937   5.966
 3833SOL    HW112398   0.619   5.896   5.952
 3833SOL    HW212399   0.701   6.018   6.025
 3834SOL     OW12400   3.445   2.841   0.395
 3834SOL    HW112401   3.430   2.938   0.376
 3834SOL    HW212402   3.381   2.812   0.467
 3835SOL     OW12403   3.294   4.748   5.286
 3835SOL    HW112404   3.216   4.689   5.306
 3835SOL    HW212405   3.350   4.707   5.214
 3836SOL     OW12406   2.154   3.536   5.104
 3836SOL    HW112407   2.202   3.448   5.110
 3836SOL    HW212408   2.107   3.542   5.016
 3837SOL     OW12409   4.711   3.194   6.582
 3837SOL    HW112410   4.676   3.195   6.488
 3837SOL    HW212411   4.740   3.101   6.605
 3838SOL     OW12412   6.140   4.107   4.153
 3838SOL    HW112413   6.208   4.121   4.081
 3838SOL    HW212414   6.170   4.033   4.213
 3839SOL     OW12415   4.370   0.031   4.276
 3839SOL    HW112416   4.292   0.052   4.216
 3839SOL    HW212417   4.376   6.956   4.288
 3840SOL     OW12418   1.930   1.272   5.451
 3840SOL    HW112419   1.854   1.333   5.433
 3840SOL    HW212420   1.899   1.196   5.508
 3841SOL     OW12421   0.033   3.781   5.201
 3841SOL    HW112422   7.019   3.689   5.187
 3841SOL    HW212423   0.055   3.793   5.298
 3842SOL     OW12424   1.528   5.190   0.559
 3842SOL    HW112425   1.612   5.191   0.505
 3842SOL    HW212426   1.551   5.203   0.655
 3843SOL     OW12427   6.666   3.617   1.210
 3843SOL    HW112428   6.743   3.668   1.249
 3843SOL    HW212429   6.698   3.528   1.177
 3844SOL     OW12430   6.804   4.547   5.521
 3844SOL    HW112431   6.882   4.506   5.474
 3844SOL    HW212432   6.830   4.637   5.556
 3845SOL     OW12433   3.439   2.844   2.465
 3845SOL    HW112434   3.390   2.815   2.547
 3845SOL    HW212435   3.374   2.885   2.401
 3846SOL     OW12436   0.270   4.341   4.180
 3846SOL    HW112437   0.270   4.425   4.235
 3846SOL    HW212438   0.355   4.335   4.128
 3847SOL     OW12439   6.403   1.707   6.226
 3847SOL    HW112440   6.308   1.675   6.227
 3847SOL    HW212441   6.464   1.629   6.230
 3848SOL     OW12442   2.823   5.771   2.931
 3848SOL    HW112443   2.851   5.860   2.967
 3848SOL    HW212444   2.728   5.754   2.954
 3849SOL     OW12445   0.489   1.214   5.565
 3849SOL    HW112446   0.501   1.264   5.651
 3849SOL    HW212447   0.577   1.183   5.531
 3850SOL     OW12448   2.310   3.686   1.691
 3850SOL    HW112449   2.340   3.639   1.608
 3850SOL    HW212450   2.270   3.619   1.754
 3851SOL     OW12451   1.206   4.232   2.677
 3851SOL    HW112452   1.166   4.174   2.748
 3851SOL    HW212453   1.214   4.325   2.711
 3852SOL     OW12454   4.828   6.862   4.684
 3852SOL    HW112455   4.897   6.916   4.634
 3852SOL    HW212456   4.862   6.769   4.696
 3853SOL     OW12457   1.251   3.548   2.645
 3853SOL    HW112458   1.153   3.556   2.630
 3853SOL    HW212459   1.268   3.513   2.738
 3854SOL     OW12460   0.459   3.935   3.320
 3854SOL    HW112461   0.377   3.960   3.268
 3854SOL    HW212462   0.483   3.840   3.301
 3855SOL     OW12463   5.712   5.577   6.841
 3855SOL    HW112464   5.788   5.633   6.809
 3855SOL    HW212465   5.626   5.622   6.820
 3856SOL     OW12466   0.336   6.757   4.859
 3856SOL    HW112467   0.392   6.818   4.803
 3856SOL    HW212468   0.299   6.808   4.937
 3857SOL     OW12469   1.260   6.880   4.915
 3857SOL    HW112470   1.184   6.826   4.879
 3857SOL    HW212471   1.346   6.843   4.880
 3858SOL     OW12472   1.044   5.899   6.106
 3858SOL    HW112473   1.035   5.835   6.183
 3858SOL    HW212474   0.980   5.975   6.118
 3859SOL     OW12475   6.939   1.559   3.011
 3859SOL    HW112476   6.912   1.644   2.967
 3859SOL    HW212477   6.858   1.513   3.047
 3860SOL     OW12478   2.014   6.164   4.596
 3860SOL    HW112479   2.098   6.113   4.576
 3860SOL    HW212480   1.966   6.185   4.510
 3861SOL     OW12481   5.774   4.422   1.453
 3861SOL    HW112482   5.795   4.484   1.377
 3861SOL    HW212483   5.787   4.328   1.424
 3862SOL     OW12484   6.691   6.769   5.515
 3862SOL    HW112485   6.676   6.867   5.529
 3862SOL    HW212486   6.704   6.724   5.603
 3863SOL     OW12487   3.849   4.150   0.121
 3863SOL    HW112488   3.946   4.170   0.133
 3863SOL    HW212489   3.795   4.214   0.175
 3864SOL     OW12490   4.091   2.300   5.950
 3864SOL    HW112491   4.110   2.382   6.003
 3864SOL    HW212492   4.176   2.265   5.910
 3865SOL     OW12493   3.715   0.594   1.390
 3865SOL    HW112494   3.697   0.664   1.320
 3865SOL    HW212495   3.658   0.613   1.470
 3866SOL     OW12496   4.022   0.864   0.416
 3866SOL    HW112497   4.043   0.767   0.402
 3866SOL    HW212498   3.922   0.876   0.418
 3867SOL     OW12499   2.155   3.577   3.583
 3867SOL    HW112500   2.189   3.616   3.669
 3867SOL    HW212501   2.155   3.477   3.590
 3868SOL     OW12502   2.399   5.959   1.989
 3868SOL    HW112503   2.454   6.019   2.048
 3868SOL    HW212504   2.302   5.981   2.000
 3869SOL     OW12505   0.066   2.510   4.018
 3869SOL    HW112506   0.088   2.590   3.962
 3869SOL    HW212507   0.151   2.464   4.044
 3870SOL     OW12508   3.170   5.025   0.183
 3870SOL    HW112509   3.130   5.006   0.273
 3870SOL    HW212510   3.188   4.939   0.135
 3871SOL     OW12511   3.261   0.406   2.232
 3871SOL    HW112512   3.252   0.310   2.207
 3871SOL    HW212513   3.189   0.430   2.297
 3872SOL     OW12514   4.001   3.035   1.050
 3872SOL    HW112515   3.994   3.077   0.959
 3872SOL    HW212516   3.984   2.937   1.043
 3873SOL     OW12517   5.795   5.361   1.487
 3873SOL    HW112518   5.875   5.307   1.463
 3873SOL    HW212519   5.814   5.417   1.568
 3874SOL     OW12520   4.155   6.721   0.227
 3874SOL    HW112521   4.177   6.778   0.307
 3874SOL    HW212522   4.064   6.681   0.239
 3875SOL     OW12523   1.111   3.841   2.744
 3875SOL    HW112524   1.013   3.861   2.744
 3875SOL    HW212525   1.134   3.789   2.662
 3876SOL     OW12526   4.719   5.320   6.242
 3876SOL    HW112527   4.661   5.391   6.203
 3876SOL    HW212528   4.804   5.362   6.274
 3877SOL     OW12529   6.847   1.663   1.384
 3877SOL    HW112530   6.839   1.748   1.334
 3877SOL    HW212531   6.937   1.623   1.368
 3878SOL     OW12532   2.928   6.295   5.996
 3878SOL    HW112533   2.894   6.234   6.068
 3878SOL    HW212534   3.028   6.300   6.000
 3879SOL     OW12535   4.683   5.687   1.125
 3879SOL    HW112536   4.587   5.672   1.148
 3879SOL    HW212537   4.698   5.664   1.029
 3880SOL     OW12538   6.061   4.315   2.586
 3880SOL    HW112539   6.140   4.283   2.532
 3880SOL    HW212540   6.018   4.236   2.630
 3881SOL     OW12541   1.610   5.574   0.643
 3881SOL    HW112542   1.675   5.498   0.654
 3881SOL    HW212543   1.574   5.599   0.733
 3882SOL     OW12544   6.421   1.062   6.031
 3882SOL    HW112545   6.409   1.084   5.934
 3882SOL    HW212546   6.438   0.964   6.040
 3883SOL     OW12547   4.724   1.346   4.119
 3883SOL    HW112548   4.680   1.273   4.066
 3883SOL    HW212549   4.774   1.406   4.056
 3884SOL     OW12550   1.256   6.264   4.650
 3884SOL    HW112551   1.261   6.164   4.647
 3884SOL    HW212552   1.252   6.294   4.746
 3885SOL     OW12553   6.306   1.100   4.737
 3885SOL    HW112554   6.289   1.097   4.638
 3885SOL    HW212555   6.239   1.043   4.784
 3886SOL     OW12556   6.655   0.274   5.780
 3886SOL    HW112557   6.651   0.284   5.880
 3886SOL    HW212558   6.606   0.350   5.737
 3887SOL     OW12559   4.489   1.485   5.514
 3887SOL    HW112560   4.527   1.537   5.591
 3887SOL    HW212561   4.537   1.398   5.506
 3888SOL     OW12562   6.905   1.667   0.200
 3888SOL    HW112563   6.860   1.682   0.112
 3888SOL    HW212564   6.903   1.569   0.222
 3889SOL     OW12565   0.786   5.432   6.285
 3889SOL    HW112566   0.832   5.391   6.364
 3889SOL    HW212567   0.815   5.528   6.277
 3890SOL     OW12568   6.118   6.100   3.265
 3890SOL    HW112569   6.068   6.172   3.218
 3890SOL    HW212570   6.062   6.063   3.340
 3891SOL     OW12571   5.332   5.342   4.648
 3891SOL    HW112572   5.246   5.304   4.684
 3891SOL    HW212573   5.399   5.349   4.722
 3892SOL     OW12574   0.248   6.979   2.718
 3892SOL    HW112575   0.220   0.041   2.673
 3892SOL    HW212576   0.173   6.913   2.715
 3893SOL     OW12577   3.871   5.710   3.640
 3893SOL    HW112578   3.844   5.632   3.697
 3893SOL    HW212579   3.919   5.677   3.559
 3894SOL     OW12580   3.739   2.564   0.266
 3894SOL    HW112581   3.746   2.650   0.317
 3894SOL    HW212582   3.644   2.534   0.266
 3895SOL     OW12583   1.622   1.614   5.164
 3895SOL    HW112584   1.645   1.529   5.115
 3895SOL    HW212585   1.692   1.683   5.145
 3896SOL     OW12586   0.412   1.913   5.789
 3896SOL    HW112587   0.395   1.819   5.759
 3896SOL    HW212588   0.332   1.947   5.838
 3897SOL     OW12589   2.519   6.530   2.129
 3897SOL    HW112590   2.494   6.435   2.109
 3897SOL    HW212591   2.615   6.534   2.157
 3898SOL     OW12592   3.513   3.207   4.206
 3898SOL    HW112593   3.479   3.127   4.256
 3898SOL    HW212594   3.456   3.222   4.125
 3899SOL     OW12595   5.119   1.470   5.290
 3899SOL    HW112596   5.190   1.486   5.358
 3899SOL    HW212597   5.032   1.507   5.324
 3900SOL     OW12598   6.504   2.690   3.124
 3900SOL    HW112599   6.422   2.716   3.175
 3900SOL    HW212600   6.550   2.615   3.172
 3901SOL     OW12601   0.949   6.371   4.665
 3901SOL    HW112602   1.035   6.331   4.635
 3901SOL    HW212603   0.966   6.457   4.712
 3902SOL     OW12604   5.629   4.957   1.514
 3902SOL    HW112605   5.710   4.988   1.564
 3902SOL    HW212606   5.639   4.860   1.491
 3903SOL     OW12607   4.152   2.028   0.121
 3903SOL    HW112608   4.218   1.987   0.184
 3903SOL    HW212609   4.117   1.958   0.059
 3904SOL     OW12610   0.971   0.110   0.060
 3904SOL    HW112611   0.973   0.179   0.131
 3904SOL    HW212612   0.945   0.152   6.996
 3905SOL     OW12613   6.856   6.667   6.176
 3905SOL    HW112614   6.785   6.667   6.106
 3905SOL    HW212615   6.877   6.761   6.202
 3906SOL     OW12616   1.676   4.693   4.085
 3906SOL    HW112617   1.649   4.610   4.133
 3906SOL    HW212618   1.639   4.773   4.133
 3907SOL     OW12619   0.029   0.848   4.784
 3907SOL    HW112620   6.966   0.833   4.735
 3907SOL    HW212621   0.101   0.791   4.744
 3908SOL     OW12622   1.592   0.931   5.492
 3908SOL    HW112623   1.594   0.908   5.395
 3908SOL    HW212624   1.590   1.030   5.503
 3909SOL     OW12625   5.342   3.143   5.604
 3909SOL    HW112626   5.347   3.196   5.689
 3909SOL    HW212627   5.412   3.072   5.605
 3910SOL     OW12628   3.475   3.361   1.953
 3910SOL    HW112629   3.525   3.332   1.871
 3910SOL    HW212630   3.472   3.461   1.957
 3911SOL     OW12631   5.598   0.418   1.528
 3911SOL    HW112632   5.499   0.423   1.541
 3911SOL    HW212633   5.635   0.511   1.520
 3912SOL     OW12634   2.999   2.157   0.101
 3912SOL    HW112635   2.973   2.207   0.018
 3912SOL    HW212636   2.991   2.218   0.180
 3913SOL     OW12637   3.981   6.201   0.358
 3913SOL    HW112638   4.065   6.169   0.313
 3913SOL    HW212639   3.985   6.300   0.368
 3914SOL     OW12640   5.913   1.295   1.297
 3914SOL    HW112641   5.905   1.220   1.364
 3914SOL    HW212642   5.828   1.301   1.244
 3915SOL     OW12643   4.905   5.444   0.432
 3915SOL    HW112644   4.862   5.354   0.423
 3915SOL    HW212645   4.983   5.438   0.495
 3916SOL     OW12646   2.562   0.692   2.875
 3916SOL    HW112647   2.595   0.624   2.809
 3916SOL    HW212648   2.520   0.644   2.952
 3917SOL     OW12649   2.471   5.319   0.973
 3917SOL    HW112650   2.467   5.260   0.893
 3917SOL    HW212651   2.524   5.401   0.952
 3918SOL     OW12652   5.541   0.932   0.924
 3918SOL    HW112653   5.521   1.011   0.982
 3918SOL    HW212654   5.456   0.901   0.881
 3919SOL     OW12655   4.464   1.098   0.973
 3919SOL    HW112656   4.463   1.198   0.963
 3919SOL    HW212657   4.558   1.065   0.968
 3920SOL     OW12658   2.789   1.254   6.359
 3920SOL    HW112659   2.768   1.187   6.288
 3920SOL    HW212660   2.794   1.209   6.447
 3921SOL     OW12661   0.516   2.526   6.205
 3921SOL    HW112662   0.594   2.557   6.259
 3921SOL    HW212663   0.441   2.592   6.212
 3922SOL     OW12664   5.010   4.561   1.685
 3922SOL    HW112665   4.978   4.472   1.654
 3922SOL    HW212666   5.032   4.556   1.783
 3923SOL     OW12667   5.551   1.018   1.666
 3923SOL    HW112668   5.540   1.098   1.725
 3923SOL    HW212669   5.636   0.971   1.689
 3924SOL     OW12670   6.928   4.539   4.608
 3924SOL    HW112671   0.005   4.543   4.609
 3924SOL    HW212672   6.895   4.560   4.516
 3925SOL     OW12673   5.187   3.656   0.235
 3925SOL    HW112674   5.232   3.665   0.146
 3925SOL    HW212675   5.238   3.708   0.303
 3926SOL     OW12676   1.398   0.564   6.193
 3926SOL    HW112677   1.461   0.549   6.270
 3926SOL    HW212678   1.447   0.553   6.107
 3927SOL     OW12679   0.647   2.491   5.304
 3927SOL    HW112680   0.699   2.449   5.378
 3927SOL    HW212681   0.673   2.587   5.295
 3928SOL     OW12682   1.985   6.643   3.318
 3928SOL    HW112683   2.025   6.731   3.344
 3928SOL    HW212684   2.027   6.570   3.372
 3929SOL     OW12685   0.115   1.940   4.802
 3929SOL    HW112686   0.111   2.040   4.799
 3929SOL    HW212687   0.075   1.908   4.887
 3930SOL     OW12688   1.219   3.326   3.580
 3930SOL    HW112689   1.133   3.365   3.546
 3930SOL    HW212690   1.201   3.270   3.660
 3931SOL     OW12691   1.432   2.618   1.597
 3931SOL    HW112692   1.432   2.548   1.669
 3931SOL    HW212693   1.338   2.642   1.574
 3932SOL     OW12694   1.813   6.038   4.091
 3932SOL    HW112695   1.843   6.116   4.145
 3932SOL    HW212696   1.784   5.964   4.152
 3933SOL     OW12697   2.238   5.149   0.456
 3933SOL    HW112698   2.229   5.075   0.523
 3933SOL    HW212699   2.243   5.109   0.364
 3934SOL     OW12700   0.612   1.492   2.922
 3934SOL    HW112701   0.603   1.481   3.022
 3934SOL    HW212702   0.644   1.406   2.882
 3935SOL     OW12703   6.361   3.396   6.477
 3935SOL    HW112704   6.351   3.461   6.401
 3935SOL    HW212705   6.433   3.330   6.455
 3936SOL     OW12706   6.411   5.504   5.506
 3936SOL    HW112707   6.412   5.407   5.532
 3936SOL    HW212708   6.460   5.516   5.420
 3937SOL     OW12709   0.129   6.014   2.607
 3937SOL    HW112710   0.126   5.938   2.543
 3937SOL    HW212711   0.133   5.979   2.701
 3938SOL     OW12712   6.530   4.006   3.537
 3938SOL    HW112713   6.624   4.020   3.506
 3938SOL    HW212714   6.502   4.082   3.596
 3939SOL     OW12715   0.743   1.124   2.373
 3939SOL    HW112716   0.780   1.099   2.462
 3939SOL    HW212717   0.708   1.042   2.327
 3940SOL     OW12718   3.041   4.822   2.031
 3940SOL    HW112719   3.008   4.730   2.013
 3940SOL    HW212720   2.982   4.867   2.098
 3941SOL     OW12721   5.815   6.640   4.367
 3941SOL    HW112722   5.772   6.556   4.334
 3941SOL    HW212723   5.901   6.619   4.412
 3942SOL     OW12724   1.166   6.422   6.279
 3942SOL    HW112725   1.132   6.394   6.190
 3942SOL    HW212726   1.255   6.465   6.269
 3943SOL     OW12727   1.442   3.349   1.803
 3943SOL    HW112728   1.457   3.251   1.792
 3943SOL    HW212729   1.344   3.368   1.800
 3944SOL     OW12730   6.531   2.416   6.654
 3944SOL    HW112731   6.601   2.475   6.615
 3944SOL    HW212732   6.472   2.381   6.581
 3945SOL     OW12733   0.732   1.273   2.820
 3945SOL    HW112734   0.830   1.266   2.802
 3945SOL    HW212735   0.681   1.238   2.742
 3946SOL     OW12736   0.517   2.802   0.591
 3946SOL    HW112737   0.510   2.722   0.652
 3946SOL    HW212738   0.430   2.815   0.544
 3947SOL     OW12739   6.271   5.825   0.935
 3947SOL    HW112740   6.207   5.749   0.927
 3947SOL    HW212741   6.322   5.835   0.850
 3948SOL     OW12742   1.803   2.425   6.026
 3948SOL    HW112743   1.715   2.396   5.991
 3948SOL    HW212744   1.855   2.346   6.058
 3949SOL     OW12745   6.127   6.399   2.023
 3949SOL    HW112746   6.046   6.396   2.082
 3949SOL    HW212747   6.097   6.400   1.927
 3950SOL     OW12748   3.739   4.375   1.253
 3950SOL    HW112749   3.836   4.400   1.253
 3950SOL    HW212750   3.698   4.401   1.166
 3951SOL     OW12751   0.391   2.044   5.516
 3951SOL    HW112752   0.452   1.979   5.471
 3951SOL    HW212753   0.382   2.020   5.613
 3952SOL     OW12754   6.210   2.581   5.487
 3952SOL    HW112755   6.216   2.597   5.586
 3952SOL    HW212756   6.221   2.668   5.439
 3953SOL     OW12757   3.471   4.390   6.420
 3953SOL    HW112758   3.469   4.461   6.349
 3953SOL    HW212759   3.388   4.396   6.475
 3954SOL     OW12760   0.431   3.667   4.917
 3954SOL    HW112761   0.501   3.728   4.881
 3954SOL    HW212762   0.447   3.653   5.015
 3955SOL     OW12763   5.421   5.602   6.764
 3955SOL    HW112764   5.444   5.699   6.771
 3955SOL    HW212765   5.421   5.575   6.667
 3956SOL     OW12766   0.250   2.630   6.106
 3956SOL    HW112767   0.175   2.576   6.146
 3956SOL    HW212768   0.288   2.691   6.176
 3957SOL     OW12769   2.158   6.827   4.337
 3957SOL    HW112770   2.198   6.740   4.364
 3957SOL    HW212771   2.085   6.811   4.271
 3958SOL     OW12772   6.301   6.225   6.211
 3958SOL    HW112773   6.384   6.224   6.267
 3958SOL    HW212774   6.320   6.186   6.121
 3959SOL     OW12775   3.416   5.057   0.053
 3959SOL    HW112776   3.352   5.040   0.128
 3959SOL    HW212777   3.509   5.063   0.089
 3960SOL     OW12778   3.644   3.064   0.196
 3960SOL    HW112779   3.616   2.976   0.159
 3960SOL    HW212780   3.606   3.138   0.140
 3961SOL     OW12781   5.040   1.179   1.737
 3961SOL    HW112782   4.956   1.207   1.689
 3961SOL    HW212783   5.065   1.087   1.708
 3962SOL     OW12784   0.799   6.878   6.786
 3962SOL    HW112785   0.848   6.793   6.767
 3962SOL    HW212786   0.747   6.868   6.871
 3963SOL     OW12787   4.899   5.660   4.303
 3963SOL    HW112788   4.904   5.678   4.401
 3963SOL    HW212789   4.909   5.746   4.253
 3964SOL     OW12790   5.127   6.017   5.729
 3964SOL    HW112791   5.162   5.923   5.729
 3964SOL    HW212792   5.032   6.018   5.699
 3965SOL     OW12793   3.470   3.981   6.775
 3965SOL    HW112794   3.420   3.904   6.815
 3965SOL    HW212795   3.540   4.012   6.839
 3966SOL     OW12796   6.295   4.576   5.381
 3966SOL    HW112797   6.290   4.561   5.480
 3966SOL    HW212798   6.380   4.538   5.345
 3967SOL     OW12799   0.531   6.218   5.624
 3967SOL    HW112800   0.477   6.227   5.541
 3967SOL    HW212801   0.628   6.231   5.602
 3968SOL     OW12802   5.353   1.053   2.607
 3968SOL    HW112803   5.386   1.059   2.702
 3968SOL    HW212804   5.309   0.965   2.593
 3969SOL     OW12805   0.902   4.885   2.754
 3969SOL    HW112806   0.915   4.943   2.674
 3969SOL    HW212807   0.853   4.937   2.825
 3970SOL     OW12808   4.933   4.576   3.269
 3970SOL    HW112809   4.924   4.513   3.346
 3970SOL    HW212810   4.843   4.592   3.229
 3971SOL     OW12811   2.151   6.068   3.401
 3971SOL    HW112812   2.172   6.098   3.494
 3971SOL    HW212813   2.189   6.133   3.335
 3972SOL     OW12814   0.453   6.694   0.682
 3972SOL    HW112815   0.534   6.652   0.723
 3972SOL    HW212816   0.375   6.633   0.691
 3973SOL     OW12817   3.601   4.171   4.276
 3973SOL    HW112818   3.680   4.109   4.274
 3973SOL    HW212819   3.551   4.163   4.189
 3974SOL     OW12820   6.643   1.016   6.219
 3974SOL    HW112821   6.715   0.982   6.159
 3974SOL    HW212822   6.570   1.056   6.164
 3975SOL     OW12823   6.730   1.517   6.603
 3975SOL    HW112824   6.679   1.564   6.532
 3975SOL    HW212825   6.672   1.446   6.645
 3976SOL     OW12826   1.654   4.210   0.695
 3976SOL    HW112827   1.666   4.273   0.618
 3976SOL    HW212828   1.743   4.185   0.732
 3977SOL     OW12829   2.725   6.118   6.491
 3977SOL    HW112830   2.675   6.085   6.571
 3977SOL    HW212831   2.688   6.076   6.408
 3978SOL     OW12832   5.918   1.931   5.536
 3978SOL    HW112833   5.935   2.028   5.551
 3978SOL    HW212834   5.842   1.919   5.473
 3979SOL     OW12835   1.041   6.898   2.357
 3979SOL    HW112836   1.079   6.848   2.279
 3979SOL    HW212837   1.050   6.844   2.440
 3980SOL     OW12838   4.929   3.263   4.312
 3980SOL    HW112839   4.921   3.207   4.229
 3980SOL    HW212840   4.889   3.353   4.295
 3981SOL     OW12841   6.604   2.076   0.778
 3981SOL    HW112842   6.576   2.041   0.688
 3981SOL    HW212843   6.596   2.175   0.779
 3982SOL     OW12844   2.708   1.875   3.874
 3982SOL    HW112845   2.781   1.928   3.831
 3982SOL    HW212846   2.747   1.814   3.943
 3983SOL     OW12847   2.987   7.004   4.129
 3983SOL    HW112848   3.045   6.957   4.196
 3983SOL    HW212849   3.013   0.077   4.125
 3984SOL     OW12850   1.384   6.464   1.917
 3984SOL    HW112851   1.458   6.450   1.983
 3984SOL    HW212852   1.422   6.490   1.829
 3985SOL     OW12853   2.001   3.717   0.050
 3985SOL    HW112854   1.911   3.724   0.094
 3985SOL    HW212855   2.033   3.622   0.055
 3986SOL     OW12856   0.067   2.048   1.350
 3986SOL    HW112857   7.019   1.981   1.328
 3986SOL    HW212858   0.035   2.107   1.425
 3987SOL     OW12859   1.985   5.063   6.263
 3987SOL    HW112860   2.051   5.011   6.208
 3987SOL    HW212861   1.892   5.040   6.231
 3988SOL     OW12862   3.905   2.401   0.115
 3988SOL    HW112863   3.830   2.356   0.067
 3988SOL    HW212864   3.869   2.469   0.179
 3989SOL     OW12865   5.835   0.017   0.162
 3989SOL    HW112866   5.835   0.011   0.062
 3989SOL    HW212867   5.923   7.007   0.198
 3990SOL     OW12868   0.683   3.034   4.250
 3990SOL    HW112869   0.778   3.053   4.272
 3990SOL    HW212870   0.673   3.020   4.151
 3991SOL     OW12871   0.600   2.472   3.571
 3991SOL    HW112872   0.598   2.372   3.583
 3991SOL    HW212873   0.688   2.507   3.603
 3992SOL     OW12874   4.129   3.362   6.543
 3992SOL    HW112875   4.136   3.430   6.617
 3992SOL    HW212876   4.082   3.281   6.576
 3993SOL     OW12877   2.985   2.206   2.837
 3993SOL    HW112878   3.067   2.158   2.868
 3993SOL    HW212879   2.995   2.228   2.739
 3994SOL     OW12880   2.449   2.721   4.171
 3994SOL    HW112881   2.409   2.763   4.253
 3994SOL    HW212882   2.496   2.636   4.198
 3995SOL     OW12883   2.269   4.305   3.648
 3995SOL    HW112884   2.295   4.214   3.615
 3995SOL    HW212885   2.175   4.303   3.681
 3996SOL     OW12886   1.056   0.642   3.855
 3996SOL    HW112887   1.005   0.644   3.769
 3996SOL    HW212888   0.991   0.645   3.932
 3997SOL     OW12889   5.028   3.763   2.959
 3997SOL    HW112890   5.080   3.707   3.023
 3997SOL    HW212891   5.043   3.860   2.978
 3998SOL     OW12892   6.709   1.973   2.860
 3998SOL    HW112893   6.760   2.058   2.871
 3998SOL    HW212894   6.701   1.951   2.763
 3999SOL     OW12895   5.925   4.014   2.525
 3999SOL    HW112896   5.990   4.023   2.450
 3999SOL    HW212897   5.887   3.922   2.525
 4000SOL     OW12898   2.560   5.427   2.611
 4000SOL    HW112899   2.508   5.342   2.603
 4000SOL    HW212900   2.656   5.406   2.631
 4001SOL     OW12901   2.911   3.976   5.558
 4001SOL    HW112902   2.895   3.877   5.562
 4001SOL    HW212903   2.831   4.024   5.595
 4002SOL     OW12904   3.646   3.297   4.951
 4002SOL    HW112905   3.602   3.253   4.872
 4002SOL    HW212906   3.744   3.308   4.932
 4003SOL     OW12907   2.945   1.463   6.263
 4003SOL    HW112908   3.012   1.452   6.189
 4003SOL    HW212909   2.900   1.376   6.280
 4004SOL     OW12910   6.321   3.414   2.853
 4004SOL    HW112911   6.320   3.324   2.897
 4004SOL    HW212912   6.362   3.407   2.762
 4005SOL     OW12913   4.081   3.488   0.618
 4005SOL    HW112914   4.150   3.464   0.686
 4005SOL    HW212915   4.026   3.564   0.652
 4006SOL     OW12916   5.287   5.250   2.052
 4006SOL    HW112917   5.203   5.195   2.060
 4006SOL    HW212918   5.366   5.189   2.045
 4007SOL     OW12919   0.688   1.952   2.839
 4007SOL    HW112920   0.713   1.863   2.799
 4007SOL    HW212921   0.727   2.025   2.783
 4008SOL     OW12922   3.070   0.323   0.145
 4008SOL    HW112923   3.039   0.236   0.184
 4008SOL    HW212924   3.107   0.381   0.217
 4009SOL     OW12925   4.825   1.600   1.348
 4009SOL    HW112926   4.818   1.585   1.447
 4009SOL    HW212927   4.832   1.698   1.330
 4010SOL     OW12928   3.641   4.732   0.874
 4010SOL    HW112929   3.669   4.781   0.792
 4010SOL    HW212930   3.716   4.674   0.905
 4011SOL     OW12931   6.996   5.863   0.825
 4011SOL    HW112932   6.926   5.923   0.865
 4011SOL    HW212933   6.997   5.776   0.876
 4012SOL     OW12934   4.218   0.005   2.038
 4012SOL    HW112935   4.297   0.051   2.079
 4012SOL    HW212936   4.248   6.945   1.992
 4013SOL     OW12937   1.548   6.962   0.426
 4013SOL    HW112938   1.459   6.972   0.380
 4013SOL    HW212939   1.562   0.016   0.487
 4014SOL     OW12940   3.423   6.199   3.761
 4014SOL    HW112941   3.398   6.281   3.710
 4014SOL    HW212942   3.371   6.195   3.846
 4015SOL     OW12943   4.492   4.837   6.149
 4015SOL    HW112944   4.459   4.927   6.122
 4015SOL    HW212945   4.476   4.823   6.246
 4016SOL     OW12946   2.907   5.186   0.357
 4016SOL    HW112947   2.973   5.244   0.404
 4016SOL    HW212948   2.933   5.090   0.369
 4017SOL     OW12949   0.022   4.978   5.203
 4017SOL    HW112950   7.007   4.973   5.111
 4017SOL    HW212951   0.067   5.066   5.215
 4018SOL     OW12952   4.466   6.592   1.971
 4018SOL    HW112953   4.546   6.628   1.924
 4018SOL    HW212954   4.493   6.558   2.061
 4019SOL     OW12955   5.081   3.445   2.176
 4019SOL    HW112956   5.114   3.439   2.081
 4019SOL    HW212957   5.151   3.408   2.238
 4020SOL     OW12958   6.510   3.627   4.772
 4020SOL    HW112959   6.489   3.668   4.861
 4020SOL    HW212960   6.534   3.700   4.707
 4021SOL     OW12961   3.323   3.746   5.735
 4021SOL    HW112962   3.265   3.679   5.781
 4021SOL    HW212963   3.416   3.711   5.729
 4022SOL     OW12964   3.971   7.018   0.530
 4022SOL    HW112965   3.874   0.003   0.508
 4022SOL    HW212966   4.024   0.053   0.469
 4023SOL     OW12967   0.122   1.148   5.552
 4023SOL    HW112968   0.185   1.164   5.628
 4023SOL    HW212969   0.062   1.228   5.542
 4024SOL     OW12970   1.759   5.163   4.475
 4024SOL    HW112971   1.754   5.261   4.493
 4024SOL    HW212972   1.722   5.113   4.554
 4025SOL     OW12973   0.943   5.989   4.272
 4025SOL    HW112974   0.950   6.081   4.310
 4025SOL    HW212975   0.981   5.988   4.180
 4026SOL     OW12976   6.448   6.299   4.990
 4026SOL    HW112977   6.400   6.306   4.903
 4026SOL    HW212978   6.441   6.206   5.025
 4027SOL     OW12979   2.466   1.860   6.959
 4027SOL    HW112980   2.451   1.771   7.003
 4027SOL    HW212981   2.384   1.886   6.908
 4028SOL     OW12982   4.498   1.241   3.287
 4028SOL    HW112983   4.472   1.297   3.208
 4028SOL    HW212984   4.434   1.165   3.297
 4029SOL     OW12985   2.709   3.978   5.880
 4029SOL    HW112986   2.674   3.989   5.787
 4029SOL    HW212987   2.706   4.066   5.927
 4030SOL     OW12988   0.044   0.905   1.376
 4030SOL    HW112989   0.042   0.827   1.313
 4030SOL    HW212990   7.001   0.974   1.346
 4031SOL     OW12991   5.465   6.628   3.113
 4031SOL    HW112992   5.475   6.727   3.099
 4031SOL    HW212993   5.522   6.579   3.048
 4032SOL     OW12994   6.941   0.148   2.789
 4032SOL    HW112995   7.002   0.108   2.858
 4032SOL    HW212996   6.912   0.239   2.818
 4033SOL     OW12997   1.822   2.199   2.368
 4033SOL    HW112998   1.921   2.190   2.381
 4033SOL    HW212999   1.798   2.296   2.364
 4034SOL     OW13000   6.143   2.138   5.428
 4034SOL    HW113001   6.121   2.233   5.450
 4034SOL    HW213002   6.233   2.134   5.384
 4035SOL     OW13003   6.570   1.321   1.569
 4035SOL    HW113004   6.504   1.247   1.579
 4035SOL    HW213005   6.522   1.405   1.544
 4036SOL     OW13006   4.084   4.899   2.086
 4036SOL    HW113007   3.999   4.865   2.128
 4036SOL    HW213008   4.134   4.953   2.154
 4037SOL     OW13009   2.224   1.778   6.217
 4037SOL    HW113010   2.323   1.786   6.227
 4037SOL    HW213011   2.203   1.715   6.142
 4038SOL     OW13012   4.772   2.898   0.010
 4038SOL    HW113013   4.728   2.908   0.099
 4038SOL    HW213014   4.848   2.833   0.017
 4039SOL     OW13015   4.648   5.852   1.729
 4039SOL    HW113016   4.596   5.826   1.810
 4039SOL    HW213017   4.633   5.784   1.657
 4040SOL     OW13018   3.078   6.132   4.789
 4040SOL    HW113019   3.048   6.224   4.766
 4040SOL    HW213020   3.147   6.102   4.723
 4041SOL     OW13021   2.307   6.142   1.449
 4041SOL    HW113022   2.371   6.187   1.387
 4041SOL    HW213023   2.354   6.116   1.533
 4042SOL     OW13024   5.789   6.321   3.844
 4042SOL    HW113025   5.887   6.330   3.826
 4042SOL    HW213026   5.775   6.286   3.937
 4043SOL     OW13027   6.875   2.036   6.599
 4043SOL    HW113028   6.887   1.973   6.676
 4043SOL    HW213029   6.855   2.127   6.634
 4044SOL     OW13030   5.412   5.529   3.033
 4044SOL    HW113031   5.383   5.470   2.957
 4044SOL    HW213032   5.512   5.528   3.040
 4045SOL     OW13033   4.204   6.248   5.888
 4045SOL    HW113034   4.120   6.258   5.834
 4045SOL    HW213035   4.194   6.169   5.950
 4046SOL     OW13036   0.885   2.204   2.248
 4046SOL    HW113037   0.846   2.217   2.340
 4046SOL    HW213038   0.868   2.286   2.193
 4047SOL     OW13039   2.214   2.682   6.850
 4047SOL    HW113040   2.249   2.655   6.939
 4047SOL    HW213041   2.288   2.719   6.794
 4048SOL     OW13042   5.492   1.195   1.879
 4048SOL    HW113043   5.449   1.282   1.855
 4048SOL    HW213044   5.526   1.199   1.973
 4049SOL     OW13045   4.714   5.925   6.325
 4049SOL    HW113046   4.808   5.932   6.358
 4049SOL    HW213047   4.664   5.858   6.381
 4050SOL     OW13048   0.853   5.975   1.810
 4050SOL    HW113049   0.874   6.008   1.902
 4050SOL    HW213050   0.899   6.032   1.742
 4051SOL     OW13051   4.539   1.285   6.352
 4051SOL    HW113052   4.600   1.333   6.289
 4051SOL    HW213053   4.451   1.269   6.307
 4052SOL     OW13054   5.698   2.221   3.123
 4052SOL    HW113055   5.795   2.201   3.134
 4052SOL    HW213056   5.679   2.312   3.158
 4053SOL     OW13057   2.615   5.929   4.830
 4053SOL    HW113058   2.712   5.907   4.844
 4053SOL    HW213059   2.596   6.021   4.863
 4054SOL     OW13060   5.295   3.815   0.805
 4054SOL    HW113061   5.316   3.815   0.903
 4054SOL    HW213062   5.379   3.799   0.753
 4055SOL     OW13063   2.544   4.525   0.950
 4055SOL    HW113064   2.458   4.565   0.983
 4055SOL    HW213065   2.546   4.428   0.974
 4056SOL     OW13066   5.595   3.665   0.951
 4056SOL    HW113067   5.508   3.708   0.976
 4056SOL    HW213068   5.581   3.566   0.941
 4057SOL     OW13069   0.135   3.034   0.417
 4057SOL    HW113070   0.182   3.076   0.495
 4057SOL    HW213071   0.170   2.941   0.405
 4058SOL     OW13072   3.217   6.396   4.815
 4058SOL    HW113073   3.129   6.408   4.769
 4058SOL    HW213074   3.203   6.390   4.913
 4059SOL     OW13075   0.066   1.839   2.750
 4059SOL    HW113076   0.026   1.914   2.697
 4059SOL    HW213077   0.002   1.762   2.753
 4060SOL     OW13078   5.357   4.771   5.823
 4060SOL    HW113079   5.368   4.823   5.738
 4060SOL    HW213080   5.270   4.795   5.866
 4061SOL     OW13081   2.595   4.690   2.425
 4061SOL    HW113082   2.536   4.615   2.455
 4061SOL    HW213083   2.655   4.657   2.352
 4062SOL     OW13084   2.199   0.257   2.206
 4062SOL    HW113085   2.274   0.264   2.140
 4062SOL    HW213086   2.237   0.243   2.298
 4063SOL     OW13087   6.193   0.239   0.661
 4063SOL    HW113088   6.120   0.185   0.619
 4063SOL    HW213089   6.252   0.277   0.589
 4064SOL     OW13090   2.736   1.693   4.690
 4064SOL    HW113091   2.688   1.689   4.602
 4064SOL    HW213092   2.808   1.623   4.691
 4065SOL     OW13093   0.989   6.783   1.509
 4065SOL    HW113094   0.925   6.782   1.433
 4065SOL    HW213095   1.019   6.877   1.525
 4066SOL     OW13096   6.481   4.362   2.850
 4066SOL    HW113097   6.397   4.388   2.898
 4066SOL    HW213098   6.558   4.414   2.886
 4067SOL     OW13099   5.857   3.895   2.889
 4067SOL    HW113100   5.939   3.914   2.943
 4067SOL    HW213101   5.848   3.797   2.875
 4068SOL     OW13102   2.164   2.073   4.468
 4068SOL    HW113103   2.147   2.004   4.397
 4068SOL    HW213104   2.186   2.027   4.554
 4069SOL     OW13105   4.039   5.192   6.864
 4069SOL    HW113106   4.128   5.147   6.863
 4069SOL    HW213107   4.049   5.286   6.832
 4070SOL     OW13108   0.432   2.455   2.798
 4070SOL    HW113109   0.505   2.479   2.862
 4070SOL    HW213110   0.388   2.538   2.765
 4071SOL     OW13111   1.468   1.479   4.809
 4071SOL    HW113112   1.448   1.417   4.733
 4071SOL    HW213113   1.387   1.533   4.830
 4072SOL     OW13114   0.685   5.471   4.758
 4072SOL    HW113115   0.710   5.472   4.661
 4072SOL    HW213116   0.643   5.558   4.782
 4073SOL     OW13117   2.358   6.047   6.557
 4073SOL    HW113118   2.274   6.090   6.590
 4073SOL    HW213119   2.434   6.071   6.617
 4074SOL     OW13120   0.743   4.849   1.360
 4074SOL    HW113121   0.778   4.922   1.418
 4074SOL    HW213122   0.793   4.849   1.273
 4075SOL     OW13123   4.839   1.884   1.272
 4075SOL    HW113124   4.749   1.905   1.234
 4075SOL    HW213125   4.909   1.899   1.202
 4076SOL     OW13126   2.250   3.326   6.531
 4076SOL    HW113127   2.199   3.356   6.450
 4076SOL    HW213128   2.190   3.324   6.610
 4077SOL     OW13129   3.944   2.188   0.338
 4077SOL    HW113130   3.879   2.198   0.263
 4077SOL    HW213131   4.029   2.148   0.304
 4078SOL     OW13132   2.015   5.061   2.364
 4078SOL    HW113133   1.973   5.072   2.455
 4078SOL    HW213134   1.976   5.128   2.301
 4079SOL     OW13135   1.982   1.143   3.390
 4079SOL    HW113136   1.911   1.211   3.375
 4079SOL    HW213137   2.043   1.140   3.311
 4080SOL     OW13138   4.703   2.662   6.370
 4080SOL    HW113139   4.754   2.735   6.415
 4080SOL    HW213140   4.747   2.639   6.283
 4081SOL     OW13141   1.470   2.944   3.866
 4081SOL    HW113142   1.550   2.894   3.835
 4081SOL    HW213143   1.414   2.970   3.787
 4082SOL     OW13144   1.014   4.740   0.522
 4082SOL    HW113145   0.937   4.677   0.533
 4082SOL    HW213146   1.079   4.701   0.458
 4083SOL     OW13147   6.769   3.406   2.405
 4083SOL    HW113148   6.777   3.500   2.372
 4083SOL    HW213149   6.848   3.354   2.375
 4084SOL     OW13150   6.295   2.435   3.639
 4084SOL    HW113151   6.371   2.370   3.630
 4084SOL    HW213152   6.215   2.386   3.673
 4085SOL     OW13153   3.395   5.348   1.255
 4085SOL    HW113154   3.333   5.389   1.322
 4085SOL    HW213155   3.490   5.361   1.285
 4086SOL     OW13156   2.006   5.687   1.664
 4086SOL    HW113157   2.104   5.679   1.682
 4086SOL    HW213158   1.954   5.666   1.747
 4087SOL     OW13159   3.050   2.145   3.387
 4087SOL    HW113160   3.007   2.179   3.304
 4087SOL    HW213161   2.982   2.099   3.444
 4088SOL     OW13162   0.534   1.830   0.867
 4088SOL    HW113163   0.455   1.890   0.876
 4088SOL    HW213164   0.618   1.882   0.882
 4089SOL     OW13165   6.054   6.231   3.819
 4089SOL    HW113166   6.039   6.140   3.782
 4089SOL    HW213167   6.142   6.267   3.786
 4090SOL     OW13168   0.991   4.106   5.936
 4090SOL    HW113169   1.012   4.157   5.853
 4090SOL    HW213170   1.076   4.082   5.983
 4091SOL     OW13171   6.622   6.504   0.488
 4091SOL    HW113172   6.535   6.478   0.530
 4091SOL    HW213173   6.683   6.425   0.488
 4092SOL     OW13174   6.793   2.606   5.376
 4092SOL    HW113175   6.837   2.695   5.388
 4092SOL    HW213176   6.788   2.585   5.278
 4093SOL     OW13177   4.533   0.401   3.018
 4093SOL    HW113178   4.562   0.456   3.096
 4093SOL    HW213179   4.609   0.343   2.988
 4094SOL     OW13180   2.432   5.905   4.617
 4094SOL    HW113181   2.507   5.913   4.683
 4094SOL    HW213182   2.414   5.809   4.599
 4095SOL     OW13183   0.522   3.755   0.034
 4095SOL    HW113184   0.475   3.708   6.983
 4095SOL    HW213185   0.461   3.824   0.074
 4096SOL     OW13186   4.602   5.758   0.452
 4096SOL    HW113187   4.567   5.749   0.359
 4096SOL    HW213188   4.531   5.797   0.510
 4097SOL     OW13189   3.660   4.413   6.136
 4097SOL    HW113190   3.629   4.506   6.115
 4097SOL    HW213191   3.617   4.349   6.073
 4098SOL     OW13192   0.879   3.331   1.728
 4098SOL    HW113193   0.953   3.270   1.698
 4098SOL    HW213194   0.794   3.305   1.682
 4099SOL     OW13195   2.826   4.971   1.265
 4099SOL    HW113196   2.868   4.892   1.309
 4099SOL    HW213197   2.729   4.976   1.291
 4100SOL     OW13198   6.520   5.590   5.271
 4100SOL    HW113199   6.440   5.638   5.235
 4100SOL    HW213200   6.594   5.592   5.204
 4101SOL     OW13201   5.861   1.042   0.523
 4101SOL    HW113202   5.846   1.123   0.581
 4101SOL    HW213203   5.808   0.966   0.558
 4102SOL     OW13204   6.667   0.685   0.648
 4102SOL    HW113205   6.712   0.662   0.562
 4102SOL    HW213206   6.616   0.770   0.638
 4103SOL     OW13207   0.463   0.899   0.255
 4103SOL    HW113208   0.500   0.949   0.177
 4103SOL    HW213209   0.370   0.932   0.274
 4104SOL     OW13210   0.671   4.772   2.467
 4104SOL    HW113211   0.734   4.722   2.407
 4104SOL    HW213212   0.720   4.849   2.508
 4105SOL     OW13213   4.033   6.028   1.638
 4105SOL    HW113214   4.076   5.940   1.614
 4105SOL    HW213215   3.996   6.070   1.555
 4106SOL     OW13216   6.682   1.795   4.370
 4106SOL    HW113217   6.623   1.758   4.298
 4106SOL    HW213218   6.778   1.784   4.343
 4107SOL     OW13219   1.565   6.241   1.170
 4107SOL    HW113220   1.574   6.144   1.192
 4107SOL    HW213221   1.656   6.283   1.165
 4108SOL     OW13222   0.094   4.466   5.467
 4108SOL    HW113223   0.123   4.556   5.499
 4108SOL    HW213224   0.117   4.455   5.371
 4109SOL     OW13225   4.724   6.534   5.073
 4109SOL    HW113226   4.742   6.624   5.035
 4109SOL    HW213227   4.806   6.498   5.117
 4110SOL     OW13228   4.053   2.589   6.785
 4110SOL    HW113229   3.977   2.582   6.850
 4110SOL    HW213230   4.105   2.672   6.803
 4111SOL     OW13231   3.811   3.348   6.493
 4111SOL    HW113232   3.856   3.320   6.577
 4111SOL    HW213233   3.827   3.446   6.477
 4112SOL     OW13234   4.636   0.474   5.316
 4112SOL    HW113235   4.625   0.441   5.222
 4112SOL    HW213236   4.733   0.485   5.337
 4113SOL     OW13237   4.859   6.383   4.316
 4113SOL    HW113238   4.805   6.342   4.243
 4113SOL    HW213239   4.814   6.369   4.404
 4114SOL     OW13240   3.429   2.130   4.552
 4114SOL    HW113241   3.524   2.160   4.546
 4114SOL    HW213242   3.425   2.030   4.541
 4115SOL     OW13243   4.139   5.609   2.280
 4115SOL    HW113244   4.165   5.653   2.194
 4115SOL    HW213245   4.041   5.618   2.294
 4116SOL     OW13246   3.801   2.164   1.702
 4116SOL    HW113247   3.730   2.222   1.742
 4116SOL    HW213248   3.846   2.112   1.775
 4117SOL     OW13249   0.696   5.194   2.140
 4117SOL    HW113250   0.702   5.276   2.196
 4117SOL    HW213251   0.614   5.142   2.167
 4118SOL     OW13252   2.797   6.810   6.975
 4118SOL    HW113253   2.822   6.774   6.885
 4118SOL    HW213254   2.703   6.845   6.972
 4119SOL     OW13255   4.029   2.203   3.819
 4119SOL    HW113256   4.073   2.152   3.745
 4119SOL    HW213257   3.934   2.221   3.796
 4120SOL     OW13258   4.247   0.397   0.533
 4120SOL    HW113259   4.200   0.416   0.619
 4120SOL    HW213260   4.199   0.441   0.458
 4121SOL     OW13261   5.827   1.431   5.152
 4121SOL    HW113262   5.749   1.464   5.099
 4121SOL    HW213263   5.871   1.356   5.102
 4122SOL     OW13264   1.171   5.355   5.245
 4122SOL    HW113265   1.140   5.265   5.216
 4122SOL    HW213266   1.256   5.346   5.296
 4123SOL     OW13267   4.228   4.713   5.890
 4123SOL    HW113268   4.296   4.705   5.817
 4123SOL    HW213269   4.231   4.806   5.928
 4124SOL     OW13270   6.249   5.293   6.403
 4124SOL    HW113271   6.259   5.358   6.328
 4124SOL    HW213272   6.280   5.203   6.373
 4125SOL     OW13273   4.541   1.775   2.337
 4125SOL    HW113274   4.603   1.732   2.270
 4125SOL    HW213275   4.450   1.783   2.296
 4126SOL     OW13276   1.225   3.662   3.347
 4126SOL    HW113277   1.188   3.663   3.440
 4126SOL    HW213278   1.160   3.707   3.286
 4127SOL     OW13279   4.803   4.599   4.809
 4127SOL    HW113280   4.710   4.574   4.783
 4127SOL    HW213281   4.828   4.685   4.764
 4128SOL     OW13282   1.446   3.736   1.808
 4128SOL    HW113283   1.415   3.795   1.734
 4128SOL    HW213284   1.524   3.683   1.779
 4129SOL     OW13285   4.923   1.353   6.775
 4129SOL    HW113286   4.908   1.292   6.853
 4129SOL    HW213287   5.021   1.356   6.754
 4130SOL     OW13288   6.803   2.652   5.656
 4130SOL    HW113289   6.840   2.576   5.709
 4130SOL    HW213290   6.807   2.629   5.558
 4131SOL     OW13291   1.362   6.132   4.037
 4131SOL    HW113292   1.313   6.105   4.120
 4131SOL    HW213293   1.417   6.055   4.005
 4132SOL     OW13294   5.097   4.399   3.634
 4132SOL    HW113295   5.012   4.381   3.585
 4132SOL    HW213296   5.154   4.462   3.580
 4133SOL     OW13297   2.678   7.012   1.778
 4133SOL    HW113298   2.718   6.943   1.839
 4133SOL    HW213299   2.631   0.058   1.833
 4134SOL     OW13300   2.047   2.723   0.233
 4134SOL    HW113301   2.051   2.823   0.225
 4134SOL    HW213302   1.994   2.699   0.314
 4135SOL     OW13303   1.993   1.599   2.457
 4135SOL    HW113304   2.057   1.643   2.394
 4135SOL    HW213305   1.993   1.648   2.544
 4136SOL     OW13306   1.793   2.091   2.686
 4136SOL    HW113307   1.809   2.163   2.618
 4136SOL    HW213308   1.880   2.053   2.716
 4137SOL     OW13309   1.425   4.387   0.977
 4137SOL    HW113310   1.372   4.430   1.050
 4137SOL    HW213311   1.521   4.414   0.985
 4138SOL     OW13312   3.906   5.029   2.886
 4138SOL    HW113313   3.840   4.955   2.873
 4138SOL    HW213314   3.961   5.040   2.803
 4139SOL     OW13315   2.389   2.734   4.562
 4139SOL    HW113316   2.470   2.777   4.522
 4139SOL    HW213317   2.416   2.656   4.618
 4140SOL     OW13318   3.029   0.660   5.164
 4140SOL    HW113319   3.081   0.671   5.080
 4140SOL    HW213320   3.090   0.625   5.236
 4141SOL     OW13321   5.282   6.754   1.636
 4141SOL    HW113322   5.327   6.678   1.682
 4141SOL    HW213323   5.245   6.724   1.549
 4142SOL     OW13324   6.520   5.874   0.786
 4142SOL    HW113325   6.497   5.963   0.824
 4142SOL    HW213326   6.546   5.812   0.860
 4143SOL     OW13327   0.670   2.703   0.105
 4143SOL    HW113328   0.576   2.681   0.131
 4143SOL    HW213329   0.731   2.630   0.135
 4144SOL     OW13330   5.193   3.544   6.397
 4144SOL    HW113331   5.163   3.633   6.360
 4144SOL    HW213332   5.112   3.489   6.418
 4145SOL     OW13333   6.651   5.998   1.439
 4145SOL    HW113334   6.638   5.960   1.348
 4145SOL    HW213335   6.571   5.978   1.496
 4146SOL     OW13336   0.233   1.264   5.767
 4146SOL    HW113337   0.205   1.267   5.863
 4146SOL    HW213338   0.313   1.323   5.754
 4147SOL     OW13339   4.528   2.713   5.574
 4147SOL    HW113340   4.611   2.756   5.610
 4147SOL    HW213341   4.510   2.747   5.482
 4148SOL     OW13342   1.075   0.061   4.118
 4148SOL    HW113343   1.048   0.116   4.198
 4148SOL    HW213344   1.069   0.117   4.036
 4149SOL     OW13345   0.430   2.323   0.791
 4149SOL    HW113346   0.389   2.232   0.781
 4149SOL    HW213347   0.416   2.355   0.884
 4150SOL     OW13348   0.503   0.965   5.245
 4150SOL    HW113349   0.406   0.983   5.262
 4150SOL    HW213350   0.535   0.894   5.307
 4151SOL     OW13351   4.077   6.436   6.067
 4151SOL    HW113352   4.136   6.382   6.007
 4151SOL    HW213353   4.122   6.522   6.090
 4152SOL     OW13354   3.009   6.099   0.816
 4152SOL    HW113355   2.953   6.137   0.743
 4152SOL    HW213356   3.071   6.029   0.778
 4153SOL     OW13357   4.526   4.922   0.094
 4153SOL    HW113358   4.491   4.833   0.065
 4153SOL    HW213359   4.526   4.986   0.017
 4154SOL     OW13360   0.339   4.452   4.666
 4154SOL    HW113361   0.316   4.358   4.690
 4154SOL    HW213362   0.409   4.487   4.729
 4155SOL     OW13363   6.416   2.038   3.133
 4155SOL    HW113364   6.432   2.012   3.228
 4155SOL    HW213365   6.437   1.961   3.073
 4156SOL     OW13366   5.274   6.501   4.628
 4156SOL    HW113367   5.224   6.414   4.631
 4156SOL    HW213368   5.216   6.574   4.663
 4157SOL     OW13369   4.162   6.606   3.905
 4157SOL    HW113370   4.253   6.618   3.866
 4157SOL    HW213371   4.114   6.693   3.905
 4158SOL     OW13372   1.939   5.368   4.223
 4158SOL    HW113373   1.854   5.358   4.274
 4158SOL    HW213374   1.958   5.465   4.206
 4159SOL     OW13375   1.901   2.971   3.829
 4159SOL    HW113376   1.989   3.019   3.828
 4159SOL    HW213377   1.866   2.967   3.922
 4160SOL     OW13378   6.936   0.380   0.726
 4160SOL    HW113379   6.929   0.285   0.757
 4160SOL    HW213380   6.853   0.430   0.753
 4161SOL     OW13381   1.497   0.093   6.233
 4161SOL    HW113382   1.424   0.144   6.280
 4161SOL    HW213383   1.525   0.144   6.151
 4162SOL     OW13384   5.914   6.433   5.445
 4162SOL    HW113385   5.933   6.376   5.525
 4162SOL    HW213386   5.891   6.375   5.367
 4163SOL     OW13387   5.961   0.202   3.342
 4163SOL    HW113388   6.052   0.235   3.320
 4163SOL    HW213389   5.928   0.141   3.270
 4164SOL     OW13390   1.084   6.675   6.088
 4164SOL    HW113391   1.098   6.576   6.080
 4164SOL    HW213392   1.110   6.705   6.180
 4165SOL     OW13393   4.352   0.357   0.177
 4165SOL    HW113394   4.257   0.338   0.155
 4165SOL    HW213395   4.404   0.272   0.183
 4166SOL     OW13396   5.997   3.650   1.092
 4166SOL    HW113397   6.082   3.647   1.039
 4166SOL    HW213398   5.986   3.564   1.143
 4167SOL     OW13399   1.772   4.394   0.546
 4167SOL    HW113400   1.844   4.441   0.599
 4167SOL    HW213401   1.723   4.461   0.490
 4168SOL     OW13402   7.021   5.180   1.154
 4168SOL    HW113403   0.029   5.134   1.236
 4168SOL    HW213404   6.937   5.230   1.173
 4169SOL     OW13405   5.409   3.480   3.499
 4169SOL    HW113406   5.426   3.480   3.598
 4169SOL    HW213407   5.328   3.536   3.480
 4170SOL     OW13408   2.992   3.545   5.071
 4170SOL    HW113409   3.089   3.527   5.088
 4170SOL    HW213410   2.948   3.576   5.155
 4171SOL     OW13411   5.489   4.400   1.420
 4171SOL    HW113412   5.470   4.332   1.349
 4171SOL    HW213413   5.573   4.375   1.468
 4172SOL     OW13414   0.321   1.720   6.454
 4172SOL    HW113415   0.312   1.813   6.416
 4172SOL    HW213416   0.249   1.706   6.522
 4173SOL     OW13417   5.404   3.218   5.251
 4173SOL    HW113418   5.404   3.318   5.243
 4173SOL    HW213419   5.315   3.188   5.286
 4174SOL     OW13420   5.203   0.377   4.276
 4174SOL    HW113421   5.297   0.398   4.247
 4174SOL    HW213422   5.152   0.462   4.288
 4175SOL     OW13423   2.834   5.765   4.604
 4175SOL    HW113424   2.934   5.772   4.608
 4175SOL    HW213425   2.794   5.856   4.615
 4176SOL     OW13426   2.762   6.809   1.929
 4176SOL    HW113427   2.842   6.754   1.907
 4176SOL    HW213428   2.765   6.835   2.026
 4177SOL     OW13429   6.690   4.366   4.882
 4177SOL    HW113430   6.746   4.362   4.799
 4177SOL    HW213431   6.594   4.352   4.859
 4178SOL     OW13432   4.380   0.615   4.106
 4178SOL    HW113433   4.307   0.548   4.097
 4178SOL    HW213434   4.365   0.672   4.187
 4179SOL     OW13435   5.247   2.803   3.872
 4179SOL    HW113436   5.201   2.884   3.835
 4179SOL    HW213437   5.226   2.794   3.969
 4180SOL     OW13438   5.246   3.321   1.654
 4180SOL    HW113439   5.234   3.364   1.743
 4180SOL    HW213440   5.333   3.351   1.614
 4181SOL     OW13441   2.137   2.414   6.297
 4181SOL    HW113442   2.204   2.349   6.259
 4181SOL    HW213443   2.090   2.371   6.374
 4182SOL     OW13444   0.431   6.069   2.458
 4182SOL    HW113445   0.386   6.101   2.541
 4182SOL    HW213446   0.477   6.145   2.413
 4183SOL     OW13447   4.006   1.169   0.945
 4183SOL    HW113448   3.954   1.134   0.867
 4183SOL    HW213449   4.035   1.263   0.926
 4184SOL     OW13450   4.612   4.973   1.254
 4184SOL    HW113451   4.640   5.038   1.183
 4184SOL    HW213452   4.568   4.894   1.212
 4185SOL     OW13453   0.972   5.713   2.794
 4185SOL    HW113454   0.994   5.805   2.762
 4185SOL    HW213455   0.973   5.650   2.716
 4186SOL     OW13456   1.326   4.512   0.479
 4186SOL    HW113457   1.379   4.438   0.438
 4186SOL    HW213458   1.309   4.491   0.575
 4187SOL     OW13459   3.682   3.420   6.012
 4187SOL    HW113460   3.716   3.493   6.072
 4187SOL    HW213461   3.642   3.460   5.930
 4188SOL     OW13462   4.697   6.580   3.689
 4188SOL    HW113463   4.685   6.678   3.677
 4188SOL    HW213464   4.699   6.558   3.786
 4189SOL     OW13465   3.152   1.385   4.644
 4189SOL    HW113466   3.229   1.400   4.707
 4189SOL    HW213467   3.155   1.291   4.610
 4190SOL     OW13468   1.763   0.132   6.532
 4190SOL    HW113469   1.763   0.034   6.547
 4190SOL    HW213470   1.857   0.166   6.530
 4191SOL     OW13471   5.642   3.577   2.862
 4191SOL    HW113472   5.612   3.549   2.954
 4191SOL    HW213473   5.585   3.532   2.793
 4192SOL     OW13474   6.711   0.879   3.614
 4192SOL    HW113475   6.644   0.812   3.646
 4192SOL    HW213476   6.784   0.831   3.566
 4193SOL     OW13477   1.905   6.816   1.558
 4193SOL    HW113478   1.948   6.870   1.630
 4193SOL    HW213479   1.960   6.734   1.540
 4194SOL     OW13480   6.658   1.571   5.726
 4194SOL    HW113481   6.566   1.596   5.695
 4194SOL    HW213482   6.722   1.577   5.650
 4195SOL     OW13483   3.248   0.361   1.436
 4195SOL    HW113484   3.207   0.274   1.461
 4195SOL    HW213485   3.189   0.407   1.369
 4196SOL     OW13486   6.292   1.841   3.716
 4196SOL    HW113487   6.233   1.765   3.686
 4196SOL    HW213488   6.382   1.805   3.741
 4197SOL     OW13489   4.637   4.901   4.646
 4197SOL    HW113490   4.626   4.854   4.558
 4197SOL    HW213491   4.553   4.950   4.668
 4198SOL     OW13492   5.997   3.561   6.592
 4198SOL    HW113493   5.901   3.545   6.571
 4198SOL    HW213494   6.044   3.473   6.604
 4199SOL     OW13495   1.931   3.540   5.868
 4199SOL    HW113496   1.954   3.628   5.825
 4199SOL    HW213497   1.836   3.541   5.897
 4200SOL     OW13498   2.950   6.583   4.932
 4200SOL    HW113499   2.909   6.520   4.999
 4200SOL    HW213500   2.990   6.661   4.981
 4201SOL     OW13501   5.490   6.450   4.010
 4201SOL    HW113502   5.487   6.355   3.981
 4201SOL    HW213503   5.402   6.494   3.991
 4202SOL     OW13504   4.182   5.440   5.647
 4202SOL    HW113505   4.229   5.506   5.705
 4202SOL    HW213506   4.092   5.420   5.685
 4203SOL     OW13507   4.343   5.842   2.358
 4203SOL    HW113508   4.287   5.851   2.276
 4203SOL    HW213509   4.348   5.929   2.406
 4204SOL     OW13510   3.408   2.896   1.930
 4204SOL    HW113511   3.316   2.858   1.917
 4204SOL    HW213512   3.437   2.883   2.025
 4205SOL     OW13513   3.664   5.458   4.480
 4205SOL    HW113514   3.610   5.516   4.419
 4205SOL    HW213515   3.761   5.481   4.473
 4206SOL     OW13516   5.586   1.258   5.926
 4206SOL    HW113517   5.668   1.285   5.976
 4206SOL    HW213518   5.556   1.168   5.957
 4207SOL     OW13519   2.057   1.832   1.486
 4207SOL    HW113520   1.976   1.822   1.427
 4207SOL    HW213521   2.117   1.753   1.473
 4208SOL     OW13522   1.384   2.135   0.331
 4208SOL    HW113523   1.450   2.207   0.353
 4208SOL    HW213524   1.320   2.168   0.262
 4209SOL     OW13525   1.050   1.569   4.497
 4209SOL    HW113526   0.963   1.612   4.472
 4209SOL    HW213527   1.117   1.640   4.520
 4210SOL     OW13528   3.188   3.312   1.982
 4210SOL    HW113529   3.284   3.326   1.959
 4210SOL    HW213530   3.133   3.384   1.940
 4211SOL     OW13531   4.793   6.180   6.154
 4211SOL    HW113532   4.821   6.091   6.191
 4211SOL    HW213533   4.738   6.229   6.222
 4212SOL     OW13534   6.295   1.917   2.358
 4212SOL    HW113535   6.364   1.988   2.346
 4212SOL    HW213536   6.228   1.922   2.285
 4213SOL     OW13537   2.165   1.366   2.514
 4213SOL    HW113538   2.112   1.450   2.504
 4213SOL    HW213539   2.262   1.385   2.495
 4214SOL     OW13540   6.477   4.161   5.817
 4214SOL    HW113541   6.545   4.091   5.839
 4214SOL    HW213542   6.400   4.154   5.881
 4215SOL     OW13543   6.708   5.877   5.074
 4215SOL    HW113544   6.761   5.807   5.122
 4215SOL    HW213545   6.771   5.946   5.037
 4216SOL     OW13546   1.634   1.926   3.055
 4216SOL    HW113547   1.646   2.007   3.112
 4216SOL    HW213548   1.573   1.861   3.101
 4217SOL     OW13549   5.977   0.393   3.070
 4217SOL    HW113550   5.987   0.483   3.113
 4217SOL    HW213551   5.883   0.382   3.039
 4218SOL     OW13552   5.003   0.273   1.383
 4218SOL    HW113553   4.961   0.363   1.371
 4218SOL    HW213554   5.087   0.268   1.329
 4219SOL     OW13555   2.864   5.153   5.290
 4219SOL    HW113556   2.832   5.120   5.201
 4219SOL    HW213557   2.963   5.170   5.286
 4220SOL     OW13558   6.359   3.255   3.295
 4220SOL    HW113559   6.437   3.193   3.293
 4220SOL    HW213560   6.279   3.211   3.255
 4221SOL     OW13561   6.361   5.847   6.431
 4221SOL    HW113562   6.263   5.866   6.435
 4221SOL    HW213563   6.401   5.858   6.522
 4222SOL     OW13564   6.242   2.206   2.064
 4222SOL    HW113565   6.337   2.213   2.095
 4222SOL    HW213566   6.219   2.110   2.046
 4223SOL     OW13567   3.382   2.965   4.306
 4223SOL    HW113568   3.379   2.933   4.401
 4223SOL    HW213569   3.289   2.970   4.270
 4224SOL     OW13570   4.923   3.192   4.036
 4224SOL    HW113571   4.887   3.118   3.980
 4224SOL    HW213572   4.902   3.280   3.993
 4225SOL     OW13573   5.131   0.809   5.196
 4225SOL    HW113574   5.206   0.750   5.164
 4225SOL    HW213575   5.142   0.828   5.293
 4226SOL     OW13576   2.254   0.268   3.201
 4226SOL    HW113577   2.248   0.315   3.289
 4226SOL    HW213578   2.261   0.169   3.217
 4227SOL     OW13579   3.164   4.490   6.396
 4227SOL    HW113580   3.126   4.421   6.458
 4227SOL    HW213581   3.231   4.546   6.445
 4228SOL     OW13582   6.080   4.923   3.508
 4228SOL    HW113583   5.999   4.909   3.564
 4228SOL    HW213584   6.069   4.879   3.419
 4229SOL     OW13585   4.192   4.884   6.392
 4229SOL    HW113586   4.117   4.897   6.327
 4229SOL    HW213587   4.160   4.901   6.485
 4230SOL     OW13588   2.420   0.588   4.769
 4230SOL    HW113589   2.354   0.575   4.696
 4230SOL    HW213590   2.377   0.640   4.843
 4231SOL     OW13591   5.393   6.266   5.019
 4231SOL    HW113592   5.404   6.336   5.089
 4231SOL    HW213593   5.424   6.178   5.055
 4232SOL     OW13594   0.786   5.330   1.540
 4232SOL    HW113595   0.787   5.340   1.639
 4232SOL    HW213596   0.829   5.410   1.499
 4233SOL     OW13597   6.539   0.288   0.256
 4233SOL    HW113598   6.512   0.236   0.175
 4233SOL    HW213599   6.597   0.230   0.314
 4234SOL     OW13600   1.604   6.517   5.261
 4234SOL    HW113601   1.575   6.484   5.351
 4234SOL    HW213602   1.571   6.453   5.190
 4235SOL     OW13603   5.841   4.099   5.266
 4235SOL    HW113604   5.819   4.029   5.334
 4235SOL    HW213605   5.825   4.189   5.305
 4236SOL     OW13606   6.874   3.141   2.824
 4236SOL    HW113607   6.835   3.096   2.905
 4236SOL    HW213608   6.801   3.178   2.768
 4237SOL     OW13609   6.279   4.461   4.107
 4237SOL    HW113610   6.346   4.423   4.171
 4237SOL    HW213611   6.191   4.471   4.153
 4238SOL     OW13612   4.334   4.669   3.869
 4238SOL    HW113613   4.421   4.702   3.832
 4238SOL    HW213614   4.349   4.627   3.958
 4239SOL     OW13615   5.440   0.014   4.173
 4239SOL    HW113616   5.498   0.013   4.254
 4239SOL    HW213617   5.460   6.957   4.116
 4240SOL     OW13618   2.310   6.148   6.300
 4240SOL    HW113619   2.354   6.113   6.383
 4240SOL    HW213620   2.227   6.198   6.326
 4241SOL     OW13621   6.154   0.190   0.922
 4241SOL    HW113622   6.086   0.257   0.953
 4241SOL    HW213623   6.189   0.218   0.833
 4242SOL     OW13624   2.202   6.990   3.233
 4242SOL    HW113625   2.141   6.960   3.306
 4242SOL    HW213626   2.245   6.911   3.190
 4243SOL     OW13627   0.747   3.621   2.760
 4243SOL    HW113628   0.763   3.564   2.841
 4243SOL    HW213629   0.663   3.590   2.714
 4244SOL     OW13630   4.857   5.664   1.344
 4244SOL    HW113631   4.903   5.752   1.350
 4244SOL    HW213632   4.816   5.653   1.253
 4245SOL     OW13633   6.862   2.363   0.264
 4245SOL    HW113634   6.956   2.330   0.266
 4245SOL    HW213635   6.810   2.320   0.338
 4246SOL     OW13636   5.220   3.355   3.140
 4246SOL    HW113637   5.177   3.266   3.129
 4246SOL    HW213638   5.306   3.345   3.191
 4247SOL     OW13639   2.128   5.208   4.639
 4247SOL    HW113640   2.213   5.231   4.687
 4247SOL    HW213641   2.087   5.128   4.681
 4248SOL     OW13642   1.631   0.796   3.416
 4248SOL    HW113643   1.538   0.791   3.377
 4248SOL    HW213644   1.684   0.864   3.366
 4249SOL     OW13645   6.756   1.770   3.619
 4249SOL    HW113646   6.716   1.749   3.530
 4249SOL    HW213647   6.816   1.696   3.648
 4250SOL     OW13648   6.874   5.870   4.410
 4250SOL    HW113649   6.964   5.897   4.445
 4250SOL    HW213650   6.847   5.783   4.453
 4251SOL     OW13651   6.078   2.447   6.677
 4251SOL    HW113652   6.018   2.410   6.748
 4251SOL    HW213653   6.060   2.400   6.591
 4252SOL     OW13654   5.843   5.892   6.321
 4252SOL    HW113655   5.936   5.921   6.297
 4252SOL    HW213656   5.807   5.952   6.392
 4253SOL     OW13657   3.581   6.248   2.558
 4253SOL    HW113658   3.516   6.312   2.518
 4253SOL    HW213659   3.615   6.285   2.644
 4254SOL     OW13660   2.209   4.742   1.746
 4254SOL    HW113661   2.134   4.743   1.680
 4254SOL    HW213662   2.271   4.666   1.725
 4255SOL     OW13663   0.035   3.167   4.049
 4255SOL    HW113664   0.131   3.143   4.032
 4255SOL    HW213665   0.018   3.260   4.017
 4256SOL     OW13666   0.920   5.712   2.013
 4256SOL    HW113667   0.908   5.618   2.046
 4256SOL    HW213668   0.834   5.763   2.025
 4257SOL     OW13669   6.589   0.820   4.915
 4257SOL    HW113670   6.678   0.812   4.958
 4257SOL    HW213671   6.568   0.916   4.897
 4258SOL     OW13672   3.579   5.779   1.229
 4258SOL    HW113673   3.651   5.842   1.259
 4258SOL    HW213674   3.614   5.720   1.156
 4259SOL     OW13675   1.765   6.762   1.046
 4259SOL    HW113676   1.842   6.768   1.110
 4259SOL    HW213677   1.680   6.779   1.095
 4260SOL     OW13678   5.022   7.006   3.930
 4260SOL    HW113679   5.089   6.948   3.883
 4260SOL    HW213680   5.054   0.002   4.023
 4261SOL     OW13681   2.003   6.937   3.693
 4261SOL    HW113682   1.944   6.896   3.763
 4261SOL    HW213683   2.029   0.006   3.722
 4262SOL     OW13684   1.827   4.444   5.855
 4262SOL    HW113685   1.890   4.369   5.873
 4262SOL    HW213686   1.757   4.448   5.927
 4263SOL     OW13687   3.137   1.676   3.392
 4263SOL    HW113688   3.064   1.704   3.455
 4263SOL    HW213689   3.126   1.579   3.369
 4264SOL     OW13690   5.972   1.296   4.690
 4264SOL    HW113691   5.905   1.368   4.703
 4264SOL    HW213692   5.927   1.215   4.652
 4265SOL     OW13693   3.334   0.438   0.637
 4265SOL    HW113694   3.369   0.422   0.544
 4265SOL    HW213695   3.257   0.376   0.654
 4266SOL     OW13696   1.811   6.917   6.865
 4266SOL    HW113697   1.738   6.974   6.828
 4266SOL    HW213698   1.796   6.822   6.839
 4267SOL     OW13699   2.097   3.799   3.816
 4267SOL    HW113700   2.133   3.881   3.860
 4267SOL    HW213701   2.056   3.740   3.885
 4268SOL     OW13702   2.031   5.288   6.627
 4268SOL    HW113703   2.131   5.288   6.615
 4268SOL    HW213704   2.009   5.313   6.721
 4269SOL     OW13705   3.495   1.634   3.636
 4269SOL    HW113706   3.493   1.662   3.732
 4269SOL    HW213707   3.581   1.587   3.618
 4270SOL     OW13708   4.028   3.215   1.425
 4270SOL    HW113709   3.951   3.200   1.364
 4270SOL    HW213710   4.000   3.277   1.499
 4271SOL     OW13711   6.517   0.916   0.315
 4271SOL    HW113712   6.587   0.915   0.244
 4271SOL    HW213713   6.450   0.987   0.296
 4272SOL     OW13714   6.910   3.227   5.732
 4272SOL    HW113715   6.920   3.278   5.647
 4272SOL    HW213716   6.997   3.188   5.759
 4273SOL     OW13717   4.901   6.332   5.211
 4273SOL    HW113718   4.868   6.311   5.303
 4273SOL    HW213719   4.982   6.391   5.217
 4274SOL     OW13720   0.479   6.791   2.090
 4274SOL    HW113721   0.535   6.751   2.018
 4274SOL    HW213722   0.443   6.718   2.148
 4275SOL     OW13723   0.228   1.965   4.532
 4275SOL    HW113724   0.186   1.946   4.621
 4275SOL    HW213725   0.213   2.060   4.507
 4276SOL     OW13726   2.997   5.206   3.329
 4276SOL    HW113727   2.964   5.211   3.235
 4276SOL    HW213728   2.921   5.219   3.392
 4277SOL     OW13729   6.926   4.789   3.721
 4277SOL    HW113730   6.977   4.737   3.790
 4277SOL    HW213731   6.836   4.747   3.708
 4278SOL     OW13732   6.823   6.362   4.009
 4278SOL    HW113733   6.915   6.336   3.981
 4278SOL    HW213734   6.801   6.316   4.095
 4279SOL     OW13735   1.901   0.708   2.211
 4279SOL    HW113736   1.962   0.784   2.187
 4279SOL    HW213737   1.955   0.624   2.219
 4280SOL     OW13738   5.907   6.633   6.097
 4280SOL    HW113739   5.941   6.608   6.006
 4280SOL    HW213740   5.811   6.661   6.090
 4281SOL     OW13741   4.671   5.142   4.268
 4281SOL    HW113742   4.586   5.093   4.250
 4281SOL    HW213743   4.689   5.207   4.195
 4282SOL     OW13744   3.332   4.510   0.568
 4282SOL    HW113745   3.383   4.431   0.534
 4282SOL    HW213746   3.386   4.593   0.557
 4283SOL     OW13747   4.917   1.309   3.429
 4283SOL    HW113748   4.877   1.264   3.350
 4283SOL    HW213749   4.983   1.378   3.399
 4284SOL     OW13750   3.766   5.530   6.970
 4284SOL    HW113751   3.787   5.473   0.027
 4284SOL    HW213752   3.714   5.610   7.000
 4285SOL     OW13753   3.078   0.742   6.164
 4285SOL    HW113754   3.135   0.718   6.085
 4285SOL    HW213755   2.982   0.740   6.136
 4286SOL     OW13756   0.058   0.620   6.415
 4286SOL    HW113757   0.096   0.661   6.332
 4286SOL    HW213758   7.021   0.686   6.460
 4287SOL     OW13759   4.830   1.257   6.474
 4287SOL    HW113760   4.731   1.255   6.462
 4287SOL    HW213761   4.852   1.281   6.569
 4288SOL     OW13762   6.780   5.831   2.468
 4288SOL    HW113763   6.788   5.734   2.445
 4288SOL    HW213764   6.786   5.885   2.384
 4289SOL     OW13765   0.898   2.165   5.413
 4289SOL    HW113766   0.853   2.224   5.480
 4289SOL    HW213767   0.936   2.220   5.339
 4290SOL     OW13768   0.041   6.313   3.892
 4290SOL    HW113769   0.094   6.372   3.953
 4290SOL    HW213770   0.103   6.259   3.835
 4291SOL     OW13771   4.537   2.757   6.646
 4291SOL    HW113772   4.631   2.786   6.627
 4291SOL    HW213773   4.479   2.781   6.568
 4292SOL     OW13774   5.989   2.717   0.063
 4292SOL    HW113775   6.084   2.700   0.035
 4292SOL    HW213776   5.928   2.662   0.007
 4293SOL     OW13777   4.744   3.655   6.855
 4293SOL    HW113778   4.780   3.745   6.832
 4293SOL    HW213779   4.691   3.661   6.940
 4294SOL     OW13780   2.450   2.321   6.174
 4294SOL    HW113781   2.533   2.352   6.128
 4294SOL    HW213782   2.433   2.225   6.150
 4295SOL     OW13783   4.031   6.501   3.037
 4295SOL    HW113784   4.121   6.532   3.005
 4295SOL    HW213785   3.963   6.571   3.016
 4296SOL     OW13786   3.239   6.991   0.748
 4296SOL    HW113787   3.146   7.009   0.780
 4296SOL    HW213788   3.299   0.043   0.776
 4297SOL     OW13789   6.455   6.113   1.850
 4297SOL    HW113790   6.520   6.188   1.839
 4297SOL    HW213791   6.493   6.044   1.911
 4298SOL     OW13792   3.771   6.370   1.476
 4298SOL    HW113793   3.790   6.463   1.444
 4298SOL    HW213794   3.693   6.333   1.428
 4299SOL     OW13795   0.662   3.519   0.153
 4299SOL    HW113796   0.697   3.476   0.070
 4299SOL    HW213797   0.628   3.611   0.130
 4300SOL     OW13798   2.643   0.496   1.216
 4300SOL    HW113799   2.581   0.480   1.293
 4300SOL    HW213800   2.594   0.545   1.144
 4301SOL     OW13801   2.823   7.013   1.526
 4301SOL    HW113802   2.806   0.054   1.601
 4301SOL    HW213803   2.740   6.963   1.505
 4302SOL     OW13804   6.527   7.022   6.962
 4302SOL    HW113805   6.557   0.036   6.874
 4302SOL    HW213806   6.457   0.058   7.001
 4303SOL     OW13807   0.199   4.515   3.639
 4303SOL    HW113808   0.190   4.610   3.667
 4303SOL    HW213809   0.201   4.510   3.539
 4304SOL     OW13810   3.644   4.202   1.888
 4304SOL    HW113811   3.707   4.124   1.890
 4304SOL    HW213812   3.564   4.181   1.945
 4305SOL     OW13813   0.495   6.957   4.737
 4305SOL    HW113814   0.590   6.928   4.741
 4305SOL    HW213815   0.477   0.001   4.809
 4306SOL     OW13816   4.862   4.366   4.990
 4306SOL    HW113817   4.815   4.285   4.956
 4306SOL    HW213818   4.840   4.445   4.934
 4307SOL     OW13819   5.598   3.022   5.841
 4307SOL    HW113820   5.522   3.033   5.904
 4307SOL    HW213821   5.654   2.944   5.870
 4308SOL     OW13822   5.453   5.081   1.652
 4308SOL    HW113823   5.362   5.105   1.618
 4308SOL    HW213824   5.500   5.023   1.585
 4309SOL     OW13825   1.287   3.567   0.034
 4309SOL    HW113826   1.328   3.650   0.072
 4309SOL    HW213827   1.354   3.518   7.002
 4310SOL     OW13828   1.435   2.849   1.854
 4310SOL    HW113829   1.464   2.816   1.764
 4310SOL    HW213830   1.385   2.777   1.902
 4311SOL     OW13831   0.967   6.589   1.953
 4311SOL    HW113832   1.045   6.528   1.936
 4311SOL    HW213833   0.920   6.608   1.867
 4312SOL     OW13834   1.172   5.349   2.606
 4312SOL    HW113835   1.195   5.445   2.627
 4312SOL    HW213836   1.240   5.289   2.649
 4313SOL     OW13837   3.390   1.931   6.926
 4313SOL    HW113838   3.351   1.937   6.835
 4313SOL    HW213839   3.319   1.902   6.991
 4314SOL     OW13840   6.264   1.876   5.502
 4314SOL    HW113841   6.215   1.797   5.465
 4314SOL    HW213842   6.209   1.959   5.490
 4315SOL     OW13843   1.941   1.762   3.965
 4315SOL    HW113844   1.908   1.680   3.920
 4315SOL    HW213845   1.905   1.767   4.058
 4316SOL     OW13846   4.988   6.818   2.839
 4316SOL    HW113847   4.918   6.761   2.796
 4316SOL    HW213848   5.065   6.761   2.866
 4317SOL     OW13849   4.159   0.766   5.328
 4317SOL    HW113850   4.192   0.810   5.412
 4317SOL    HW213851   4.156   0.667   5.342
 4318SOL     OW13852   0.597   0.559   4.182
 4318SOL    HW113853   0.565   0.532   4.273
 4318SOL    HW213854   0.686   0.604   4.190
 4319SOL     OW13855   1.921   1.791   1.238
 4319SOL    HW113856   1.844   1.733   1.262
 4319SOL    HW213857   1.893   1.857   1.168
 4320SOL     OW13858   3.796   6.112   0.551
 4320SOL    HW113859   3.759   6.176   0.618
 4320SOL    HW213860   3.859   6.160   0.491
 4321SOL     OW13861   0.050   4.880   3.502
 4321SOL    HW113862   7.021   4.848   3.581
 4321SOL    HW213863   0.026   4.974   3.481
 4322SOL     OW13864   0.112   3.028   5.738
 4322SOL    HW113865   0.154   3.002   5.651
 4322SOL    HW213866   0.041   2.962   5.762
 4323SOL     OW13867   4.187   5.432   0.094
 4323SOL    HW113868   4.213   5.428   7.021
 4323SOL    HW213869   4.151   5.523   0.115
 4324SOL     OW13870   6.626   3.227   5.680
 4324SOL    HW113871   6.600   3.140   5.721
 4324SOL    HW213872   6.719   3.250   5.708
 4325SOL     OW13873   2.501   1.833   2.225
 4325SOL    HW113874   2.587   1.879   2.202
 4325SOL    HW213875   2.457   1.801   2.141
 4326SOL     OW13876   5.501   3.161   2.325
 4326SOL    HW113877   5.527   3.157   2.229
 4326SOL    HW213878   5.406   3.192   2.332
 4327SOL     OW13879   3.883   5.537   2.992
 4327SOL    HW113880   3.929   5.589   3.064
 4327SOL    HW213881   3.908   5.440   3.000
 4328SOL     OW13882   6.447   4.264   4.766
 4328SOL    HW113883   6.436   4.198   4.692
 4328SOL    HW213884   6.421   4.355   4.733
 4329SOL     OW13885   5.631   3.432   5.554
 4329SOL    HW113886   5.554   3.375   5.580
 4329SOL    HW213887   5.700   3.431   5.626
 4330SOL     OW13888   1.903   6.604   4.826
 4330SOL    HW113889   1.919   6.590   4.728
 4330SOL    HW213890   1.827   6.547   4.856
 4331SOL     OW13891   0.452   0.296   1.471
 4331SOL    HW113892   0.372   0.252   1.428
 4331SOL    HW213893   0.505   0.344   1.400
 4332SOL     OW13894   5.814   3.655   2.390
 4332SOL    HW113895   5.894   3.693   2.436
 4332SOL    HW213896   5.791   3.712   2.310
 4333SOL     OW13897   4.584   2.050   5.111
 4333SOL    HW113898   4.624   2.048   5.019
 4333SOL    HW213899   4.598   1.962   5.155
 4334SOL     OW13900   1.348   2.996   2.351
 4334SOL    HW113901   1.339   2.999   2.252
 4334SOL    HW213902   1.325   2.904   2.383
 4335SOL     OW13903   3.369   2.934   1.019
 4335SOL    HW113904   3.459   2.901   1.047
 4335SOL    HW213905   3.324   2.866   0.961
 4336SOL     OW13906   2.188   4.866   5.224
 4336SOL    HW113907   2.180   4.943   5.162
 4336SOL    HW213908   2.282   4.858   5.257
 4337SOL     OW13909   1.464   6.116   2.210
 4337SOL    HW113910   1.539   6.180   2.190
 4337SOL    HW213911   1.501   6.035   2.255
 4338SOL     OW13912   6.243   0.168   6.201
 4338SOL    HW113913   6.264   0.071   6.213
 4338SOL    HW213914   6.173   0.195   6.267
 4339SOL     OW13915   3.790   2.302   6.378
 4339SOL    HW113916   3.706   2.250   6.391
 4339SOL    HW213917   3.806   2.361   6.457
 4340SOL     OW13918   5.987   2.849   1.044
 4340SOL    HW113919   5.979   2.863   0.945
 4340SOL    HW213920   6.020   2.756   1.062
 4341SOL     OW13921   1.148   5.388   1.896
 4341SOL    HW113922   1.243   5.418   1.891
 4341SOL    HW213923   1.108   5.420   1.983
 4342SOL     OW13924   4.874   3.498   3.039
 4342SOL    HW113925   4.891   3.431   2.967
 4342SOL    HW213926   4.877   3.590   3.001
 4343SOL     OW13927   3.562   0.100   6.272
 4343SOL    HW113928   3.468   0.121   6.296
 4343SOL    HW213929   3.571   0.002   6.255
 4344SOL     OW13930   0.410   2.750   3.188
 4344SOL    HW113931   0.448   2.686   3.254
 4344SOL    HW213932   0.480   2.816   3.161
 4345SOL     OW13933   2.968   3.416   2.709
 4345SOL    HW113934   2.916   3.339   2.672
 4345SOL    HW213935   2.939   3.436   2.802
 4346SOL     OW13936   2.172   2.426   2.675
 4346SOL    HW113937   2.243   2.495   2.661
 4346SOL    HW213938   2.198   2.342   2.628
 4347SOL     OW13939   6.207   6.143   2.004
 4347SOL    HW113940   6.301   6.142   1.969
 4347SOL    HW213941   6.169   6.236   1.997
 4348SOL     OW13942   6.837   5.603   4.159
 4348SOL    HW113943   6.838   5.580   4.256
 4348SOL    HW213944   6.806   5.697   4.147
 4349SOL     OW13945   6.972   3.245   3.440
 4349SOL    HW113946   6.988   3.222   3.536
 4349SOL    HW213947   0.007   3.189   3.382
 4350SOL     OW13948   5.300   2.126   4.757
 4350SOL    HW113949   5.358   2.151   4.679
 4350SOL    HW213950   5.301   2.027   4.768
 4351SOL     OW13951   1.287   5.977   1.597
 4351SOL    HW113952   1.348   6.053   1.576
 4351SOL    HW213953   1.205   5.982   1.540
 4352SOL     OW13954   5.563   3.394   0.901
 4352SOL    HW113955   5.623   3.323   0.937
 4352SOL    HW213956   5.551   3.381   0.803
 4353SOL     OW13957   2.964   3.451   6.555
 4353SOL    HW113958   3.032   3.452   6.482
 4353SOL    HW213959   2.910   3.367   6.550
 4354SOL     OW13960   0.986   0.728   5.374
 4354SOL    HW113961   0.934   0.736   5.459
 4354SOL    HW213962   1.046   0.807   5.364
 4355SOL     OW13963   1.211   6.547   3.229
 4355SOL    HW113964   1.297   6.593   3.253
 4355SOL    HW213965   1.164   6.599   3.158
 4356SOL     OW13966   4.494   3.333   5.809
 4356SOL    HW113967   4.454   3.423   5.826
 4356SOL    HW213968   4.587   3.344   5.773
 4357SOL     OW13969   0.190   1.362   1.966
 4357SOL    HW113970   0.279   1.395   1.937
 4357SOL    HW213971   0.200   1.273   2.011
 4358SOL     OW13972   0.226   1.187   6.724
 4358SOL    HW113973   0.183   1.113   6.673
 4358SOL    HW213974   0.284   1.149   6.797
 4359SOL     OW13975   2.209   0.829   6.689
 4359SOL    HW113976   2.121   0.868   6.716
 4359SOL    HW213977   2.283   0.880   6.732
 4360SOL     OW13978   1.011   2.360   3.582
 4360SOL    HW113979   1.067   2.356   3.665
 4360SOL    HW213980   0.948   2.437   3.588
 4361SOL     OW13981   2.326   2.685   1.164
 4361SOL    HW113982   2.357   2.645   1.251
 4361SOL    HW213983   2.227   2.669   1.154
 4362SOL     OW13984   0.657   6.153   3.914
 4362SOL    HW113985   0.750   6.139   3.879
 4362SOL    HW213986   0.645   6.096   3.996
 4363SOL     OW13987   4.105   0.374   2.118
 4363SOL    HW113988   4.041   0.335   2.051
 4363SOL    HW213989   4.198   0.365   2.084
 4364SOL     OW13990   3.018   3.958   2.656
 4364SOL    HW113991   2.970   3.870   2.656
 4364SOL    HW213992   3.060   3.972   2.745
 4365SOL     OW13993   2.919   1.963   1.734
 4365SOL    HW113994   2.826   1.986   1.707
 4365SOL    HW213995   2.972   2.047   1.747
 4366SOL     OW13996   6.288   5.832   5.815
 4366SOL    HW113997   6.302   5.886   5.732
 4366SOL    HW213998   6.270   5.737   5.789
 4367SOL     OW13999   2.856   5.347   2.685
 4367SOL    HW114000   2.881   5.443   2.697
 4367SOL    HW214001   2.828   5.309   2.773
 4368SOL     OW14002   3.914   5.688   2.701
 4368SOL    HW114003   3.957   5.697   2.791
 4368SOL    HW214004   3.871   5.598   2.693
 4369SOL     OW14005   5.088   5.576   3.032
 4369SOL    HW114006   4.996   5.537   3.037
 4369SOL    HW214007   5.149   5.524   3.092
 4370SOL     OW14008   3.705   3.911   1.492
 4370SOL    HW114009   3.745   3.892   1.402
 4370SOL    HW214010   3.635   3.842   1.513
 4371SOL     OW14011   2.424   0.901   2.146
 4371SOL    HW114012   2.346   0.948   2.185
 4371SOL    HW214013   2.393   0.832   2.081
 4372SOL     OW14014   1.767   3.551   4.413
 4372SOL    HW114015   1.774   3.648   4.439
 4372SOL    HW214016   1.825   3.496   4.473
 4373SOL     OW14017   4.587   1.065   5.994
 4373SOL    HW114018   4.517   1.029   6.056
 4373SOL    HW214019   4.561   1.044   5.900
 4374SOL     OW14020   3.140   2.152   1.407
 4374SOL    HW114021   3.115   2.249   1.417
 4374SOL    HW214022   3.235   2.139   1.436
 4375SOL     OW14023   3.817   0.047   3.542
 4375SOL    HW114024   3.900   0.076   3.493
 4375SOL    HW214025   3.766   7.006   3.484
 4376SOL     OW14026   6.278   0.451   2.114
 4376SOL    HW114027   6.366   0.463   2.160
 4376SOL    HW214028   6.222   0.388   2.166
 4377SOL     OW14029   6.774   5.792   0.476
 4377SOL    HW114030   6.750   5.705   0.520
 4377SOL    HW214031   6.866   5.819   0.504
 4378SOL     OW14032   1.869   4.749   1.899
 4378SOL    HW114033   1.775   4.782   1.909
 4378SOL    HW214034   1.920   4.770   1.982
 4379SOL     OW14035   2.171   0.772   2.065
 4379SOL    HW114036   2.247   0.777   2.001
 4379SOL    HW214037   2.086   0.795   2.018
 4380SOL     OW14038   2.222   5.782   5.160
 4380SOL    HW114039   2.233   5.870   5.207
 4380SOL    HW214040   2.198   5.798   5.064
 4381SOL     OW14041   2.839   4.821   4.514
 4381SOL    HW114042   2.779   4.745   4.490
 4381SOL    HW214043   2.847   4.883   4.436
 4382SOL     OW14044   5.247   4.531   5.090
 4382SOL    HW114045   5.305   4.450   5.082
 4382SOL    HW214046   5.245   4.562   5.185
 4383SOL     OW14047   0.997   1.698   4.807
 4383SOL    HW114048   0.931   1.724   4.877
 4383SOL    HW214049   0.949   1.650   4.732
 4384SOL     OW14050   5.106   0.503   0.715
 4384SOL    HW114051   5.123   0.409   0.745
 4384SOL    HW214052   5.117   0.509   0.616
 4385SOL     OW14053   6.683   2.059   3.598
 4385SOL    HW114054   6.695   2.055   3.499
 4385SOL    HW214055   6.688   1.966   3.635
 4386SOL     OW14056   0.912   4.333   6.383
 4386SOL    HW114057   0.887   4.239   6.359
 4386SOL    HW214058   0.971   4.332   6.464
 4387SOL     OW14059   0.203   1.948   2.216
 4387SOL    HW114060   0.129   1.964   2.150
 4387SOL    HW214061   0.254   2.032   2.230
 4388SOL     OW14062   4.000   1.175   6.342
 4388SOL    HW114063   4.044   1.242   6.401
 4388SOL    HW214064   3.971   1.096   6.397
 4389SOL     OW14065   5.773   1.985   1.320
 4389SOL    HW114066   5.826   1.905   1.350
 4389SOL    HW214067   5.677   1.973   1.344
 4390SOL     OW14068   3.964   2.360   1.558
 4390SOL    HW114069   3.977   2.449   1.602
 4390SOL    HW214070   3.894   2.308   1.607
 4391SOL     OW14071   1.195   6.214   6.610
 4391SOL    HW114072   1.261   6.229   6.684
 4391SOL    HW214073   1.207   6.122   6.573
 4392SOL     OW14074   5.428   4.247   5.219
 4392SOL    HW114075   5.401   4.225   5.312
 4392SOL    HW214076   5.512   4.199   5.196
 4393SOL     OW14077   4.926   6.801   3.105
 4393SOL    HW114078   4.940   6.799   3.006
 4393SOL    HW214079   4.877   6.718   3.133
 4394SOL     OW14080   5.755   5.277   2.495
 4394SOL    HW114081   5.830   5.227   2.538
 4394SOL    HW214082   5.686   5.299   2.564
 4395SOL     OW14083   4.056   2.354   0.545
 4395SOL    HW114084   3.998   2.320   0.471
 4395SOL    HW214085   4.135   2.294   0.557
 4396SOL     OW14086   2.210   2.048   4.157
 4396SOL    HW114087   2.307   2.069   4.169
 4396SOL    HW214088   2.165   2.125   4.112
 4397SOL     OW14089   0.543   1.604   3.940
 4397SOL    HW114090   0.543   1.609   4.040
 4397SOL    HW214091   0.564   1.694   3.902
 4398SOL     OW14092   1.339   4.220   4.224
 4398SOL    HW114093   1.386   4.132   4.237
 4398SOL    HW214094   1.299   4.249   4.311
 4399SOL     OW14095   2.576   0.495   0.744
 4399SOL    HW114096   2.524   0.557   0.684
 4399SOL    HW214097   2.674   0.510   0.730
 4400SOL     OW14098   2.134   6.245   4.873
 4400SOL    HW114099   2.206   6.201   4.925
 4400SOL    HW214100   2.139   6.217   4.777
 4401SOL     OW14101   6.062   5.619   6.100
 4401SOL    HW114102   6.039   5.591   6.193
 4401SOL    HW214103   6.112   5.705   6.102
 4402SOL     OW14104   1.390   6.402   2.830
 4402SOL    HW114105   1.438   6.479   2.872
 4402SOL    HW214106   1.292   6.422   2.827
 4403SOL     OW14107   6.485   6.749   3.620
 4403SOL    HW114108   6.552   6.795   3.678
 4403SOL    HW214109   6.521   6.660   3.592
 4404SOL     OW14110   1.380   3.850   4.695
 4404SOL    HW114111   1.467   3.896   4.681
 4404SOL    HW214112   1.396   3.758   4.730
 4405SOL     OW14113   3.069   4.670   6.160
 4405SOL    HW114114   3.106   4.613   6.234
 4405SOL    HW214115   3.099   4.634   6.072
 4406SOL     OW14116   5.099   4.062   0.690
 4406SOL    HW114117   5.165   4.009   0.744
 4406SOL    HW214118   5.148   4.129   0.634
 4407SOL     OW14119   0.054   5.573   1.000
 4407SOL    HW114120   0.038   5.648   1.065
 4407SOL    HW214121   0.090   5.494   1.049
 4408SOL     OW14122   5.062   0.799   0.695
 4408SOL    HW114123   4.977   0.839   0.662
 4408SOL    HW214124   5.063   0.701   0.674
 4409SOL     OW14125   3.537   0.905   1.682
 4409SOL    HW114126   3.484   0.931   1.601
 4409SOL    HW214127   3.491   0.938   1.764
 4410SOL     OW14128   1.931   4.494   0.007
 4410SOL    HW114129   1.855   4.430   0.019
 4410SOL    HW214130   1.924   4.537   6.940
 4411SOL     OW14131   3.627   2.856   3.339
 4411SOL    HW114132   3.630   2.758   3.359
 4411SOL    HW214133   3.685   2.905   3.404
 4412SOL     OW14134   3.901   1.866   4.831
 4412SOL    HW114135   3.876   1.795   4.765
 4412SOL    HW214136   3.994   1.850   4.863
 4413SOL     OW14137   5.239   6.161   5.513
 4413SOL    HW114138   5.288   6.078   5.486
 4413SOL    HW214139   5.142   6.141   5.525
 4414SOL     OW14140   4.837   5.004   2.039
 4414SOL    HW114141   4.779   5.025   2.117
 4414SOL    HW214142   4.843   4.905   2.026
 4415SOL     OW14143   4.778   3.563   6.498
 4415SOL    HW114144   4.699   3.551   6.558
 4415SOL    HW214145   4.822   3.475   6.482
 4416SOL     OW14146   2.932   1.490   3.840
 4416SOL    HW114147   3.004   1.435   3.884
 4416SOL    HW214148   2.904   1.446   3.755
 4417SOL     OW14149   0.155   4.313   2.782
 4417SOL    HW114150   0.062   4.349   2.772
 4417SOL    HW214151   0.151   4.214   2.798
 4418SOL     OW14152   4.588   6.438   4.170
 4418SOL    HW114153   4.548   6.348   4.159
 4418SOL    HW214154   4.564   6.475   4.260
 4419SOL     OW14155   5.499   5.382   0.387
 4419SOL    HW114156   5.399   5.383   0.385
 4419SOL    HW214157   5.533   5.468   0.425
 4420SOL     OW14158   4.929   1.718   0.633
 4420SOL    HW114159   4.953   1.625   0.660
 4420SOL    HW214160   5.013   1.770   0.615
 4421SOL     OW14161   1.879   1.544   3.829
 4421SOL    HW114162   1.970   1.550   3.787
 4421SOL    HW214163   1.863   1.451   3.861
 4422SOL     OW14164   2.556   3.516   5.720
 4422SOL    HW114165   2.477   3.457   5.703
 4422SOL    HW214166   2.638   3.460   5.734
 4423SOL     OW14167   0.680   2.924   6.186
 4423SOL    HW114168   0.677   3.019   6.157
 4423SOL    HW214169   0.741   2.914   6.265
 4424SOL     OW14170   5.338   6.952   3.428
 4424SOL    HW114171   5.399   6.997   3.362
 4424SOL    HW214172   5.254   7.004   3.438
 4425SOL     OW14173   3.307   5.800   6.090
 4425SOL    HW114174   3.210   5.790   6.071
 4425SOL    HW214175   3.359   5.785   6.006
 4426SOL     OW14176   6.787   1.153   5.024
 4426SOL    HW114177   6.703   1.170   4.973
 4426SOL    HW214178   6.843   1.236   5.025
 4427SOL     OW14179   6.591   0.485   2.546
 4427SOL    HW114180   6.688   0.466   2.563
 4427SOL    HW214181   6.571   0.580   2.568
 4428SOL     OW14182   3.108   4.935   3.261
 4428SOL    HW114183   3.104   5.034   3.277
 4428SOL    HW214184   3.204   4.905   3.263
 4429SOL     OW14185   2.861   0.339   4.147
 4429SOL    HW114186   2.806   0.259   4.124
 4429SOL    HW214187   2.934   0.350   4.078
 4430SOL     OW14188   4.706   2.845   3.569
 4430SOL    HW114189   4.767   2.770   3.592
 4430SOL    HW214190   4.622   2.838   3.624
 4431SOL     OW14191   2.256   1.521   2.195
 4431SOL    HW114192   2.188   1.474   2.138
 4431SOL    HW214193   2.302   1.591   2.141
 4432SOL     OW14194   3.185   3.257   3.772
 4432SOL    HW114195   3.211   3.228   3.680
 4432SOL    HW214196   3.113   3.326   3.766
 4433SOL     OW14197   6.583   6.754   4.605
 4433SOL    HW114198   6.570   6.822   4.677
 4433SOL    HW214199   6.607   6.800   4.520
 4434SOL     OW14200   4.874   1.492   3.927
 4434SOL    HW114201   4.866   1.427   3.851
 4434SOL    HW214202   4.971   1.510   3.944
 4435SOL     OW14203   3.812   3.502   0.714
 4435SOL    HW114204   3.835   3.405   0.713
 4435SOL    HW214205   3.871   3.550   0.779
 4436SOL     OW14206   3.018   2.006   0.471
 4436SOL    HW114207   2.923   2.009   0.502
 4436SOL    HW214208   3.032   1.926   0.413
 4437SOL     OW14209   5.179   0.893   3.912
 4437SOL    HW114210   5.155   0.799   3.888
 4437SOL    HW214211   5.096   0.949   3.912
 4438SOL     OW14212   3.949   2.105   6.404
 4438SOL    HW114213   3.898   2.035   6.453
 4438SOL    HW214214   3.891   2.185   6.389
 4439SOL     OW14215   0.974   5.302   1.294
 4439SOL    HW114216   0.994   5.321   1.390
 4439SOL    HW214217   0.878   5.321   1.275
 4440SOL     OW14218   1.324   5.007   6.755
 4440SOL    HW114219   1.224   5.004   6.744
 4440SOL    HW214220   1.358   5.096   6.723
 4441SOL     OW14221   6.810   1.884   1.927
 4441SOL    HW114222   6.787   1.858   1.834
 4441SOL    HW214223   6.760   1.826   1.992
 4442SOL     OW14224   3.053   6.079   3.987
 4442SOL    HW114225   2.963   6.123   3.992
 4442SOL    HW214226   3.052   6.009   3.916
 4443SOL     OW14227   1.214   2.406   6.911
 4443SOL    HW114228   1.256   2.386   6.823
 4443SOL    HW214229   1.208   2.505   6.924
 4444SOL     OW14230   3.655   6.259   6.394
 4444SOL    HW114231   3.662   6.356   6.414
 4444SOL    HW214232   3.624   6.210   6.475
 4445SOL     OW14233   0.866   0.395   6.849
 4445SOL    HW114234   0.819   0.459   6.789
 4445SOL    HW214235   0.850   0.302   6.818
 4446SOL     OW14236   5.602   1.273   1.355
 4446SOL    HW114237   5.616   1.340   1.428
 4446SOL    HW214238   5.505   1.270   1.330
 4447SOL     OW14239   5.140   3.520   5.124
 4447SOL    HW114240   5.092   3.601   5.157
 4447SOL    HW214241   5.089   3.438   5.151
 4448SOL     OW14242   2.809   4.189   0.854
 4448SOL    HW114243   2.905   4.164   0.855
 4448SOL    HW214244   2.753   4.109   0.876
 4449SOL     OW14245   3.940   0.399   6.100
 4449SOL    HW114246   3.937   0.486   6.051
 4449SOL    HW214247   3.987   0.411   6.187
 4450SOL     OW14248   3.676   2.944   3.619
 4450SOL    HW114249   3.735   2.949   3.699
 4450SOL    HW214250   3.582   2.926   3.648
 4451SOL     OW14251   5.850   4.376   2.389
 4451SOL    HW114252   5.941   4.373   2.430
 4451SOL    HW214253   5.789   4.315   2.440
 4452SOL     OW14254   5.763   6.356   5.119
 4452SOL    HW114255   5.736   6.422   5.049
 4452SOL    HW214256   5.685   6.297   5.140
 4453SOL     OW14257   6.774   2.796   6.923
 4453SOL    HW114258   6.705   2.834   6.862
 4453SOL    HW214259   6.729   2.739   6.992
 4454SOL     OW14260   5.234   2.383   0.677
 4454SOL    HW114261   5.254   2.417   0.585
 4454SOL    HW214262   5.149   2.424   0.710
 4455SOL     OW14263   2.883   6.612   0.109
 4455SOL    HW114264   2.882   6.611   0.209
 4455SOL    HW214265   2.823   6.685   0.076
 4456SOL     OW14266   2.445   4.904   2.474
 4456SOL    HW114267   2.506   4.827   2.454
 4456SOL    HW214268   2.351   4.876   2.460
 4457SOL     OW14269   3.930   2.753   6.963
 4457SOL    HW114270   3.876   2.776   0.022
 4457SOL    HW214271   4.011   2.811   6.960
 4458SOL     OW14272   1.529   3.691   6.597
 4458SOL    HW114273   1.587   3.622   6.639
 4458SOL    HW214274   1.471   3.732   6.667
 4459SOL     OW14275   5.612   0.221   4.008
 4459SOL    HW114276   5.689   0.159   3.991
 4459SOL    HW214277   5.548   0.177   4.072
 4460SOL     OW14278   2.693   2.708   5.801
 4460SOL    HW114279   2.626   2.781   5.817
 4460SOL    HW214280   2.771   2.745   5.751
 4461SOL     OW14281   1.146   0.621   3.039
 4461SOL    HW114282   1.117   0.557   2.968
 4461SOL    HW214283   1.088   0.611   3.120
 4462SOL     OW14284   6.868   3.826   1.231
 4462SOL    HW114285   6.954   3.860   1.270
 4462SOL    HW214286   6.804   3.902   1.220
 4463SOL     OW14287   2.297   2.704   0.092
 4463SOL    HW114288   2.308   2.607   0.115
 4463SOL    HW214289   2.220   2.742   0.144
 4464SOL     OW14290   5.851   5.281   0.624
 4464SOL    HW114291   5.780   5.241   0.567
 4464SOL    HW214292   5.810   5.341   0.693
 4465SOL     OW14293   1.719   6.248   3.007
 4465SOL    HW114294   1.814   6.237   2.977
 4465SOL    HW214295   1.657   6.218   2.933
 4466SOL     OW14296   1.465   0.766   2.796
 4466SOL    HW114297   1.558   0.787   2.766
 4466SOL    HW214298   1.462   0.763   2.896
 4467SOL     OW14299   0.741   6.435   3.659
 4467SOL    HW114300   0.798   6.401   3.734
 4467SOL    HW214301   0.711   6.358   3.603
 4468SOL     OW14302   0.776   1.556   0.721
 4468SOL    HW114303   0.712   1.612   0.774
 4468SOL    HW214304   0.825   1.614   0.656
 4469SOL     OW14305   2.981   0.067   1.297
 4469SOL    HW114306   3.081   0.065   1.308
 4469SOL    HW214307   2.938   0.043   1.384
 4470SOL     OW14308   5.769   3.377   1.787
 4470SOL    HW114309   5.814   3.336   1.867
 4470SOL    HW214310   5.739   3.469   1.809
 4471SOL     OW14311   0.415   2.645   0.098
 4471SOL    HW114312   0.324   2.686   0.094
 4471SOL    HW214313   0.408   2.546   0.081
 4472SOL     OW14314   1.450   3.738   2.562
 4472SOL    HW114315   1.424   3.820   2.614
 4472SOL    HW214316   1.392   3.662   2.590
 4473SOL     OW14317   0.504   0.850   4.292
 4473SOL    HW114318   0.493   0.949   4.301
 4473SOL    HW214319   0.601   0.829   4.279
 4474SOL     OW14320   3.744   1.007   2.361
 4474SOL    HW114321   3.753   1.008   2.261
 4474SOL    HW214322   3.648   1.013   2.386
 4475SOL     OW14323   2.016   4.286   1.859
 4475SOL    HW114324   1.961   4.211   1.896
 4475SOL    HW214325   1.980   4.373   1.891
 4476SOL     OW14326   5.488   6.201   3.944
 4476SOL    HW114327   5.543   6.127   3.983
 4476SOL    HW214328   5.393   6.192   3.975
 4477SOL     OW14329   1.997   0.246   6.565
 4477SOL    HW114330   2.029   0.321   6.507
 4477SOL    HW214331   2.072   0.183   6.584
 4478SOL     OW14332   2.593   6.239   2.379
 4478SOL    HW114333   2.682   6.283   2.394
 4478SOL    HW214334   2.565   6.192   2.462
 4479SOL     OW14335   0.839   1.054   6.869
 4479SOL    HW114336   0.935   1.031   6.886
 4479SOL    HW214337   0.784   0.971   6.866
 4480SOL     OW14338   1.896   3.708   4.938
 4480SOL    HW114339   1.938   3.784   4.988
 4480SOL    HW214340   1.967   3.643   4.911
 4481SOL     OW14341   2.246   0.066   4.330
 4481SOL    HW114342   2.199   7.001   4.339
 4481SOL    HW214343   2.330   0.065   4.385
 4482SOL     OW14344   0.294   3.315   3.943
 4482SOL    HW114345   0.370   3.362   3.986
 4482SOL    HW214346   0.260   3.370   3.866
 4483SOL     OW14347   6.454   3.320   1.558
 4483SOL    HW114348   6.430   3.271   1.641
 4483SOL    HW214349   6.373   3.330   1.500
 4484SOL     OW14350   3.162   1.645   5.253
 4484SOL    HW114351   3.078   1.681   5.213
 4484SOL    HW214352   3.214   1.719   5.294
 4485SOL     OW14353   5.575   2.615   6.267
 4485SOL    HW114354   5.628   2.537   6.236
 4485SOL    HW214355   5.635   2.695   6.275
 4486SOL     OW14356   5.843   3.454   4.162
 4486SOL    HW114357   5.891   3.484   4.080
 4486SOL    HW214358   5.909   3.416   4.228
 4487SOL     OW14359   2.091   3.525   6.777
 4487SOL    HW114360   2.021   3.597   6.784
 4487SOL    HW214361   2.047   3.436   6.770
 4488SOL     OW14362   5.495   2.692   5.888
 4488SOL    HW114363   5.423   2.624   5.876
 4488SOL    HW214364   5.463   2.765   5.948
 4489SOL     OW14365   5.504   6.075   4.359
 4489SOL    HW114366   5.415   6.030   4.366
 4489SOL    HW214367   5.502   6.162   4.409
 4490SOL     OW14368   5.774   2.038   2.052
 4490SOL    HW114369   5.817   2.108   2.110
 4490SOL    HW214370   5.757   1.956   2.107
 4491SOL     OW14371   0.903   2.833   2.955
 4491SOL    HW114372   0.822   2.789   2.916
 4491SOL    HW214373   0.901   2.931   2.936
 4492SOL     OW14374   5.262   3.413   0.589
 4492SOL    HW114375   5.350   3.377   0.623
 4492SOL    HW214376   5.251   3.508   0.618
 4493SOL     OW14377   4.643   5.515   5.070
 4493SOL    HW114378   4.633   5.424   5.111
 4493SOL    HW214379   4.741   5.534   5.055
 4494SOL     OW14380   6.971   2.392   6.432
 4494SOL    HW114381   0.022   2.325   6.418
 4494SOL    HW214382   7.010   2.483   6.443
 4495SOL     OW14383   5.698   6.773   3.321
 4495SOL    HW114384   5.678   6.766   3.419
 4495SOL    HW214385   5.633   6.835   3.278
 4496SOL     OW14386   5.272   5.739   0.472
 4496SOL    HW114387   5.258   5.717   0.569
 4496SOL    HW214388   5.191   5.785   0.436
 4497SOL     OW14389   4.247   6.681   6.711
 4497SOL    HW114390   4.318   6.684   6.641
 4497SOL    HW214391   4.161   6.651   6.669
 4498SOL     OW14392   0.523   3.164   6.468
 4498SOL    HW114393   0.503   3.198   6.376
 4498SOL    HW214394   0.620   3.139   6.473
 4499SOL     OW14395   0.087   3.044   4.329
 4499SOL    HW114396   0.102   3.093   4.243
 4499SOL    HW214397   0.109   2.948   4.317
 4500SOL     OW14398   3.105   3.612   3.475
 4500SOL    HW114399   3.073   3.706   3.461
 4500SOL    HW214400   3.138   3.575   3.388
 4501SOL     OW14401   0.274   3.526   5.944
 4501SOL    HW114402   0.368   3.548   5.971
 4501SOL    HW214403   0.267   3.530   5.844
 4502SOL     OW14404   2.011   3.157   6.408
 4502SOL    HW114405   1.956   3.228   6.452
 4502SOL    HW214406   1.993   3.069   6.454
 4503SOL     OW14407   2.743   0.199   2.719
 4503SOL    HW114408   2.808   0.193   2.794
 4503SOL    HW214409   2.792   0.221   2.634
 4504SOL     OW14410   6.480   1.553   5.278
 4504SOL    HW114411   6.438   1.550   5.187
 4504SOL    HW214412   6.446   1.476   5.332
 4505SOL     OW14413   6.412   5.554   4.560
 4505SOL    HW114414   6.457   5.549   4.471
 4505SOL    HW214415   6.348   5.630   4.562
 4506SOL     OW14416   4.614   2.649   4.725
 4506SOL    HW114417   4.533   2.634   4.782
 4506SOL    HW214418   4.696   2.641   4.781
 4507SOL     OW14419   5.162   4.066   1.331
 4507SOL    HW114420   5.203   4.096   1.245
 4507SOL    HW214421   5.211   4.108   1.407
 4508SOL     OW14422   0.756   4.704   6.577
 4508SOL    HW114423   0.710   4.752   6.652
 4508SOL    HW214424   0.690   4.648   6.528
 4509SOL     OW14425   4.697   2.259   4.345
 4509SOL    HW114426   4.763   2.330   4.319
 4509SOL    HW214427   4.681   2.198   4.267
 4510SOL     OW14428   5.570   6.936   5.083
 4510SOL    HW114429   5.622   7.018   5.059
 4510SOL    HW214430   5.629   6.872   5.131
 4511SOL     OW14431   0.157   3.240   5.963
 4511SOL    HW114432   0.189   3.163   5.908
 4511SOL    HW214433   0.199   3.324   5.929
 4512SOL     OW14434   2.480   6.808   5.725
 4512SOL    HW114435   2.572   6.790   5.759
 4512SOL    HW214436   2.414   6.751   5.774
 4513SOL     OW14437   4.945   6.658   0.607
 4513SOL    HW114438   4.994   6.683   0.524
 4513SOL    HW214439   4.971   6.566   0.636
 4514SOL     OW14440   4.400   0.629   4.705
 4514SOL    HW114441   4.383   0.628   4.804
 4514SOL    HW214442   4.444   0.716   4.680
 4515SOL     OW14443   6.608   4.216   6.239
 4515SOL    HW114444   6.596   4.117   6.230
 4515SOL    HW214445   6.524   4.256   6.275
 4516SOL     OW14446   1.491   1.927   5.884
 4516SOL    HW114447   1.432   1.953   5.960
 4516SOL    HW214448   1.569   1.875   5.918
 4517SOL     OW14449   2.838   6.890   5.995
 4517SOL    HW114450   2.745   6.919   6.017
 4517SOL    HW214451   2.836   6.797   5.957
 4518SOL     OW14452   6.640   1.774   3.371
 4518SOL    HW114453   6.552   1.822   3.379
 4518SOL    HW214454   6.698   1.822   3.305
 4519SOL     OW14455   6.331   1.124   1.904
 4519SOL    HW114456   6.335   1.069   1.821
 4519SOL    HW214457   6.297   1.215   1.883
 4520SOL     OW14458   5.046   5.486   2.740
 4520SOL    HW114459   5.043   5.493   2.840
 4520SOL    HW214460   5.082   5.570   2.701
 4521SOL     OW14461   4.889   1.860   5.575
 4521SOL    HW114462   4.974   1.914   5.574
 4521SOL    HW214463   4.907   1.770   5.614
 4522SOL     OW14464   5.451   0.110   3.809
 4522SOL    HW114465   5.378   0.128   3.874
 4522SOL    HW214466   5.520   0.182   3.816
 4523SOL     OW14467   1.003   4.366   0.350
 4523SOL    HW114468   1.051   4.311   0.282
 4523SOL    HW214469   0.910   4.331   0.362
 4524SOL     OW14470   5.414   2.144   5.769
 4524SOL    HW114471   5.401   2.053   5.808
 4524SOL    HW214472   5.509   2.155   5.739
 4525SOL     OW14473   6.614   1.450   3.398
 4525SOL    HW114474   6.616   1.549   3.413
 4525SOL    HW214475   6.707   1.416   3.390
 4526SOL     OW14476   5.041   0.616   0.946
 4526SOL    HW114477   5.011   0.550   1.015
 4526SOL    HW214478   5.043   0.571   0.856
 4527SOL     OW14479   4.332   1.581   3.977
 4527SOL    HW114480   4.371   1.502   3.929
 4527SOL    HW214481   4.306   1.651   3.911
 4528SOL     OW14482   5.089   6.754   0.381
 4528SOL    HW114483   5.153   6.766   0.305
 4528SOL    HW214484   5.101   6.829   0.447
 4529SOL     OW14485   3.018   1.389   3.384
 4529SOL    HW114486   3.027   1.381   3.285
 4529SOL    HW214487   3.054   1.307   3.428
 4530SOL     OW14488   0.046   3.687   5.549
 4530SOL    HW114489   6.985   3.635   5.537
 4530SOL    HW214490   0.028   3.784   5.539
 4531SOL     OW14491   0.051   2.991   3.361
 4531SOL    HW114492   0.051   2.959   3.266
 4531SOL    HW214493   0.142   2.979   3.400
 4532SOL     OW14494   0.796   1.383   2.364
 4532SOL    HW114495   0.830   1.428   2.446
 4532SOL    HW214496   0.777   1.287   2.384
 4533SOL     OW14497   1.881   0.168   3.888
 4533SOL    HW114498   1.894   0.236   3.816
 4533SOL    HW214499   1.967   0.154   3.937
 4534SOL     OW14500   6.030   3.376   4.327
 4534SOL    HW114501   6.113   3.429   4.308
 4534SOL    HW214502   6.056   3.292   4.375
 4535SOL     OW14503   4.457   2.071   2.302
 4535SOL    HW114504   4.500   2.036   2.385
 4535SOL    HW214505   4.363   2.098   2.323
 4536SOL     OW14506   4.750   1.649   4.598
 4536SOL    HW114507   4.711   1.569   4.643
 4536SOL    HW214508   4.740   1.640   4.499
 4537SOL     OW14509   3.544   3.436   6.444
 4537SOL    HW114510   3.639   3.403   6.446
 4537SOL    HW214511   3.542   3.527   6.404
 4538SOL     OW14512   3.220   1.996   3.988
 4538SOL    HW114513   3.311   2.008   3.949
 4538SOL    HW214514   3.193   1.900   3.980
 4539SOL     OW14515   2.462   1.814   4.158
 4539SOL    HW114516   2.458   1.914   4.168
 4539SOL    HW214517   2.370   1.776   4.169
 4540SOL     OW14518   3.649   3.266   3.848
 4540SOL    HW114519   3.722   3.297   3.909
 4540SOL    HW214520   3.681   3.188   3.796
 4541SOL     OW14521   5.751   1.269   0.338
 4541SOL    HW114522   5.807   1.350   0.322
 4541SOL    HW214523   5.802   1.202   0.392
 4542SOL     OW14524   5.677   6.579   1.836
 4542SOL    HW114525   5.612   6.596   1.910
 4542SOL    HW214526   5.754   6.642   1.845
 4543SOL     OW14527   4.350   1.838   6.990
 4543SOL    HW114528   4.259   1.847   6.949
 4543SOL    HW214529   4.342   1.797   0.058
 4544SOL     OW14530   2.661   5.712   6.094
 4544SOL    HW114531   2.737   5.648   6.080
 4544SOL    HW214532   2.580   5.679   6.046
 4545SOL     OW14533   5.348   2.594   5.142
 4545SOL    HW114534   5.439   2.637   5.141
 4545SOL    HW214535   5.281   2.659   5.179
 4546SOL     OW14536   1.595   0.486   6.387
 4546SOL    HW114537   1.550   0.418   6.445
 4546SOL    HW214538   1.662   0.537   6.441
 4547SOL     OW14539   6.422   2.303   2.473
 4547SOL    HW114540   6.355   2.251   2.525
 4547SOL    HW214541   6.394   2.399   2.468
 4548SOL     OW14542   0.787   4.252   4.467
 4548SOL    HW114543   0.706   4.202   4.435
 4548SOL    HW214544   0.831   4.200   4.540
 4549SOL     OW14545   6.039   3.745   2.488
 4549SOL    HW114546   6.085   3.732   2.575
 4549SOL    HW214547   6.103   3.784   2.421
 4550SOL     OW14548   0.279   5.964   3.388
 4550SOL    HW114549   0.192   5.949   3.435
 4550SOL    HW214550   0.267   5.946   3.290
 4551SOL     OW14551   0.185   2.052   5.345
 4551SOL    HW114552   0.164   2.131   5.287
 4551SOL    HW214553   0.268   2.071   5.398
 4552SOL     OW14554   0.045   2.653   6.405
 4552SOL    HW114555   0.019   2.749   6.408
 4552SOL    HW214556   0.023   2.614   6.316
 4553SOL     OW14557   3.454   4.292   0.453
 4553SOL    HW114558   3.509   4.317   0.373
 4553SOL    HW214559   3.381   4.231   0.425
 4554SOL     OW14560   3.796   0.584   1.763
 4554SOL    HW114561   3.867   0.600   1.695
 4554SOL    HW214562   3.807   0.648   1.839
 4555SOL     OW14563   4.265   1.457   5.954
 4555SOL    HW114564   4.278   1.545   5.909
 4555SOL    HW214565   4.322   1.387   5.910
 4556SOL     OW14566   4.483   2.014   3.928
 4556SOL    HW114567   4.536   2.089   3.887
 4556SOL    HW214568   4.508   1.928   3.884
 4557SOL     OW14569   4.855   6.568   4.757
 4557SOL    HW114570   4.953   6.587   4.753
 4557SOL    HW214571   4.827   6.562   4.853
 4558SOL     OW14572   6.225   3.476   5.651
 4558SOL    HW114573   6.264   3.385   5.649
 4558SOL    HW214574   6.293   3.541   5.684
 4559SOL     OW14575   1.212   6.128   1.896
 4559SOL    HW114576   1.160   6.102   1.815
 4559SOL    HW214577   1.185   6.070   1.973
 4560SOL     OW14578   5.374   4.557   3.208
 4560SOL    HW114579   5.280   4.533   3.184
 4560SOL    HW214580   5.406   4.496   3.280
 4561SOL     OW14581   2.521   0.896   1.358
 4561SOL    HW114582   2.535   0.814   1.413
 4561SOL    HW214583   2.502   0.974   1.417
 4562SOL     OW14584   2.828   5.668   5.368
 4562SOL    HW114585   2.763   5.702   5.435
 4562SOL    HW214586   2.801   5.576   5.338
 4563SOL     OW14587   6.160   3.822   0.153
 4563SOL    HW114588   6.257   3.805   0.169
 4563SOL    HW214589   6.149   3.890   0.080
 4564SOL     OW14590   0.737   5.954   1.030
 4564SOL    HW114591   0.668   6.026   1.029
 4564SOL    HW214592   0.804   5.971   0.958
 4565SOL     OW14593   0.750   1.289   5.205
 4565SOL    HW114594   0.816   1.327   5.139
 4565SOL    HW214595   0.767   1.329   5.295
 4566SOL     OW14596   0.071   0.853   0.563
 4566SOL    HW114597   0.168   0.871   0.549
 4566SOL    HW214598   0.060   0.782   0.633
 4567SOL     OW14599   0.468   1.121   6.931
 4567SOL    HW114600   0.526   1.191   6.971
 4567SOL    HW214601   0.503   1.030   6.956
 4568SOL     OW14602   1.875   4.484   5.140
 4568SOL    HW114603   1.951   4.448   5.194
 4568SOL    HW214604   1.910   4.550   5.074
 4569SOL     OW14605   1.781   1.944   3.836
 4569SOL    HW114606   1.747   1.910   3.748
 4569SOL    HW214607   1.849   1.879   3.872
 4570SOL     OW14608   0.080   5.206   3.729
 4570SOL    HW114609   0.169   5.164   3.712
 4570SOL    HW214610   0.021   5.192   3.649
 4571SOL     OW14611   3.311   3.856   5.316
 4571SOL    HW114612   3.229   3.859   5.259
 4571SOL    HW214613   3.331   3.761   5.341
 4572SOL     OW14614   7.015   6.190   6.963
 4572SOL    HW114615   6.921   6.220   6.943
 4572SOL    HW214616   0.056   6.248   6.912
 4573SOL     OW14617   6.065   6.285   0.811
 4573SOL    HW114618   6.073   6.239   0.899
 4573SOL    HW214619   6.108   6.229   0.740
 4574SOL     OW14620   7.010   4.416   1.114
 4574SOL    HW114621   6.990   4.355   1.191
 4574SOL    HW214622   0.068   4.471   1.136
 4575SOL     OW14623   6.560   2.343   0.796
 4575SOL    HW114624   6.485   2.364   0.859
 4575SOL    HW214625   6.529   2.356   0.702
 4576SOL     OW14626   2.390   5.785   6.485
 4576SOL    HW114627   2.379   5.883   6.497
 4576SOL    HW214628   2.307   5.738   6.516
 4577SOL     OW14629   0.229   2.994   2.845
 4577SOL    HW114630   0.324   3.020   2.825
 4577SOL    HW214631   0.174   3.004   2.762
 4578SOL     OW14632   0.053   3.662   3.390
 4578SOL    HW114633   0.005   3.748   3.373
 4578SOL    HW214634   0.124   3.676   3.459
 4579SOL     OW14635   5.222   1.827   3.226
 4579SOL    HW114636   5.227   1.863   3.133
 4579SOL    HW214637   5.305   1.775   3.246
 4580SOL     OW14638   5.224   5.608   0.140
 4580SOL    HW114639   5.188   5.640   0.052
 4580SOL    HW214640   5.319   5.579   0.129
 4581SOL     OW14641   3.119   5.337   2.955
 4581SOL    HW114642   3.161   5.267   2.897
 4581SOL    HW214643   3.107   5.421   2.903
 4582SOL     OW14644   5.877   6.680   4.686
 4582SOL    HW114645   5.871   6.779   4.703
 4582SOL    HW214646   5.973   6.654   4.677
 4583SOL     OW14647   2.750   1.968   4.606
 4583SOL    HW114648   2.795   1.884   4.638
 4583SOL    HW214649   2.818   2.041   4.597
 4584SOL     OW14650   0.290   6.180   5.730
 4584SOL    HW114651   0.386   6.195   5.707
 4584SOL    HW214652   0.257   6.253   5.789
 4585SOL     OW14653   3.300   6.135   2.914
 4585SOL    HW114654   3.213   6.113   2.871
 4585SOL    HW214655   3.309   6.234   2.922
 4586SOL     OW14656   4.189   4.489   1.052
 4586SOL    HW114657   4.205   4.551   0.976
 4586SOL    HW214658   4.256   4.415   1.049
 4587SOL     OW14659   4.156   3.591   1.885
 4587SOL    HW114660   4.235   3.608   1.825
 4587SOL    HW214661   4.178   3.518   1.949
 4588SOL     OW14662   4.043   3.820   5.168
 4588SOL    HW114663   4.012   3.867   5.250
 4588SOL    HW214664   4.020   3.874   5.087
 4589SOL     OW14665   6.068   1.584   2.461
 4589SOL    HW114666   6.111   1.494   2.463
 4589SOL    HW214667   5.970   1.573   2.478
 4590SOL     OW14668   4.558   6.052   1.580
 4590SOL    HW114669   4.557   5.963   1.625
 4590SOL    HW214670   4.641   6.060   1.524
 4591SOL     OW14671   0.346   6.278   5.413
 4591SOL    HW114672   0.330   6.273   5.314
 4591SOL    HW214673   0.273   6.230   5.461
 4592SOL     OW14674   4.141   2.889   1.683
 4592SOL    HW114675   4.093   2.937   1.757
 4592SOL    HW214676   4.240   2.898   1.697
 4593SOL     OW14677   4.053   5.244   3.713
 4593SOL    HW114678   4.062   5.326   3.656
 4593SOL    HW214679   3.964   5.202   3.695
 4594SOL     OW14680   3.152   2.171   1.130
 4594SOL    HW114681   3.223   2.240   1.142
 4594SOL    HW214682   3.139   2.122   1.217
 4595SOL     OW14683   3.425   2.961   5.876
 4595SOL    HW114684   3.444   3.043   5.930
 4595SOL    HW214685   3.500   2.896   5.887
 4596SOL     OW14686   5.642   6.299   1.891
 4596SOL    HW114687   5.647   6.386   1.842
 4596SOL    HW214688   5.661   6.314   1.988
 4597SOL     OW14689   4.872   4.479   6.763
 4597SOL    HW114690   4.930   4.560   6.775
 4597SOL    HW214691   4.837   4.476   6.670
 4598SOL     OW14692   1.058   5.383   6.867
 4598SOL    HW114693   1.118   5.370   6.946
 4598SOL    HW214694   0.963   5.384   6.897
 4599SOL     OW14695   1.206   4.397   1.178
 4599SOL    HW114696   1.294   4.427   1.215
 4599SOL    HW214697   1.217   4.308   1.134
 4600SOL     OW14698   2.581   5.611   5.759
 4600SOL    HW114699   2.564   5.527   5.708
 4600SOL    HW214700   2.672   5.607   5.801
 4601SOL     OW14701   1.768   0.835   5.258
 4601SOL    HW114702   1.796   0.858   5.165
 4601SOL    HW214703   1.835   0.869   5.324
 4602SOL     OW14704   1.036   6.086   0.458
 4602SOL    HW114705   0.962   6.022   0.483
 4602SOL    HW214706   1.045   6.155   0.530
 4603SOL     OW14707   3.821   6.637   1.336
 4603SOL    HW114708   3.796   6.673   1.246
 4603SOL    HW214709   3.818   6.711   1.404
 4604SOL     OW14710   4.477   0.560   1.263
 4604SOL    HW114711   4.441   0.619   1.335
 4604SOL    HW214712   4.561   0.516   1.295
 4605SOL     OW14713   5.088   0.657   3.565
 4605SOL    HW114714   5.180   0.623   3.544
 4605SOL    HW214715   5.073   0.655   3.663
 4606SOL     OW14716   6.798   0.047   2.369
 4606SOL    HW114717   6.698   0.052   2.365
 4606SOL    HW214718   6.825   6.998   2.432
 4607SOL     OW14719   2.663   2.526   0.484
 4607SOL    HW114720   2.703   2.463   0.418
 4607SOL    HW214721   2.678   2.492   0.577
 4608SOL     OW14722   1.716   5.452   4.505
 4608SOL    HW114723   1.647   5.411   4.564
 4608SOL    HW214724   1.684   5.540   4.471
 4609SOL     OW14725   4.135   5.297   6.282
 4609SOL    HW114726   4.123   5.216   6.340
 4609SOL    HW214727   4.100   5.278   6.191
 4610SOL     OW14728   6.733   2.340   0.515
 4610SOL    HW114729   6.764   2.367   0.606
 4610SOL    HW214730   6.642   2.377   0.498
 4611SOL     OW14731   6.259   4.822   5.644
 4611SOL    HW114732   6.352   4.859   5.647
 4611SOL    HW214733   6.263   4.722   5.635
 4612SOL     OW14734   1.741   6.612   0.151
 4612SOL    HW114735   1.818   6.596   0.090
 4612SOL    HW214736   1.767   6.680   0.220
 4613SOL     OW14737   2.457   5.706   2.585
 4613SOL    HW114738   2.413   5.698   2.496
 4613SOL    HW214739   2.505   5.621   2.606
 4614SOL     OW14740   1.267   4.785   5.726
 4614SOL    HW114741   1.279   4.866   5.784
 4614SOL    HW214742   1.220   4.811   5.642
 4615SOL     OW14743   2.180   1.022   6.984
 4615SOL    HW114744   2.170   1.078   6.902
 4615SOL    HW214745   2.186   1.082   0.041
 4616SOL     OW14746   6.919   0.191   5.886
 4616SOL    HW114747   6.844   0.234   5.835
 4616SOL    HW214748   6.971   0.261   5.935
 4617SOL     OW14749   1.569   2.280   2.760
 4617SOL    HW114750   1.552   2.181   2.766
 4617SOL    HW214751   1.530   2.325   2.840
 4618SOL     OW14752   1.416   3.028   5.266
 4618SOL    HW114753   1.467   2.960   5.318
 4618SOL    HW214754   1.473   3.109   5.251
 4619SOL     OW14755   5.049   6.365   3.677
 4619SOL    HW114756   5.060   6.463   3.695
 4619SOL    HW214757   5.137   6.326   3.653
 4620SOL     OW14758   3.188   3.848   6.701
 4620SOL    HW114759   3.175   3.945   6.681
 4620SOL    HW214760   3.210   3.800   6.616
 4621SOL     OW14761   6.080   2.231   3.674
 4621SOL    HW114762   6.098   2.153   3.614
 4621SOL    HW214763   6.003   2.284   3.639
 4622SOL     OW14764   0.777   2.997   0.882
 4622SOL    HW114765   0.725   3.071   0.925
 4622SOL    HW214766   0.724   2.961   0.804
 4623SOL     OW14767   6.961   5.771   1.167
 4623SOL    HW114768   6.972   5.870   1.180
 4623SOL    HW214769   6.918   5.731   1.248
 4624SOL     OW14770   4.313   6.908   3.186
 4624SOL    HW114771   4.321   7.002   3.152
 4624SOL    HW214772   4.217   6.879   3.182
 4625SOL     OW14773   1.364   4.181   6.766
 4625SOL    HW114774   1.273   4.184   6.724
 4625SOL    HW214775   1.397   4.274   6.781
 4626SOL     OW14776   5.910   4.972   1.281
 4626SOL    HW114777   5.822   4.940   1.244
 4626SOL    HW214778   5.905   5.070   1.300
 4627SOL     OW14779   3.261   5.741   4.960
 4627SOL    HW114780   3.293   5.796   5.037
 4627SOL    HW214781   3.164   5.720   4.973
 4628SOL     OW14782   6.004   4.590   3.169
 4628SOL    HW114783   6.035   4.495   3.163
 4628SOL    HW214784   5.942   4.609   3.093
 4629SOL     OW14785   2.111   4.911   6.085
 4629SOL    HW114786   2.203   4.887   6.117
 4629SOL    HW214787   2.113   4.929   5.987
 4630SOL     OW14788   3.540   5.948   3.501
 4630SOL    HW114789   3.595   5.866   3.484
 4630SOL    HW214790   3.580   6.026   3.454
 4631SOL     OW14791   2.764   6.701   3.544
 4631SOL    HW114792   2.800   6.782   3.590
 4631SOL    HW214793   2.763   6.717   3.445
 4632SOL     OW14794   4.295   4.998   2.805
 4632SOL    HW114795   4.393   5.002   2.783
 4632SOL    HW214796   4.254   5.088   2.789
 4633SOL     OW14797   6.079   1.892   3.918
 4633SOL    HW114798   6.144   1.889   3.842
 4633SOL    HW214799   6.098   1.817   3.981
 4634SOL     OW14800   2.407   4.365   6.574
 4634SOL    HW114801   2.484   4.368   6.510
 4634SOL    HW214802   2.322   4.356   6.522
 4635SOL     OW14803   6.120   4.044   2.319
 4635SOL    HW114804   6.137   4.119   2.255
 4635SOL    HW214805   6.199   4.034   2.380
 4636SOL     OW14806   2.065   4.977   6.926
 4636SOL    HW114807   2.110   4.896   6.964
 4636SOL    HW214808   2.124   5.057   6.940
 4637SOL     OW14809   1.912   0.743   0.336
 4637SOL    HW114810   2.008   0.765   0.318
 4637SOL    HW214811   1.892   0.756   0.433
 4638SOL     OW14812   3.484   2.832   6.206
 4638SOL    HW114813   3.548   2.904   6.177
 4638SOL    HW214814   3.413   2.821   6.137
 4639SOL     OW14815   1.990   4.682   5.548
 4639SOL    HW114816   1.904   4.644   5.583
 4639SOL    HW214817   2.066   4.646   5.602
 4640SOL     OW14818   4.454   5.224   3.423
 4640SOL    HW114819   4.461   5.232   3.324
 4640SOL    HW214820   4.391   5.150   3.447
 4641SOL     OW14821   2.745   5.417   3.968
 4641SOL    HW114822   2.831   5.468   3.962
 4641SOL    HW214823   2.736   5.357   3.888
 4642SOL     OW14824   0.519   6.583   5.245
 4642SOL    HW114825   0.585   6.657   5.230
 4642SOL    HW214826   0.565   6.504   5.285
 4643SOL     OW14827   5.023   2.474   0.806
 4643SOL    HW114828   4.971   2.406   0.856
 4643SOL    HW214829   4.990   2.566   0.829
 4644SOL     OW14830   1.341   4.577   4.517
 4644SOL    HW114831   1.246   4.608   4.508
 4644SOL    HW214832   1.360   4.558   4.613
 4645SOL     OW14833   1.611   0.182   4.453
 4645SOL    HW114834   1.669   0.248   4.500
 4645SOL    HW214835   1.527   0.169   4.505
 4646SOL     OW14836   2.173   6.465   2.674
 4646SOL    HW114837   2.112   6.503   2.744
 4646SOL    HW214838   2.152   6.507   2.586
 4647SOL     OW14839   0.427   6.683   3.073
 4647SOL    HW114840   0.449   6.757   3.010
 4647SOL    HW214841   0.328   6.671   3.077
 4648SOL     OW14842   3.957   0.051   1.130
 4648SOL    HW114843   3.973   0.104   1.047
 4648SOL    HW214844   3.949   6.977   1.107
 4649SOL     OW14845   5.109   6.984   5.919
 4649SOL    HW114846   5.150   6.925   5.988
 4649SOL    HW214847   5.178   0.026   5.885
 4650SOL     OW14848   3.841   6.054   3.436
 4650SOL    HW114849   3.927   6.036   3.388
 4650SOL    HW214850   3.852   6.134   3.495
 4651SOL     OW14851   0.078   1.879   1.044
 4651SOL    HW114852   0.020   1.954   1.012
 4651SOL    HW214853   0.157   1.917   1.092
 4652SOL     OW14854   0.703   0.128   3.379
 4652SOL    HW114855   0.754   0.061   3.325
 4652SOL    HW214856   0.606   0.126   3.353
 4653SOL     OW14857   6.698   5.124   0.221
 4653SOL    HW114858   6.798   5.122   0.221
 4653SOL    HW214859   6.664   5.104   0.313
 4654SOL     OW14860   0.564   0.227   6.962
 4654SOL    HW114861   0.592   0.273   0.023
 4654SOL    HW214862   0.467   0.205   6.967
 4655SOL     OW14863   6.901   5.125   1.610
 4655SOL    HW114864   6.906   5.204   1.670
 4655SOL    HW214865   6.806   5.109   1.583
 4656SOL     OW14866   0.983   6.738   3.287
 4656SOL    HW114867   0.899   6.705   3.242
 4656SOL    HW214868   1.008   6.675   3.360
 4657SOL     OW14869   5.021   0.151   1.662
 4657SOL    HW114870   5.017   0.176   1.566
 4657SOL    HW214871   5.084   0.074   1.674
 4658SOL     OW14872   3.316   0.510   2.619
 4658SOL    HW114873   3.360   0.598   2.640
 4658SOL    HW214874   3.240   0.525   2.556
 4659SOL     OW14875   2.626   4.008   5.600
 4659SOL    HW114876   2.579   4.093   5.623
 4659SOL    HW214877   2.621   3.993   5.501
 4660SOL     OW14878   1.256   2.522   4.974
 4660SOL    HW114879   1.288   2.576   5.052
 4660SOL    HW214880   1.293   2.562   4.890
 4661SOL     OW14881   4.321   4.433   5.568
 4661SOL    HW114882   4.389   4.434   5.495
 4661SOL    HW214883   4.367   4.411   5.655
 4662SOL     OW14884   5.036   0.344   4.719
 4662SOL    HW114885   5.088   0.286   4.656
 4662SOL    HW214886   4.956   0.293   4.751
 4663SOL     OW14887   0.275   1.067   2.494
 4663SOL    HW114888   0.246   1.062   2.589
 4663SOL    HW214889   0.355   1.008   2.481
 4664SOL     OW14890   1.874   2.499   6.696
 4664SOL    HW114891   1.800   2.563   6.719
 4664SOL    HW214892   1.948   2.549   6.653
 4665SOL     OW14893   4.285   0.046   0.143
 4665SOL    HW114894   4.366   0.104   0.137
 4665SOL    HW214895   4.312   6.973   0.139
 4666SOL     OW14896   2.218   1.650   6.739
 4666SOL    HW114897   2.194   1.706   6.660
 4666SOL    HW214898   2.154   1.669   6.814
 4667SOL     OW14899   6.564   5.136   0.485
 4667SOL    HW114900   6.511   5.218   0.461
 4667SOL    HW214901   6.515   5.055   0.455
 4668SOL     OW14902   6.872   1.681   4.173
 4668SOL    HW114903   6.921   1.737   4.240
 4668SOL    HW214904   6.864   1.732   4.087
 4669SOL     OW14905   3.770   6.429   0.760
 4669SOL    HW114906   3.760   6.522   0.724
 4669SOL    HW214907   3.729   6.424   0.852
 4670SOL     OW14908   3.281   1.645   4.991
 4670SOL    HW114909   3.273   1.639   5.090
 4670SOL    HW214910   3.274   1.554   4.951
 4671SOL     OW14911   6.266   2.766   2.024
 4671SOL    HW114912   6.188   2.816   1.985
 4671SOL    HW214913   6.312   2.715   1.951
 4672SOL     OW14914   2.578   4.581   6.141
 4672SOL    HW114915   2.493   4.527   6.137
 4672SOL    HW214916   2.598   4.617   6.050
 4673SOL     OW14917   5.097   6.879   1.164
 4673SOL    HW114918   5.151   6.892   1.081
 4673SOL    HW214919   5.111   6.957   1.226
 4674SOL     OW14920   5.503   6.179   6.049
 4674SOL    HW114921   5.442   6.255   6.071
 4674SOL    HW214922   5.550   6.149   6.132
 4675SOL     OW14923   0.486   3.432   0.368
 4675SOL    HW114924   0.549   3.415   0.292
 4675SOL    HW214925   0.536   3.471   0.445
 4676SOL     OW14926   0.675   5.887   4.173
 4676SOL    HW114927   0.758   5.910   4.224
 4676SOL    HW214928   0.674   5.789   4.155
 4677SOL     OW14929   2.093   2.045   0.746
 4677SOL    HW114930   1.998   2.012   0.752
 4677SOL    HW214931   2.094   2.145   0.753
 4678SOL     OW14932   2.664   4.649   2.771
 4678SOL    HW114933   2.705   4.579   2.829
 4678SOL    HW214934   2.651   4.612   2.679
 4679SOL     OW14935   3.823   7.014   1.931
 4679SOL    HW114936   3.851   6.971   1.845
 4679SOL    HW214937   3.724   7.006   1.942
 4680SOL     OW14938   4.043   1.520   0.135
 4680SOL    HW114939   4.038   1.617   0.159
 4680SOL    HW214940   4.079   1.469   0.213
 4681SOL     OW14941   4.632   5.001   6.753
 4681SOL    HW114942   4.646   5.045   6.664
 4681SOL    HW214943   4.586   5.064   6.815
 4682SOL     OW14944   5.307   3.820   6.093
 4682SOL    HW114945   5.377   3.756   6.126
 4682SOL    HW214946   5.225   3.811   6.149
 4683SOL     OW14947   5.714   5.341   2.194
 4683SOL    HW114948   5.798   5.372   2.151
 4683SOL    HW214949   5.731   5.322   2.291
 4684SOL     OW14950   4.378   6.454   5.821
 4684SOL    HW114951   4.296   6.397   5.810
 4684SOL    HW214952   4.449   6.403   5.869
 4685SOL     OW14953   2.350   4.787   6.200
 4685SOL    HW114954   2.337   4.717   6.271
 4685SOL    HW214955   2.397   4.747   6.122
 4686SOL     OW14956   4.541   5.357   0.671
 4686SOL    HW114957   4.582   5.445   0.647
 4686SOL    HW214958   4.610   5.285   0.659
 4687SOL     OW14959   4.942   2.623   4.415
 4687SOL    HW114960   4.847   2.633   4.447
 4687SOL    HW214961   4.978   2.713   4.390
 4688SOL     OW14962   5.182   2.840   5.434
 4688SOL    HW114963   5.151   2.919   5.381
 4688SOL    HW214964   5.155   2.852   5.530
 4689SOL     OW14965   5.825   0.954   1.007
 4689SOL    HW114966   5.827   0.911   1.097
 4689SOL    HW214967   5.731   0.954   0.972
 4690SOL     OW14968   1.614   1.460   0.771
 4690SOL    HW114969   1.711   1.440   0.753
 4690SOL    HW214970   1.562   1.375   0.771
 4691SOL     OW14971   3.900   3.870   0.112
 4691SOL    HW114972   3.838   3.837   0.042
 4691SOL    HW214973   3.890   3.969   0.122
 4692SOL     OW14974   5.853   5.257   3.155
 4692SOL    HW114975   5.820   5.167   3.184
 4692SOL    HW214976   5.792   5.328   3.189
 4693SOL     OW14977   0.977   0.924   3.773
 4693SOL    HW114978   0.925   0.840   3.764
 4693SOL    HW214979   0.959   0.983   3.695
 4694SOL     OW14980   2.206   2.857   0.739
 4694SOL    HW114981   2.284   2.849   0.800
 4694SOL    HW214982   2.182   2.766   0.705
 4695SOL     OW14983   1.674   6.075   0.694
 4695SOL    HW114984   1.575   6.064   0.700
 4695SOL    HW214985   1.696   6.167   0.659
 4696SOL     OW14986   0.501   5.463   6.370
 4696SOL    HW114987   0.580   5.422   6.323
 4696SOL    HW214988   0.487   5.556   6.336
 4697SOL     OW14989   1.168   3.829   2.436
 4697SOL    HW114990   1.077   3.792   2.418
 4697SOL    HW214991   1.235   3.782   2.378
 4698SOL     OW14992   4.035   6.807   3.250
 4698SOL    HW114993   3.984   6.746   3.310
 4698SOL    HW214994   4.028   6.901   3.283
 4699SOL     OW14995   0.360   6.247   2.644
 4699SOL    HW114996   0.379   6.343   2.625
 4699SOL    HW214997   0.312   6.238   2.731
 4700SOL     OW14998   6.412   1.402   2.258
 4700SOL    HW114999   6.497   1.356   2.236
 4700SOL    HW215000   6.431   1.497   2.285
 4701SOL     OW15001   3.701   1.926   0.628
 4701SOL    HW115002   3.681   1.963   0.719
 4701SOL    HW215003   3.689   1.827   0.629
 4702SOL     OW15004   4.664   4.505   0.656
 4702SOL    HW115005   4.692   4.451   0.735
 4702SOL    HW215006   4.720   4.481   0.577
 4703SOL     OW15007   0.845   6.187   3.192
 4703SOL    HW115008   0.894   6.233   3.266
 4703SOL    HW215009   0.912   6.146   3.129
 4704SOL     OW15010   6.860   5.832   6.088
 4704SOL    HW115011   6.808   5.915   6.107
 4704SOL    HW215012   6.829   5.792   6.002
 4705SOL     OW15013   3.301   2.347   0.639
 4705SOL    HW115014   3.235   2.363   0.712
 4705SOL    HW215015   3.303   2.250   0.615
 4706SOL     OW15016   1.251   0.748   0.464
 4706SOL    HW115017   1.268   0.684   0.389
 4706SOL    HW215018   1.336   0.759   0.517
 4707SOL     OW15019   1.057   5.985   1.441
 4707SOL    HW115020   1.048   5.885   1.441
 4707SOL    HW215021   1.067   6.017   1.347
 4708SOL     OW15022   0.921   2.184   5.780
 4708SOL    HW115023   0.887   2.278   5.783
 4708SOL    HW215024   0.926   2.146   5.872
 4709SOL     OW15025   4.810   5.201   4.496
 4709SOL    HW115026   4.778   5.190   4.402
 4709SOL    HW215027   4.860   5.119   4.524
 4710SOL     OW15028   5.690   0.019   6.015
 4710SOL    HW115029   5.768   0.026   5.953
 4710SOL    HW215030   5.614   6.995   5.969
 4711SOL     OW15031   6.578   1.603   2.515
 4711SOL    HW115032   6.627   1.516   2.514
 4711SOL    HW215033   6.523   1.609   2.599
 4712SOL     OW15034   3.819   4.746   6.690
 4712SOL    HW115035   3.736   4.694   6.669
 4712SOL    HW215036   3.813   4.784   6.782
 4713SOL     OW15037   5.250   5.682   0.743
 4713SOL    HW115038   5.173   5.652   0.799
 4713SOL    HW215039   5.334   5.680   0.798
 4714SOL     OW15040   0.533   1.377   6.183
 4714SOL    HW115041   0.513   1.473   6.199
 4714SOL    HW215042   0.578   1.338   6.263
 4715SOL     OW15043   6.222   2.868   1.567
 4715SOL    HW115044   6.244   2.797   1.500
 4715SOL    HW215045   6.305   2.918   1.591
 4716SOL     OW15046   4.854   6.356   5.491
 4716SOL    HW115047   4.766   6.394   5.520
 4716SOL    HW215048   4.923   6.428   5.488
 4717SOL     OW15049   1.799   5.147   5.358
 4717SOL    HW115050   1.780   5.053   5.329
 4717SOL    HW215051   1.878   5.182   5.306
 4718SOL     OW15052   5.250   2.486   1.322
 4718SOL    HW115053   5.281   2.483   1.417
 4718SOL    HW215054   5.257   2.394   1.281
 4719SOL     OW15055   4.851   3.929   2.670
 4719SOL    HW115056   4.882   3.897   2.580
 4719SOL    HW215057   4.821   4.025   2.663
 4720SOL     OW15058   1.885   4.525   6.307
 4720SOL    HW115059   1.853   4.600   6.366
 4720SOL    HW215060   1.850   4.538   6.214
 4721SOL     OW15061   6.184   2.355   1.840
 4721SOL    HW115062   6.109   2.421   1.845
 4721SOL    HW215063   6.209   2.326   1.933
 4722SOL     OW15064   0.859   6.364   0.025
 4722SOL    HW115065   0.905   6.360   6.959
 4722SOL    HW215066   0.761   6.378   0.012
 4723SOL     OW15067   3.419   4.094   5.220
 4723SOL    HW115068   3.379   4.007   5.248
 4723SOL    HW215069   3.516   4.095   5.243
 4724SOL     OW15070   6.999   7.009   4.171
 4724SOL    HW115071   6.936   0.029   4.106
 4724SOL    HW215072   0.067   0.026   4.161
 4725SOL     OW15073   5.777   4.739   0.147
 4725SOL    HW115074   5.876   4.746   0.163
 4725SOL    HW215075   5.732   4.702   0.228
 4726SOL     OW15076   1.068   3.350   6.045
 4726SOL    HW115077   1.010   3.314   6.118
 4726SOL    HW215078   1.146   3.398   6.085
 4727SOL     OW15079   6.912   6.253   1.121
 4727SOL    HW115080   6.834   6.289   1.172
 4727SOL    HW215081   6.930   6.159   1.149
 4728SOL     OW15082   6.773   0.828   2.915
 4728SOL    HW115083   6.733   0.887   2.844
 4728SOL    HW215084   6.783   0.880   3.000
 4729SOL     OW15085   4.853   0.525   0.531
 4729SOL    HW115086   4.927   0.479   0.483
 4729SOL    HW215087   4.807   0.460   0.592
 4730SOL     OW15088   3.809   5.749   6.098
 4730SOL    HW115089   3.815   5.700   6.011
 4730SOL    HW215090   3.714   5.773   6.117
 4731SOL     OW15091   2.869   0.914   0.714
 4731SOL    HW115092   2.905   1.006   0.731
 4731SOL    HW215093   2.857   0.866   0.801
 4732SOL     OW15094   0.003   3.222   5.444
 4732SOL    HW115095   0.048   3.168   5.372
 4732SOL    HW215096   0.034   3.317   5.439
 4733SOL     OW15097   1.051   4.097   2.875
 4733SOL    HW115098   1.102   4.011   2.868
 4733SOL    HW215099   0.955   4.077   2.895
 4734SOL     OW15100   5.005   3.061   0.221
 4734SOL    HW115101   4.989   2.968   0.255
 4734SOL    HW215102   5.012   3.059   0.121
 4735SOL     OW15103   6.287   5.287   4.278
 4735SOL    HW115104   6.256   5.380   4.258
 4735SOL    HW215105   6.216   5.239   4.331
 4736SOL     OW15106   5.729   1.392   4.363
 4736SOL    HW115107   5.748   1.488   4.383
 4736SOL    HW215108   5.637   1.369   4.393
 4737SOL     OW15109   2.265   4.344   0.674
 4737SOL    HW115110   2.328   4.268   0.662
 4737SOL    HW215111   2.289   4.395   0.757
 4738SOL     OW15112   3.251   6.526   3.707
 4738SOL    HW115113   3.185   6.491   3.774
 4738SOL    HW215114   3.213   6.607   3.662
 4739SOL     OW15115   5.789   1.654   3.683
 4739SOL    HW115116   5.835   1.597   3.615
 4739SOL    HW215117   5.693   1.663   3.658
 4740SOL     OW15118   0.896   0.733   0.408
 4740SOL    HW115119   0.915   0.703   0.315
 4740SOL    HW215120   0.978   0.723   0.465
 4741SOL     OW15121   4.645   3.593   1.139
 4741SOL    HW115122   4.719   3.525   1.137
 4741SOL    HW215123   4.558   3.546   1.153
 4742SOL     OW15124   3.474   6.108   1.849
 4742SOL    HW115125   3.430   6.155   1.926
 4742SOL    HW215126   3.572   6.127   1.851
 4743SOL     OW15127   1.674   2.106   5.731
 4743SOL    HW115128   1.669   2.023   5.787
 4743SOL    HW215129   1.648   2.185   5.786
 4744SOL     OW15130   2.694   3.096   5.872
 4744SOL    HW115131   2.598   3.118   5.885
 4744SOL    HW215132   2.732   3.151   5.798
 4745SOL     OW15133   2.452   5.198   5.103
 4745SOL    HW115134   2.527   5.133   5.115
 4745SOL    HW215135   2.439   5.251   5.187
 4746SOL     OW15136   6.045   6.399   1.763
 4746SOL    HW115137   6.027   6.486   1.717
 4746SOL    HW215138   5.981   6.329   1.729
 4747SOL     OW15139   1.336   3.489   6.107
 4747SOL    HW115140   1.402   3.466   6.178
 4747SOL    HW215141   1.359   3.439   6.023
 4748SOL     OW15142   1.664   5.581   1.244
 4748SOL    HW115143   1.750   5.609   1.288
 4748SOL    HW215144   1.666   5.607   1.148
 4749SOL     OW15145   2.859   6.413   5.760
 4749SOL    HW115146   2.839   6.363   5.844
 4749SOL    HW215147   2.954   6.445   5.761
 4750SOL     OW15148   0.107   2.093   3.960
 4750SOL    HW115149   0.183   2.100   3.895
 4750SOL    HW215150   0.020   2.108   3.912
 4751SOL     OW15151   2.104   3.938   0.307
 4751SOL    HW115152   2.173   3.956   0.377
 4751SOL    HW215153   2.147   3.893   0.229
 4752SOL     OW15154   2.968   0.035   0.555
 4752SOL    HW115155   3.037   0.102   0.529
 4752SOL    HW215156   2.903   0.077   0.619
 4753SOL     OW15157   5.268   0.215   3.976
 4753SOL    HW115158   5.202   0.290   3.987
 4753SOL    HW215159   5.244   0.140   4.039
 4754SOL     OW15160   5.929   0.505   5.451
 4754SOL    HW115161   5.941   0.469   5.543
 4754SOL    HW215162   6.010   0.557   5.425
 4755SOL     OW15163   2.718   0.997   6.994
 4755SOL    HW115164   2.666   0.914   7.015
 4755SOL    HW215165   2.670   1.077   0.005
 4756SOL     OW15166   5.957   2.213   1.325
 4756SOL    HW115167   5.973   2.190   1.421
 4756SOL    HW215168   5.881   2.159   1.289
 4757SOL     OW15169   1.639   1.876   2.557
 4757SOL    HW115170   1.565   1.866   2.623
 4757SOL    HW215171   1.684   1.965   2.571
 4758SOL     OW15172   3.370   5.491   4.685
 4758SOL    HW115173   3.278   5.531   4.695
 4758SOL    HW215174   3.380   5.454   4.593
 4759SOL     OW15175   5.718   5.535   5.326
 4759SOL    HW115176   5.703   5.610   5.262
 4759SOL    HW215177   5.675   5.452   5.291
 4760SOL     OW15178   3.143   2.390   0.865
 4760SOL    HW115179   3.169   2.384   0.962
 4760SOL    HW215180   3.115   2.484   0.844
 4761SOL     OW15181   6.927   0.752   6.644
 4761SOL    HW115182   6.965   0.840   6.617
 4761SOL    HW215183   6.886   0.760   6.736
 4762SOL     OW15184   2.757   4.990   3.027
 4762SOL    HW115185   2.664   4.986   3.062
 4762SOL    HW215186   2.800   4.900   3.034
 4763SOL     OW15187   5.878   6.342   3.459
 4763SOL    HW115188   5.953   6.379   3.514
 4763SOL    HW215189   5.838   6.415   3.405
 4764SOL     OW15190   5.069   3.871   5.715
 4764SOL    HW115191   4.976   3.842   5.739
 4764SOL    HW215192   5.067   3.929   5.634
 4765SOL     OW15193   5.261   6.724   4.104
 4765SOL    HW115194   5.205   6.738   4.185
 4765SOL    HW215195   5.237   6.637   4.061
 4766SOL     OW15196   4.311   0.596   3.571
 4766SOL    HW115197   4.216   0.567   3.587
 4766SOL    HW215198   4.371   0.516   3.573
 4767SOL     OW15199   4.241   5.855   6.353
 4767SOL    HW115200   4.301   5.919   6.306
 4767SOL    HW215201   4.289   5.767   6.364
 4768SOL     OW15202   5.120   1.997   5.568
 4768SOL    HW115203   5.159   2.063   5.632
 4768SOL    HW215204   5.099   2.043   5.482
 4769SOL     OW15205   4.677   5.138   1.035
 4769SOL    HW115206   4.744   5.141   0.961
 4769SOL    HW215207   4.585   5.136   0.996
 4770SOL     OW15208   1.814   6.902   3.931
 4770SOL    HW115209   1.794   6.992   3.892
 4770SOL    HW215210   1.746   6.836   3.898
 4771SOL     OW15211   3.435   5.394   5.883
 4771SOL    HW115212   3.414   5.344   5.967
 4771SOL    HW215213   3.411   5.338   5.803
 4772SOL     OW15214   2.189   5.936   2.470
 4772SOL    HW115215   2.094   5.929   2.501
 4772SOL    HW215216   2.202   6.023   2.422
 4773SOL     OW15217   6.686   4.993   5.108
 4773SOL    HW115218   6.703   4.950   5.196
 4773SOL    HW215219   6.685   5.093   5.119
 4774SOL     OW15220   1.114   2.032   1.727
 4774SOL    HW115221   1.128   1.933   1.727
 4774SOL    HW215222   1.052   2.057   1.801
 4775SOL     OW15223   5.095   0.216   2.881
 4775SOL    HW115224   5.178   0.176   2.920
 4775SOL    HW215225   5.077   0.305   2.925
 4776SOL     OW15226   1.556   6.746   4.203
 4776SOL    HW115227   1.460   6.720   4.201
 4776SOL    HW215228   1.602   6.709   4.123
 4777SOL     OW15229   2.966   4.947   1.541
 4777SOL    HW115230   2.989   4.872   1.480
 4777SOL    HW215231   3.009   4.932   1.630
 4778SOL     OW15232   5.070   2.199   2.232
 4778SOL    HW115233   5.165   2.204   2.201
 4778SOL    HW215234   5.053   2.269   2.301
 4779SOL     OW15235   6.836   6.352   2.263
 4779SOL    HW115236   6.753   6.298   2.254
 4779SOL    HW215237   6.891   6.317   2.340
 4780SOL     OW15238   7.022   0.248   6.935
 4780SOL    HW115239   7.004   0.321   6.869
 4780SOL    HW215240   0.063   0.182   6.895
 4781SOL     OW15241   2.805   6.186   0.667
 4781SOL    HW115242   2.728   6.230   0.713
 4781SOL    HW215243   2.780   6.166   0.572
 4782SOL     OW15244   4.388   6.821   0.117
 4782SOL    HW115245   4.306   6.766   0.135
 4782SOL    HW215246   4.451   6.812   0.194
 4783SOL     OW15247   4.954   3.919   0.104
 4783SOL    HW115248   4.875   3.979   0.091
 4783SOL    HW215249   4.924   3.830   0.138
 4784SOL     OW15250   6.590   3.693   6.974
 4784SOL    HW115251   6.539   3.648   6.901
 4784SOL    HW215252   6.680   3.650   6.983
 4785SOL     OW15253   6.545   5.720   1.662
 4785SOL    HW115254   6.511   5.813   1.646
 4785SOL    HW215255   6.642   5.723   1.684
 4786SOL     OW15256   2.437   2.062   1.937
 4786SOL    HW115257   2.373   2.055   2.014
 4786SOL    HW215258   2.518   2.114   1.965
 4787SOL     OW15259   3.487   2.082   3.393
 4787SOL    HW115260   3.430   2.151   3.438
 4787SOL    HW215261   3.465   1.992   3.429
 4788SOL     OW15262   1.122   5.516   6.297
 4788SOL    HW115263   1.218   5.499   6.318
 4788SOL    HW215264   1.067   5.438   6.328
 4789SOL     OW15265   5.290   0.585   0.429
 4789SOL    HW115266   5.326   0.509   0.376
 4789SOL    HW215267   5.343   0.596   0.513
 4790SOL     OW15268   6.882   3.309   6.330
 4790SOL    HW115269   6.856   3.290   6.235
 4790SOL    HW215270   6.980   3.290   6.341
 4791SOL     OW15271   5.900   2.004   1.795
 4791SOL    HW115272   5.806   1.972   1.780
 4791SOL    HW215273   5.914   2.024   1.892
 4792SOL     OW15274   1.765   3.342   2.595
 4792SOL    HW115275   1.853   3.344   2.644
 4792SOL    HW215276   1.742   3.434   2.565
 4793SOL     OW15277   0.943   2.905   6.336
 4793SOL    HW115278   0.863   2.864   6.380
 4793SOL    HW215279   1.023   2.894   6.396
 4794SOL     OW15280   4.178   1.020   3.727
 4794SOL    HW115281   4.273   0.993   3.740
 4794SOL    HW215282   4.137   0.965   3.654
 4795SOL     OW15283   6.357   1.383   3.478
 4795SOL    HW115284   6.446   1.426   3.462
 4795SOL    HW215285   6.366   1.318   3.554
 4796SOL     OW15286   5.316   2.295   6.288
 4796SOL    HW115287   5.257   2.240   6.229
 4796SOL    HW215288   5.362   2.365   6.233
 4797SOL     OW15289   1.471   6.592   4.761
 4797SOL    HW115290   1.491   6.603   4.859
 4797SOL    HW215291   1.518   6.511   4.727
 4798SOL     OW15292   6.884   2.983   5.549
 4798SOL    HW115293   6.886   2.954   5.645
 4798SOL    HW215294   6.915   3.078   5.543
 4799SOL     OW15295   5.152   2.125   6.117
 4799SOL    HW115296   5.063   2.080   6.114
 4799SOL    HW215297   5.219   2.071   6.067
 4800SOL     OW15298   2.795   3.409   5.776
 4800SOL    HW115299   2.888   3.424   5.741
 4800SOL    HW215300   2.800   3.380   5.872
 4801SOL     OW15301   2.329   2.436   0.104
 4801SOL    HW115302   2.412   2.433   0.048
 4801SOL    HW215303   2.250   2.412   0.048
 4802SOL     OW15304   0.759   6.523   2.170
 4802SOL    HW115305   0.664   6.517   2.201
 4802SOL    HW215306   0.814   6.570   2.240
 4803SOL     OW15307   1.117   6.720   0.453
 4803SOL    HW115308   1.055   6.683   0.384
 4803SOL    HW215309   1.091   6.814   0.474
 4804SOL     OW15310   4.534   5.297   6.554
 4804SOL    HW115311   4.624   5.338   6.569
 4804SOL    HW215312   4.501   5.321   6.462
 4805SOL     OW15313   6.289   6.800   1.453
 4805SOL    HW115314   6.290   6.868   1.379
 4805SOL    HW215315   6.350   6.724   1.429
 4806SOL     OW15316   0.134   4.290   3.192
 4806SOL    HW115317   0.089   4.219   3.246
 4806SOL    HW215318   0.147   4.372   3.247
 4807SOL     OW15319   1.373   5.408   0.667
 4807SOL    HW115320   1.313   5.479   0.704
 4807SOL    HW215321   1.452   5.452   0.624
 4808SOL     OW15322   6.724   3.802   6.654
 4808SOL    HW115323   6.796   3.853   6.701
 4808SOL    HW215324   6.724   3.707   6.686
 4809SOL     OW15325   3.550   3.956   6.509
 4809SOL    HW115326   3.494   3.959   6.592
 4809SOL    HW215327   3.604   4.039   6.502
 4810SOL     OW15328   1.319   4.806   2.642
 4810SOL    HW115329   1.261   4.879   2.677
 4810SOL    HW215330   1.264   4.744   2.585
 4811SOL     OW15331   2.231   4.741   2.178
 4811SOL    HW115332   2.232   4.646   2.147
 4811SOL    HW215333   2.322   4.780   2.169
 4812SOL     OW15334   0.204   5.111   5.441
 4812SOL    HW115335   0.294   5.067   5.434
 4812SOL    HW215336   0.132   5.041   5.437
 4813SOL     OW15337   5.454   1.888   1.230
 4813SOL    HW115338   5.494   1.905   1.319
 4813SOL    HW215339   5.360   1.923   1.228
 4814SOL     OW15340   5.709   4.446   0.603
 4814SOL    HW115341   5.725   4.393   0.686
 4814SOL    HW215342   5.753   4.401   0.526
 4815SOL     OW15343   5.348   4.509   2.626
 4815SOL    HW115344   5.316   4.415   2.640
 4815SOL    HW215345   5.271   4.566   2.597
 4816SOL     OW15346   6.543   5.213   2.999
 4816SOL    HW115347   6.524   5.304   2.963
 4816SOL    HW215348   6.599   5.161   2.934
 4817SOL     OW15349   0.711   1.972   6.409
 4817SOL    HW115350   0.651   2.046   6.437
 4817SOL    HW215351   0.672   1.884   6.439
 4818SOL     OW15352   0.777   6.806   4.453
 4818SOL    HW115353   0.684   6.790   4.422
 4818SOL    HW215354   0.842   6.765   4.388
 4819SOL     OW15355   1.401   2.595   0.654
 4819SOL    HW115356   1.437   2.575   0.745
 4819SOL    HW215357   1.340   2.521   0.625
 4820SOL     OW15358   7.017   2.812   1.752
 4820SOL    HW115359   6.926   2.805   1.712
 4820SOL    HW215360   7.018   2.764   1.840
 4821SOL     OW15361   0.637   6.218   2.817
 4821SOL    HW115362   0.632   6.202   2.915
 4821SOL    HW215363   0.547   6.202   2.776
 4822SOL     OW15364   1.280   3.517   4.883
 4822SOL    HW115365   1.215   3.475   4.820
 4822SOL    HW215366   1.364   3.540   4.833
 4823SOL     OW15367   1.746   1.700   3.663
 4823SOL    HW115368   1.784   1.620   3.710
 4823SOL    HW215369   1.788   1.708   3.572
 4824SOL     OW15370   5.448   2.442   5.409
 4824SOL    HW115371   5.431   2.357   5.358
 4824SOL    HW215372   5.372   2.505   5.395
 4825SOL     OW15373   1.410   2.312   4.273
 4825SOL    HW115374   1.436   2.283   4.365
 4825SOL    HW215375   1.356   2.395   4.278
 4826SOL     OW15376   5.988   0.511   0.714
 4826SOL    HW115377   6.055   0.437   0.715
 4826SOL    HW215378   6.016   0.582   0.779
 4827SOL     OW15379   6.506   2.262   1.108
 4827SOL    HW115380   6.448   2.327   1.059
 4827SOL    HW215381   6.597   2.303   1.122
 4828SOL     OW15382   5.202   0.878   1.217
 4828SOL    HW115383   5.163   0.903   1.128
 4828SOL    HW215384   5.201   0.958   1.277
 4829SOL     OW15385   4.080   0.406   6.322
 4829SOL    HW115386   4.171   0.369   6.302
 4829SOL    HW215387   4.066   0.406   6.421
 4830SOL     OW15388   3.534   5.575   3.850
 4830SOL    HW115389   3.632   5.566   3.833
 4830SOL    HW215390   3.515   5.666   3.888
 4831SOL     OW15391   2.198   5.078   5.055
 4831SOL    HW115392   2.145   5.157   5.088
 4831SOL    HW215393   2.294   5.103   5.049
 4832SOL     OW15394   3.024   3.649   3.759
 4832SOL    HW115395   2.982   3.720   3.702
 4832SOL    HW215396   3.002   3.665   3.855
 4833SOL     OW15397   5.529   1.944   2.770
 4833SOL    HW115398   5.619   1.934   2.727
 4833SOL    HW215399   5.515   2.040   2.796
 4834SOL     OW15400   2.308   6.137   2.309
 4834SOL    HW115401   2.327   6.235   2.317
 4834SOL    HW215402   2.267   6.118   2.220
 4835SOL     OW15403   6.285   2.898   6.198
 4835SOL    HW115404   6.370   2.936   6.162
 4835SOL    HW215405   6.212   2.908   6.131
 4836SOL     OW15406   5.382   1.181   4.956
 4836SOL    HW115407   5.474   1.143   4.969
 4836SOL    HW215408   5.377   1.272   4.997
 4837SOL     OW15409   6.789   4.000   3.002
 4837SOL    HW115410   6.720   3.992   3.074
 4837SOL    HW215411   6.834   4.089   3.008
 4838SOL     OW15412   2.447   5.942   0.052
 4838SOL    HW115413   2.454   6.029   0.102
 4838SOL    HW215414   2.362   5.941   7.022
 4839SOL     OW15415   1.521   3.382   0.333
 4839SOL    HW115416   1.583   3.453   0.365
 4839SOL    HW215417   1.430   3.421   0.316
 4840SOL     OW15418   6.294   3.890   5.918
 4840SOL    HW115419   6.242   3.900   5.833
 4840SOL    HW215420   6.323   3.980   5.951
 4841SOL     OW15421   2.738   5.476   3.069
 4841SOL    HW115422   2.785   5.497   2.982
 4841SOL    HW215423   2.793   5.412   3.122
 4842SOL     OW15424   2.750   5.148   3.466
 4842SOL    HW115425   2.686   5.162   3.391
 4842SOL    HW215426   2.789   5.056   3.461
 4843SOL     OW15427   6.908   2.135   2.150
 4843SOL    HW115428   6.959   2.066   2.099
 4843SOL    HW215429   6.842   2.180   2.090
 4844SOL     OW15430   0.322   4.059   5.233
 4844SOL    HW115431   0.284   4.021   5.148
 4844SOL    HW215432   0.248   4.101   5.286
 4845SOL     OW15433   4.367   4.942   5.724
 4845SOL    HW115434   4.383   5.011   5.654
 4845SOL    HW215435   4.327   4.861   5.683
 4846SOL     OW15436   0.351   1.696   3.445
 4846SOL    HW115437   0.351   1.758   3.524
 4846SOL    HW215438   0.381   1.745   3.364
 4847SOL     OW15439   2.326   1.586   5.438
 4847SOL    HW115440   2.420   1.580   5.405
 4847SOL    HW215441   2.264   1.557   5.364
 4848SOL     OW15442   2.693   1.388   4.207
 4848SOL    HW115443   2.752   1.446   4.263
 4848SOL    HW215444   2.647   1.445   4.138
 4849SOL     OW15445   2.068   6.629   0.546
 4849SOL    HW115446   2.005   6.660   0.474
 4849SOL    HW215447   2.028   6.550   0.593
 4850SOL     OW15448   4.850   0.604   1.206
 4850SOL    HW115449   4.848   0.574   1.110
 4850SOL    HW215450   4.786   0.549   1.259
 4851SOL     OW15451   4.000   5.373   6.616
 4851SOL    HW115452   4.075   5.435   6.639
 4851SOL    HW215453   4.038   5.287   6.581
 4852SOL     OW15454   2.771   5.624   4.862
 4852SOL    HW115455   2.779   5.638   4.763
 4852SOL    HW215456   2.684   5.580   4.882
 4853SOL     OW15457   4.122   1.509   3.766
 4853SOL    HW115458   4.089   1.415   3.754
 4853SOL    HW215459   4.066   1.555   3.834
 4854SOL     OW15460   4.683   6.701   1.765
 4854SOL    HW115461   4.680   6.744   1.675
 4854SOL    HW215462   4.707   6.769   1.834
 4855SOL     OW15463   6.349   3.295   5.051
 4855SOL    HW115464   6.401   3.342   5.122
 4855SOL    HW215465   6.321   3.360   4.981
 4856SOL     OW15466   0.602   2.799   2.867
 4856SOL    HW115467   0.639   2.742   2.794
 4856SOL    HW215468   0.585   2.891   2.831
 4857SOL     OW15469   3.478   1.465   3.271
 4857SOL    HW115470   3.462   1.372   3.305
 4857SOL    HW215471   3.415   1.484   3.196
 4858SOL     OW15472   0.684   0.145   4.832
 4858SOL    HW115473   0.779   0.135   4.862
 4858SOL    HW215474   0.681   0.199   4.748
 4859SOL     OW15475   1.069   5.141   1.821
 4859SOL    HW115476   1.091   5.236   1.842
 4859SOL    HW215477   0.995   5.109   1.880
 4860SOL     OW15478   4.318   4.186   0.427
 4860SOL    HW115479   4.328   4.280   0.457
 4860SOL    HW215480   4.264   4.135   0.495
 4861SOL     OW15481   6.057   5.671   6.527
 4861SOL    HW115482   6.007   5.608   6.468
 4861SOL    HW215483   6.105   5.619   6.598
 4862SOL     OW15484   2.649   4.653   4.426
 4862SOL    HW115485   2.574   4.717   4.410
 4862SOL    HW215486   2.614   4.570   4.468
 4863SOL     OW15487   4.929   3.211   2.866
 4863SOL    HW115488   4.867   3.150   2.816
 4863SOL    HW215489   4.976   3.271   2.801
 4864SOL     OW15490   3.182   1.513   1.690
 4864SOL    HW115491   3.108   1.579   1.677
 4864SOL    HW215492   3.226   1.529   1.779
 4865SOL     OW15493   2.415   5.359   5.337
 4865SOL    HW115494   2.398   5.452   5.305
 4865SOL    HW215495   2.459   5.363   5.427
 4866SOL     OW15496   6.391   5.095   1.381
 4866SOL    HW115497   6.395   5.005   1.336
 4866SOL    HW215498   6.359   5.084   1.475
 4867SOL     OW15499   4.365   5.538   3.788
 4867SOL    HW115500   4.358   5.619   3.845
 4867SOL    HW215501   4.323   5.556   3.699
 4868SOL     OW15502   0.455   5.560   1.494
 4868SOL    HW115503   0.503   5.500   1.429
 4868SOL    HW215504   0.427   5.507   1.574
 4869SOL     OW15505   6.706   2.494   1.199
 4869SOL    HW115506   6.642   2.478   1.274
 4869SOL    HW215507   6.778   2.425   1.200
 4870SOL     OW15508   4.775   4.869   1.620
 4870SOL    HW115509   4.731   4.799   1.675
 4870SOL    HW215510   4.705   4.923   1.573
 4871SOL     OW15511   1.203   0.414   3.927
 4871SOL    HW115512   1.231   0.416   4.023
 4871SOL    HW215513   1.138   0.488   3.910
 4872SOL     OW15514   1.000   6.951   3.081
 4872SOL    HW115515   1.084   7.002   3.062
 4872SOL    HW215516   1.004   6.914   3.174
 4873SOL     OW15517   0.108   4.989   4.236
 4873SOL    HW115518   0.082   4.913   4.177
 4873SOL    HW215519   0.093   4.963   4.331
 4874SOL     OW15520   5.764   3.805   2.169
 4874SOL    HW115521   5.731   3.892   2.134
 4874SOL    HW215522   5.864   3.800   2.158
 4875SOL     OW15523   5.788   2.477   0.816
 4875SOL    HW115524   5.782   2.380   0.792
 4875SOL    HW215525   5.730   2.496   0.896
 4876SOL     OW15526   5.676   0.605   5.278
 4876SOL    HW115527   5.693   0.702   5.294
 4876SOL    HW215528   5.761   0.554   5.291
 4877SOL     OW15529   6.996   1.241   1.079
 4877SOL    HW115530   6.993   1.217   1.176
 4877SOL    HW215531   0.025   1.326   1.068
 4878SOL     OW15532   0.130   1.247   2.368
 4878SOL    HW115533   0.199   1.186   2.407
 4878SOL    HW215534   0.166   1.340   2.366
 4879SOL     OW15535   4.424   4.537   2.844
 4879SOL    HW115536   4.397   4.574   2.755
 4879SOL    HW215537   4.352   4.477   2.879
 4880SOL     OW15538   5.409   2.098   6.626
 4880SOL    HW115539   5.312   2.118   6.611
 4880SOL    HW215540   5.446   2.053   6.545
 4881SOL     OW15541   2.179   5.912   6.924
 4881SOL    HW115542   2.230   5.869   6.850
 4881SOL    HW215543   2.124   5.843   6.971
 4882SOL     OW15544   6.203   1.492   5.633
 4882SOL    HW115545   6.235   1.413   5.580
 4882SOL    HW215546   6.173   1.461   5.723
 4883SOL     OW15547   4.858   4.850   2.361
 4883SOL    HW115548   4.914   4.782   2.313
 4883SOL    HW215549   4.880   4.848   2.459
 4884SOL     OW15550   4.530   0.093   1.415
 4884SOL    HW115551   4.430   0.089   1.417
 4884SOL    HW215552   4.559   0.118   1.322
 4885SOL     OW15553   2.235   6.425   2.280
 4885SOL    HW115554   2.185   6.475   2.351
 4885SOL    HW215555   2.171   6.391   2.212
 4886SOL     OW15556   0.366   6.804   5.984
 4886SOL    HW115557   0.301   6.731   6.004
 4886SOL    HW215558   0.318   6.881   5.942
 4887SOL     OW15559   7.004   1.815   3.276
 4887SOL    HW115560   0.016   1.729   3.238
 4887SOL    HW215561   6.914   1.834   3.237
 4888SOL     OW15562   1.835   6.541   3.751
 4888SOL    HW115563   1.803   6.553   3.657
 4888SOL    HW215564   1.933   6.559   3.755
 4889SOL     OW15565   0.487   1.917   0.467
 4889SOL    HW115566   0.451   1.919   0.560
 4889SOL    HW215567   0.477   1.825   0.429
 4890SOL     OW15568   0.467   1.696   4.193
 4890SOL    HW115569   0.547   1.756   4.200
 4890SOL    HW215570   0.389   1.749   4.159
 4891SOL     OW15571   0.480   5.548   0.135
 4891SOL    HW115572   0.551   5.609   0.171
 4891SOL    HW215573   0.514   5.454   0.136
 4892SOL     OW15574   1.785   5.821   2.818
 4892SOL    HW115575   1.712   5.775   2.868
 4892SOL    HW215576   1.864   5.834   2.878
 4893SOL     OW15577   6.776   4.311   6.494
 4893SOL    HW115578   6.799   4.228   6.443
 4893SOL    HW215579   6.709   4.289   6.565
 4894SOL     OW15580   2.475   6.836   2.732
 4894SOL    HW115581   2.425   6.795   2.655
 4894SOL    HW215582   2.424   6.819   2.817
 4895SOL     OW15583   0.698   4.185   1.096
 4895SOL    HW115584   0.787   4.184   1.143
 4895SOL    HW215585   0.698   4.119   1.022
 4896SOL     OW15586   2.827   5.226   2.924
 4896SOL    HW115587   2.927   5.231   2.932
 4896SOL    HW215588   2.796   5.135   2.951
 4897SOL     OW15589   3.087   5.253   5.840
 4897SOL    HW115590   3.028   5.172   5.835
 4897SOL    HW215591   3.178   5.230   5.806
 4898SOL     OW15592   5.656   2.640   5.117
 4898SOL    HW115593   5.725   2.673   5.182
 4898SOL    HW215594   5.642   2.542   5.130
 4899SOL     OW15595   6.370   4.706   3.061
 4899SOL    HW115596   6.412   4.792   3.033
 4899SOL    HW215597   6.422   4.666   3.137
 4900SOL     OW15598   1.191   6.561   5.355
 4900SOL    HW115599   1.282   6.570   5.395
 4900SOL    HW215600   1.133   6.638   5.384
 4901SOL     OW15601   2.143   6.433   4.498
 4901SOL    HW115602   2.080   6.510   4.506
 4901SOL    HW215603   2.110   6.357   4.554
 4902SOL     OW15604   1.915   3.059   3.357
 4902SOL    HW115605   1.816   3.063   3.374
 4902SOL    HW215606   1.931   3.023   3.265
 4903SOL     OW15607   3.850   6.420   0.010
 4903SOL    HW115608   3.761   6.465   0.003
 4903SOL    HW215609   3.838   6.332   0.056
 4904SOL     OW15610   1.875   6.575   4.200
 4904SOL    HW115611   1.796   6.579   4.262
 4904SOL    HW215612   1.896   6.666   4.166
 4905SOL     OW15613   4.411   2.283   2.051
 4905SOL    HW115614   4.474   2.346   2.006
 4905SOL    HW215615   4.447   2.256   2.140
 4906SOL     OW15616   3.676   0.017   0.140
 4906SOL    HW115617   3.743   6.976   0.103
 4906SOL    HW215618   3.706   0.111   0.122
 4907SOL     OW15619   4.090   6.562   2.533
 4907SOL    HW115620   4.020   6.627   2.563
 4907SOL    HW215621   4.124   6.589   2.443
 4908SOL     OW15622   4.076   5.658   0.177
 4908SOL    HW115623   4.064   5.676   0.275
 4908SOL    HW215624   4.008   5.709   0.126
 4909SOL     OW15625   6.066   0.827   6.689
 4909SOL    HW115626   6.016   0.741   6.705
 4909SOL    HW215627   6.131   0.842   6.762
 4910SOL     OW15628   4.926   0.268   5.604
 4910SOL    HW115629   4.974   0.272   5.691
 4910SOL    HW215630   4.828   0.281   5.619
 4911SOL     OW15631   6.977   1.923   5.609
 4911SOL    HW115632   6.982   2.023   5.601
 4911SOL    HW215633   6.883   1.894   5.592
 4912SOL     OW15634   5.391   1.424   1.733
 4912SOL    HW115635   5.385   1.496   1.802
 4912SOL    HW215636   5.487   1.410   1.707
 4913SOL     OW15637   3.579   3.936   3.889
 4913SOL    HW115638   3.653   4.004   3.885
 4913SOL    HW215639   3.617   3.845   3.878
 4914SOL     OW15640   2.882   0.842   4.549
 4914SOL    HW115641   2.863   0.925   4.498
 4914SOL    HW215642   2.806   0.777   4.538
 4915SOL     OW15643   4.275   6.846   4.510
 4915SOL    HW115644   4.291   6.925   4.570
 4915SOL    HW215645   4.242   6.769   4.565
 4916SOL     OW15646   2.594   1.598   3.029
 4916SOL    HW115647   2.543   1.646   3.099
 4916SOL    HW215648   2.666   1.543   3.071
 4917SOL     OW15649   1.279   3.928   0.706
 4917SOL    HW115650   1.356   3.974   0.750
 4917SOL    HW215651   1.298   3.830   0.698
 4918SOL     OW15652   3.334   0.129   2.811
 4918SOL    HW115653   3.265   0.059   2.830
 4918SOL    HW215654   3.423   0.085   2.797
 4919SOL     OW15655   1.801   2.342   3.102
 4919SOL    HW115656   1.829   2.292   3.020
 4919SOL    HW215657   1.864   2.418   3.118
 4920SOL     OW15658   4.287   0.576   6.807
 4920SOL    HW115659   4.224   0.650   6.785
 4920SOL    HW215660   4.253   0.490   6.769
 4921SOL     OW15661   2.316   4.132   1.587
 4921SOL    HW115662   2.403   4.177   1.609
 4921SOL    HW215663   2.283   4.082   1.667
 4922SOL     OW15664   1.067   3.476   5.233
 4922SOL    HW115665   1.033   3.397   5.285
 4922SOL    HW215666   1.014   3.557   5.256
 4923SOL     OW15667   4.623   0.417   1.622
 4923SOL    HW115668   4.622   0.321   1.653
 4923SOL    HW215669   4.692   0.467   1.675
 4924SOL     OW15670   2.403   3.497   5.351
 4924SOL    HW115671   2.334   3.567   5.370
 4924SOL    HW215672   2.490   3.523   5.394
 4925SOL     OW15673   5.722   6.129   0.762
 4925SOL    HW115674   5.784   6.150   0.687
 4925SOL    HW215675   5.770   6.075   0.831
 4926SOL     OW15676   4.538   2.627   1.750
 4926SOL    HW115677   4.555   2.574   1.667
 4926SOL    HW215678   4.610   2.695   1.762
 4927SOL     OW15679   3.884   3.049   3.317
 4927SOL    HW115680   3.866   2.982   3.246
 4927SOL    HW215681   3.969   3.097   3.297
 4928SOL     OW15682   0.148   6.996   6.311
 4928SOL    HW115683   0.220   6.928   6.327
 4928SOL    HW215684   0.190   0.062   6.293
 4929SOL     OW15685   0.986   4.223   5.361
 4929SOL    HW115686   0.929   4.202   5.440
 4929SOL    HW215687   0.999   4.322   5.354
 4930SOL     OW15688   0.630   1.354   6.962
 4930SOL    HW115689   0.574   1.366   6.880
 4930SOL    HW215690   0.646   1.443   7.005
 4931SOL     OW15691   0.779   0.129   6.800
 4931SOL    HW115692   0.722   0.153   6.878
 4931SOL    HW215693   0.807   0.033   6.807
 4932SOL     OW15694   2.125   3.384   1.731
 4932SOL    HW115695   2.191   3.398   1.806
 4932SOL    HW215696   2.037   3.358   1.770
 4933SOL     OW15697   2.025   0.790   4.024
 4933SOL    HW115698   1.943   0.840   4.052
 4933SOL    HW215699   2.092   0.792   4.098
 4934SOL     OW15700   1.063   5.108   4.250
 4934SOL    HW115701   1.142   5.057   4.284
 4934SOL    HW215702   1.074   5.125   4.152
 4935SOL     OW15703   1.775   0.954   6.981
 4935SOL    HW115704   1.725   0.902   0.027
 4935SOL    HW215705   1.831   1.024   0.003
 4936SOL     OW15706   2.468   6.274   1.860
 4936SOL    HW115707   2.513   6.243   1.944
 4936SOL    HW215708   2.440   6.369   1.871
 4937SOL     OW15709   0.761   4.171   6.081
 4937SOL    HW115710   0.810   4.142   6.163
 4937SOL    HW215711   0.820   4.156   6.001
 4938SOL     OW15712   3.317   4.856   2.113
 4938SOL    HW115713   3.393   4.811   2.067
 4938SOL    HW215714   3.230   4.821   2.078
 4939SOL     OW15715   1.235   2.406   2.356
 4939SOL    HW115716   1.215   2.331   2.419
 4939SOL    HW215717   1.334   2.410   2.340
 4940SOL     OW15718   0.183   1.771   5.156
 4940SOL    HW115719   0.189   1.841   5.228
 4940SOL    HW215720   0.275   1.747   5.125
 4941SOL     OW15721   4.012   2.742   5.318
 4941SOL    HW115722   3.928   2.777   5.277
 4941SOL    HW215723   4.038   2.657   5.273
 4942SOL     OW15724   5.495   3.306   3.286
 4942SOL    HW115725   5.509   3.390   3.338
 4942SOL    HW215726   5.584   3.265   3.263
 4943SOL     OW15727   5.415   4.035   6.232
 4943SOL    HW115728   5.475   3.993   6.301
 4943SOL    HW215729   5.383   3.965   6.169
 4944SOL     OW15730   2.342   4.534   1.163
 4944SOL    HW115731   2.366   4.622   1.204
 4944SOL    HW215732   2.301   4.475   1.233
 4945SOL     OW15733   1.445   0.757   4.732
 4945SOL    HW115734   1.477   0.829   4.671
 4945SOL    HW215735   1.494   0.672   4.712
 4946SOL     OW15736   1.068   5.045   0.173
 4946SOL    HW115737   1.080   5.072   0.078
 4946SOL    HW215738   1.157   5.019   0.212
 4947SOL     OW15739   2.732   0.922   2.146
 4947SOL    HW115740   2.752   1.011   2.186
 4947SOL    HW215741   2.633   0.909   2.143
 4948SOL     OW15742   1.745   2.518   2.768
 4948SOL    HW115743   1.690   2.434   2.763
 4948SOL    HW215744   1.706   2.580   2.836
 4949SOL     OW15745   6.252   3.637   5.977
 4949SOL    HW115746   6.237   3.734   5.959
 4949SOL    HW215747   6.350   3.617   5.973
 4950SOL     OW15748   1.976   3.888   5.382
 4950SOL    HW115749   2.028   3.920   5.461
 4950SOL    HW215750   1.880   3.916   5.392
 4951SOL     OW15751   6.041   6.351   4.607
 4951SOL    HW115752   6.067   6.361   4.703
 4951SOL    HW215753   5.998   6.261   4.594
 4952SOL     OW15754   0.166   0.360   6.390
 4952SOL    HW115755   0.133   0.452   6.368
 4952SOL    HW215756   0.237   0.366   6.461
 4953SOL     OW15757   2.311   1.023   4.291
 4953SOL    HW115758   2.290   1.063   4.381
 4953SOL    HW215759   2.399   1.057   4.260
 4954SOL     OW15760   2.036   3.968   6.299
 4954SOL    HW115761   1.994   3.945   6.387
 4954SOL    HW215762   2.022   4.066   6.280
 4955SOL     OW15763   3.348   5.601   0.131
 4955SOL    HW115764   3.298   5.629   0.049
 4955SOL    HW215765   3.347   5.502   0.139
 4956SOL     OW15766   3.081   0.575   5.755
 4956SOL    HW115767   3.008   0.532   5.809
 4956SOL    HW215768   3.040   0.631   5.683
 4957SOL     OW15769   6.223   3.195   0.168
 4957SOL    HW115770   6.182   3.133   0.235
 4957SOL    HW215771   6.152   3.228   0.106
 4958SOL     OW15772   2.074   6.097   5.883
 4958SOL    HW115773   1.987   6.135   5.853
 4958SOL    HW215774   2.068   6.072   5.979
 4959SOL     OW15775   6.462   1.817   1.593
 4959SOL    HW115776   6.554   1.857   1.591
 4959SOL    HW215777   6.401   1.869   1.534
 4960SOL     OW15778   4.159   4.789   3.453
 4960SOL    HW115779   4.086   4.823   3.394
 4960SOL    HW215780   4.235   4.758   3.397
 4961SOL     OW15781   3.476   0.656   6.299
 4961SOL    HW115782   3.477   0.755   6.282
 4961SOL    HW215783   3.431   0.610   6.223
 4962SOL     OW15784   5.617   2.498   1.017
 4962SOL    HW115785   5.560   2.419   0.995
 4962SOL    HW215786   5.584   2.541   1.102
 4963SOL     OW15787   1.557   5.324   1.192
 4963SOL    HW115788   1.587   5.417   1.214
 4963SOL    HW215789   1.539   5.317   1.094
 4964SOL     OW15790   2.155   6.522   4.902
 4964SOL    HW115791   2.067   6.566   4.882
 4964SOL    HW215792   2.153   6.428   4.869
 4965SOL     OW15793   0.920   6.683   2.688
 4965SOL    HW115794   0.827   6.650   2.670
 4965SOL    HW215795   0.916   6.775   2.727
 4966SOL     OW15796   1.848   6.256   4.395
 4966SOL    HW115797   1.858   6.278   4.298
 4966SOL    HW215798   1.751   6.251   4.419
 4967SOL     OW15799   2.964   5.352   6.093
 4967SOL    HW115800   2.969   5.300   6.179
 4967SOL    HW215801   3.022   5.309   6.025
 4968SOL     OW15802   0.098   1.146   3.719
 4968SOL    HW115803   0.056   1.141   3.810
 4968SOL    HW215804   0.140   1.235   3.706
 4969SOL     OW15805   0.634   5.771   2.885
 4969SOL    HW115806   0.710   5.768   2.819
 4969SOL    HW215807   0.580   5.687   2.877
 4970SOL     OW15808   2.216   0.755   1.039
 4970SOL    HW115809   2.276   0.777   1.116
 4970SOL    HW215810   2.147   0.689   1.068
 4971SOL     OW15811   6.648   6.151   3.285
 4971SOL    HW115812   6.713   6.147   3.208
 4971SOL    HW215813   6.557   6.126   3.252
 4972SOL     OW15814   1.079   4.292   0.672
 4972SOL    HW115815   1.140   4.217   0.646
 4972SOL    HW215816   1.101   4.373   0.618
 4973SOL     OW15817   0.566   0.501   1.768
 4973SOL    HW115818   0.548   0.593   1.732
 4973SOL    HW215819   0.479   0.451   1.773
 4974SOL     OW15820   6.027   4.769   1.163
 4974SOL    HW115821   5.985   4.849   1.206
 4974SOL    HW215822   5.977   4.747   1.079
 4975SOL     OW15823   5.540   4.074   0.553
 4975SOL    HW115824   5.514   3.985   0.591
 4975SOL    HW215825   5.635   4.071   0.523
 4976SOL     OW15826   1.418   0.197   4.634
 4976SOL    HW115827   1.352   0.236   4.570
 4976SOL    HW215828   1.375   0.185   4.723
 4977SOL     OW15829   3.647   4.196   6.434
 4977SOL    HW115830   3.585   4.275   6.440
 4977SOL    HW215831   3.711   4.209   6.358
 4978SOL     OW15832   5.676   4.764   4.565
 4978SOL    HW115833   5.734   4.693   4.605
 4978SOL    HW215834   5.585   4.760   4.608
 4979SOL     OW15835   7.002   6.612   6.406
 4979SOL    HW115836   6.957   6.590   6.320
 4979SOL    HW215837   0.072   6.645   6.388
 4980SOL     OW15838   5.381   5.089   2.658
 4980SOL    HW115839   5.403   5.131   2.570
 4980SOL    HW215840   5.300   5.031   2.648
 4981SOL     OW15841   3.896   5.805   1.992
 4981SOL    HW115842   3.956   5.877   1.956
 4981SOL    HW215843   3.896   5.727   1.929
 4982SOL     OW15844   3.450   2.029   6.029
 4982SOL    HW115845   3.540   2.073   6.036
 4982SOL    HW215846   3.381   2.085   6.074
 4983SOL     OW15847   6.054   4.601   4.868
 4983SOL    HW115848   6.153   4.615   4.860
 4983SOL    HW215849   6.036   4.531   4.937
 4984SOL     OW15850   4.713   4.194   2.731
 4984SOL    HW115851   4.664   4.243   2.658
 4984SOL    HW215852   4.798   4.242   2.752
 4985SOL     OW15853   5.233   6.043   2.793
 4985SOL    HW115854   5.239   6.102   2.712
 4985SOL    HW215855   5.321   6.042   2.840
 4986SOL     OW15856   6.151   4.960   0.325
 4986SOL    HW115857   6.189   5.036   0.273
 4986SOL    HW215858   6.080   4.995   0.387
 4987SOL     OW15859   1.141   6.380   1.968
 4987SOL    HW115860   1.145   6.281   1.957
 4987SOL    HW215861   1.233   6.419   1.957
 4988SOL     OW15862   5.951   1.033   3.498
 4988SOL    HW115863   5.887   0.956   3.492
 4988SOL    HW215864   5.989   1.039   3.590
 4989SOL     OW15865   5.039   0.409   1.775
 4989SOL    HW115866   5.045   0.317   1.737
 4989SOL    HW215867   5.050   0.476   1.701
 4990SOL     OW15868   3.218   2.485   6.465
 4990SOL    HW115869   3.124   2.458   6.442
 4990SOL    HW215870   3.260   2.413   6.520
 4991SOL     OW15871   6.819   4.967   3.953
 4991SOL    HW115872   6.757   4.955   3.875
 4991SOL    HW215873   6.832   5.064   3.970
 4992SOL     OW15874   5.654   0.986   2.652
 4992SOL    HW115875   5.587   1.026   2.589
 4992SOL    HW215876   5.740   0.971   2.603
 4993SOL     OW15877   3.869   5.862   5.068
 4993SOL    HW115878   3.793   5.857   5.133
 4993SOL    HW215879   3.850   5.804   4.989
 4994SOL     OW15880   2.585   5.761   5.163
 4994SOL    HW115881   2.664   5.750   5.103
 4994SOL    HW215882   2.587   5.853   5.203
 4995SOL     OW15883   1.248   1.044   5.390
 4995SOL    HW115884   1.267   0.997   5.476
 4995SOL    HW215885   1.288   1.135   5.392
 4996SOL     OW15886   6.892   0.740   3.453
 4996SOL    HW115887   6.898   0.650   3.410
 4996SOL    HW215888   6.911   0.810   3.384
 4997SOL     OW15889   3.834   2.250   1.204
 4997SOL    HW115890   3.765   2.261   1.132
 4997SOL    HW215891   3.867   2.156   1.204
 4998SOL     OW15892   1.889   3.307   4.507
 4998SOL    HW115893   1.810   3.271   4.458
 4998SOL    HW215894   1.967   3.246   4.493
 4999SOL     OW15895   6.865   3.241   4.278
 4999SOL    HW115896   6.868   3.256   4.377
 4999SOL    HW215897   6.925   3.165   4.254
 5000SOL     OW15898   3.266   6.956   3.128
 5000SOL    HW115899   3.361   6.954   3.160
 5000SOL    HW215900   3.208   6.998   3.199
 5001SOL     OW15901   0.840   5.856   2.572
 5001SOL    HW115902   0.847   5.952   2.599
 5001SOL    HW215903   0.918   5.831   2.515
 5002SOL     OW15904   0.198   5.011   1.800
 5002SOL    HW115905   0.176   4.915   1.818
 5002SOL    HW215906   0.261   5.017   1.723
 5003SOL     OW15907   4.633   6.254   3.022
 5003SOL    HW115908   4.578   6.308   3.086
 5003SOL    HW215909   4.601   6.159   3.023
 5004SOL     OW15910   2.293   4.614   5.758
 5004SOL    HW115911   2.212   4.625   5.816
 5004SOL    HW215912   2.318   4.702   5.718
 5005SOL     OW15913   2.864   2.780   6.378
 5005SOL    HW115914   2.951   2.754   6.337
 5005SOL    HW215915   2.794   2.788   6.307
 5006SOL     OW15916   5.821   1.055   2.100
 5006SOL    HW115917   5.871   1.019   2.021
 5006SOL    HW215918   5.739   1.000   2.115
 5007SOL     OW15919   6.891   0.202   1.190
 5007SOL    HW115920   6.975   0.254   1.173
 5007SOL    HW215921   6.812   0.262   1.180
 5008SOL     OW15922   5.764   5.840   1.545
 5008SOL    HW115923   5.701   5.778   1.592
 5008SOL    HW215924   5.858   5.807   1.556
 5009SOL     OW15925   0.160   2.513   0.264
 5009SOL    HW115926   0.101   2.501   0.343
 5009SOL    HW215927   0.228   2.440   0.262
 5010SOL     OW15928   4.392   2.224   0.731
 5010SOL    HW115929   4.418   2.318   0.755
 5010SOL    HW215930   4.415   2.207   0.636
 5011SOL     OW15931   1.966   4.521   1.206
 5011SOL    HW115932   2.037   4.566   1.260
 5011SOL    HW215933   1.929   4.444   1.257
 5012SOL     OW15934   6.090   2.393   5.333
 5012SOL    HW115935   6.106   2.416   5.236
 5012SOL    HW215936   6.123   2.468   5.390
 5013SOL     OW15937   5.253   0.780   6.541
 5013SOL    HW115938   5.324   0.772   6.611
 5013SOL    HW215939   5.209   0.869   6.548
 5014SOL     OW15940   6.409   3.997   0.317
 5014SOL    HW115941   6.497   4.045   0.322
 5014SOL    HW215942   6.343   4.042   0.377
 5015SOL     OW15943   4.724   0.861   4.650
 5015SOL    HW115944   4.626   0.877   4.660
 5015SOL    HW215945   4.774   0.909   4.722
 5016SOL     OW15946   0.921   2.855   5.117
 5016SOL    HW115947   0.975   2.921   5.064
 5016SOL    HW215948   0.982   2.792   5.164
 5017SOL     OW15949   1.651   2.450   1.198
 5017SOL    HW115950   1.581   2.416   1.261
 5017SOL    HW215951   1.643   2.549   1.190
 5018SOL     OW15952   1.296   5.260   3.031
 5018SOL    HW115953   1.329   5.187   3.091
 5018SOL    HW215954   1.345   5.257   2.944
 5019SOL     OW15955   2.374   6.570   5.854
 5019SOL    HW115956   2.388   6.498   5.923
 5019SOL    HW215957   2.299   6.543   5.794
 5020SOL     OW15958   6.827   0.180   6.198
 5020SOL    HW115959   6.801   0.256   6.137
 5020SOL    HW215960   6.754   0.164   6.264
 5021SOL     OW15961   1.285   1.100   1.135
 5021SOL    HW115962   1.319   1.191   1.110
 5021SOL    HW215963   1.189   1.107   1.164
 5022SOL     OW15964   1.196   2.406   1.602
 5022SOL    HW115965   1.164   2.500   1.590
 5022SOL    HW215966   1.206   2.387   1.699
 5023SOL     OW15967   0.517   4.090   1.618
 5023SOL    HW115968   0.525   4.181   1.579
 5023SOL    HW215969   0.431   4.048   1.590
 5024SOL     OW15970   5.854   5.327   1.070
 5024SOL    HW115971   5.803   5.247   1.037
 5024SOL    HW215972   5.823   5.409   1.021
 5025SOL     OW15973   4.394   1.992   4.174
 5025SOL    HW115974   4.405   2.002   4.075
 5025SOL    HW215975   4.360   2.077   4.213
 5026SOL     OW15976   6.961   5.458   5.725
 5026SOL    HW115977   6.966   5.500   5.815
 5026SOL    HW215978   7.010   5.514   5.658
 5027SOL     OW15979   6.102   0.232   1.611
 5027SOL    HW115980   6.122   0.135   1.604
 5027SOL    HW215981   6.187   0.283   1.626
 5028SOL     OW15982   6.632   1.533   2.832
 5028SOL    HW115983   6.548   1.588   2.825
 5028SOL    HW215984   6.632   1.483   2.919
 5029SOL     OW15985   5.855   2.135   2.588
 5029SOL    HW115986   5.901   2.091   2.511
 5029SOL    HW215987   5.855   2.234   2.576
 5030SOL     OW15988   6.755   6.315   6.888
 5030SOL    HW115989   6.787   6.405   6.858
 5030SOL    HW215990   6.689   6.279   6.822
 5031SOL     OW15991   6.812   1.164   5.982
 5031SOL    HW115992   6.772   1.220   5.910
 5031SOL    HW215993   6.812   1.068   5.953
 5032SOL     OW15994   3.171   1.554   6.045
 5032SOL    HW115995   3.122   1.584   5.964
 5032SOL    HW215996   3.231   1.627   6.077
 5033SOL     OW15997   2.196   0.057   6.639
 5033SOL    HW115998   2.198   0.063   6.739
 5033SOL    HW215999   2.273   0.001   6.608
 5034SOL     OW16000   5.863   0.436   3.807
 5034SOL    HW116001   5.884   0.380   3.887
 5034SOL    HW216002   5.894   0.389   3.724
 5035SOL     OW16003   0.020   3.955   5.537
 5035SOL    HW116004   7.011   3.979   5.629
 5035SOL    HW216005   0.035   4.038   5.484
 5036SOL     OW16006   0.045   4.776   6.884
 5036SOL    HW116007   0.114   4.849   6.892
 5036SOL    HW216008   0.076   4.696   6.935
 5037SOL     OW16009   5.461   4.687   1.932
 5037SOL    HW116010   5.463   4.660   1.836
 5037SOL    HW216011   5.554   4.686   1.969
 5038SOL     OW16012   3.281   3.107   5.276
 5038SOL    HW116013   3.319   3.015   5.285
 5038SOL    HW216014   3.352   3.175   5.294
 5039SOL     OW16015   2.246   3.284   5.266
 5039SOL    HW116016   2.294   3.366   5.297
 5039SOL    HW216017   2.270   3.207   5.325
 5040SOL     OW16018   1.094   6.380   6.020
 5040SOL    HW116019   1.140   6.372   5.932
 5040SOL    HW216020   0.999   6.350   6.011
 5041SOL     OW16021   1.770   1.522   2.009
 5041SOL    HW116022   1.690   1.484   2.057
 5041SOL    HW216023   1.802   1.456   1.941
 5042SOL     OW16024   6.571   3.335   0.621
 5042SOL    HW116025   6.493   3.326   0.683
 5042SOL    HW216026   6.586   3.248   0.573
 5043SOL     OW16027   4.088   0.307   0.001
 5043SOL    HW116028   4.073   0.209   0.001
 5043SOL    HW216029   4.139   0.333   6.942
 5044SOL     OW16030   0.461   6.495   0.985
 5044SOL    HW116031   0.549   6.542   0.975
 5044SOL    HW216032   0.396   6.554   1.032
 5045SOL     OW16033   5.744   6.068   6.524
 5045SOL    HW116034   5.678   6.086   6.451
 5045SOL    HW216035   5.717   6.116   6.607
 5046SOL     OW16036   3.700   4.119   3.179
 5046SOL    HW116037   3.781   4.170   3.151
 5046SOL    HW216038   3.626   4.137   3.114
 5047SOL     OW16039   1.571   4.081   3.006
 5047SOL    HW116040   1.594   4.002   2.949
 5047SOL    HW216041   1.593   4.165   2.955
 5048SOL     OW16042   1.270   1.099   2.923
 5048SOL    HW116043   1.199   1.055   2.977
 5048SOL    HW216044   1.287   1.046   2.839
 5049SOL     OW16045   5.000   1.998   0.062
 5049SOL    HW116046   5.015   2.096   0.070
 5049SOL    HW216047   4.992   1.958   0.153
 5050SOL     OW16048   1.327   0.576   0.259
 5050SOL    HW116049   1.415   0.582   0.211
 5050SOL    HW216050   1.310   0.481   0.286
 5051SOL     OW16051   4.669   4.036   1.315
 5051SOL    HW116052   4.607   4.108   1.345
 5051SOL    HW216053   4.761   4.053   1.352
 5052SOL     OW16054   2.552   1.554   5.700
 5052SOL    HW116055   2.488   1.486   5.664
 5052SOL    HW216056   2.599   1.599   5.625
 5053SOL     OW16057   1.691   4.305   3.539
 5053SOL    HW116058   1.703   4.211   3.508
 5053SOL    HW216059   1.640   4.305   3.625
 5054SOL     OW16060   2.924   5.025   4.353
 5054SOL    HW116061   2.869   5.067   4.425
 5054SOL    HW216062   2.949   5.094   4.285
 5055SOL     OW16063   1.051   2.265   6.414
 5055SOL    HW116064   1.019   2.214   6.334
 5055SOL    HW216065   0.987   2.252   6.489
 5056SOL     OW16066   5.802   4.175   6.271
 5056SOL    HW116067   5.752   4.122   6.202
 5056SOL    HW216068   5.821   4.117   6.350
 5057SOL     OW16069   0.405   6.974   3.439
 5057SOL    HW116070   0.493   6.928   3.426
 5057SOL    HW216071   0.414   0.022   3.509
 5058SOL     OW16072   3.343   4.044   5.565
 5058SOL    HW116073   3.377   4.115   5.502
 5058SOL    HW216074   3.326   3.960   5.514
 5059SOL     OW16075   6.030   0.864   3.266
 5059SOL    HW116076   6.128   0.853   3.281
 5059SOL    HW216077   5.997   0.943   3.318
 5060SOL     OW16078   0.361   2.254   6.249
 5060SOL    HW116079   0.415   2.208   6.320
 5060SOL    HW216080   0.400   2.344   6.231
 5061SOL     OW16081   4.910   2.713   0.819
 5061SOL    HW116082   4.842   2.683   0.886
 5061SOL    HW216083   4.877   2.795   0.773
 5062SOL     OW16084   6.267   6.704   2.950
 5062SOL    HW116085   6.205   6.771   2.992
 5062SOL    HW216086   6.356   6.709   2.995
 5063SOL     OW16087   0.583   0.082   2.778
 5063SOL    HW116088   0.681   0.101   2.786
 5063SOL    HW216089   0.562   0.054   2.684
 5064SOL     OW16090   4.994   3.433   0.776
 5064SOL    HW116091   5.052   3.492   0.721
 5064SOL    HW216092   5.026   3.338   0.767
 5065SOL     OW16093   2.952   0.747   5.611
 5065SOL    HW116094   2.862   0.738   5.568
 5065SOL    HW216095   2.971   0.844   5.628
 5066SOL     OW16096   5.130   4.465   2.312
 5066SOL    HW116097   5.196   4.465   2.237
 5066SOL    HW216098   5.119   4.372   2.347
 5067SOL     OW16099   4.799   1.265   1.610
 5067SOL    HW116100   4.760   1.350   1.576
 5067SOL    HW216101   4.791   1.194   1.540
 5068SOL     OW16102   2.791   4.626   0.914
 5068SOL    HW116103   2.857   4.601   0.985
 5068SOL    HW216104   2.704   4.580   0.932
 5069SOL     OW16105   1.322   3.897   3.953
 5069SOL    HW116106   1.348   3.843   4.033
 5069SOL    HW216107   1.374   3.983   3.952
 5070SOL     OW16108   5.196   3.887   4.098
 5070SOL    HW116109   5.154   3.806   4.057
 5070SOL    HW216110   5.152   3.906   4.186
 5071SOL     OW16111   4.769   2.121   4.876
 5071SOL    HW116112   4.840   2.175   4.831
 5071SOL    HW216113   4.749   2.041   4.820
 5072SOL     OW16114   0.698   6.569   0.312
 5072SOL    HW116115   0.677   6.666   0.307
 5072SOL    HW216116   0.797   6.556   0.303
 5073SOL     OW16117   0.033   6.996   2.994
 5073SOL    HW116118   0.130   6.995   3.019
 5073SOL    HW216119   7.003   0.010   3.070
 5074SOL     OW16120   3.126   3.501   6.791
 5074SOL    HW116121   3.059   3.444   6.744
 5074SOL    HW216122   3.207   3.514   6.733
 5075SOL     OW16123   0.965   1.680   6.207
 5075SOL    HW116124   1.039   1.613   6.201
 5075SOL    HW216125   0.985   1.745   6.280
 5076SOL     OW16126   3.447   0.649   1.093
 5076SOL    HW116127   3.510   0.717   1.055
 5076SOL    HW216128   3.493   0.560   1.096
 5077SOL     OW16129   0.577   2.751   4.851
 5077SOL    HW116130   0.546   2.775   4.759
 5077SOL    HW216131   0.576   2.651   4.861
 5078SOL     OW16132   0.910   1.781   3.464
 5078SOL    HW116133   0.915   1.681   3.453
 5078SOL    HW216134   0.978   1.824   3.405
 5079SOL     OW16135   2.367   4.896   5.783
 5079SOL    HW116136   2.386   4.973   5.722
 5079SOL    HW216137   2.278   4.910   5.827
 5080SOL     OW16138   5.986   6.544   5.848
 5080SOL    HW116139   5.996   6.455   5.892
 5080SOL    HW216140   5.997   6.534   5.749
 5081SOL     OW16141   3.655   2.914   4.266
 5081SOL    HW116142   3.555   2.913   4.274
 5081SOL    HW216143   3.695   2.943   4.353
 5082SOL     OW16144   5.860   5.545   5.595
 5082SOL    HW116145   5.801   5.531   5.516
 5082SOL    HW216146   5.868   5.460   5.647
 5083SOL     OW16147   2.366   6.367   2.816
 5083SOL    HW116148   2.437   6.437   2.826
 5083SOL    HW216149   2.297   6.399   2.752
 5084SOL     OW16150   0.884   4.955   4.414
 5084SOL    HW116151   0.934   5.008   4.345
 5084SOL    HW216152   0.865   4.864   4.378
 5085SOL     OW16153   5.130   2.547   6.588
 5085SOL    HW116154   5.200   2.479   6.566
 5085SOL    HW216155   5.040   2.505   6.581
 5086SOL     OW16156   6.465   5.713   3.630
 5086SOL    HW116157   6.448   5.773   3.709
 5086SOL    HW216158   6.431   5.621   3.650
 5087SOL     OW16159   6.302   5.858   3.800
 5087SOL    HW116160   6.312   5.821   3.892
 5087SOL    HW216161   6.253   5.793   3.743
 5088SOL     OW16162   5.511   1.542   4.537
 5088SOL    HW116163   5.471   1.462   4.492
 5088SOL    HW216164   5.444   1.617   4.536
 5089SOL     OW16165   5.999   2.963   3.356
 5089SOL    HW116166   5.972   2.867   3.354
 5089SOL    HW216167   5.945   3.012   3.424
 5090SOL     OW16168   1.691   3.862   2.918
 5090SOL    HW116169   1.750   3.927   2.871
 5090SOL    HW216170   1.742   3.818   2.992
 5091SOL     OW16171   1.836   6.569   2.687
 5091SOL    HW116172   1.848   6.470   2.678
 5091SOL    HW216173   1.826   6.609   2.596
 5092SOL     OW16174   3.053   3.097   1.243
 5092SOL    HW116175   3.144   3.113   1.281
 5092SOL    HW216176   2.986   3.091   1.317
 5093SOL     OW16177   2.936   1.366   1.724
 5093SOL    HW116178   2.968   1.293   1.785
 5093SOL    HW216179   3.014   1.421   1.695
 5094SOL     OW16180   0.610   6.543   4.282
 5094SOL    HW116181   0.605   6.445   4.264
 5094SOL    HW216182   0.571   6.562   4.373
 5095SOL     OW16183   0.721   1.823   4.178
 5095SOL    HW116184   0.819   1.841   4.164
 5095SOL    HW216185   0.694   1.859   4.267
 5096SOL     OW16186   4.359   3.734   0.267
 5096SOL    HW116187   4.437   3.700   0.320
 5096SOL    HW216188   4.274   3.707   0.311
 5097SOL     OW16189   1.842   0.408   6.706
 5097SOL    HW116190   1.822   0.479   6.638
 5097SOL    HW216191   1.906   0.341   6.666
 5098SOL     OW16192   0.988   0.638   1.255
 5098SOL    HW116193   0.894   0.618   1.228
 5098SOL    HW216194   1.035   0.553   1.279
 5099SOL     OW16195   0.685   0.267   6.555
 5099SOL    HW116196   0.704   0.196   6.623
 5099SOL    HW216197   0.740   0.250   6.473
 5100SOL     OW16198   4.476   6.675   5.433
 5100SOL    HW116199   4.471   6.635   5.342
 5100SOL    HW216200   4.398   6.736   5.447
 5101SOL     OW16201   4.659   6.779   0.223
 5101SOL    HW116202   4.652   6.787   0.124
 5101SOL    HW216203   4.676   6.869   0.263
 5102SOL     OW16204   5.568   0.295   5.846
 5102SOL    HW116205   5.647   0.353   5.869
 5102SOL    HW216206   5.573   0.269   5.750
 5103SOL     OW16207   0.600   0.830   4.000
 5103SOL    HW116208   0.555   0.815   4.089
 5103SOL    HW216209   0.579   0.922   3.967
 5104SOL     OW16210   2.020   6.235   2.156
 5104SOL    HW116211   1.929   6.200   2.179
 5104SOL    HW216212   2.011   6.307   2.087
 5105SOL     OW16213   4.357   3.515   7.003
 5105SOL    HW116214   4.379   3.424   6.970
 5105SOL    HW216215   4.257   3.527   7.005
 5106SOL     OW16216   3.706   0.319   1.390
 5106SOL    HW116217   3.715   0.419   1.391
 5106SOL    HW216218   3.624   0.293   1.440
 5107SOL     OW16219   3.788   1.285   0.638
 5107SOL    HW116220   3.770   1.300   0.541
 5107SOL    HW216221   3.711   1.321   0.692
 5108SOL     OW16222   3.092   3.166   3.402
 5108SOL    HW116223   3.059   3.248   3.449
 5108SOL    HW216224   3.130   3.102   3.470
 5109SOL     OW16225   0.764   1.213   1.037
 5109SOL    HW116226   0.765   1.126   0.988
 5109SOL    HW216227   0.679   1.222   1.088
 5110SOL     OW16228   0.465   0.126   6.678
 5110SOL    HW116229   0.507   0.037   6.662
 5110SOL    HW216230   0.527   0.182   6.734
 5111SOL     OW16231   0.779   1.162   5.773
 5111SOL    HW116232   0.839   1.217   5.716
 5111SOL    HW216233   0.724   1.223   5.831
 5112SOL     OW16234   0.288   0.277   2.920
 5112SOL    HW116235   0.193   0.279   2.952
 5112SOL    HW216236   0.336   0.201   2.964
 5113SOL     OW16237   1.912   6.845   1.262
 5113SOL    HW116238   1.859   6.927   1.243
 5113SOL    HW216239   1.896   6.816   1.356
 5114SOL     OW16240   3.697   2.764   0.493
 5114SOL    HW116241   3.704   2.693   0.563
 5114SOL    HW216242   3.600   2.780   0.472
 5115SOL     OW16243   2.129   4.626   5.321
 5115SOL    HW116244   2.179   4.703   5.280
 5115SOL    HW216245   2.080   4.658   5.402
 5116SOL     OW16246   5.637   6.677   6.065
 5116SOL    HW116247   5.615   6.736   5.987
 5116SOL    HW216248   5.579   6.595   6.060
 5117SOL     OW16249   1.915   4.731   4.200
 5117SOL    HW116250   1.834   4.703   4.148
 5117SOL    HW216251   1.889   4.799   4.268
 5118SOL     OW16252   4.775   6.031   0.914
 5118SOL    HW116253   4.723   6.052   0.832
 5118SOL    HW216254   4.857   5.979   0.890
 5119SOL     OW16255   5.366   0.533   1.647
 5119SOL    HW116256   5.310   0.608   1.613
 5119SOL    HW216257   5.412   0.562   1.731
 5120SOL     OW16258   5.335   1.582   3.278
 5120SOL    HW116259   5.348   1.497   3.227
 5120SOL    HW216260   5.407   1.589   3.348
 5121SOL     OW16261   1.841   2.314   6.881
 5121SOL    HW116262   1.860   2.386   6.814
 5121SOL    HW216263   1.751   2.331   6.923
 5122SOL     OW16264   3.187   0.719   4.220
 5122SOL    HW116265   3.158   0.812   4.243
 5122SOL    HW216266   3.107   0.660   4.214
 5123SOL     OW16267   6.096   3.253   4.765
 5123SOL    HW116268   6.042   3.300   4.695
 5123SOL    HW216269   6.192   3.250   4.737
 5124SOL     OW16270   2.399   5.367   6.050
 5124SOL    HW116271   2.407   5.440   6.118
 5124SOL    HW216272   2.488   5.350   6.008
 5125SOL     OW16273   6.593   3.818   4.593
 5125SOL    HW116274   6.692   3.818   4.581
 5125SOL    HW216275   6.549   3.786   4.509
 5126SOL     OW16276   6.239   4.622   5.914
 5126SOL    HW116277   6.141   4.640   5.909
 5126SOL    HW216278   6.269   4.579   5.828
 5127SOL     OW16279   6.179   3.574   0.029
 5127SOL    HW116280   6.173   3.664   0.072
 5127SOL    HW216281   6.193   3.585   6.953
 5128SOL     OW16282   0.914   0.431   0.098
 5128SOL    HW116283   0.892   0.431   0.000
 5128SOL    HW216284   0.962   0.515   0.121
 5129SOL     OW16285   4.852   1.072   2.559
 5129SOL    HW116286   4.883   0.992   2.508
 5129SOL    HW216287   4.909   1.150   2.536
 5130SOL     OW16288   1.520   5.789   4.672
 5130SOL    HW116289   1.479   5.709   4.628
 5130SOL    HW216290   1.537   5.768   4.769
 5131SOL     OW16291   2.914   4.908   3.466
 5131SOL    HW116292   2.884   4.823   3.422
 5131SOL    HW216293   3.006   4.931   3.436
 5132SOL     OW16294   3.106   1.041   6.040
 5132SOL    HW116295   3.121   1.035   6.138
 5132SOL    HW216296   3.147   1.125   6.004
 5133SOL     OW16297   2.664   5.775   6.491
 5133SOL    HW116298   2.567   5.766   6.513
 5133SOL    HW216299   2.674   5.827   6.406
 5134SOL     OW16300   6.722   0.182   3.027
 5134SOL    HW116301   6.795   0.159   3.091
 5134SOL    HW216302   6.744   0.267   2.980
 5135SOL     OW16303   6.300   4.064   3.148
 5135SOL    HW116304   6.342   3.973   3.140
 5135SOL    HW216305   6.370   4.129   3.177
 5136SOL     OW16306   6.606   1.511   6.296
 5136SOL    HW116307   6.641   1.418   6.295
 5136SOL    HW216308   6.669   1.571   6.247
 5137SOL     OW16309   5.006   3.301   5.587
 5137SOL    HW116310   5.014   3.390   5.541
 5137SOL    HW216311   4.953   3.239   5.530
 5138SOL     OW16312   3.821   4.050   3.804
 5138SOL    HW116313   3.873   4.045   3.888
 5138SOL    HW216314   3.865   3.994   3.734
 5139SOL     OW16315   1.061   0.314   4.727
 5139SOL    HW116316   1.158   0.325   4.752
 5139SOL    HW216317   1.029   0.224   4.757
 5140SOL     OW16318   3.823   2.036   5.672
 5140SOL    HW116319   3.856   2.024   5.765
 5140SOL    HW216320   3.899   2.021   5.608
 5141SOL     OW16321   6.435   2.943   1.803
 5141SOL    HW116322   6.430   2.843   1.812
 5141SOL    HW216323   6.526   2.968   1.770
 5142SOL     OW16324   5.767   0.175   5.336
 5142SOL    HW116325   5.866   0.191   5.329
 5142SOL    HW216326   5.736   0.123   5.256
 5143SOL     OW16327   1.229   4.147   5.389
 5143SOL    HW116328   1.235   4.084   5.466
 5143SOL    HW216329   1.135   4.179   5.379
 5144SOL     OW16330   1.662   3.568   5.967
 5144SOL    HW116331   1.582   3.513   5.943
 5144SOL    HW216332   1.641   3.625   6.047
 5145SOL     OW16333   3.506   6.136   6.613
 5145SOL    HW116334   3.463   6.169   6.697
 5145SOL    HW216335   3.510   6.036   6.614
 5146SOL     OW16336   3.686   4.122   5.259
 5146SOL    HW116337   3.717   4.217   5.267
 5146SOL    HW216338   3.759   4.061   5.286
 5147SOL     OW16339   5.760   5.081   3.455
 5147SOL    HW116340   5.762   5.016   3.532
 5147SOL    HW216341   5.818   5.047   3.381
 5148SOL     OW16342   0.481   0.308   2.633
 5148SOL    HW116343   0.420   0.266   2.700
 5148SOL    HW216344   0.554   0.244   2.609
 5149SOL     OW16345   5.697   4.935   4.321
 5149SOL    HW116346   5.768   4.978   4.377
 5149SOL    HW216347   5.638   4.879   4.378
 5150SOL     OW16348   2.212   4.636   3.983
 5150SOL    HW116349   2.278   4.567   3.951
 5150SOL    HW216350   2.259   4.704   4.038
 5151SOL     OW16351   5.854   3.856   1.752
 5151SOL    HW116352   5.775   3.814   1.797
 5151SOL    HW216353   5.884   3.936   1.803
 5152SOL     OW16354   1.036   5.789   6.830
 5152SOL    HW116355   1.012   5.885   6.846
 5152SOL    HW216356   0.982   5.753   6.755
 5153SOL     OW16357   1.351   1.345   0.990
 5153SOL    HW116358   1.286   1.414   0.960
 5153SOL    HW216359   1.382   1.292   0.911
 5154SOL     OW16360   1.420   3.186   6.669
 5154SOL    HW116361   1.437   3.188   6.768
 5154SOL    HW216362   1.322   3.183   6.652
 5155SOL     OW16363   3.240   1.499   1.011
 5155SOL    HW116364   3.155   1.457   1.044
 5155SOL    HW216365   3.223   1.594   0.987
 5156SOL     OW16366   5.501   4.348   4.722
 5156SOL    HW116367   5.454   4.272   4.768
 5156SOL    HW216368   5.533   4.413   4.791
 5157SOL     OW16369   3.097   1.782   2.202
 5157SOL    HW116370   3.024   1.732   2.247
 5157SOL    HW216371   3.132   1.853   2.264
 5158SOL     OW16372   3.112   2.583   1.242
 5158SOL    HW116373   3.191   2.569   1.182
 5158SOL    HW216374   3.066   2.668   1.217
 5159SOL     OW16375   6.028   4.085   6.129
 5159SOL    HW116376   5.996   4.165   6.179
 5159SOL    HW216377   6.020   4.004   6.187
 5160SOL     OW16378   6.453   6.264   3.528
 5160SOL    HW116379   6.546   6.247   3.561
 5160SOL    HW216380   6.430   6.199   3.456
 5161SOL     OW16381   1.265   3.426   0.422
 5161SOL    HW116382   1.179   3.381   0.445
 5161SOL    HW216383   1.250   3.525   0.416
 5162SOL     OW16384   0.700   5.557   2.562
 5162SOL    HW116385   0.659   5.644   2.533
 5162SOL    HW216386   0.799   5.567   2.567
 5163SOL     OW16387   3.894   6.836   0.916
 5163SOL    HW116388   3.915   6.782   0.834
 5163SOL    HW216389   3.820   6.901   0.896
 5164SOL     OW16390   2.525   3.101   6.953
 5164SOL    HW116391   2.521   3.003   6.974
 5164SOL    HW216392   2.598   3.118   6.887
 5165SOL     OW16393   1.021   4.196   6.644
 5165SOL    HW116394   0.947   4.221   6.707
 5165SOL    HW216395   1.059   4.279   6.603
 5166SOL     OW16396   1.750   5.001   2.514
 5166SOL    HW116397   1.667   5.040   2.554
 5166SOL    HW216398   1.743   5.003   2.414
 5167SOL     OW16399   6.373   4.117   5.017
 5167SOL    HW116400   6.323   4.161   5.091
 5167SOL    HW216401   6.411   4.187   4.957
 5168SOL     OW16402   4.672   2.180   2.165
 5168SOL    HW116403   4.603   2.139   2.225
 5168SOL    HW216404   4.744   2.113   2.146
 5169SOL     OW16405   4.833   2.139   3.944
 5169SOL    HW116406   4.927   2.119   3.916
 5169SOL    HW216407   4.777   2.156   3.863
 5170SOL     OW16408   1.143   3.508   5.614
 5170SOL    HW116409   1.050   3.522   5.580
 5170SOL    HW216410   1.199   3.588   5.592
 5171SOL     OW16411   0.685   4.916   5.434
 5171SOL    HW116412   0.748   4.843   5.408
 5171SOL    HW216413   0.714   5.002   5.392
 5172SOL     OW16414   1.417   4.922   3.672
 5172SOL    HW116415   1.500   4.876   3.640
 5172SOL    HW216416   1.424   4.936   3.771
 5173SOL     OW16417   4.380   4.023   6.489
 5173SOL    HW116418   4.283   4.033   6.465
 5173SOL    HW216419   4.433   4.094   6.442
 5174SOL     OW16420   2.083   6.644   3.757
 5174SOL    HW116421   2.112   6.574   3.823
 5174SOL    HW216422   2.164   6.688   3.718
 5175SOL     OW16423   2.209   4.015   6.562
 5175SOL    HW116424   2.304   3.986   6.550
 5175SOL    HW216425   2.163   4.016   6.473
 5176SOL     OW16426   5.116   5.035   6.457
 5176SOL    HW116427   5.173   5.070   6.382
 5176SOL    HW216428   5.100   4.937   6.445
 5177SOL     OW16429   5.301   6.258   1.186
 5177SOL    HW116430   5.239   6.330   1.214
 5177SOL    HW216431   5.261   6.169   1.207
 5178SOL     OW16432   0.912   4.683   1.731
 5178SOL    HW116433   0.909   4.593   1.687
 5178SOL    HW216434   0.991   4.688   1.792
 5179SOL     OW16435   5.137   4.494   3.097
 5179SOL    HW116436   5.074   4.521   3.169
 5179SOL    HW216437   5.091   4.497   3.008
 5180SOL     OW16438   3.631   0.256   1.055
 5180SOL    HW116439   3.672   0.176   1.099
 5180SOL    HW216440   3.569   0.301   1.119
 5181SOL     OW16441   0.423   0.598   0.064
 5181SOL    HW116442   0.396   0.514   0.113
 5181SOL    HW216443   0.345   0.660   0.059
 5182SOL     OW16444   4.413   4.503   1.976
 5182SOL    HW116445   4.443   4.588   1.933
 5182SOL    HW216446   4.465   4.426   1.939
 5183SOL     OW16447   3.658   1.553   2.741
 5183SOL    HW116448   3.744   1.505   2.726
 5183SOL    HW216449   3.656   1.588   2.835
 5184SOL     OW16450   2.223   2.168   3.320
 5184SOL    HW116451   2.158   2.092   3.322
 5184SOL    HW216452   2.250   2.187   3.226
 5185SOL     OW16453   4.774   0.306   2.967
 5185SOL    HW116454   4.831   0.237   3.013
 5185SOL    HW216455   4.815   0.396   2.979
 5186SOL     OW16456   5.909   2.717   5.232
 5186SOL    HW116457   5.979   2.788   5.243
 5186SOL    HW216458   5.953   2.630   5.211
 5187SOL     OW16459   1.977   5.321   4.854
 5187SOL    HW116460   2.059   5.361   4.895
 5187SOL    HW216461   1.999   5.281   4.765
 5188SOL     OW16462   6.630   6.316   1.815
 5188SOL    HW116463   6.679   6.358   1.739
 5188SOL    HW216464   6.668   6.349   1.902
 5189SOL     OW16465   5.302   5.959   6.906
 5189SOL    HW116466   5.362   5.882   6.883
 5189SOL    HW216467   5.357   6.035   6.940
 5190SOL     OW16468   1.800   3.093   2.659
 5190SOL    HW116469   1.778   3.191   2.659
 5190SOL    HW216470   1.719   3.041   2.687
 5191SOL     OW16471   3.105   5.847   3.192
 5191SOL    HW116472   3.134   5.752   3.182
 5191SOL    HW216473   3.006   5.853   3.183
 5192SOL     OW16474   1.900   5.928   1.541
 5192SOL    HW116475   1.834   5.931   1.467
 5192SOL    HW216476   1.914   5.833   1.570
 5193SOL     OW16477   4.447   6.709   6.045
 5193SOL    HW116478   4.522   6.775   6.049
 5193SOL    HW216479   4.439   6.674   5.952
 5194SOL     OW16480   2.723   2.164   6.759
 5194SOL    HW116481   2.698   2.227   6.685
 5194SOL    HW216482   2.718   2.070   6.724
 5195SOL     OW16483   0.393   0.094   3.900
 5195SOL    HW116484   0.372   0.187   3.930
 5195SOL    HW216485   0.388   0.089   3.801
 5196SOL     OW16486   4.570   6.556   2.224
 5196SOL    HW116487   4.640   6.558   2.296
 5196SOL    HW216488   4.504   6.629   2.241
 5197SOL     OW16489   1.532   3.877   6.399
 5197SOL    HW116490   1.536   3.794   6.454
 5197SOL    HW216491   1.437   3.908   6.391
 5198SOL     OW16492   4.351   5.653   3.220
 5198SOL    HW116493   4.402   5.625   3.302
 5198SOL    HW216494   4.328   5.573   3.166
 5199SOL     OW16495   6.825   5.501   0.894
 5199SOL    HW116496   6.785   5.435   0.957
 5199SOL    HW216497   6.916   5.527   0.927
 5200SOL     OW16498   6.671   3.103   5.203
 5200SOL    HW116499   6.762   3.080   5.168
 5200SOL    HW216500   6.612   3.023   5.198
 5201SOL     OW16501   0.699   6.752   3.131
 5201SOL    HW116502   0.736   6.815   3.062
 5201SOL    HW216503   0.608   6.722   3.103
 5202SOL     OW16504   6.423   2.692   6.468
 5202SOL    HW116505   6.328   2.690   6.499
 5202SOL    HW216506   6.438   2.617   6.404
 5203SOL     OW16507   2.087   2.646   6.609
 5203SOL    HW116508   2.121   2.691   6.526
 5203SOL    HW216509   2.158   2.644   6.678
 5204SOL     OW16510   3.859   5.257   0.529
 5204SOL    HW116511   3.760   5.243   0.525
 5204SOL    HW216512   3.893   5.235   0.621
 5205SOL     OW16513   1.442   0.108   0.607
 5205SOL    HW116514   1.437   0.208   0.604
 5205SOL    HW216515   1.478   0.079   0.696
 5206SOL     OW16516   0.388   3.530   6.431
 5206SOL    HW116517   0.465   3.581   6.471
 5206SOL    HW216518   0.341   3.588   6.365
 5207SOL     OW16519   1.162   5.161   3.978
 5207SOL    HW116520   1.244   5.155   3.921
 5207SOL    HW216521   1.081   5.156   3.921
 5208SOL     OW16522   3.338   1.376   0.340
 5208SOL    HW116523   3.344   1.316   0.261
 5208SOL    HW216524   3.424   1.427   0.350
 5209SOL     OW16525   5.597   5.611   4.209
 5209SOL    HW116526   5.499   5.627   4.197
 5209SOL    HW216527   5.640   5.602   4.119
 5210SOL     OW16528   6.007   2.911   5.727
 5210SOL    HW116529   5.993   2.916   5.628
 5210SOL    HW216530   5.931   2.862   5.769
 5211SOL     OW16531   3.967   3.097   4.512
 5211SOL    HW116532   4.015   3.185   4.508
 5211SOL    HW216533   3.980   3.049   4.425
 5212SOL     OW16534   6.894   2.270   1.202
 5212SOL    HW116535   6.982   2.301   1.239
 5212SOL    HW216536   6.845   2.219   1.273
 5213SOL     OW16537   5.031   2.539   6.865
 5213SOL    HW116538   5.079   2.545   6.953
 5213SOL    HW216539   5.095   2.506   6.795
 5214SOL     OW16540   5.390   1.196   6.693
 5214SOL    HW116541   5.445   1.219   6.612
 5214SOL    HW216542   5.448   1.194   6.774
 5215SOL     OW16543   5.067   5.419   3.528
 5215SOL    HW116544   5.144   5.469   3.489
 5215SOL    HW216545   4.987   5.431   3.469
 5216SOL     OW16546   4.986   5.905   1.375
 5216SOL    HW116547   5.052   5.961   1.424
 5216SOL    HW216548   4.997   5.917   1.276
 5217SOL     OW16549   3.532   4.935   4.104
 5217SOL    HW116550   3.443   4.917   4.063
 5217SOL    HW216551   3.519   4.968   4.198
 5218SOL     OW16552   1.791   0.479   3.151
 5218SOL    HW116553   1.771   0.405   3.086
 5218SOL    HW216554   1.881   0.463   3.193
 5219SOL     OW16555   3.574   0.743   6.742
 5219SOL    HW116556   3.545   0.662   6.692
 5219SOL    HW216557   3.666   0.729   6.777
 5220SOL     OW16558   1.626   5.538   3.122
 5220SOL    HW116559   1.608   5.621   3.070
 5220SOL    HW216560   1.696   5.484   3.076
 5221SOL     OW16561   5.756   2.417   4.386
 5221SOL    HW116562   5.690   2.410   4.312
 5221SOL    HW216563   5.758   2.512   4.419
 5222SOL     OW16564   2.685   0.522   3.791
 5222SOL    HW116565   2.651   0.556   3.878
 5222SOL    HW216566   2.781   0.548   3.781
 5223SOL     OW16567   5.033   0.609   1.561
 5223SOL    HW116568   4.957   0.666   1.592
 5223SOL    HW216569   5.049   0.625   1.463
 5224SOL     OW16570   0.475   1.444   3.434
 5224SOL    HW116571   0.404   1.514   3.435
 5224SOL    HW216572   0.543   1.464   3.505
 5225SOL     OW16573   6.647   0.817   3.277
 5225SOL    HW116574   6.567   0.767   3.312
 5225SOL    HW216575   6.616   0.900   3.231
 5226SOL     OW16576   0.188   6.066   5.502
 5226SOL    HW116577   0.195   5.966   5.503
 5226SOL    HW216578   0.221   6.103   5.589
 5227SOL     OW16579   1.738   4.322   3.921
 5227SOL    HW116580   1.806   4.387   3.955
 5227SOL    HW216581   1.665   4.372   3.874
 5228SOL     OW16582   6.661   3.167   1.396
 5228SOL    HW116583   6.688   3.235   1.328
 5228SOL    HW216584   6.561   3.163   1.401
 5229SOL     OW16585   1.417   4.449   6.729
 5229SOL    HW116586   1.466   4.494   6.804
 5229SOL    HW216587   1.358   4.515   6.684
 5230SOL     OW16588   0.164   0.047   0.833
 5230SOL    HW116589   0.188   0.011   0.924
 5230SOL    HW216590   0.165   6.996   0.766
 5231SOL     OW16591   2.972   3.764   4.317
 5231SOL    HW116592   3.028   3.845   4.336
 5231SOL    HW216593   2.905   3.752   4.391
 5232SOL     OW16594   2.854   1.936   6.286
 5232SOL    HW116595   2.807   1.954   6.200
 5232SOL    HW216596   2.942   1.983   6.287
 5233SOL     OW16597   6.805   0.375   1.469
 5233SOL    HW116598   6.877   0.306   1.461
 5233SOL    HW216599   6.730   0.352   1.406
 5234SOL     OW16600   3.144   0.455   6.398
 5234SOL    HW116601   3.057   0.421   6.434
 5234SOL    HW216602   3.197   0.378   6.362
 5235SOL     OW16603   1.649   2.930   1.354
 5235SOL    HW116604   1.692   3.015   1.323
 5235SOL    HW216605   1.701   2.894   1.431
 5236SOL     OW16606   5.690   3.136   2.051
 5236SOL    HW116607   5.684   3.036   2.056
 5236SOL    HW216608   5.786   3.164   2.054
 5237SOL     OW16609   2.598   1.477   5.227
 5237SOL    HW116610   2.564   1.495   5.135
 5237SOL    HW216611   2.696   1.456   5.224
 5238SOL     OW16612   2.034   5.418   0.757
 5238SOL    HW116613   2.117   5.445   0.708
 5238SOL    HW216614   2.055   5.338   0.814
 5239SOL     OW16615   3.845   3.727   3.951
 5239SOL    HW116616   3.798   3.711   3.864
 5239SOL    HW216617   3.920   3.662   3.960
 5240SOL     OW16618   3.033   1.944   5.610
 5240SOL    HW116619   3.060   1.847   5.603
 5240SOL    HW216620   3.096   1.991   5.672
 5241SOL     OW16621   1.253   5.643   6.662
 5241SOL    HW116622   1.243   5.727   6.607
 5241SOL    HW216623   1.173   5.585   6.649
 5242SOL     OW16624   6.627   6.450   5.642
 5242SOL    HW116625   6.592   6.492   5.558
 5242SOL    HW216626   6.696   6.382   5.619
 5243SOL     OW16627   1.880   6.218   1.647
 5243SOL    HW116628   1.831   6.247   1.565
 5243SOL    HW216629   1.893   6.118   1.644
 5244SOL     OW16630   3.989   3.748   6.165
 5244SOL    HW116631   4.037   3.712   6.245
 5244SOL    HW216632   4.029   3.835   6.138
 5245SOL     OW16633   4.522   4.365   6.784
 5245SOL    HW116634   4.474   4.445   6.747
 5245SOL    HW216635   4.619   4.372   6.763
 5246SOL     OW16636   5.779   4.469   2.810
 5246SOL    HW116637   5.737   4.487   2.722
 5246SOL    HW216638   5.709   4.446   2.877
 5247SOL     OW16639   1.496   6.065   0.367
 5247SOL    HW116640   1.445   6.117   0.435
 5247SOL    HW216641   1.542   5.988   0.411
 5248SOL     OW16642   5.808   0.792   5.737
 5248SOL    HW116643   5.747   0.713   5.738
 5248SOL    HW216644   5.757   0.873   5.706
 5249SOL     OW16645   0.455   5.323   5.021
 5249SOL    HW116646   0.393   5.249   4.994
 5249SOL    HW216647   0.403   5.408   5.032
 5250SOL     OW16648   0.375   1.650   5.681
 5250SOL    HW116649   0.312   1.684   5.611
 5250SOL    HW216650   0.323   1.605   5.754
 5251SOL     OW16651   0.574   2.790   1.523
 5251SOL    HW116652   0.529   2.748   1.602
 5251SOL    HW216653   0.505   2.830   1.462
 5252SOL     OW16654   1.877   5.929   0.798
 5252SOL    HW116655   1.898   5.849   0.742
 5252SOL    HW216656   1.796   5.974   0.763
 5253SOL     OW16657   5.096   3.548   5.757
 5253SOL    HW116658   5.088   3.647   5.773
 5253SOL    HW216659   5.043   3.499   5.826
 5254SOL     OW16660   5.508   1.542   3.709
 5254SOL    HW116661   5.481   1.628   3.754
 5254SOL    HW216662   5.430   1.479   3.708
 5255SOL     OW16663   4.320   0.346   5.270
 5255SOL    HW116664   4.312   0.282   5.193
 5255SOL    HW216665   4.415   0.374   5.281
 5256SOL     OW16666   4.474   1.441   2.916
 5256SOL    HW116667   4.424   1.362   2.951
 5256SOL    HW216668   4.565   1.412   2.887
 5257SOL     OW16669   4.138   0.684   2.133
 5257SOL    HW116670   4.049   0.714   2.099
 5257SOL    HW216671   4.129   0.594   2.176
 5258SOL     OW16672   4.913   3.829   1.561
 5258SOL    HW116673   4.820   3.796   1.542
 5258SOL    HW216674   4.979   3.763   1.526
 5259SOL     OW16675   4.571   6.385   1.090
 5259SOL    HW116676   4.658   6.381   1.139
 5259SOL    HW216677   4.500   6.418   1.152
 5260SOL     OW16678   5.801   3.064   0.844
 5260SOL    HW116679   5.717   3.054   0.790
 5260SOL    HW216680   5.790   3.140   0.908
 5261SOL     OW16681   1.205   2.813   6.188
 5261SOL    HW116682   1.278   2.801   6.255
 5261SOL    HW216683   1.120   2.839   6.234
 5262SOL     OW16684   2.907   6.684   2.617
 5262SOL    HW116685   2.943   6.752   2.554
 5262SOL    HW216686   2.824   6.643   2.578
 5263SOL     OW16687   0.976   0.643   5.737
 5263SOL    HW116688   0.909   0.674   5.805
 5263SOL    HW216689   0.932   0.638   5.647
 5264SOL     OW16690   5.822   0.518   1.831
 5264SOL    HW116691   5.745   0.491   1.889
 5264SOL    HW216692   5.894   0.557   1.888
 5265SOL     OW16693   4.970   4.311   2.725
 5265SOL    HW116694   4.935   4.358   2.644
 5265SOL    HW216695   5.056   4.264   2.702
 5266SOL     OW16696   2.570   6.867   1.585
 5266SOL    HW116697   2.471   6.863   1.582
 5266SOL    HW216698   2.599   6.912   1.669
 5267SOL     OW16699   4.742   4.896   5.841
 5267SOL    HW116700   4.788   4.884   5.929
 5267SOL    HW216701   4.661   4.954   5.854
 5268SOL     OW16702   6.585   5.623   6.085
 5268SOL    HW116703   6.520   5.566   6.035
 5268SOL    HW216704   6.535   5.696   6.132
 5269SOL     OW16705   2.801   5.990   4.154
 5269SOL    HW116706   2.851   5.998   4.240
 5269SOL    HW216707   2.865   5.994   4.077
 5270SOL     OW16708   4.274   2.158   1.628
 5270SOL    HW116709   4.252   2.190   1.536
 5270SOL    HW216710   4.207   2.090   1.658
 5271SOL     OW16711   4.647   5.378   4.630
 5271SOL    HW116712   4.691   5.307   4.576
 5271SOL    HW216713   4.548   5.372   4.618
 5272SOL     OW16714   1.739   5.478   3.527
 5272SOL    HW116715   1.767   5.566   3.488
 5272SOL    HW216716   1.781   5.467   3.617
 5273SOL     OW16717   0.405   3.560   2.911
 5273SOL    HW116718   0.434   3.530   2.820
 5273SOL    HW216719   0.337   3.497   2.948
 5274SOL     OW16720   6.128   4.925   2.313
 5274SOL    HW116721   6.212   4.947   2.263
 5274SOL    HW216722   6.063   5.001   2.304
 5275SOL     OW16723   3.385   1.512   6.503
 5275SOL    HW116724   3.422   1.586   6.447
 5275SOL    HW216725   3.368   1.545   6.596
 5276SOL     OW16726   0.894   5.999   0.771
 5276SOL    HW116727   0.971   6.059   0.795
 5276SOL    HW216728   0.810   6.053   0.767
 5277SOL     OW16729   1.482   2.753   2.895
 5277SOL    HW116730   1.387   2.762   2.925
 5277SOL    HW216731   1.511   2.839   2.852
 5278SOL     OW16732   5.283   6.635   4.962
 5278SOL    HW116733   5.244   6.560   5.016
 5278SOL    HW216734   5.368   6.604   4.920
 5279SOL     OW16735   1.368   6.193   0.152
 5279SOL    HW116736   1.414   6.117   0.198
 5279SOL    HW216737   1.399   6.279   0.192
 5280SOL     OW16738   3.316   5.398   5.303
 5280SOL    HW116739   3.362   5.323   5.351
 5280SOL    HW216740   3.370   5.482   5.313
 5281SOL     OW16741   1.697   1.026   3.640
 5281SOL    HW116742   1.705   0.984   3.549
 5281SOL    HW216743   1.691   0.954   3.709
 5282SOL     OW16744   1.543   0.512   1.904
 5282SOL    HW116745   1.503   0.433   1.951
 5282SOL    HW216746   1.574   0.579   1.971
 5283SOL     OW16747   2.119   0.377   2.980
 5283SOL    HW116748   2.177   0.439   2.927
 5283SOL    HW216749   2.142   0.385   3.077
 5284SOL     OW16750   4.823   3.101   3.553
 5284SOL    HW116751   4.760   3.024   3.540
 5284SOL    HW216752   4.877   3.114   3.470
 5285SOL     OW16753   0.502   3.728   4.436
 5285SOL    HW116754   0.566   3.654   4.457
 5285SOL    HW216755   0.537   3.814   4.474
 5286SOL     OW16756   6.511   3.795   1.378
 5286SOL    HW116757   6.413   3.784   1.362
 5286SOL    HW216758   6.561   3.772   1.295
 5287SOL     OW16759   3.067   5.641   1.430
 5287SOL    HW116760   3.146   5.580   1.429
 5287SOL    HW216761   3.097   5.733   1.454
 5288SOL     OW16762   3.706   0.773   2.504
 5288SOL    HW116763   3.759   0.713   2.444
 5288SOL    HW216764   3.706   0.866   2.467
 5289SOL     OW16765   1.879   6.103   5.387
 5289SOL    HW116766   1.893   6.188   5.438
 5289SOL    HW216767   1.918   6.027   5.439
 5290SOL     OW16768   1.218   3.755   5.801
 5290SOL    HW116769   1.316   3.736   5.796
 5290SOL    HW216770   1.190   3.808   5.721
 5291SOL     OW16771   2.997   4.731   6.730
 5291SOL    HW116772   3.061   4.807   6.735
 5291SOL    HW216773   2.916   4.759   6.678
 5292SOL     OW16774   5.681   4.849   6.216
 5292SOL    HW116775   5.740   4.824   6.140
 5292SOL    HW216776   5.681   4.949   6.226
 5293SOL     OW16777   1.913   6.886   4.956
 5293SOL    HW116778   1.994   6.940   4.934
 5293SOL    HW216779   1.921   6.796   4.913
 5294SOL     OW16780   5.711   2.575   5.705
 5294SOL    HW116781   5.626   2.583   5.758
 5294SOL    HW216782   5.709   2.491   5.650
 5295SOL     OW16783   3.976   1.402   3.009
 5295SOL    HW116784   3.897   1.429   3.064
 5295SOL    HW216785   4.034   1.482   2.993
 5296SOL     OW16786   3.221   4.900   6.685
 5296SOL    HW116787   3.201   4.998   6.682
 5296SOL    HW216788   3.228   4.864   6.592
 5297SOL     OW16789   1.918   3.559   0.770
 5297SOL    HW116790   1.833   3.507   0.766
 5297SOL    HW216791   1.908   3.636   0.833
 5298SOL     OW16792   0.989   6.070   6.968
 5298SOL    HW116793   1.036   6.021   0.018
 5298SOL    HW216794   1.047   6.144   6.934
 5299SOL     OW16795   2.493   3.301   0.787
 5299SOL    HW116796   2.519   3.377   0.848
 5299SOL    HW216797   2.408   3.259   0.821
 5300SOL     OW16798   0.583   5.861   1.265
 5300SOL    HW116799   0.495   5.907   1.276
 5300SOL    HW216800   0.637   5.910   1.196
 5301SOL     OW16801   3.608   2.116   6.510
 5301SOL    HW116802   3.615   2.038   6.448
 5301SOL    HW216803   3.650   2.094   6.598
 5302SOL     OW16804   5.905   5.636   3.620
 5302SOL    HW116805   5.851   5.579   3.558
 5302SOL    HW216806   5.935   5.718   3.572
 5303SOL     OW16807   0.017   5.064   4.779
 5303SOL    HW116808   0.018   5.046   4.681
 5303SOL    HW216809   0.078   5.140   4.800
 5304SOL     OW16810   6.093   0.678   0.877
 5304SOL    HW116811   6.055   0.714   0.963
 5304SOL    HW216812   6.107   0.754   0.813
 5305SOL     OW16813   0.662   4.294   3.604
 5305SOL    HW116814   0.609   4.378   3.593
 5305SOL    HW216815   0.726   4.305   3.680
 5306SOL     OW16816   0.587   4.442   4.955
 5306SOL    HW116817   0.593   4.512   4.884
 5306SOL    HW216818   0.643   4.363   4.928
 5307SOL     OW16819   4.325   1.696   0.196
 5307SOL    HW116820   4.232   1.712   0.228
 5307SOL    HW216821   4.362   1.614   0.239
 5308SOL     OW16822   1.186   4.450   3.269
 5308SOL    HW116823   1.255   4.519   3.288
 5308SOL    HW216824   1.228   4.360   3.265
 5309SOL     OW16825   3.900   4.923   1.857
 5309SOL    HW116826   3.873   4.838   1.812
 5309SOL    HW216827   3.950   4.901   1.942
 5310SOL     OW16828   5.931   3.294   2.016
 5310SOL    HW116829   5.917   3.345   2.100
 5310SOL    HW216830   6.012   3.236   2.025
 5311SOL     OW16831   6.111   6.521   6.778
 5311SOL    HW116832   6.194   6.493   6.826
 5311SOL    HW216833   6.042   6.450   6.787
 5312SOL     OW16834   0.877   5.739   1.157
 5312SOL    HW116835   0.889   5.691   1.070
 5312SOL    HW216836   0.842   5.831   1.140
 5313SOL     OW16837   1.123   3.085   5.986
 5313SOL    HW116838   1.106   3.021   6.061
 5313SOL    HW216839   1.071   3.169   6.001
 5314SOL     OW16840   3.558   6.784   0.220
 5314SOL    HW116841   3.473   6.819   0.181
 5314SOL    HW216842   3.632   6.849   0.202
 5315SOL     OW16843   4.683   3.413   1.718
 5315SOL    HW116844   4.649   3.502   1.688
 5315SOL    HW216845   4.640   3.341   1.664
 5316SOL     OW16846   0.881   3.706   5.214
 5316SOL    HW116847   0.906   3.760   5.133
 5316SOL    HW216848   0.859   3.767   5.289
 5317SOL     OW16849   5.663   1.145   4.989
 5317SOL    HW116850   5.719   1.096   4.922
 5317SOL    HW216851   5.721   1.200   5.048
 5318SOL     OW16852   0.804   2.938   0.025
 5318SOL    HW116853   0.804   2.982   0.114
 5318SOL    HW216854   0.753   2.852   0.030
 5319SOL     OW16855   3.744   6.274   0.239
 5319SOL    HW116856   3.714   6.351   0.295
 5319SOL    HW216857   3.797   6.210   0.294
 5320SOL     OW16858   4.887   4.818   0.407
 5320SOL    HW116859   4.892   4.881   0.330
 5320SOL    HW216860   4.954   4.844   0.476
 5321SOL     OW16861   1.888   4.865   4.623
 5321SOL    HW116862   1.950   4.900   4.693
 5321SOL    HW216863   1.801   4.913   4.627
 5322SOL     OW16864   5.626   6.482   6.576
 5322SOL    HW116865   5.574   6.536   6.643
 5322SOL    HW216866   5.721   6.511   6.576
 5323SOL     OW16867   4.074   1.830   6.971
 5323SOL    HW116868   4.046   1.891   6.897
 5323SOL    HW216869   4.048   1.736   6.948
 5324SOL     OW16870   3.349   1.973   0.785
 5324SOL    HW116871   3.379   2.050   0.842
 5324SOL    HW216872   3.327   2.006   0.693
 5325SOL     OW16873   4.139   0.514   4.356
 5325SOL    HW116874   4.146   0.416   4.373
 5325SOL    HW216875   4.230   0.556   4.367
 5326SOL     OW16876   6.350   4.986   2.996
 5326SOL    HW116877   6.257   4.995   2.961
 5326SOL    HW216878   6.374   5.069   3.046
 5327SOL     OW16879   5.550   2.924   5.601
 5327SOL    HW116880   5.628   2.870   5.568
 5327SOL    HW216881   5.574   2.967   5.687
 5328SOL     OW16882   3.927   3.024   5.005
 5328SOL    HW116883   3.882   3.068   4.928
 5328SOL    HW216884   4.024   3.049   5.006
 5329SOL     OW16885   0.282   4.660   0.284
 5329SOL    HW116886   0.234   4.576   0.309
 5329SOL    HW216887   0.271   4.677   0.186
 5330SOL     OW16888   4.027   4.115   5.917
 5330SOL    HW116889   4.055   4.198   5.965
 5330SOL    HW216890   3.928   4.104   5.925
 5331SOL     OW16891   5.687   1.335   0.924
 5331SOL    HW116892   5.637   1.294   0.848
 5331SOL    HW216893   5.768   1.281   0.944
 5332SOL     OW16894   0.865   3.132   1.302
 5332SOL    HW116895   0.928   3.209   1.304
 5332SOL    HW216896   0.866   3.086   1.390
 5333SOL     OW16897   0.531   0.422   3.219
 5333SOL    HW116898   0.452   0.372   3.185
 5333SOL    HW216899   0.533   0.514   3.178
 5334SOL     OW16900   3.161   0.231   4.424
 5334SOL    HW116901   3.066   0.260   4.441
 5334SOL    HW216902   3.223   0.306   4.445
 5335SOL     OW16903   6.857   6.033   2.206
 5335SOL    HW116904   6.940   6.088   2.199
 5335SOL    HW216905   6.807   6.037   2.119
 5336SOL     OW16906   1.930   2.569   3.354
 5336SOL    HW116907   2.022   2.596   3.327
 5336SOL    HW216908   1.934   2.488   3.412
 5337SOL     OW16909   4.899   4.154   1.421
 5337SOL    HW116910   4.983   4.108   1.392
 5337SOL    HW216911   4.913   4.195   1.511
 5338SOL     OW16912   6.269   1.963   6.755
 5338SOL    HW116913   6.190   2.002   6.803
 5338SOL    HW216914   6.273   1.864   6.773
 5339SOL     OW16915   6.888   2.127   3.860
 5339SOL    HW116916   6.839   2.194   3.914
 5339SOL    HW216917   6.824   2.074   3.804
 5340SOL     OW16918   4.794   3.564   0.875
 5340SOL    HW116919   4.696   3.551   0.860
 5340SOL    HW216920   4.846   3.500   0.819
 5341SOL     OW16921   3.139   2.716   6.330
 5341SOL    HW116922   3.132   2.702   6.231
 5341SOL    HW216923   3.140   2.627   6.376
 5342SOL     OW16924   3.071   0.387   3.959
 5342SOL    HW116925   3.108   0.383   3.866
 5342SOL    HW216926   3.123   0.326   4.018
 5343SOL     OW16927   3.732   3.472   4.410
 5343SOL    HW116928   3.739   3.549   4.346
 5343SOL    HW216929   3.638   3.437   4.410
 5344SOL     OW16930   2.353   2.636   2.673
 5344SOL    HW116931   2.335   2.607   2.767
 5344SOL    HW216932   2.335   2.734   2.665
 5345SOL     OW16933   3.261   6.831   1.485
 5345SOL    HW116934   3.339   6.782   1.525
 5345SOL    HW216935   3.196   6.765   1.449
 5346SOL     OW16936   3.580   6.017   4.126
 5346SOL    HW116937   3.528   5.989   4.207
 5346SOL    HW216938   3.573   6.116   4.116
 5347SOL     OW16939   0.930   2.278   1.696
 5347SOL    HW116940   1.023   2.289   1.733
 5347SOL    HW216941   0.935   2.232   1.607
 5348SOL     OW16942   0.058   2.357   0.906
 5348SOL    HW116943   0.133   2.328   0.966
 5348SOL    HW216944   0.051   2.293   0.829
 5349SOL     OW16945   2.119   3.029   0.233
 5349SOL    HW116946   2.121   3.032   0.133
 5349SOL    HW216947   2.184   3.096   0.270
 5350SOL     OW16948   2.294   0.253   5.580
 5350SOL    HW116949   2.362   0.189   5.616
 5350SOL    HW216950   2.204   0.231   5.618
 5351SOL     OW16951   6.525   5.801   2.532
 5351SOL    HW116952   6.522   5.702   2.520
 5351SOL    HW216953   6.615   5.835   2.507
 5352SOL     OW16954   2.713   4.693   3.326
 5352SOL    HW116955   2.633   4.709   3.269
 5352SOL    HW216956   2.697   4.729   3.418
 5353SOL     OW16957   3.948   5.165   3.325
 5353SOL    HW116958   4.046   5.175   3.311
 5353SOL    HW216959   3.923   5.069   3.314
 5354SOL     OW16960   2.509   5.439   2.157
 5354SOL    HW116961   2.552   5.521   2.195
 5354SOL    HW216962   2.490   5.453   2.060
 5355SOL     OW16963   6.134   3.666   3.634
 5355SOL    HW116964   6.071   3.739   3.661
 5355SOL    HW216965   6.227   3.702   3.630
 5356SOL     OW16966   5.803   4.713   1.565
 5356SOL    HW116967   5.773   4.620   1.543
 5356SOL    HW216968   5.825   4.719   1.663
 5357SOL     OW16969   4.714   6.735   0.997
 5357SOL    HW116970   4.661   6.806   1.042
 5357SOL    HW216971   4.657   6.691   0.926
 5358SOL     OW16972   4.702   1.557   0.049
 5358SOL    HW116973   4.727   1.566   6.976
 5358SOL    HW216974   4.783   1.567   0.106
 5359SOL     OW16975   1.247   1.672   5.987
 5359SOL    HW116976   1.271   1.744   6.053
 5359SOL    HW216977   1.297   1.589   6.009
 5360SOL     OW16978   4.105   6.341   5.335
 5360SOL    HW116979   4.010   6.365   5.354
 5360SOL    HW216980   4.136   6.273   5.401
 5361SOL     OW16981   2.481   0.992   5.145
 5361SOL    HW116982   2.395   0.963   5.186
 5361SOL    HW216983   2.464   1.064   5.078
 5362SOL     OW16984   6.102   5.311   3.366
 5362SOL    HW116985   6.194   5.331   3.333
 5362SOL    HW216986   6.058   5.247   3.304
 5363SOL     OW16987   0.210   0.092   6.819
 5363SOL    HW116988   0.287   0.126   6.765
 5363SOL    HW216989   0.148   0.040   6.759
 5364SOL     OW16990   6.316   6.772   2.082
 5364SOL    HW116991   6.275   6.792   1.993
 5364SOL    HW216992   6.245   6.742   2.145
 5365SOL     OW16993   3.481   3.469   6.713
 5365SOL    HW116994   3.524   3.387   6.752
 5365SOL    HW216995   3.511   3.481   6.619
 5366SOL     OW16996   5.054   6.133   2.019
 5366SOL    HW116997   5.127   6.194   2.049
 5366SOL    HW216998   5.054   6.127   1.920
 5367SOL     OW16999   0.800   6.411   0.689
 5367SOL    HW117000   0.760   6.371   0.605
 5367SOL    HW217001   0.884   6.363   0.711
 5368SOL     OW17002   5.127   0.199   3.222
 5368SOL    HW117003   5.045   0.199   3.164
 5368SOL    HW217004   5.111   0.142   3.302
 5369SOL     OW17005   3.091   6.424   2.346
 5369SOL    HW117006   3.178   6.400   2.389
 5369SOL    HW217007   3.101   6.510   2.295
 5370SOL     OW17008   4.407   2.899   1.746
 5370SOL    HW117009   4.446   2.810   1.726
 5370SOL    HW217010   4.481   2.963   1.771
 5371SOL     OW17011   1.196   4.054   5.101
 5371SOL    HW117012   1.185   3.955   5.107
 5371SOL    HW217013   1.217   4.091   5.191
 5372SOL     OW17014   2.669   6.222   4.225
 5372SOL    HW117015   2.711   6.136   4.198
 5372SOL    HW217016   2.628   6.212   4.316
 5373SOL     OW17017   3.769   6.955   4.286
 5373SOL    HW117018   3.816   6.924   4.368
 5373SOL    HW217019   3.678   6.913   4.282
 5374SOL     OW17020   1.308   3.982   6.958
 5374SOL    HW117021   1.343   4.012   0.024
 5374SOL    HW217022   1.342   4.044   6.887
 5375SOL     OW17023   1.627   4.958   4.653
 5375SOL    HW117024   1.561   4.896   4.610
 5375SOL    HW217025   1.644   4.929   4.747
 5376SOL     OW17026   1.227   3.041   1.010
 5376SOL    HW117027   1.264   2.963   0.959
 5376SOL    HW217028   1.246   3.028   1.108
 5377SOL     OW17029   0.380   0.034   2.300
 5377SOL    HW117030   0.374   6.975   2.243
 5377SOL    HW217031   0.438   0.102   2.254
 5378SOL     OW17032   6.766   0.785   1.641
 5378SOL    HW117033   6.719   0.866   1.606
 5378SOL    HW217034   6.797   0.729   1.564
 5379SOL     OW17035   1.647   4.881   4.900
 5379SOL    HW117036   1.587   4.938   4.956
 5379SOL    HW217037   1.610   4.789   4.894
 5380SOL     OW17038   2.210   2.088   2.962
 5380SOL    HW117039   2.301   2.065   2.929
 5380SOL    HW217040   2.143   2.070   2.890
 5381SOL     OW17041   6.827   4.094   1.630
 5381SOL    HW117042   6.822   4.037   1.712
 5381SOL    HW217043   6.738   4.095   1.585
 5382SOL     OW17044   2.923   0.767   2.040
 5382SOL    HW117045   3.011   0.792   2.081
 5382SOL    HW217046   2.850   0.820   2.082
 5383SOL     OW17047   2.350   2.541   5.637
 5383SOL    HW117048   2.369   2.624   5.585
 5383SOL    HW217049   2.322   2.468   5.575
 5384SOL     OW17050   6.218   6.981   5.137
 5384SOL    HW117051   6.122   6.958   5.125
 5384SOL    HW217052   6.227   0.030   5.206
 5385SOL     OW17053   2.939   3.396   3.804
 5385SOL    HW117054   2.876   3.386   3.880
 5385SOL    HW217055   2.958   3.493   3.788
 5386SOL     OW17056   4.748   0.081   4.276
 5386SOL    HW117057   4.730   7.021   4.222
 5386SOL    HW217058   4.671   0.098   4.337
 5387SOL     OW17059   2.344   6.657   3.606
 5387SOL    HW117060   2.392   6.733   3.650
 5387SOL    HW217061   2.367   6.655   3.509
 5388SOL     OW17062   0.108   0.545   4.223
 5388SOL    HW117063   0.134   0.471   4.285
 5388SOL    HW217064   0.187   0.569   4.166
 5389SOL     OW17065   4.704   1.135   2.199
 5389SOL    HW117066   4.660   1.218   2.164
 5389SOL    HW217067   4.794   1.158   2.236
 5390SOL     OW17068   4.637   4.404   3.083
 5390SOL    HW117069   4.652   4.492   3.039
 5390SOL    HW217070   4.682   4.332   3.031
 5391SOL     OW17071   1.928   2.412   1.136
 5391SOL    HW117072   1.833   2.420   1.167
 5391SOL    HW217073   1.948   2.316   1.114
 5392SOL     OW17074   5.442   2.908   1.543
 5392SOL    HW117075   5.459   2.820   1.498
 5392SOL    HW217076   5.443   2.981   1.475
 5393SOL     OW17077   4.905   6.957   6.370
 5393SOL    HW117078   4.978   6.890   6.386
 5393SOL    HW217079   4.819   6.922   6.408
 5394SOL     OW17080   6.875   4.874   6.553
 5394SOL    HW117081   6.945   4.808   6.579
 5394SOL    HW217082   6.817   4.835   6.481
 5395SOL     OW17083   5.105   0.918   1.713
 5395SOL    HW117084   5.161   0.915   1.796
 5395SOL    HW217085   5.023   0.862   1.726
 5396SOL     OW17086   4.492   4.740   2.196
 5396SOL    HW117087   4.504   4.833   2.162
 5396SOL    HW217088   4.395   4.716   2.193
 5397SOL     OW17089   0.348   2.246   1.449
 5397SOL    HW117090   0.325   2.299   1.530
 5397SOL    HW217091   0.360   2.308   1.371
 5398SOL     OW17092   3.443   2.140   3.100
 5398SOL    HW117093   3.350   2.175   3.083
 5398SOL    HW217094   3.460   2.139   3.199
 5399SOL     OW17095   2.534   5.843   0.466
 5399SOL    HW117096   2.577   5.872   0.381
 5399SOL    HW217097   2.604   5.830   0.536
 5400SOL     OW17098   2.650   3.979   0.887
 5400SOL    HW117099   2.640   3.896   0.833
 5400SOL    HW217100   2.580   3.981   0.959
 5401SOL     OW17101   5.801   3.286   1.019
 5401SOL    HW117102   5.820   3.235   1.103
 5401SOL    HW217103   5.859   3.368   1.016
 5402SOL     OW17104   2.484   5.255   1.583
 5402SOL    HW117105   2.560   5.312   1.614
 5402SOL    HW217106   2.482   5.171   1.636
 5403SOL     OW17107   6.019   2.545   6.179
 5403SOL    HW117108   6.060   2.617   6.236
 5403SOL    HW217109   5.985   2.471   6.238
 5404SOL     OW17110   0.900   0.776   2.648
 5404SOL    HW117111   0.953   0.721   2.583
 5404SOL    HW217112   0.872   0.861   2.604
 5405SOL     OW17113   6.004   5.887   0.630
 5405SOL    HW117114   6.054   5.859   0.548
 5405SOL    HW217115   6.041   5.974   0.663
 5406SOL     OW17116   2.606   0.140   6.291
 5406SOL    HW117117   2.587   0.188   6.377
 5406SOL    HW217118   2.629   0.045   6.311
 5407SOL     OW17119   4.865   2.655   1.393
 5407SOL    HW117120   4.925   2.582   1.423
 5407SOL    HW217121   4.920   2.736   1.370
 5408SOL     OW17122   3.494   1.264   5.977
 5408SOL    HW117123   3.407   1.310   5.960
 5408SOL    HW217124   3.500   1.181   5.921
 5409SOL     OW17125   6.035   1.336   4.162
 5409SOL    HW117126   5.966   1.408   4.169
 5409SOL    HW217127   6.124   1.373   4.186
 5410SOL     OW17128   1.871   3.088   1.240
 5410SOL    HW117129   1.961   3.045   1.250
 5410SOL    HW217130   1.882   3.181   1.203
 5411SOL     OW17131   6.704   4.648   6.080
 5411SOL    HW117132   6.607   4.672   6.083
 5411SOL    HW217133   6.715   4.551   6.102
 5412SOL     OW17134   4.183   0.791   6.675
 5412SOL    HW117135   4.195   0.889   6.688
 5412SOL    HW217136   4.138   0.774   6.587
 5413SOL     OW17137   1.629   0.342   1.005
 5413SOL    HW117138   1.645   0.375   1.098
 5413SOL    HW217139   1.546   0.384   0.968
 5414SOL     OW17140   6.310   3.065   4.890
 5414SOL    HW117141   6.331   3.155   4.929
 5414SOL    HW217142   6.353   3.057   4.800
 5415SOL     OW17143   1.375   6.247   1.555
 5415SOL    HW117144   1.368   6.347   1.563
 5415SOL    HW217145   1.464   6.223   1.518
 5416SOL     OW17146   3.917   4.650   6.399
 5416SOL    HW117147   3.872   4.687   6.481
 5416SOL    HW217148   3.947   4.725   6.341
 5417SOL     OW17149   4.024   6.454   4.961
 5417SOL    HW117150   3.999   6.545   4.993
 5417SOL    HW217151   3.974   6.385   5.015
 5418SOL     OW17152   4.085   6.587   4.426
 5418SOL    HW117153   4.088   6.533   4.342
 5418SOL    HW217154   4.174   6.584   4.471
 5419SOL     OW17155   3.240   5.247   0.429
 5419SOL    HW117156   3.264   5.160   0.471
 5419SOL    HW217157   3.261   5.322   0.492
 5420SOL     OW17158   1.499   2.400   1.850
 5420SOL    HW117159   1.542   2.425   1.937
 5420SOL    HW217160   1.557   2.333   1.803
 5421SOL     OW17161   2.197   3.866   2.344
 5421SOL    HW117162   2.241   3.811   2.414
 5421SOL    HW217163   2.246   3.855   2.257
 5422SOL     OW17164   0.514   6.097   6.241
 5422SOL    HW117165   0.420   6.069   6.225
 5422SOL    HW217166   0.515   6.183   6.292
 5423SOL     OW17167   5.268   2.736   6.753
 5423SOL    HW117168   5.214   2.815   6.784
 5423SOL    HW217169   5.211   2.677   6.696
 5424SOL     OW17170   5.166   2.913   4.362
 5424SOL    HW117171   5.102   2.949   4.429
 5424SOL    HW217172   5.252   2.963   4.367
 5425SOL     OW17173   4.525   1.754   4.149
 5425SOL    HW117174   4.486   1.704   4.072
 5425SOL    HW217175   4.468   1.834   4.168
 5426SOL     OW17176   6.673   5.319   3.926
 5426SOL    HW117177   6.621   5.381   3.984
 5426SOL    HW217178   6.745   5.275   3.980
 5427SOL     OW17179   5.152   4.844   0.823
 5427SOL    HW117180   5.221   4.883   0.883
 5427SOL    HW217181   5.062   4.851   0.866
 5428SOL     OW17182   0.082   0.517   1.701
 5428SOL    HW117183   0.031   0.534   1.785
 5428SOL    HW217184   0.031   0.554   1.623
 5429SOL     OW17185   1.156   1.770   5.752
 5429SOL    HW117186   1.181   1.729   5.839
 5429SOL    HW217187   1.068   1.733   5.721
 5430SOL     OW17188   0.895   3.589   5.526
 5430SOL    HW117189   0.862   3.681   5.503
 5430SOL    HW217190   0.825   3.522   5.505
 5431SOL     OW17191   3.235   5.726   6.429
 5431SOL    HW117192   3.164   5.733   6.499
 5431SOL    HW217193   3.290   5.644   6.445
 5432SOL     OW17194   3.943   6.503   6.364
 5432SOL    HW117195   3.894   6.543   6.286
 5432SOL    HW217196   3.879   6.489   6.439
 5433SOL     OW17197   0.436   1.396   3.783
 5433SOL    HW117198   0.482   1.484   3.786
 5433SOL    HW217199   0.415   1.366   3.876
 5434SOL     OW17200   4.130   1.194   4.463
 5434SOL    HW117201   4.078   1.263   4.413
 5434SOL    HW217202   4.146   1.225   4.556
 5435SOL     OW17203   5.678   1.813   1.726
 5435SOL    HW117204   5.675   1.793   1.628
 5435SOL    HW217205   5.771   1.801   1.760
 5436SOL     OW17206   4.977   4.169   4.391
 5436SOL    HW117207   4.965   4.222   4.475
 5436SOL    HW217208   5.068   4.128   4.390
 5437SOL     OW17209   2.592   5.159   5.789
 5437SOL    HW117210   2.616   5.121   5.878
 5437SOL    HW217211   2.664   5.135   5.723
 5438SOL     OW17212   5.536   3.864   2.769
 5438SOL    HW117213   5.589   3.800   2.824
 5438SOL    HW217214   5.591   3.946   2.751
 5439SOL     OW17215   0.782   2.298   1.028
 5439SOL    HW117216   0.769   2.376   0.967
 5439SOL    HW217217   0.836   2.326   1.107
 5440SOL     OW17218   0.587   0.242   1.870
 5440SOL    HW117219   0.680   0.230   1.835
 5440SOL    HW217220   0.556   0.335   1.852
 5441SOL     OW17221   4.939   2.855   3.270
 5441SOL    HW117222   4.992   2.940   3.277
 5441SOL    HW217223   4.872   2.863   3.196
 5442SOL     OW17224   3.523   6.328   3.329
 5442SOL    HW117225   3.481   6.272   3.258
 5442SOL    HW217226   3.614   6.293   3.350
 5443SOL     OW17227   2.287   0.781   3.412
 5443SOL    HW117228   2.258   0.757   3.319
 5443SOL    HW217229   2.334   0.869   3.411
 5444SOL     OW17230   1.737   0.654   3.636
 5444SOL    HW117231   1.712   0.704   3.553
 5444SOL    HW217232   1.837   0.644   3.640
 5445SOL     OW17233   6.001   4.323   4.113
 5445SOL    HW117234   6.067   4.249   4.126
 5445SOL    HW217235   5.939   4.327   4.191
 5446SOL     OW17236   6.291   5.221   5.507
 5446SOL    HW117237   6.367   5.195   5.566
 5446SOL    HW217238   6.296   5.169   5.421
 5447SOL     OW17239   1.653   2.101   0.013
 5447SOL    HW117240   1.728   2.038   7.017
 5447SOL    HW217241   1.569   2.049   0.028
 5448SOL     OW17242   5.737   3.265   4.878
 5448SOL    HW117243   5.712   3.168   4.877
 5448SOL    HW217244   5.835   3.273   4.900
 5449SOL     OW17245   1.617   2.240   6.639
 5449SOL    HW117246   1.607   2.143   6.619
 5449SOL    HW217247   1.687   2.280   6.580
 5450SOL     OW17248   1.931   0.450   1.985
 5450SOL    HW117249   1.858   0.484   1.926
 5450SOL    HW217250   1.926   0.496   2.074
 5451SOL     OW17251   1.472   5.874   4.005
 5451SOL    HW117252   1.388   5.860   3.952
 5451SOL    HW217253   1.549   5.835   3.956
 5452SOL     OW17254   2.001   4.469   0.270
 5452SOL    HW117255   1.971   4.479   0.175
 5452SOL    HW217256   2.024   4.373   0.288
 5453SOL     OW17257   5.362   4.325   1.801
 5453SOL    HW117258   5.359   4.414   1.756
 5453SOL    HW217259   5.457   4.293   1.806
 5454SOL     OW17260   6.639   3.975   5.947
 5454SOL    HW117261   6.654   3.882   5.912
 5454SOL    HW217262   6.725   4.026   5.944
 5455SOL     OW17263   5.931   2.907   1.287
 5455SOL    HW117264   6.018   2.936   1.326
 5455SOL    HW217265   5.945   2.880   1.192
 5456SOL     OW17266   2.694   0.432   6.416
 5456SOL    HW117267   2.778   0.394   6.456
 5456SOL    HW217268   2.628   0.450   6.489
 5457SOL     OW17269   6.633   2.712   0.655
 5457SOL    HW117270   6.651   2.747   0.564
 5457SOL    HW217271   6.672   2.620   0.665
 5458SOL     OW17272   0.408   4.191   0.702
 5458SOL    HW117273   0.465   4.242   0.766
 5458SOL    HW217274   0.312   4.199   0.730
 5459SOL     OW17275   1.963   4.123   6.994
 5459SOL    HW117276   1.926   4.216   7.007
 5459SOL    HW217277   2.020   4.122   6.913
 5460SOL     OW17278   4.035   0.418   3.198
 5460SOL    HW117279   4.037   0.362   3.116
 5460SOL    HW217280   4.127   0.425   3.236
 5461SOL     OW17281   6.136   0.283   5.900
 5461SOL    HW117282   6.069   0.302   5.972
 5461SOL    HW217283   6.197   0.209   5.930
 5462SOL     OW17284   0.314   0.298   0.457
 5462SOL    HW117285   0.243   0.361   0.489
 5462SOL    HW217286   0.378   0.280   0.532
 5463SOL     OW17287   7.007   1.629   0.698
 5463SOL    HW117288   7.022   1.665   0.791
 5463SOL    HW217289   6.954   1.696   0.646
 5464SOL     OW17290   0.843   1.208   4.503
 5464SOL    HW117291   0.876   1.290   4.456
 5464SOL    HW217292   0.811   1.233   4.595
 5465SOL     OW17293   4.095   0.141   3.706
 5465SOL    HW117294   4.038   0.074   3.753
 5465SOL    HW217295   4.039   0.219   3.678
 5466SOL     OW17296   5.366   2.866   4.666
 5466SOL    HW117297   5.389   2.898   4.757
 5466SOL    HW217298   5.335   2.771   4.670
 5467SOL     OW17299   5.218   3.293   3.425
 5467SOL    HW117300   5.150   3.367   3.434
 5467SOL    HW217301   5.304   3.331   3.391
 5468SOL     OW17302   5.782   3.054   4.071
 5468SOL    HW117303   5.853   3.010   4.016
 5468SOL    HW217304   5.826   3.106   4.145
 5469SOL     OW17305   3.324   6.145   6.202
 5469SOL    HW117306   3.384   6.081   6.153
 5469SOL    HW217307   3.325   6.233   6.155
 5470SOL     OW17308   3.387   5.848   3.254
 5470SOL    HW117309   3.414   5.776   3.318
 5470SOL    HW217310   3.290   5.837   3.232
 5471SOL     OW17311   5.310   0.043   2.948
 5471SOL    HW117312   5.296   7.000   3.022
 5471SOL    HW217313   5.404   0.076   2.950
 5472SOL     OW17314   4.348   3.678   5.979
 5472SOL    HW117315   4.307   3.760   5.939
 5472SOL    HW217316   4.276   3.623   6.022
 5473SOL     OW17317   0.318   2.806   2.247
 5473SOL    HW117318   0.378   2.881   2.218
 5473SOL    HW217319   0.312   2.738   2.173
 5474SOL     OW17320   0.888   4.912   4.022
 5474SOL    HW117321   0.977   4.929   3.978
 5474SOL    HW217322   0.869   4.814   4.023
 5475SOL     OW17323   2.344   3.068   1.700
 5475SOL    HW117324   2.413   3.122   1.747
 5475SOL    HW217325   2.291   3.126   1.638
 5476SOL     OW17326   2.048   4.619   5.856
 5476SOL    HW117327   1.990   4.538   5.860
 5476SOL    HW217328   2.023   4.681   5.931
 5477SOL     OW17329   2.402   4.626   3.093
 5477SOL    HW117330   2.395   4.664   3.185
 5477SOL    HW217331   2.443   4.693   3.032
 5478SOL     OW17332   3.692   5.151   4.843
 5478SOL    HW117333   3.619   5.122   4.905
 5478SOL    HW217334   3.770   5.089   4.851
 5479SOL     OW17335   5.436   1.669   6.386
 5479SOL    HW117336   5.498   1.678   6.307
 5479SOL    HW217337   5.383   1.585   6.378
 5480SOL     OW17338   6.274   4.573   2.479
 5480SOL    HW117339   6.248   4.478   2.462
 5480SOL    HW217340   6.352   4.576   2.542
 5481SOL     OW17341   4.473   1.628   4.394
 5481SOL    HW117342   4.481   1.532   4.367
 5481SOL    HW217343   4.504   1.687   4.319
 5482SOL     OW17344   3.408   4.652   1.570
 5482SOL    HW117345   3.455   4.611   1.649
 5482SOL    HW217346   3.398   4.750   1.585
 5483SOL     OW17347   0.823   1.955   5.597
 5483SOL    HW117348   0.760   1.909   5.533
 5483SOL    HW217349   0.881   2.019   5.546
 5484SOL     OW17350   4.211   1.567   4.248
 5484SOL    HW117351   4.264   1.532   4.171
 5484SOL    HW217352   4.203   1.667   4.241
 5485SOL     OW17353   3.813   6.987   5.468
 5485SOL    HW117354   3.895   6.939   5.437
 5485SOL    HW217355   3.736   6.965   5.408
 5486SOL     OW17356   2.643   5.819   5.562
 5486SOL    HW117357   2.630   5.764   5.645
 5486SOL    HW217358   2.710   5.891   5.579
 5487SOL     OW17359   4.171   2.833   6.815
 5487SOL    HW117360   4.212   2.812   6.905
 5487SOL    HW217361   4.220   2.910   6.774
 5488SOL     OW17362   6.574   0.152   1.095
 5488SOL    HW117363   6.520   0.133   1.013
 5488SOL    HW217364   6.589   0.067   1.145
 5489SOL     OW17365   0.780   4.249   1.833
 5489SOL    HW117366   0.831   4.295   1.760
 5489SOL    HW217367   0.840   4.235   1.912
 5490SOL     OW17368   2.911   0.689   2.734
 5490SOL    HW117369   3.006   0.707   2.762
 5490SOL    HW217370   2.874   0.614   2.790
 5491SOL     OW17371   0.868   3.100   0.294
 5491SOL    HW117372   0.918   3.177   0.333
 5491SOL    HW217373   0.871   3.023   0.357
 5492SOL     OW17374   0.789   4.038   6.745
 5492SOL    HW117375   0.826   3.993   6.664
 5492SOL    HW217376   0.713   4.097   6.718
 5493SOL     OW17377   3.039   3.223   4.125
 5493SOL    HW117378   2.950   3.202   4.165
 5493SOL    HW217379   3.070   3.145   4.070
 5494SOL     OW17380   0.222   3.494   5.688
 5494SOL    HW117381   0.294   3.435   5.651
 5494SOL    HW217382   0.162   3.524   5.615
 5495SOL     OW17383   6.164   1.056   1.079
 5495SOL    HW117384   6.108   1.014   1.008
 5495SOL    HW217385   6.260   1.039   1.060
 5496SOL     OW17386   3.823   0.597   3.245
 5496SOL    HW117387   3.877   0.515   3.263
 5496SOL    HW217388   3.803   0.603   3.147
 5497SOL     OW17389   1.123   1.001   4.994
 5497SOL    HW117390   1.163   1.048   4.916
 5497SOL    HW217391   1.035   1.043   5.018
 5498SOL     OW17392   0.079   5.319   2.087
 5498SOL    HW117393   0.037   5.406   2.112
 5498SOL    HW217394   0.026   5.277   2.013
 5499SOL     OW17395   1.344   0.502   4.543
 5499SOL    HW117396   1.327   0.572   4.473
 5499SOL    HW217397   1.288   0.422   4.525
 5500SOL     OW17398   1.043   0.676   6.847
 5500SOL    HW117399   1.142   0.662   6.853
 5500SOL    HW217400   1.000   0.591   6.817
 5501SOL     OW17401   3.864   2.082   0.104
 5501SOL    HW117402   3.961   2.076   0.078
 5501SOL    HW217403   3.819   2.153   0.050
 5502SOL     OW17404   5.406   3.826   6.647
 5502SOL    HW117405   5.335   3.759   6.666
 5502SOL    HW217406   5.455   3.848   6.732
 5503SOL     OW17407   6.714   4.730   1.053
 5503SOL    HW117408   6.789   4.796   1.043
 5503SOL    HW217409   6.730   4.674   1.134
 5504SOL     OW17410   4.734   1.033   5.031
 5504SOL    HW117411   4.703   0.938   5.021
 5504SOL    HW217412   4.778   1.044   5.120
 5505SOL     OW17413   1.996   4.210   3.346
 5505SOL    HW117414   1.957   4.224   3.437
 5505SOL    HW217415   1.932   4.245   3.277
 5506SOL     OW17416   0.178   3.460   1.069
 5506SOL    HW117417   0.152   3.407   0.989
 5506SOL    HW217418   0.261   3.421   1.109
 5507SOL     OW17419   3.772   1.003   4.802
 5507SOL    HW117420   3.690   0.947   4.787
 5507SOL    HW217421   3.799   1.044   4.715
 5508SOL     OW17422   1.228   1.664   0.365
 5508SOL    HW117423   1.227   1.764   0.370
 5508SOL    HW217424   1.197   1.626   0.452
 5509SOL     OW17425   0.716   5.986   6.865
 5509SOL    HW117426   0.794   6.024   6.915
 5509SOL    HW217427   0.735   5.891   6.841
 5510SOL     OW17428   4.282   5.417   6.865
 5510SOL    HW117429   4.336   5.348   6.816
 5510SOL    HW217430   4.251   5.487   6.801
 5511SOL     OW17431   1.383   0.977   4.148
 5511SOL    HW117432   1.464   1.004   4.199
 5511SOL    HW217433   1.401   0.985   4.050
 5512SOL     OW17434   4.596   1.734   0.725
 5512SOL    HW117435   4.519   1.698   0.673
 5512SOL    HW217436   4.682   1.696   0.690
 5513SOL     OW17437   3.991   5.250   6.061
 5513SOL    HW117438   3.978   5.211   5.969
 5513SOL    HW217439   3.908   5.297   6.089
 5514SOL     OW17440   3.114   1.128   4.519
 5514SOL    HW117441   3.172   1.155   4.443
 5514SOL    HW217442   3.032   1.083   4.484
 5515SOL     OW17443   0.864   5.474   1.809
 5515SOL    HW117444   0.960   5.448   1.814
 5515SOL    HW217445   0.857   5.573   1.797
 5516SOL     OW17446   1.789   2.471   4.533
 5516SOL    HW117447   1.761   2.566   4.519
 5516SOL    HW217448   1.886   2.461   4.512
 5517SOL     OW17449   2.092   3.550   2.287
 5517SOL    HW117450   2.073   3.455   2.313
 5517SOL    HW217451   2.108   3.555   2.189
 5518SOL     OW17452   5.917   5.204   6.493
 5518SOL    HW117453   5.856   5.265   6.545
 5518SOL    HW217454   5.978   5.156   6.556
 5519SOL     OW17455   5.814   2.792   3.112
 5519SOL    HW117456   5.856   2.759   3.196
 5519SOL    HW217457   5.839   2.888   3.097
 5520SOL     OW17458   5.469   0.072   2.311
 5520SOL    HW117459   5.406   0.136   2.266
 5520SOL    HW217460   5.535   0.037   2.243
 5521SOL     OW17461   5.285   6.638   2.125
 5521SOL    HW117462   5.308   6.572   2.197
 5521SOL    HW217463   5.239   6.590   2.051
 5522SOL     OW17464   6.427   5.422   1.152
 5522SOL    HW117465   6.491   5.350   1.179
 5522SOL    HW217466   6.447   5.505   1.204
 5523SOL     OW17467   4.275   0.550   1.869
 5523SOL    HW117468   4.235   0.573   1.780
 5523SOL    HW217469   4.224   0.595   1.942
 5524SOL     OW17470   3.668   6.942   4.693
 5524SOL    HW117471   3.569   6.934   4.679
 5524SOL    HW217472   3.700   0.006   4.658
 5525SOL     OW17473   1.657   2.540   0.357
 5525SOL    HW117474   1.745   2.586   0.348
 5525SOL    HW217475   1.587   2.593   0.309
 5526SOL     OW17476   4.898   4.854   2.641
 5526SOL    HW117477   4.822   4.792   2.655
 5526SOL    HW217478   4.908   4.914   2.720
 5527SOL     OW17479   5.047   3.793   3.612
 5527SOL    HW117480   4.996   3.848   3.546
 5527SOL    HW217481   4.998   3.789   3.699
 5528SOL     OW17482   1.734   1.015   0.711
 5528SOL    HW117483   1.809   0.992   0.773
 5528SOL    HW217484   1.647   0.999   0.756
 5529SOL     OW17485   3.035   6.998   4.587
 5529SOL    HW117486   3.098   0.000   4.514
 5529SOL    HW217487   3.064   6.911   4.627
 5530SOL     OW17488   6.289   1.966   1.426
 5530SOL    HW117489   6.282   2.055   1.469
 5530SOL    HW217490   6.340   1.974   1.340
 5531SOL     OW17491   3.783   3.506   1.323
 5531SOL    HW117492   3.758   3.503   1.420
 5531SOL    HW217493   3.812   3.415   1.293
 5532SOL     OW17494   1.351   3.333   0.934
 5532SOL    HW117495   1.312   3.243   0.957
 5532SOL    HW217496   1.340   3.349   0.836
 5533SOL     OW17497   4.658   1.237   3.509
 5533SOL    HW117498   4.589   1.276   3.449
 5533SOL    HW217499   4.746   1.282   3.492
 5534SOL     OW17500   1.129   1.568   0.127
 5534SOL    HW117501   1.170   1.568   0.219
 5534SOL    HW217502   1.075   1.651   0.114
 5535SOL     OW17503   1.135   1.351   2.935
 5535SOL    HW117504   1.115   1.370   3.031
 5535SOL    HW217505   1.173   1.259   2.926
 5536SOL     OW17506   3.948   0.488   3.907
 5536SOL    HW117507   3.876   0.420   3.895
 5536SOL    HW217508   3.908   0.579   3.911
 5537SOL     OW17509   3.377   1.231   2.362
 5537SOL    HW117510   3.294   1.243   2.415
 5537SOL    HW217511   3.417   1.321   2.341
 5538SOL     OW17512   3.994   5.352   5.253
 5538SOL    HW117513   3.908   5.345   5.202
 5538SOL    HW217514   4.065   5.387   5.192
 5539SOL     OW17515   1.570   3.959   1.675
 5539SOL    HW117516   1.595   4.043   1.725
 5539SOL    HW217517   1.471   3.955   1.664
 5540SOL     OW17518   4.592   4.645   3.767
 5540SOL    HW117519   4.604   4.739   3.797
 5540SOL    HW217520   4.680   4.599   3.764
 5541SOL     OW17521   4.878   0.220   6.299
 5541SOL    HW117522   4.843   0.248   6.388
 5541SOL    HW217523   4.914   0.127   6.305
 5542SOL     OW17524   4.073   3.547   6.012
 5542SOL    HW117525   4.080   3.470   6.076
 5542SOL    HW217526   4.032   3.626   6.059
 5543SOL     OW17527   5.122   3.788   6.284
 5543SOL    HW117528   5.140   3.871   6.337
 5543SOL    HW217529   5.024   3.783   6.262
 5544SOL     OW17530   4.854   6.131   6.643
 5544SOL    HW117531   4.893   6.150   6.733
 5544SOL    HW217532   4.762   6.093   6.654
 5545SOL     OW17533   4.752   1.414   2.830
 5545SOL    HW117534   4.829   1.461   2.787
 5545SOL    HW217535   4.745   1.321   2.794
 5546SOL     OW17536   0.959   5.030   4.666
 5546SOL    HW117537   0.869   5.048   4.706
 5546SOL    HW217538   0.949   5.016   4.567
 5547SOL     OW17539   2.576   6.730   5.332
 5547SOL    HW117540   2.521   6.803   5.290
 5547SOL    HW217541   2.551   6.721   5.428
 5548SOL     OW17542   6.267   3.629   5.356
 5548SOL    HW117543   6.174   3.598   5.336
 5548SOL    HW217544   6.289   3.611   5.452
 5549SOL     OW17545   3.777   4.716   0.115
 5549SOL    HW117546   3.830   4.642   0.073
 5549SOL    HW217547   3.745   4.779   0.044
 5550SOL     OW17548   2.811   5.774   1.943
 5550SOL    HW117549   2.726   5.796   1.992
 5550SOL    HW217550   2.879   5.739   2.008
 5551SOL     OW17551   1.828   0.861   2.793
 5551SOL    HW117552   1.785   0.770   2.794
 5551SOL    HW217553   1.820   0.902   2.884
 5552SOL     OW17554   0.113   1.763   0.103
 5552SOL    HW117555   0.023   1.729   0.133
 5552SOL    HW217556   0.185   1.717   0.155
 5553SOL     OW17557   3.606   6.501   0.390
 5553SOL    HW117558   3.612   6.567   0.315
 5553SOL    HW217559   3.660   6.534   0.468
 5554SOL     OW17560   2.803   2.043   5.740
 5554SOL    HW117561   2.783   2.125   5.686
 5554SOL    HW217562   2.884   1.998   5.702
 5555SOL     OW17563   0.777   5.616   3.834
 5555SOL    HW117564   0.677   5.619   3.843
 5555SOL    HW217565   0.809   5.525   3.861
 5556SOL     OW17566   0.142   2.231   4.680
 5556SOL    HW117567   0.200   2.261   4.756
 5556SOL    HW217568   0.107   2.311   4.631
 5557SOL     OW17569   3.006   5.751   4.232
 5557SOL    HW117570   3.074   5.765   4.160
 5557SOL    HW217571   2.943   5.679   4.204
 5558SOL     OW17572   4.923   3.362   5.181
 5558SOL    HW117573   4.878   3.451   5.182
 5558SOL    HW217574   4.880   3.303   5.113
 5559SOL     OW17575   2.293   6.926   1.880
 5559SOL    HW117576   2.267   6.866   1.955
 5559SOL    HW217577   2.376   6.976   1.904
 5560SOL     OW17578   6.747   6.904   3.351
 5560SOL    HW117579   6.739   6.815   3.307
 5560SOL    HW217580   6.663   6.956   3.338
 5561SOL     OW17581   0.972   2.635   4.432
 5561SOL    HW117582   0.948   2.679   4.518
 5561SOL    HW217583   1.008   2.703   4.368
 5562SOL     OW17584   1.754   2.438   6.470
 5562SOL    HW117585   1.825   2.428   6.400
 5562SOL    HW217586   1.797   2.454   6.559
 5563SOL     OW17587   4.904   6.362   2.048
 5563SOL    HW117588   4.952   6.274   2.049
 5563SOL    HW217589   4.815   6.351   2.092
 5564SOL     OW17590   4.953   2.994   1.412
 5564SOL    HW117591   4.964   2.953   1.502
 5564SOL    HW217592   4.858   3.018   1.397
 5565SOL     OW17593   4.139   2.682   5.625
 5565SOL    HW117594   4.185   2.746   5.564
 5565SOL    HW217595   4.206   2.619   5.665
 5566SOL     OW17596   1.703   5.690   0.989
 5566SOL    HW117597   1.747   5.770   0.948
 5566SOL    HW217598   1.756   5.608   0.968
 5567SOL     OW17599   1.505   5.044   1.108
 5567SOL    HW117600   1.408   5.068   1.118
 5567SOL    HW217601   1.526   5.028   1.012
 5568SOL     OW17602   4.535   2.421   0.982
 5568SOL    HW117603   4.517   2.468   0.896
 5568SOL    HW217604   4.448   2.403   1.029
 5569SOL     OW17605   4.276   1.433   1.753
 5569SOL    HW117606   4.227   1.504   1.804
 5569SOL    HW217607   4.215   1.394   1.683
 5570SOL     OW17608   6.134   4.914   4.812
 5570SOL    HW117609   6.201   4.931   4.884
 5570SOL    HW217610   6.166   4.955   4.726
 5571SOL     OW17611   0.224   6.057   0.995
 5571SOL    HW117612   0.152   5.996   0.962
 5571SOL    HW217613   0.259   6.023   1.082
 5572SOL     OW17614   3.800   2.117   6.733
 5572SOL    HW117615   3.828   2.210   6.708
 5572SOL    HW217616   3.877   2.069   6.774
 5573SOL     OW17617   1.332   3.264   0.623
 5573SOL    HW117618   1.431   3.248   0.625
 5573SOL    HW217619   1.311   3.334   0.554
 5574SOL     OW17620   0.116   6.929   4.414
 5574SOL    HW117621   0.211   6.911   4.440
 5574SOL    HW217622   0.111   6.947   4.316
 5575SOL     OW17623   1.559   0.923   1.214
 5575SOL    HW117624   1.604   1.003   1.173
 5575SOL    HW217625   1.619   0.844   1.207
 5576SOL     OW17626   6.242   5.304   1.307
 5576SOL    HW117627   6.303   5.230   1.337
 5576SOL    HW217628   6.293   5.368   1.250
 5577SOL     OW17629   2.135   3.542   5.587
 5577SOL    HW117630   2.097   3.593   5.510
 5577SOL    HW217631   2.109   3.446   5.580
 5578SOL     OW17632   3.257   2.662   6.953
 5578SOL    HW117633   3.213   2.632   0.015
 5578SOL    HW217634   3.345   2.616   6.943
 5579SOL     OW17635   5.158   3.704   6.694
 5579SOL    HW117636   5.095   3.767   6.648
 5579SOL    HW217637   5.203   3.646   6.625
 5580SOL     OW17638   4.834   2.295   0.586
 5580SOL    HW117639   4.800   2.226   0.522
 5580SOL    HW217640   4.849   2.252   0.675
 5581SOL     OW17641   2.197   0.560   6.681
 5581SOL    HW117642   2.219   0.657   6.694
 5581SOL    HW217643   2.215   0.511   6.766
 5582SOL     OW17644   3.297   3.937   3.857
 5582SOL    HW117645   3.391   3.911   3.877
 5582SOL    HW217646   3.264   4.001   3.925
 5583SOL     OW17647   3.777   6.231   2.383
 5583SOL    HW117648   3.868   6.247   2.423
 5583SOL    HW217649   3.717   6.191   2.453
 5584SOL     OW17650   5.519   4.138   3.162
 5584SOL    HW117651   5.464   4.113   3.082
 5584SOL    HW217652   5.468   4.116   3.245
 5585SOL     OW17653   5.703   0.964   3.638
 5585SOL    HW117654   5.765   0.934   3.710
 5585SOL    HW217655   5.616   0.994   3.678
 5586SOL     OW17656   1.680   1.749   5.951
 5586SOL    HW117657   1.764   1.786   5.912
 5586SOL    HW217658   1.701   1.701   6.036
 5587SOL     OW17659   3.211   0.640   3.354
 5587SOL    HW117660   3.297   0.643   3.302
 5587SOL    HW217661   3.220   0.697   3.436
 5588SOL     OW17662   2.405   6.924   5.170
 5588SOL    HW117663   2.354   6.850   5.126
 5588SOL    HW217664   2.341   6.993   5.204
 5589SOL     OW17665   4.867   2.837   6.025
 5589SOL    HW117666   4.932   2.888   6.081
 5589SOL    HW217667   4.845   2.751   6.069
 5590SOL     OW17668   6.228   5.671   4.351
 5590SOL    HW117669   6.138   5.628   4.340
 5590SOL    HW217670   6.222   5.746   4.417
 5591SOL     OW17671   6.156   0.534   0.337
 5591SOL    HW117672   6.218   0.606   0.307
 5591SOL    HW217673   6.096   0.569   0.408
 5592SOL     OW17674   1.673   3.970   3.745
 5592SOL    HW117675   1.757   3.945   3.697
 5592SOL    HW217676   1.594   3.949   3.688
 5593SOL     OW17677   0.381   2.621   5.868
 5593SOL    HW117678   0.340   2.636   5.958
 5593SOL    HW217679   0.434   2.537   5.869
 5594SOL     OW17680   2.199   0.784   0.341
 5594SOL    HW117681   2.244   0.778   0.252
 5594SOL    HW217682   2.230   0.709   0.399
 5595SOL     OW17683   6.069   1.046   5.740
 5595SOL    HW117684   6.027   1.035   5.650
 5595SOL    HW217685   6.050   0.966   5.796
 5596SOL     OW17686   5.758   0.645   2.766
 5596SOL    HW117687   5.795   0.722   2.817
 5596SOL    HW217688   5.830   0.578   2.749
 5597SOL     OW17689   5.745   1.888   6.516
 5597SOL    HW117690   5.799   1.804   6.512
 5597SOL    HW217691   5.657   1.868   6.558
 5598SOL     OW17692   5.307   1.882   4.155
 5598SOL    HW117693   5.398   1.842   4.157
 5598SOL    HW217694   5.310   1.972   4.112
 5599SOL     OW17695   5.290   3.791   1.383
 5599SOL    HW117696   5.231   3.723   1.427
 5599SOL    HW217697   5.333   3.849   1.452
 5600SOL     OW17698   1.912   0.800   3.151
 5600SOL    HW117699   1.989   0.737   3.160
 5600SOL    HW217700   1.830   0.750   3.122
 5601SOL     OW17701   5.366   3.330   5.838
 5601SOL    HW117702   5.398   3.407   5.784
 5601SOL    HW217703   5.428   3.316   5.916
 5602SOL     OW17704   0.836   2.256   2.775
 5602SOL    HW117705   0.924   2.240   2.819
 5602SOL    HW217706   0.808   2.351   2.791
 5603SOL     OW17707   4.438   2.852   5.328
 5603SOL    HW117708   4.424   2.861   5.230
 5603SOL    HW217709   4.350   2.853   5.375
 5604SOL     OW17710   1.405   0.084   4.264
 5604SOL    HW117711   1.495   0.048   4.290
 5604SOL    HW217712   1.374   0.039   4.181
 5605SOL     OW17713   1.930   6.852   4.159
 5605SOL    HW117714   1.896   6.924   4.219
 5605SOL    HW217715   1.903   6.872   4.064
 5606SOL     OW17716   5.171   1.508   0.507
 5606SOL    HW117717   5.261   1.508   0.550
 5606SOL    HW217718   5.106   1.459   0.565
 5607SOL     OW17719   6.077   2.219   3.256
 5607SOL    HW117720   6.123   2.202   3.169
 5607SOL    HW217721   6.067   2.317   3.271
 5608SOL     OW17722   5.616   0.705   3.973
 5608SOL    HW117723   5.526   0.700   4.017
 5608SOL    HW217724   5.611   0.663   3.882
 5609SOL     OW17725   5.362   6.851   0.279
 5609SOL    HW117726   5.361   6.755   0.308
 5609SOL    HW217727   5.454   6.875   0.248
 5610SOL     OW17728   5.244   3.687   6.960
 5610SOL    HW117729   5.197   3.701   6.873
 5610SOL    HW217730   5.233   3.591   6.989
 5611SOL     OW17731   1.123   4.947   1.612
 5611SOL    HW117732   1.111   5.020   1.679
 5611SOL    HW217733   1.037   4.899   1.597
 5612SOL     OW17734   2.480   2.055   0.593
 5612SOL    HW117735   2.462   2.149   0.623
 5612SOL    HW217736   2.434   2.038   0.506
 5613SOL     OW17737   7.013   5.401   5.030
 5613SOL    HW117738   0.055   5.376   4.958
 5613SOL    HW217739   7.020   5.499   5.048
 5614SOL     OW17740   5.689   2.021   5.016
 5614SOL    HW117741   5.662   2.108   4.974
 5614SOL    HW217742   5.786   2.024   5.039
 5615SOL     OW17743   0.303   2.507   2.352
 5615SOL    HW117744   0.237   2.491   2.279
 5615SOL    HW217745   0.383   2.555   2.315
 5616SOL     OW17746   1.551   2.841   4.291
 5616SOL    HW117747   1.629   2.879   4.241
 5616SOL    HW217748   1.581   2.816   4.384
 5617SOL     OW17749   1.608   4.786   5.946
 5617SOL    HW117750   1.605   4.821   5.853
 5617SOL    HW217751   1.518   4.750   5.971
 5618SOL     OW17752   6.640   5.057   4.316
 5618SOL    HW117753   6.584   5.090   4.240
 5618SOL    HW217754   6.715   5.120   4.333
 5619SOL     OW17755   3.416   2.880   3.701
 5619SOL    HW117756   3.343   2.936   3.662
 5619SOL    HW217757   3.408   2.878   3.800
 5620SOL     OW17758   4.420   3.963   6.090
 5620SOL    HW117759   4.415   4.063   6.093
 5620SOL    HW217760   4.516   3.935   6.079
 5621SOL     OW17761   1.438   2.767   5.692
 5621SOL    HW117762   1.498   2.723   5.625
 5621SOL    HW217763   1.402   2.698   5.755
 5622SOL     OW17764   4.541   5.542   4.831
 5622SOL    HW117765   4.591   5.473   4.778
 5622SOL    HW217766   4.575   5.541   4.925
 5623SOL     OW17767   4.782   6.285   4.053
 5623SOL    HW117768   4.747   6.368   4.009
 5623SOL    HW217769   4.748   6.205   4.005
 5624SOL     OW17770   6.872   5.483   3.786
 5624SOL    HW117771   6.867   5.464   3.688
 5624SOL    HW217772   6.795   5.439   3.832
 5625SOL     OW17773   1.305   5.103   4.384
 5625SOL    HW117774   1.295   5.152   4.471
 5625SOL    HW217775   1.353   5.017   4.399
 5626SOL     OW17776   2.258   4.173   4.594
 5626SOL    HW117777   2.305   4.089   4.570
 5626SOL    HW217778   2.243   4.228   4.511
 5627SOL     OW17779   1.052   5.731   0.072
 5627SOL    HW117780   1.042   5.757   6.999
 5627SOL    HW217781   1.136   5.770   0.109
 5628SOL     OW17782   2.863   3.040   0.718
 5628SOL    HW117783   2.912   3.126   0.707
 5628SOL    HW217784   2.767   3.053   0.694
 5629SOL     OW17785   4.081   3.874   0.843
 5629SOL    HW117786   4.046   3.931   0.918
 5629SOL    HW217787   4.019   3.798   0.827
 5630SOL     OW17788   1.447   4.401   6.454
 5630SOL    HW117789   1.453   4.398   6.554
 5630SOL    HW217790   1.459   4.310   6.417
 5631SOL     OW17791   4.842   0.750   1.656
 5631SOL    HW117792   4.825   0.674   1.718
 5631SOL    HW217793   4.772   0.820   1.668
 5632SOL     OW17794   5.365   0.534   5.977
 5632SOL    HW117795   5.351   0.520   5.879
 5632SOL    HW217796   5.389   0.630   5.994
 5633SOL     OW17797   0.350   4.398   5.326
 5633SOL    HW117798   0.332   4.378   5.229
 5633SOL    HW217799   0.441   4.437   5.335
 5634SOL     OW17800   3.021   5.500   5.685
 5634SOL    HW117801   3.070   5.434   5.743
 5634SOL    HW217802   3.066   5.507   5.596
 5635SOL     OW17803   2.802   0.187   6.740
 5635SOL    HW117804   2.800   0.209   6.838
 5635SOL    HW217805   2.714   0.147   6.713
 5636SOL     OW17806   5.962   0.852   5.505
 5636SOL    HW117807   6.008   0.772   5.466
 5636SOL    HW217808   5.915   0.826   5.589
 5637SOL     OW17809   5.535   5.610   4.866
 5637SOL    HW117810   5.593   5.689   4.844
 5637SOL    HW217811   5.440   5.638   4.871
 5638SOL     OW17812   5.291   5.652   1.279
 5638SOL    HW117813   5.240   5.686   1.358
 5638SOL    HW217814   5.384   5.688   1.281
 5639SOL     OW17815   1.704   0.166   1.709
 5639SOL    HW117816   1.774   0.146   1.641
 5639SOL    HW217817   1.681   0.263   1.706
 5640SOL     OW17818   2.477   6.523   3.132
 5640SOL    HW117819   2.470   6.425   3.150
 5640SOL    HW217820   2.558   6.541   3.076
 5641SOL     OW17821   1.298   4.645   5.160
 5641SOL    HW117822   1.243   4.582   5.106
 5641SOL    HW217823   1.325   4.601   5.246
 5642SOL     OW17824   0.861   4.760   5.763
 5642SOL    HW117825   0.785   4.808   5.808
 5642SOL    HW217826   0.931   4.826   5.737
 5643SOL     OW17827   3.729   2.056   4.719
 5643SOL    HW117828   3.704   2.087   4.628
 5643SOL    HW217829   3.810   1.997   4.714
 5644SOL     OW17830   5.179   1.507   4.556
 5644SOL    HW117831   5.127   1.475   4.635
 5644SOL    HW217832   5.127   1.490   4.472
 5645SOL     OW17833   5.384   4.788   2.626
 5645SOL    HW117834   5.465   4.782   2.685
 5645SOL    HW217835   5.365   4.698   2.587
 5646SOL     OW17836   0.563   5.448   3.627
 5646SOL    HW117837   0.585   5.405   3.715
 5646SOL    HW217838   0.463   5.452   3.616
 5647SOL     OW17839   0.325   5.882   0.035
 5647SOL    HW117840   0.259   5.956   0.047
 5647SOL    HW217841   0.415   5.912   0.067
 5648SOL     OW17842   1.783   1.324   3.358
 5648SOL    HW117843   1.692   1.286   3.343
 5648SOL    HW217844   1.777   1.423   3.369
 5649SOL     OW17845   2.016   0.471   4.916
 5649SOL    HW117846   1.989   0.533   4.989
 5649SOL    HW217847   1.974   0.381   4.931
 5650SOL     OW17848   0.191   4.837   1.118
 5650SOL    HW117849   0.277   4.809   1.160
 5650SOL    HW217850   0.205   4.921   1.066
 5651SOL     OW17851   0.767   1.871   1.679
 5651SOL    HW117852   0.810   1.871   1.770
 5651SOL    HW217853   0.718   1.957   1.665
 5652SOL     OW17854   5.384   5.955   1.948
 5652SOL    HW117855   5.298   6.003   1.968
 5652SOL    HW217856   5.427   5.996   1.867
 5653SOL     OW17857   6.779   6.191   5.967
 5653SOL    HW117858   6.799   6.219   6.061
 5653SOL    HW217859   6.823   6.254   5.904
 5654SOL     OW17860   0.301   0.629   5.738
 5654SOL    HW117861   0.240   0.599   5.665
 5654SOL    HW217862   0.276   0.582   5.823
 5655SOL     OW17863   1.147   3.290   4.251
 5655SOL    HW117864   1.074   3.230   4.286
 5655SOL    HW217865   1.195   3.244   4.177
 5656SOL     OW17866   3.009   4.421   0.797
 5656SOL    HW117867   2.946   4.347   0.822
 5656SOL    HW217868   2.968   4.509   0.819
 5657SOL     OW17869   5.308   6.377   1.496
 5657SOL    HW117870   5.290   6.282   1.472
 5657SOL    HW217871   5.221   6.425   1.507
 5658SOL     OW17872   3.176   6.782   5.744
 5658SOL    HW117873   3.265   6.737   5.757
 5658SOL    HW217874   3.178   6.872   5.789
 5659SOL     OW17875   3.153   2.984   2.725
 5659SOL    HW117876   3.159   3.005   2.627
 5659SOL    HW217877   3.233   3.021   2.772
 5660SOL     OW17878   5.332   0.269   0.356
 5660SOL    HW117879   5.409   0.268   0.292
 5660SOL    HW217880   5.253   0.225   0.313
 5661SOL     OW17881   7.012   5.887   5.385
 5661SOL    HW117882   6.961   5.874   5.470
 5661SOL    HW217883   0.066   5.824   5.382
 5662SOL     OW17884   2.609   5.140   4.288
 5662SOL    HW117885   2.524   5.185   4.265
 5662SOL    HW217886   2.636   5.164   4.382
 5663SOL     OW17887   0.810   4.173   0.611
 5663SOL    HW117888   0.885   4.230   0.644
 5663SOL    HW217889   0.774   4.212   0.526
 5664SOL     OW17890   0.542   4.309   3.325
 5664SOL    HW117891   0.495   4.243   3.383
 5664SOL    HW217892   0.552   4.271   3.233
 5665SOL     OW17893   1.609   1.945   6.570
 5665SOL    HW117894   1.552   1.903   6.639
 5665SOL    HW217895   1.578   1.917   6.479
 5666SOL     OW17896   4.992   5.616   0.852
 5666SOL    HW117897   4.921   5.550   0.827
 5666SOL    HW217898   5.041   5.583   0.932
 5667SOL     OW17899   0.990   4.609   3.176
 5667SOL    HW117900   0.914   4.597   3.239
 5667SOL    HW217901   1.064   4.546   3.200
 5668SOL     OW17902   5.593   1.539   6.791
 5668SOL    HW117903   5.635   1.464   6.741
 5668SOL    HW217904   5.598   1.521   6.889
 5669SOL     OW17905   0.155   4.668   6.137
 5669SOL    HW117906   0.069   4.673   6.088
 5669SOL    HW217907   0.146   4.716   6.225
 5670SOL     OW17908   6.913   2.925   3.719
 5670SOL    HW117909   6.910   2.831   3.754
 5670SOL    HW217910   6.866   2.986   3.783
 5671SOL     OW17911   1.448   6.946   6.507
 5671SOL    HW117912   1.505   6.991   6.438
 5671SOL    HW217913   1.354   6.939   6.474
 5672SOL     OW17914   4.670   3.879   6.068
 5672SOL    HW117915   4.729   3.938   6.013
 5672SOL    HW217916   4.722   3.839   6.142
 5673SOL     OW17917   0.137   0.220   2.106
 5673SOL    HW117918   0.161   0.123   2.098
 5673SOL    HW217919   0.037   0.229   2.115
 5674SOL     OW17920   0.102   4.094   1.912
 5674SOL    HW117921   0.153   4.025   1.860
 5674SOL    HW217922   0.098   4.067   2.008
 5675SOL     OW17923   4.221   2.300   5.460
 5675SOL    HW117924   4.287   2.316   5.533
 5675SOL    HW217925   4.136   2.266   5.500
 5676SOL     OW17926   2.382   1.159   1.030
 5676SOL    HW117927   2.431   1.080   1.066
 5676SOL    HW217928   2.382   1.157   0.930
 5677SOL     OW17929   0.154   1.511   3.425
 5677SOL    HW117930   0.215   1.589   3.442
 5677SOL    HW217931   0.138   1.502   3.327
 5678SOL     OW17932   3.446   6.110   3.180
 5678SOL    HW117933   3.414   6.132   3.088
 5678SOL    HW217934   3.410   6.020   3.207
 5679SOL     OW17935   1.636   6.369   4.705
 5679SOL    HW117936   1.678   6.302   4.766
 5679SOL    HW217937   1.589   6.321   4.631
 5680SOL     OW17938   1.536   5.683   0.148
 5680SOL    HW117939   1.527   5.634   0.062
 5680SOL    HW217940   1.561   5.619   0.221
 5681SOL     OW17941   0.980   3.219   6.658
 5681SOL    HW117942   1.042   3.227   6.737
 5681SOL    HW217943   0.903   3.281   6.671
 5682SOL     OW17944   2.102   3.257   5.538
 5682SOL    HW117945   2.117   3.188   5.608
 5682SOL    HW217946   2.069   3.213   5.454
 5683SOL     OW17947   3.809   2.729   6.241
 5683SOL    HW117948   3.876   2.783   6.191
 5683SOL    HW217949   3.760   2.669   6.178
 5684SOL     OW17950   4.134   3.333   4.555
 5684SOL    HW117951   4.095   3.401   4.618
 5684SOL    HW217952   4.198   3.275   4.605
 5685SOL     OW17953   0.702   4.901   1.839
 5685SOL    HW117954   0.606   4.875   1.841
 5685SOL    HW217955   0.760   4.820   1.833
 5686SOL     OW17956   3.400   0.760   0.327
 5686SOL    HW117957   3.330   0.809   0.379
 5686SOL    HW217958   3.490   0.780   0.365
 5687SOL     OW17959   6.393   4.152   4.511
 5687SOL    HW117960   6.293   4.152   4.519
 5687SOL    HW217961   6.419   4.122   4.419
 5688SOL     OW17962   6.743   1.899   1.018
 5688SOL    HW117963   6.661   1.955   1.005
 5688SOL    HW217964   6.724   1.805   0.986
 5689SOL     OW17965   3.923   1.582   0.721
 5689SOL    HW117966   3.987   1.635   0.667
 5689SOL    HW217967   3.972   1.531   0.791
 5690SOL     OW17968   3.505   5.770   0.749
 5690SOL    HW117969   3.581   5.708   0.729
 5690SOL    HW217970   3.540   5.851   0.796
 5691SOL     OW17971   3.107   6.184   1.976
 5691SOL    HW117972   3.102   6.159   2.072
 5691SOL    HW217973   3.022   6.158   1.930
 5692SOL     OW17974   6.754   1.976   6.358
 5692SOL    HW117975   6.747   2.063   6.311
 5692SOL    HW217976   6.797   1.989   6.448
 5693SOL     OW17977   5.077   2.679   2.005
 5693SOL    HW117978   4.999   2.734   2.035
 5693SOL    HW217979   5.045   2.589   1.977
 5694SOL     OW17980   0.941   1.513   3.447
 5694SOL    HW117981   0.886   1.429   3.447
 5694SOL    HW217982   1.023   1.500   3.503
 5695SOL     OW17983   1.018   2.360   3.302
 5695SOL    HW117984   1.022   2.381   3.400
 5695SOL    HW217985   1.043   2.264   3.288
 5696SOL     OW17986   2.599   0.816   4.177
 5696SOL    HW117987   2.511   0.853   4.145
 5696SOL    HW217988   2.610   0.723   4.143
 5697SOL     OW17989   6.747   2.266   1.710
 5697SOL    HW117990   6.719   2.357   1.681
 5697SOL    HW217991   6.705   2.244   1.798
 5698SOL     OW17992   0.361   2.198   2.304
 5698SOL    HW117993   0.444   2.171   2.353
 5698SOL    HW217994   0.312   2.267   2.357
 5699SOL     OW17995   5.929   1.476   3.854
 5699SOL    HW117996   5.899   1.550   3.794
 5699SOL    HW217997   5.891   1.489   3.945
 5700SOL     OW17998   6.925   5.979   4.787
 5700SOL    HW117999   6.951   6.047   4.718
 5700SOL    HW218000   6.886   6.024   4.867
 5701SOL     OW18001   1.086   5.476   3.234
 5701SOL    HW118002   1.000   5.526   3.222
 5701SOL    HW218003   1.156   5.517   3.175
 5702SOL     OW18004   1.998   0.233   6.254
 5702SOL    HW118005   1.994   0.317   6.308
 5702SOL    HW218006   2.065   0.244   6.181
 5703SOL     OW18007   4.746   4.699   0.087
 5703SOL    HW118008   4.714   4.718   0.180
 5703SOL    HW218009   4.699   4.618   0.051
 5704SOL     OW18010   4.446   5.684   2.577
 5704SOL    HW118011   4.400   5.763   2.536
 5704SOL    HW218012   4.511   5.715   2.646
 5705SOL     OW18013   6.217   1.208   0.814
 5705SOL    HW118014   6.141   1.266   0.784
 5705SOL    HW218015   6.296   1.266   0.834
 5706SOL     OW18016   1.618   1.779   0.204
 5706SOL    HW118017   1.701   1.809   0.251
 5706SOL    HW218018   1.580   1.700   0.252
 5707SOL     OW18019   1.122   6.739   6.965
 5707SOL    HW118020   1.039   6.715   6.914
 5707SOL    HW218021   1.178   6.801   6.909
 5708SOL     OW18022   5.332   0.235   2.131
 5708SOL    HW118023   5.267   0.159   2.122
 5708SOL    HW218024   5.283   0.321   2.134
 5709SOL     OW18025   0.737   5.880   3.532
 5709SOL    HW118026   0.727   5.796   3.479
 5709SOL    HW218027   0.737   5.859   3.630
 5710SOL     OW18028   2.640   3.569   5.477
 5710SOL    HW118029   2.598   3.562   5.568
 5710SOL    HW218030   2.624   3.660   5.440
 5711SOL     OW18031   4.747   0.223   3.380
 5711SOL    HW118032   4.787   0.133   3.393
 5711SOL    HW218033   4.651   0.214   3.353
 5712SOL     OW18034   1.332   6.989   5.404
 5712SOL    HW118035   1.357   6.902   5.363
 5712SOL    HW218036   1.398   0.036   5.377
 5713SOL     OW18037   0.769   2.192   1.467
 5713SOL    HW118038   0.766   2.145   1.378
 5713SOL    HW218039   0.681   2.181   1.513
 5714SOL     OW18040   1.562   6.697   6.870
 5714SOL    HW118041   1.498   6.742   6.808
 5714SOL    HW218042   1.560   6.742   6.959
 5715SOL     OW18043   0.880   5.636   3.204
 5715SOL    HW118044   0.812   5.605   3.270
 5715SOL    HW218045   0.849   5.615   3.111
 5716SOL     OW18046   0.602   4.171   5.410
 5716SOL    HW118047   0.575   4.199   5.318
 5716SOL    HW218048   0.580   4.075   5.424
 5717SOL     OW18049   1.841   5.153   0.189
 5717SOL    HW118050   1.788   5.174   0.107
 5717SOL    HW218051   1.861   5.055   0.192
 5718SOL     OW18052   1.713   4.338   0.049
 5718SOL    HW118053   1.676   4.274   0.117
 5718SOL    HW218054   1.638   4.376   7.018
 5719SOL     OW18055   2.986   1.001   5.797
 5719SOL    HW118056   3.001   1.009   5.895
 5719SOL    HW218057   2.911   1.061   5.769
 5720SOL     OW18058   0.334   5.140   4.791
 5720SOL    HW118059   0.325   5.092   4.878
 5720SOL    HW218060   0.427   5.176   4.782
 5721SOL     OW18061   0.868   3.532   0.317
 5721SOL    HW118062   0.786   3.525   0.259
 5721SOL    HW218063   0.927   3.604   0.282
 5722SOL     OW18064   5.326   1.500   4.875
 5722SOL    HW118065   5.258   1.438   4.835
 5722SOL    HW218066   5.397   1.519   4.808
 5723SOL     OW18067   4.373   4.469   0.585
 5723SOL    HW118068   4.462   4.502   0.619
 5723SOL    HW218069   4.312   4.546   0.571
 5724SOL     OW18070   3.875   2.466   5.346
 5724SOL    HW118071   3.958   2.486   5.294
 5724SOL    HW218072   3.872   2.525   5.427
 5725SOL     OW18073   5.091   5.758   3.679
 5725SOL    HW118074   5.033   5.687   3.720
 5725SOL    HW218075   5.046   5.795   3.597
 5726SOL     OW18076   6.662   3.211   4.023
 5726SOL    HW118077   6.578   3.228   4.075
 5726SOL    HW218078   6.731   3.279   4.048
 5727SOL     OW18079   5.986   3.336   2.702
 5727SOL    HW118080   6.044   3.383   2.635
 5727SOL    HW218081   6.043   3.296   2.773
 5728SOL     OW18082   5.103   1.738   6.668
 5728SOL    HW118083   5.041   1.747   6.746
 5728SOL    HW218084   5.153   1.652   6.675
 5729SOL     OW18085   1.255   1.557   1.291
 5729SOL    HW118086   1.229   1.617   1.216
 5729SOL    HW218087   1.331   1.499   1.263
 5730SOL     OW18088   4.330   5.470   5.394
 5730SOL    HW118089   4.412   5.414   5.393
 5730SOL    HW218090   4.286   5.464   5.484
 5731SOL     OW18091   1.738   6.679   3.437
 5731SOL    HW118092   1.680   6.602   3.462
 5731SOL    HW218093   1.810   6.647   3.374
 5732SOL     OW18094   5.778   5.091   5.146
 5732SOL    HW118095   5.802   5.135   5.232
 5732SOL    HW218096   5.855   5.037   5.113
 5733SOL     OW18097   3.766   1.313   5.824
 5733SOL    HW118098   3.772   1.214   5.835
 5733SOL    HW218099   3.764   1.336   5.727
 5734SOL     OW18100   1.005   6.757   5.428
 5734SOL    HW118101   0.918   6.757   5.378
 5734SOL    HW218102   1.031   6.852   5.449
 5735SOL     OW18103   4.195   0.907   2.320
 5735SOL    HW118104   4.269   0.877   2.380
 5735SOL    HW218105   4.197   0.853   2.236
 5736SOL     OW18106   5.247   4.389   6.882
 5736SOL    HW118107   5.248   4.392   6.982
 5736SOL    HW218108   5.328   4.339   6.849
 5737SOL     OW18109   5.405   5.974   1.112
 5737SOL    HW118110   5.408   6.026   1.026
 5737SOL    HW218111   5.414   5.877   1.091
 5738SOL     OW18112   3.870   1.550   6.572
 5738SOL    HW118113   3.885   1.459   6.609
 5738SOL    HW218114   3.783   1.586   6.604
 5739SOL     OW18115   1.939   6.557   5.576
 5739SOL    HW118116   1.873   6.573   5.651
 5739SOL    HW218117   1.941   6.460   5.554
 5740SOL     OW18118   4.489   3.466   0.818
 5740SOL    HW118119   4.389   3.460   0.814
 5740SOL    HW218120   4.528   3.395   0.759
 5741SOL     OW18121   6.866   3.417   4.009
 5741SOL    HW118122   6.906   3.418   4.101
 5741SOL    HW218123   6.843   3.510   3.981
 5742SOL     OW18124   4.047   0.034   3.321
 5742SOL    HW118125   4.015   0.080   3.238
 5742SOL    HW218126   4.108   0.094   3.372
 5743SOL     OW18127   3.352   5.170   5.759
 5743SOL    HW118128   3.422   5.106   5.791
 5743SOL    HW218129   3.360   5.183   5.660
 5744SOL     OW18130   5.804   1.250   2.810
 5744SOL    HW118131   5.805   1.238   2.711
 5744SOL    HW218132   5.896   1.272   2.842
 5745SOL     OW18133   2.515   1.704   3.927
 5745SOL    HW118134   2.483   1.735   4.016
 5745SOL    HW218135   2.571   1.775   3.885
 5746SOL     OW18136   4.631   0.079   2.884
 5746SOL    HW118137   4.692   0.000   2.892
 5746SOL    HW218138   4.677   0.161   2.919
 5747SOL     OW18139   6.962   6.346   1.874
 5747SOL    HW118140   7.014   6.404   1.810
 5747SOL    HW218141   6.878   6.393   1.900
 5748SOL     OW18142   1.120   0.224   0.854
 5748SOL    HW118143   1.086   0.289   0.923
 5748SOL    HW218144   1.115   0.131   0.890
 5749SOL     OW18145   1.331   6.013   4.690
 5749SOL    HW118146   1.274   5.998   4.771
 5749SOL    HW218147   1.396   5.938   4.681
 5750SOL     OW18148   5.907   5.300   5.714
 5750SOL    HW118149   6.000   5.269   5.695
 5750SOL    HW218150   5.905   5.352   5.799
 5751SOL     OW18151   1.488   3.595   4.739
 5751SOL    HW118152   1.547   3.593   4.820
 5751SOL    HW218153   1.533   3.544   4.665
 5752SOL     OW18154   5.779   6.951   1.188
 5752SOL    HW118155   5.868   6.995   1.180
 5752SOL    HW218156   5.708   7.014   1.157
 5753SOL     OW18157   3.183   3.549   4.726
 5753SOL    HW118158   3.103   3.532   4.669
 5753SOL    HW218159   3.264   3.512   4.680
 5754SOL     OW18160   0.945   5.726   1.680
 5754SOL    HW118161   0.897   5.799   1.728
 5754SOL    HW218162   0.893   5.699   1.599
 5755SOL     OW18163   1.750   2.192   5.486
 5755SOL    HW118164   1.714   2.148   5.404
 5755SOL    HW218165   1.708   2.151   5.567
 5756SOL     OW18166   6.631   0.295   3.453
 5756SOL    HW118167   6.703   0.267   3.517
 5756SOL    HW218168   6.631   0.395   3.445
 5757SOL     OW18169   0.333   5.394   3.808
 5757SOL    HW118170   0.344   5.370   3.905
 5757SOL    HW218171   0.332   5.310   3.753
 5758SOL     OW18172   2.288   0.935   3.149
 5758SOL    HW118173   2.358   0.966   3.214
 5758SOL    HW218174   2.233   1.013   3.119
 5759SOL     OW18175   4.550   0.498   0.817
 5759SOL    HW118176   4.559   0.471   0.721
 5759SOL    HW218177   4.502   0.427   0.868
 5760SOL     OW18178   6.497   2.542   2.107
 5760SOL    HW118179   6.411   2.574   2.147
 5760SOL    HW218180   6.558   2.619   2.092
 5761SOL     OW18181   5.531   5.347   5.481
 5761SOL    HW118182   5.545   5.443   5.507
 5761SOL    HW218183   5.502   5.342   5.386
 5762SOL     OW18184   4.818   4.072   0.355
 5762SOL    HW118185   4.913   4.103   0.359
 5762SOL    HW218186   4.779   4.094   0.265
 5763SOL     OW18187   5.553   6.350   0.747
 5763SOL    HW118188   5.584   6.427   0.803
 5763SOL    HW218189   5.612   6.271   0.763
 5764SOL     OW18190   4.319   5.285   4.150
 5764SOL    HW118191   4.274   5.349   4.088
 5764SOL    HW218192   4.297   5.192   4.123
 5765SOL     OW18193   6.486   3.423   0.893
 5765SOL    HW118194   6.583   3.440   0.911
 5765SOL    HW218195   6.457   3.478   0.814
 5766SOL     OW18196   2.130   1.584   4.979
 5766SOL    HW118197   2.216   1.573   4.929
 5766SOL    HW218198   2.081   1.663   4.943
 5767SOL     OW18199   2.508   0.104   0.156
 5767SOL    HW118200   2.411   0.087   0.136
 5767SOL    HW218201   2.521   0.100   0.255
 5768SOL     OW18202   0.633   6.836   3.399
 5768SOL    HW118203   0.660   6.814   3.305
 5768SOL    HW218204   0.675   6.770   3.461
 5769SOL     OW18205   2.866   5.936   5.272
 5769SOL    HW118206   2.784   5.972   5.226
 5769SOL    HW218207   2.852   5.840   5.295
 5770SOL     OW18208   0.020   6.503   6.657
 5770SOL    HW118209   0.012   6.532   6.562
 5770SOL    HW218210   6.952   6.499   6.699
 5771SOL     OW18211   2.090   0.241   4.204
 5771SOL    HW118212   2.132   0.166   4.256
 5771SOL    HW218213   2.150   0.268   4.129
 5772SOL     OW18214   5.265   1.299   1.527
 5772SOL    HW118215   5.310   1.327   1.612
 5772SOL    HW218216   5.251   1.379   1.469
 5773SOL     OW18217   4.188   0.965   2.900
 5773SOL    HW118218   4.254   0.955   2.975
 5773SOL    HW218219   4.100   0.996   2.937
 5774SOL     OW18220   2.238   6.963   4.651
 5774SOL    HW118221   2.304   6.993   4.583
 5774SOL    HW218222   2.148   6.950   4.608
 5775SOL     OW18223   1.149   6.705   2.533
 5775SOL    HW118224   1.222   6.646   2.569
 5775SOL    HW218225   1.065   6.688   2.584
 5776SOL     OW18226   1.484   7.009   3.563
 5776SOL    HW118227   1.477   6.981   3.467
 5776SOL    HW218228   1.545   0.065   3.570
 5777SOL     OW18229   0.849   6.739   3.584
 5777SOL    HW118230   0.784   6.778   3.649
 5777SOL    HW218231   0.846   6.639   3.589
 5778SOL     OW18232   1.467   0.374   0.551
 5778SOL    HW118233   1.565   0.355   0.564
 5778SOL    HW218234   1.438   0.341   0.461
 5779SOL     OW18235   4.081   2.608   0.382
 5779SOL    HW118236   4.086   2.579   0.287
 5779SOL    HW218237   4.032   2.539   0.436
 5780SOL     OW18238   5.865   6.119   4.645
 5780SOL    HW118239   5.880   6.037   4.700
 5780SOL    HW218240   5.839   6.093   4.552
 5781SOL     OW18241   6.424   4.543   4.726
 5781SOL    HW118242   6.496   4.577   4.787
 5781SOL    HW218243   6.430   4.590   4.638
 5782SOL     OW18244   1.778   1.885   0.421
 5782SOL    HW118245   1.696   1.932   0.456
 5782SOL    HW218246   1.784   1.794   0.462
 5783SOL     OW18247   0.971   0.596   2.199
 5783SOL    HW118248   0.872   0.598   2.192
 5783SOL    HW218249   1.011   0.668   2.142
 5784SOL     OW18250   0.793   6.755   5.281
 5784SOL    HW118251   0.780   6.786   5.186
 5784SOL    HW218252   0.739   6.813   5.342
 5785SOL     OW18253   1.924   2.610   0.425
 5785SOL    HW118254   1.981   2.528   0.429
 5785SOL    HW218255   1.883   2.626   0.515
 5786SOL     OW18256   6.811   4.081   0.644
 5786SOL    HW118257   6.830   4.039   0.732
 5786SOL    HW218258   6.771   4.014   0.582
 5787SOL     OW18259   2.220   2.513   5.012
 5787SOL    HW118260   2.160   2.495   5.089
 5787SOL    HW218261   2.271   2.430   4.989
 5788SOL     OW18262   2.834   1.179   2.169
 5788SOL    HW118263   2.918   1.190   2.222
 5788SOL    HW218264   2.829   1.249   2.098
 5789SOL     OW18265   3.550   4.781   0.282
 5789SOL    HW118266   3.472   4.779   0.220
 5789SOL    HW218267   3.634   4.759   0.232
 5790SOL     OW18268   1.744   4.338   4.611
 5790SOL    HW118269   1.814   4.369   4.547
 5790SOL    HW218270   1.787   4.291   4.688
 5791SOL     OW18271   4.443   0.930   2.064
 5791SOL    HW118272   4.476   0.860   2.001
 5791SOL    HW218273   4.485   0.916   2.154
 5792SOL     OW18274   6.866   2.765   2.815
 5792SOL    HW118275   6.884   2.801   2.724
 5792SOL    HW218276   6.834   2.670   2.809
 5793SOL     OW18277   5.218   0.607   3.917
 5793SOL    HW118278   5.294   0.543   3.900
 5793SOL    HW218279   5.136   0.555   3.940
 5794SOL     OW18280   3.841   1.824   0.362
 5794SOL    HW118281   3.787   1.885   0.303
 5794SOL    HW218282   3.780   1.759   0.407
 5795SOL     OW18283   6.590   6.095   7.021
 5795SOL    HW118284   6.628   6.084   0.090
 5795SOL    HW218285   6.647   6.158   6.968
 5796SOL     OW18286   3.899   1.137   0.198
 5796SOL    HW118287   3.813   1.089   0.180
 5796SOL    HW218288   3.916   1.138   0.297
 5797SOL     OW18289   4.659   1.865   5.722
 5797SOL    HW118290   4.753   1.872   5.688
 5797SOL    HW218291   4.603   1.937   5.681
 5798SOL     OW18292   0.953   4.725   5.022
 5798SOL    HW118293   0.964   4.743   4.925
 5798SOL    HW218294   0.899   4.642   5.035
 5799SOL     OW18295   5.538   1.326   3.413
 5799SOL    HW118296   5.616   1.283   3.460
 5799SOL    HW218297   5.486   1.256   3.364
 5800SOL     OW18298   5.977   6.222   1.297
 5800SOL    HW118299   5.896   6.215   1.356
 5800SOL    HW218300   6.005   6.318   1.290
 5801SOL     OW18301   1.908   2.194   3.840
 5801SOL    HW118302   1.855   2.109   3.845
 5801SOL    HW218303   1.862   2.265   3.894
 5802SOL     OW18304   1.500   4.732   1.012
 5802SOL    HW118305   1.535   4.775   1.095
 5802SOL    HW218306   1.547   4.645   0.998
 5803SOL     OW18307   1.715   4.937   2.209
 5803SOL    HW118308   1.797   4.906   2.160
 5803SOL    HW218309   1.634   4.910   2.158
 5804SOL     OW18310   0.405   5.314   4.082
 5804SOL    HW118311   0.388   5.407   4.114
 5804SOL    HW218312   0.485   5.277   4.130
 5805SOL     OW18313   2.753   3.754   6.053
 5805SOL    HW118314   2.777   3.830   5.993
 5805SOL    HW218315   2.672   3.708   6.017
 5806SOL     OW18316   6.974   6.050   5.851
 5806SOL    HW118317   6.904   6.085   5.913
 5806SOL    HW218318   6.930   6.003   5.774
 5807SOL     OW18319   0.750   3.745   2.029
 5807SOL    HW118320   0.652   3.747   2.047
 5807SOL    HW218321   0.766   3.711   1.937
 5808SOL     OW18322   5.899   4.585   4.637
 5808SOL    HW118323   5.972   4.565   4.571
 5808SOL    HW218324   5.937   4.589   4.729
 5809SOL     OW18325   6.385   2.008   4.750
 5809SOL    HW118326   6.446   1.939   4.710
 5809SOL    HW218327   6.376   2.084   4.686
 5810SOL     OW18328   3.577   1.810   3.892
 5810SOL    HW118329   3.592   1.878   3.963
 5810SOL    HW218330   3.646   1.821   3.820
 5811SOL     OW18331   3.293   0.454   5.625
 5811SOL    HW118332   3.275   0.445   5.527
 5811SOL    HW218333   3.222   0.510   5.667
 5812SOL     OW18334   6.485   1.714   4.209
 5812SOL    HW118335   6.402   1.735   4.158
 5812SOL    HW218336   6.528   1.632   4.171
 5813SOL     OW18337   1.777   1.700   0.812
 5813SOL    HW118338   1.769   1.668   0.906
 5813SOL    HW218339   1.698   1.669   0.759
 5814SOL     OW18340   6.282   4.382   1.300
 5814SOL    HW118341   6.218   4.328   1.245
 5814SOL    HW218342   6.366   4.397   1.249
 5815SOL     OW18343   4.356   2.437   4.144
 5815SOL    HW118344   4.350   2.537   4.145
 5815SOL    HW218345   4.438   2.409   4.095
 5816SOL     OW18346   4.227   5.972   0.334
 5816SOL    HW118347   4.196   6.029   0.258
 5816SOL    HW218348   4.286   5.899   0.299
 5817SOL     OW18349   5.513   3.645   6.163
 5817SOL    HW118350   5.509   3.617   6.259
 5817SOL    HW218351   5.608   3.638   6.131
 5818SOL     OW18352   6.689   5.555   5.052
 5818SOL    HW118353   6.740   5.598   4.977
 5818SOL    HW218354   6.696   5.456   5.044
 5819SOL     OW18355   3.912   6.601   0.216
 5819SOL    HW118356   3.905   6.540   0.137
 5819SOL    HW218357   3.912   6.546   0.300
 5820SOL     OW18358   4.148   5.571   4.249
 5820SOL    HW118359   4.064   5.571   4.196
 5820SOL    HW218360   4.224   5.538   4.193
 5821SOL     OW18361   6.997   0.263   2.436
 5821SOL    HW118362   7.017   0.286   2.341
 5821SOL    HW218363   6.906   0.221   2.442
 5822SOL     OW18364   1.003   2.543   2.282
 5822SOL    HW118365   1.016   2.641   2.299
 5822SOL    HW218366   1.087   2.494   2.307
 5823SOL     OW18367   1.486   1.336   5.331
 5823SOL    HW118368   1.499   1.269   5.405
 5823SOL    HW218369   1.413   1.399   5.357
 5824SOL     OW18370   6.367   4.966   2.541
 5824SOL    HW118371   6.280   4.925   2.512
 5824SOL    HW218372   6.365   5.064   2.524
 5825SOL     OW18373   2.359   2.269   4.959
 5825SOL    HW118374   2.380   2.179   4.921
 5825SOL    HW218375   2.442   2.310   4.997
 5826SOL     OW18376   0.143   5.355   5.551
 5826SOL    HW118377   0.097   5.344   5.639
 5826SOL    HW218378   0.160   5.264   5.511
 5827SOL     OW18379   2.331   4.366   4.788
 5827SOL    HW118380   2.321   4.302   4.711
 5827SOL    HW218381   2.256   4.432   4.784
 5828SOL     OW18382   0.026   3.031   2.197
 5828SOL    HW118383   0.117   3.072   2.200
 5828SOL    HW218384   6.986   3.093   2.151
 5829SOL     OW18385   2.027   1.359   3.103
 5829SOL    HW118386   2.041   1.383   3.007
 5829SOL    HW218387   1.986   1.268   3.110
 5830SOL     OW18388   4.799   0.096   5.423
 5830SOL    HW118389   4.875   0.093   5.488
 5830SOL    HW218390   4.832   0.131   5.335
 5831SOL     OW18391   0.386   0.697   4.472
 5831SOL    HW118392   0.374   0.605   4.437
 5831SOL    HW218393   0.428   0.755   4.401
 5832SOL     OW18394   4.090   4.323   6.069
 5832SOL    HW118395   4.022   4.311   6.141
 5832SOL    HW218396   4.089   4.418   6.038
 5833SOL     OW18397   4.278   3.452   5.191
 5833SOL    HW118398   4.222   3.369   5.201
 5833SOL    HW218399   4.374   3.425   5.179
 5834SOL     OW18400   6.619   2.985   0.200
 5834SOL    HW118401   6.690   3.051   0.220
 5834SOL    HW218402   6.569   3.013   0.118
 5835SOL     OW18403   4.876   3.446   3.920
 5835SOL    HW118404   4.806   3.472   3.988
 5835SOL    HW218405   4.926   3.528   3.892
 5836SOL     OW18406   3.199   6.188   2.523
 5836SOL    HW118407   3.263   6.256   2.559
 5836SOL    HW218408   3.251   6.113   2.481
 5837SOL     OW18409   4.212   4.953   6.060
 5837SOL    HW118410   4.178   4.950   6.155
 5837SOL    HW218411   4.134   4.953   5.997
 5838SOL     OW18412   2.965   1.703   6.387
 5838SOL    HW118413   2.952   1.619   6.334
 5838SOL    HW218414   2.891   1.767   6.366
 5839SOL     OW18415   0.086   2.226   2.469
 5839SOL    HW118416   0.083   2.304   2.532
 5839SOL    HW218417   0.072   2.258   2.375
 5840SOL     OW18418   0.731   5.729   6.805
 5840SOL    HW118419   0.735   5.683   6.893
 5840SOL    HW218420   0.642   5.712   6.762
 5841SOL     OW18421   4.869   1.867   2.401
 5841SOL    HW118422   4.911   1.878   2.492
 5841SOL    HW218423   4.775   1.836   2.412
 5842SOL     OW18424   4.575   2.852   0.773
 5842SOL    HW118425   4.507   2.925   0.770
 5842SOL    HW218426   4.563   2.799   0.857
 5843SOL     OW18427   2.126   3.756   2.824
 5843SOL    HW118428   2.134   3.722   2.730
 5843SOL    HW218429   2.085   3.685   2.881
 5844SOL     OW18430   0.949   6.810   5.895
 5844SOL    HW118431   1.003   6.770   5.970
 5844SOL    HW218432   0.858   6.768   5.893
 5845SOL     OW18433   1.088   0.434   2.807
 5845SOL    HW118434   1.153   0.502   2.771
 5845SOL    HW218435   1.023   0.409   2.735
 5846SOL     OW18436   6.939   2.705   3.239
 5846SOL    HW118437   6.888   2.720   3.324
 5846SOL    HW218438   0.014   2.699   3.259
 5847SOL     OW18439   2.308   2.254   1.764
 5847SOL    HW118440   2.321   2.342   1.811
 5847SOL    HW218441   2.342   2.180   1.822
 5848SOL     OW18442   2.548   5.167   2.831
 5848SOL    HW118443   2.478   5.141   2.764
 5848SOL    HW218444   2.638   5.138   2.799
 5849SOL     OW18445   0.171   6.926   6.588
 5849SOL    HW118446   0.249   6.882   6.544
 5849SOL    HW218447   0.113   6.969   6.519
 5850SOL     OW18448   0.481   4.446   2.379
 5850SOL    HW118449   0.402   4.428   2.320
 5850SOL    HW218450   0.471   4.535   2.424
 5851SOL     OW18451   5.897   3.573   2.982
 5851SOL    HW118452   5.855   3.551   3.070
 5851SOL    HW218453   5.825   3.592   2.915
 5852SOL     OW18454   5.932   6.257   3.129
 5852SOL    HW118455   5.929   6.216   3.038
 5852SOL    HW218456   5.880   6.201   3.193
 5853SOL     OW18457   3.450   5.447   4.156
 5853SOL    HW118458   3.405   5.420   4.071
 5853SOL    HW218459   3.548   5.430   4.148
 5854SOL     OW18460   6.122   4.572   5.643
 5854SOL    HW118461   6.030   4.597   5.614
 5854SOL    HW218462   6.132   4.473   5.641
 5855SOL     OW18463   0.715   0.684   4.871
 5855SOL    HW118464   0.799   0.672   4.818
 5855SOL    HW218465   0.738   0.701   4.966
 5856SOL     OW18466   2.114   6.110   3.958
 5856SOL    HW118467   2.156   6.177   3.896
 5856SOL    HW218468   2.019   6.138   3.977
 5857SOL     OW18469   6.573   2.222   5.784
 5857SOL    HW118470   6.609   2.183   5.700
 5857SOL    HW218471   6.539   2.148   5.843
 5858SOL     OW18472   2.343   2.480   1.937
 5858SOL    HW118473   2.438   2.471   1.906
 5858SOL    HW218474   2.335   2.444   2.030
 5859SOL     OW18475   5.743   6.457   1.574
 5859SOL    HW118476   5.753   6.524   1.648
 5859SOL    HW218477   5.745   6.365   1.612
 5860SOL     OW18478   1.856   3.777   2.171
 5860SOL    HW118479   1.911   3.712   2.118
 5860SOL    HW218480   1.775   3.731   2.207
 5861SOL     OW18481   4.749   1.447   4.360
 5861SOL    HW118482   4.723   1.463   4.264
 5861SOL    HW218483   4.680   1.391   4.404
 5862SOL     OW18484   4.568   5.052   2.737
 5862SOL    HW118485   4.654   5.018   2.776
 5862SOL    HW218486   4.569   5.037   2.638
 5863SOL     OW18487   2.677   0.545   4.825
 5863SOL    HW118488   2.699   0.616   4.892
 5863SOL    HW218489   2.580   0.550   4.803
 5864SOL     OW18490   3.738   3.548   1.589
 5864SOL    HW118491   3.665   3.602   1.547
 5864SOL    HW218492   3.717   3.532   1.685
 5865SOL     OW18493   5.819   0.291   5.629
 5865SOL    HW118494   5.794   0.362   5.695
 5865SOL    HW218495   5.761   0.300   5.547
 5866SOL     OW18496   4.301   5.555   0.380
 5866SOL    HW118497   4.360   5.564   0.299
 5866SOL    HW218498   4.250   5.640   0.392
 5867SOL     OW18499   0.553   4.067   1.280
 5867SOL    HW118500   0.587   4.126   1.207
 5867SOL    HW218501   0.620   3.995   1.300
 5868SOL     OW18502   0.180   0.707   5.340
 5868SOL    HW118503   0.086   0.682   5.315
 5868SOL    HW218504   0.228   0.742   5.260
 5869SOL     OW18505   3.050   6.089   3.568
 5869SOL    HW118506   3.047   6.169   3.627
 5869SOL    HW218507   3.139   6.044   3.578
 5870SOL     OW18508   5.185   6.049   5.058
 5870SOL    HW118509   5.173   6.095   5.146
 5870SOL    HW218510   5.243   5.969   5.069
 5871SOL     OW18511   4.311   3.062   0.258
 5871SOL    HW118512   4.326   2.979   0.312
 5871SOL    HW218513   4.262   3.129   0.315
 5872SOL     OW18514   4.286   5.050   0.533
 5872SOL    HW118515   4.251   5.141   0.514
 5872SOL    HW218516   4.236   5.009   0.609
 5873SOL     OW18517   2.528   2.475   1.290
 5873SOL    HW118518   2.481   2.405   1.343
 5873SOL    HW218519   2.537   2.444   1.195
 5874SOL     OW18520   2.902   3.522   0.362
 5874SOL    HW118521   2.874   3.594   0.299
 5874SOL    HW218522   2.939   3.562   0.445
 5875SOL     OW18523   4.119   1.370   0.356
 5875SOL    HW118524   4.037   1.318   0.380
 5875SOL    HW218525   4.195   1.340   0.413
 5876SOL     OW18526   2.783   3.385   6.886
 5876SOL    HW118527   2.699   3.438   6.870
 5876SOL    HW218528   2.802   3.328   6.806
 5877SOL     OW18529   0.610   6.817   1.072
 5877SOL    HW118530   0.646   6.748   1.009
 5877SOL    HW218531   0.552   6.882   1.021
 5878SOL     OW18532   5.125   5.359   3.235
 5878SOL    HW118533   5.162   5.435   3.288
 5878SOL    HW218534   5.025   5.364   3.233
 5879SOL     OW18535   1.957   3.407   6.112
 5879SOL    HW118536   1.953   3.308   6.101
 5879SOL    HW218537   1.969   3.450   6.023
 5880SOL     OW18538   4.702   4.148   6.598
 5880SOL    HW118539   4.668   4.102   6.516
 5880SOL    HW218540   4.801   4.131   6.607
 5881SOL     OW18541   1.092   0.029   1.536
 5881SOL    HW118542   1.077   0.125   1.514
 5881SOL    HW218543   1.053   0.008   1.626
 5882SOL     OW18544   1.205   6.983   6.085
 5882SOL    HW118545   1.239   6.900   6.041
 5882SOL    HW218546   1.209   6.972   6.184
 5883SOL     OW18547   0.597   1.455   0.535
 5883SOL    HW118548   0.666   1.404   0.485
 5883SOL    HW218549   0.633   1.480   0.625
 5884SOL     OW18550   5.352   0.717   4.885
 5884SOL    HW118551   5.338   0.648   4.814
 5884SOL    HW218552   5.325   0.807   4.850
 5885SOL     OW18553   0.361   5.399   1.718
 5885SOL    HW118554   0.421   5.442   1.785
 5885SOL    HW218555   0.331   5.310   1.752
 5886SOL     OW18556   1.169   2.701   3.769
 5886SOL    HW118557   1.266   2.682   3.781
 5886SOL    HW218558   1.124   2.624   3.725
 5887SOL     OW18559   2.681   2.204   2.007
 5887SOL    HW118560   2.647   2.273   1.942
 5887SOL    HW218561   2.771   2.231   2.039
 5888SOL     OW18562   1.985   6.568   1.398
 5888SOL    HW118563   1.886   6.558   1.407
 5888SOL    HW218564   2.012   6.545   1.304
 5889SOL     OW18565   6.728   1.344   0.259
 5889SOL    HW118566   6.700   1.365   0.353
 5889SOL    HW218567   6.826   1.356   0.250
 5890SOL     OW18568   1.892   6.925   2.673
 5890SOL    HW118569   1.885   7.022   2.700
 5890SOL    HW218570   1.979   6.888   2.706
 5891SOL     OW18571   2.309   4.449   0.412
 5891SOL    HW118572   2.243   4.410   0.348
 5891SOL    HW218573   2.305   4.399   0.498
 5892SOL     OW18574   6.770   5.297   2.010
 5892SOL    HW118575   6.797   5.206   1.979
 5892SOL    HW218576   6.768   5.360   1.931
 5893SOL     OW18577   2.504   5.032   1.748
 5893SOL    HW118578   2.568   5.068   1.815
 5893SOL    HW218579   2.438   4.973   1.794
 5894SOL     OW18580   0.834   5.870   5.680
 5894SOL    HW118581   0.834   5.772   5.662
 5894SOL    HW218582   0.804   5.887   5.774
 5895SOL     OW18583   5.692   4.052   3.541
 5895SOL    HW118584   5.706   4.148   3.517
 5895SOL    HW218585   5.777   4.001   3.523
 5896SOL     OW18586   5.312   1.745   0.866
 5896SOL    HW118587   5.238   1.687   0.899
 5896SOL    HW218588   5.394   1.730   0.921
 5897SOL     OW18589   3.751   1.089   1.843
 5897SOL    HW118590   3.724   1.060   1.752
 5897SOL    HW218591   3.843   1.055   1.863
 5898SOL     OW18592   2.078   1.373   5.685
 5898SOL    HW118593   2.063   1.310   5.608
 5898SOL    HW218594   2.010   1.447   5.681
 5899SOL     OW18595   6.423   6.016   6.625
 5899SOL    HW118596   6.370   6.096   6.651
 5899SOL    HW218597   6.420   5.949   6.699
 5900SOL     OW18598   6.956   5.156   2.696
 5900SOL    HW118599   7.004   5.228   2.746
 5900SOL    HW218600   7.009   5.071   2.701
 5901SOL     OW18601   2.769   1.583   0.414
 5901SOL    HW118602   2.824   1.526   0.353
 5901SOL    HW218603   2.729   1.658   0.362
 5902SOL     OW18604   5.502   3.750   5.237
 5902SOL    HW118605   5.468   3.671   5.186
 5902SOL    HW218606   5.509   3.829   5.177
 5903SOL     OW18607   4.952   3.351   6.445
 5903SOL    HW118608   4.881   3.297   6.491
 5903SOL    HW218609   5.036   3.296   6.439
 5904SOL     OW18610   0.934   4.461   0.891
 5904SOL    HW118611   0.994   4.385   0.867
 5904SOL    HW218612   0.975   4.547   0.862
 5905SOL     OW18613   5.803   0.853   4.338
 5905SOL    HW118614   5.810   0.951   4.354
 5905SOL    HW218615   5.860   0.827   4.259
 5906SOL     OW18616   4.748   1.916   5.336
 5906SOL    HW118617   4.807   1.981   5.287
 5906SOL    HW218618   4.793   1.889   5.421
 5907SOL     OW18619   1.626   0.014   0.175
 5907SOL    HW118620   1.723   0.024   0.154
 5907SOL    HW218621   1.615   6.997   0.265
 5908SOL     OW18622   6.223   3.984   6.947
 5908SOL    HW118623   6.262   4.049   7.012
 5908SOL    HW218624   6.259   4.003   6.855
 5909SOL     OW18625   0.007   5.507   6.535
 5909SOL    HW118626   0.044   5.429   6.485
 5909SOL    HW218627   6.935   5.488   6.561
 5910SOL     OW18628   0.627   5.261   0.268
 5910SOL    HW118629   0.580   5.188   0.318
 5910SOL    HW218630   0.721   5.269   0.301
 5911SOL     OW18631   0.014   5.526   5.993
 5911SOL    HW118632   0.075   5.479   6.057
 5911SOL    HW218633   0.068   5.575   5.925
 5912SOL     OW18634   5.942   3.159   6.762
 5912SOL    HW118635   5.971   3.065   6.741
 5912SOL    HW218636   5.956   3.216   6.682
 5913SOL     OW18637   2.726   2.916   6.104
 5913SOL    HW118638   2.740   2.981   6.030
 5913SOL    HW218639   2.629   2.891   6.109
 5914SOL     OW18640   2.436   5.800   6.775
 5914SOL    HW118641   2.523   5.822   6.819
 5914SOL    HW218642   2.449   5.794   6.676
 5915SOL     OW18643   6.267   3.948   1.686
 5915SOL    HW118644   6.190   3.968   1.626
 5915SOL    HW218645   6.353   3.958   1.635
 5916SOL     OW18646   4.321   6.912   5.737
 5916SOL    HW118647   4.297   6.957   5.651
 5916SOL    HW218648   4.240   6.903   5.794
 5917SOL     OW18649   4.101   3.435   4.302
 5917SOL    HW118650   4.031   3.505   4.300
 5917SOL    HW218651   4.124   3.412   4.397
 5918SOL     OW18652   2.273   3.740   5.267
 5918SOL    HW118653   2.243   3.672   5.200
 5918SOL    HW218654   2.328   3.811   5.221
 5919SOL     OW18655   2.944   2.468   0.171
 5919SOL    HW118656   2.883   2.488   0.094
 5919SOL    HW218657   2.896   2.413   0.239
 5920SOL     OW18658   3.401   0.092   0.118
 5920SOL    HW118659   3.488   0.070   0.160
 5920SOL    HW218660   3.344   0.009   0.113
 5921SOL     OW18661   3.698   5.370   5.241
 5921SOL    HW118662   3.692   5.451   5.182
 5921SOL    HW218663   3.680   5.396   5.336
 5922SOL     OW18664   5.995   5.206   4.127
 5922SOL    HW118665   5.897   5.206   4.107
 5922SOL    HW218666   6.012   5.155   4.212
 5923SOL     OW18667   5.611   0.912   2.168
 5923SOL    HW118668   5.597   0.838   2.233
 5923SOL    HW218669   5.551   0.899   2.089
 5924SOL     OW18670   6.420   2.435   5.276
 5924SOL    HW118671   6.410   2.347   5.324
 5924SOL    HW218672   6.366   2.505   5.324
 5925SOL     OW18673   3.973   5.873   2.964
 5925SOL    HW118674   4.007   5.961   2.996
 5925SOL    HW218675   3.897   5.843   3.021
 5926SOL     OW18676   3.882   5.426   1.728
 5926SOL    HW118677   3.868   5.345   1.784
 5926SOL    HW218678   3.818   5.423   1.650
 5927SOL     OW18679   1.871   4.623   2.920
 5927SOL    HW118680   1.921   4.577   2.994
 5927SOL    HW218681   1.818   4.698   2.958
 5928SOL     OW18682   3.286   0.226   1.838
 5928SOL    HW118683   3.295   0.323   1.814
 5928SOL    HW218684   3.374   0.180   1.822
 5929SOL     OW18685   0.917   0.020   5.751
 5929SOL    HW118686   0.933   6.978   5.825
 5929SOL    HW218687   0.992   0.014   5.685
 5930SOL     OW18688   6.925   1.196   3.503
 5930SOL    HW118689   6.996   1.168   3.568
 5930SOL    HW218690   6.839   1.149   3.525
 5931SOL     OW18691   5.826   5.280   2.819
 5931SOL    HW118692   5.879   5.217   2.762
 5931SOL    HW218693   5.729   5.261   2.807
 5932SOL     OW18694   2.594   6.308   0.786
 5932SOL    HW118695   2.500   6.280   0.767
 5932SOL    HW218696   2.605   6.405   0.762
 5933SOL     OW18697   0.302   4.786   3.140
 5933SOL    HW118698   0.342   4.720   3.203
 5933SOL    HW218699   0.290   4.873   3.186
 5934SOL     OW18700   3.932   3.973   4.047
 5934SOL    HW118701   3.909   3.884   4.009
 5934SOL    HW218702   3.878   3.989   4.130
 5935SOL     OW18703   4.058   3.513   4.730
 5935SOL    HW118704   3.970   3.554   4.707
 5935SOL    HW218705   4.080   3.535   4.825
 5936SOL     OW18706   4.039   3.330   6.901
 5936SOL    HW118707   3.959   3.333   6.960
 5936SOL    HW218708   4.048   3.417   6.851
 5937SOL     OW18709   0.978   4.494   2.026
 5937SOL    HW118710   0.940   4.408   2.061
 5937SOL    HW218711   0.904   4.551   1.989
 5938SOL     OW18712   1.473   5.619   4.436
 5938SOL    HW118713   1.382   5.584   4.456
 5938SOL    HW218714   1.466   5.701   4.379
 5939SOL     OW18715   3.144   0.367   3.329
 5939SOL    HW118716   3.101   0.323   3.408
 5939SOL    HW218717   3.156   0.464   3.347
 5940SOL     OW18718   4.415   6.340   2.448
 5940SOL    HW118719   4.504   6.332   2.494
 5940SOL    HW218720   4.373   6.428   2.472
 5941SOL     OW18721   6.573   3.912   2.216
 5941SOL    HW118722   6.532   3.861   2.291
 5941SOL    HW218723   6.568   3.858   2.132
 5942SOL     OW18724   4.466   2.464   0.084
 5942SOL    HW118725   4.421   2.380   0.114
 5942SOL    HW218726   4.478   2.461   7.008
 5943SOL     OW18727   4.137   4.988   0.756
 5943SOL    HW118728   4.150   4.955   0.850
 5943SOL    HW218729   4.082   5.072   0.758
 5944SOL     OW18730   5.432   1.665   1.538
 5944SOL    HW118731   5.372   1.614   1.477
 5944SOL    HW218732   5.408   1.645   1.633
 5945SOL     OW18733   6.728   5.564   5.450
 5945SOL    HW118734   6.719   5.527   5.542
 5945SOL    HW218735   6.638   5.571   5.408
 5946SOL     OW18736   3.323   3.236   5.791
 5946SOL    HW118737   3.383   3.179   5.736
 5946SOL    HW218738   3.352   3.232   5.887
 5947SOL     OW18739   3.952   3.000   1.880
 5947SOL    HW118740   3.980   3.096   1.876
 5947SOL    HW218741   3.914   2.980   1.970
 5948SOL     OW18742   3.835   5.133   3.594
 5948SOL    HW118743   3.840   5.034   3.606
 5948SOL    HW218744   3.861   5.157   3.501
 5949SOL     OW18745   3.835   3.693   1.136
 5949SOL    HW118746   3.912   3.741   1.179
 5949SOL    HW218747   3.805   3.618   1.196
 5950SOL     OW18748   5.147   3.068   5.064
 5950SOL    HW118749   5.154   3.150   5.007
 5950SOL    HW218750   5.154   3.093   5.160
 5951SOL     OW18751   0.676   5.762   4.813
 5951SOL    HW118752   0.614   5.767   4.891
 5951SOL    HW218753   0.743   5.836   4.819
 5952SOL     OW18754   5.275   5.385   3.863
 5952SOL    HW118755   5.367   5.346   3.855
 5952SOL    HW218756   5.210   5.314   3.890
 5953SOL     OW18757   7.011   2.756   5.456
 5953SOL    HW118758   6.977   2.846   5.482
 5953SOL    HW218759   0.050   2.765   5.378
 5954SOL     OW18760   6.992   4.835   5.769
 5954SOL    HW118761   0.011   4.911   5.820
 5954SOL    HW218762   6.958   4.767   5.834
 5955SOL     OW18763   5.425   6.084   2.448
 5955SOL    HW118764   5.497   6.076   2.380
 5955SOL    HW218765   5.417   5.998   2.499
 5956SOL     OW18766   3.486   1.980   0.419
 5956SOL    HW118767   3.540   1.948   0.498
 5956SOL    HW218768   3.543   1.978   0.337
 5957SOL     OW18769   4.924   0.485   5.196
 5957SOL    HW118770   4.978   0.466   5.114
 5957SOL    HW218771   4.985   0.510   5.271
 5958SOL     OW18772   6.118   6.548   2.793
 5958SOL    HW118773   6.085   6.595   2.710
 5958SOL    HW218774   6.173   6.612   2.848
 5959SOL     OW18775   3.770   1.382   5.572
 5959SOL    HW118776   3.673   1.404   5.562
 5959SOL    HW218777   3.825   1.462   5.548
 5960SOL     OW18778   3.614   6.242   4.836
 5960SOL    HW118779   3.592   6.278   4.926
 5960SOL    HW218780   3.700   6.283   4.804
 5961SOL     OW18781   4.838   0.646   4.084
 5961SOL    HW118782   4.833   0.616   3.989
 5961SOL    HW218783   4.775   0.591   4.140
 5962SOL     OW18784   4.891   5.876   2.013
 5962SOL    HW118785   4.825   5.804   2.035
 5962SOL    HW218786   4.843   5.951   1.966
 5963SOL     OW18787   3.292   2.894   5.019
 5963SOL    HW118788   3.242   2.878   4.934
 5963SOL    HW218789   3.267   2.824   5.086
 5964SOL     OW18790   0.656   4.857   5.946
 5964SOL    HW118791   0.617   4.912   5.872
 5964SOL    HW218792   0.583   4.808   5.994
 5965SOL     OW18793   1.957   2.100   5.772
 5965SOL    HW118794   1.992   2.122   5.863
 5965SOL    HW218795   1.869   2.145   5.759
 5966SOL     OW18796   3.476   5.621   5.339
 5966SOL    HW118797   3.492   5.665   5.428
 5966SOL    HW218798   3.420   5.680   5.282
 5967SOL     OW18799   4.198   6.271   1.743
 5967SOL    HW118800   4.126   6.329   1.782
 5967SOL    HW218801   4.161   6.181   1.722
 5968SOL     OW18802   5.432   1.362   2.609
 5968SOL    HW118803   5.372   1.282   2.616
 5968SOL    HW218804   5.459   1.391   2.701
 5969SOL     OW18805   6.984   1.386   5.416
 5969SOL    HW118806   6.925   1.354   5.342
 5969SOL    HW218807   6.935   1.453   5.472
 5970SOL     OW18808   0.400   4.863   2.405
 5970SOL    HW118809   0.396   4.958   2.435
 5970SOL    HW218810   0.482   4.820   2.442
 5971SOL     OW18811   2.188   0.687   3.123
 5971SOL    HW118812   2.181   0.786   3.112
 5971SOL    HW218813   2.237   0.648   3.045
 5972SOL     OW18814   4.722   6.188   0.473
 5972SOL    HW118815   4.775   6.272   0.479
 5972SOL    HW218816   4.717   6.158   0.378
 5973SOL     OW18817   1.906   5.155   2.972
 5973SOL    HW118818   1.958   5.204   3.042
 5973SOL    HW218819   1.917   5.202   2.884
 5974SOL     OW18820   5.720   4.388   6.571
 5974SOL    HW118821   5.679   4.403   6.481
 5974SOL    HW218822   5.657   4.419   6.642
 5975SOL     OW18823   3.263   2.089   0.547
 5975SOL    HW118824   3.332   2.045   0.491
 5975SOL    HW218825   3.172   2.058   0.519
 5976SOL     OW18826   2.891   3.367   4.863
 5976SOL    HW118827   2.924   3.274   4.849
 5976SOL    HW218828   2.913   3.396   4.956
 5977SOL     OW18829   1.797   5.023   1.542
 5977SOL    HW118830   1.812   5.012   1.444
 5977SOL    HW218831   1.710   5.070   1.558
 5978SOL     OW18832   5.060   4.873   3.276
 5978SOL    HW118833   5.102   4.929   3.348
 5978SOL    HW218834   5.087   4.777   3.289
 5979SOL     OW18835   6.409   0.714   3.376
 5979SOL    HW118836   6.373   0.673   3.460
 5979SOL    HW218837   6.344   0.700   3.301
 5980SOL     OW18838   4.103   3.554   6.755
 5980SOL    HW118839   4.028   3.616   6.729
 5980SOL    HW218840   4.166   3.602   6.816
 5981SOL     OW18841   6.269   0.871   2.238
 5981SOL    HW118842   6.224   0.790   2.277
 5981SOL    HW218843   6.265   0.866   2.138
 5982SOL     OW18844   6.422   2.627   0.252
 5982SOL    HW118845   6.480   2.630   0.170
 5982SOL    HW218846   6.477   2.653   0.332
 5983SOL     OW18847   2.049   1.263   4.647
 5983SOL    HW118848   2.061   1.362   4.643
 5983SOL    HW218849   1.963   1.238   4.602
 5984SOL     OW18850   6.654   6.971   5.246
 5984SOL    HW118851   6.626   0.027   5.191
 5984SOL    HW218852   6.584   6.901   5.242
 5985SOL     OW18853   5.643   3.281   3.922
 5985SOL    HW118854   5.585   3.201   3.914
 5985SOL    HW218855   5.739   3.254   3.911
 5986SOL     OW18856   2.893   3.470   3.287
 5986SOL    HW118857   2.872   3.385   3.238
 5986SOL    HW218858   2.912   3.449   3.383
 5987SOL     OW18859   4.109   1.338   4.713
 5987SOL    HW118860   4.091   1.430   4.679
 5987SOL    HW218861   4.055   1.320   4.795
 5988SOL     OW18862   4.233   6.117   5.067
 5988SOL    HW118863   4.275   6.073   4.988
 5988SOL    HW218864   4.254   6.215   5.064
 5989SOL     OW18865   2.789   5.640   6.682
 5989SOL    HW118866   2.744   5.677   6.600
 5989SOL    HW218867   2.772   5.701   6.759
 5990SOL     OW18868   4.305   4.229   0.733
 5990SOL    HW118869   4.331   4.309   0.679
 5990SOL    HW218870   4.356   4.149   0.699
 5991SOL     OW18871   4.669   4.927   5.323
 5991SOL    HW118872   4.645   4.876   5.405
 5991SOL    HW218873   4.644   4.874   5.242
 5992SOL     OW18874   3.809   0.784   4.239
 5992SOL    HW118875   3.728   0.828   4.279
 5992SOL    HW218876   3.820   0.693   4.277
 5993SOL     OW18877   3.394   6.842   6.211
 5993SOL    HW118878   3.305   6.883   6.233
 5993SOL    HW218879   3.440   6.898   6.143
 5994SOL     OW18880   6.471   1.682   2.280
 5994SOL    HW118881   6.408   1.758   2.301
 5994SOL    HW218882   6.551   1.688   2.340
 5995SOL     OW18883   6.288   4.309   2.411
 5995SOL    HW118884   6.259   4.272   2.323
 5995SOL    HW218885   6.381   4.344   2.404
 5996SOL     OW18886   0.797   5.761   0.633
 5996SOL    HW118887   0.840   5.671   0.637
 5996SOL    HW218888   0.867   5.832   0.644
 5997SOL     OW18889   0.593   6.562   2.454
 5997SOL    HW118890   0.641   6.557   2.542
 5997SOL    HW218891   0.603   6.655   2.416
 5998SOL     OW18892   5.685   2.858   1.773
 5998SOL    HW118893   5.777   2.848   1.736
 5998SOL    HW218894   5.648   2.947   1.746
 5999SOL     OW18895   1.090   2.053   2.332
 5999SOL    HW118896   1.025   2.126   2.310
 5999SOL    HW218897   1.121   2.011   2.247
 6000SOL     OW18898   3.995   6.489   1.734
 6000SOL    HW118899   3.909   6.437   1.740
 6000SOL    HW218900   4.023   6.494   1.638
 6001SOL     OW18901   0.479   3.906   6.425
 6001SOL    HW118902   0.419   3.843   6.376
 6001SOL    HW218903   0.561   3.923   6.371
 6002SOL     OW18904   0.370   6.954   1.341
 6002SOL    HW118905   0.271   6.941   1.349
 6002SOL    HW218906   0.412   6.870   1.306
 6003SOL     OW18907   6.539   1.832   4.615
 6003SOL    HW118908   6.500   1.854   4.525
 6003SOL    HW218909   6.614   1.768   4.603
 6004SOL     OW18910   0.154   4.593   2.880
 6004SOL    HW118911   0.241   4.582   2.832
 6004SOL    HW218912   0.157   4.678   2.934
 6005SOL     OW18913   4.393   5.017   4.760
 6005SOL    HW118914   4.376   4.931   4.809
 6005SOL    HW218915   4.445   5.079   4.819
 6006SOL     OW18916   3.282   6.888   0.109
 6006SOL    HW118917   3.222   6.815   0.141
 6006SOL    HW218918   3.301   6.875   0.012
 6007SOL     OW18919   4.885   3.561   4.249
 6007SOL    HW118920   4.966   3.589   4.198
 6007SOL    HW218921   4.896   3.585   4.346
 6008SOL     OW18922   2.284   5.387   6.537
 6008SOL    HW118923   2.278   5.342   6.448
 6008SOL    HW218924   2.269   5.485   6.525
 6009SOL     OW18925   2.841   1.092   4.435
 6009SOL    HW118926   2.798   1.153   4.502
 6009SOL    HW218927   2.866   1.145   4.353
 6010SOL     OW18928   1.985   4.018   2.219
 6010SOL    HW118929   2.017   4.006   2.313
 6010SOL    HW218930   1.948   3.931   2.186
 6011SOL     OW18931   4.516   2.335   2.427
 6011SOL    HW118932   4.512   2.252   2.484
 6011SOL    HW218933   4.595   2.390   2.453
 6012SOL     OW18934   6.564   2.011   0.520
 6012SOL    HW118935   6.479   2.052   0.484
 6012SOL    HW218936   6.641   2.041   0.464
 6013SOL     OW18937   4.806   1.983   2.890
 6013SOL    HW118938   4.713   1.966   2.920
 6013SOL    HW218939   4.854   2.039   2.958
 6014SOL     OW18940   4.476   1.503   0.422
 6014SOL    HW118941   4.502   1.453   0.340
 6014SOL    HW218942   4.556   1.514   0.481
 6015SOL     OW18943   5.774   2.255   5.972
 6015SOL    HW118944   5.834   2.334   5.983
 6015SOL    HW218945   5.763   2.235   5.874
 6016SOL     OW18946   0.244   1.453   0.089
 6016SOL    HW118947   0.274   1.486   7.022
 6016SOL    HW218948   0.247   1.529   0.154
 6017SOL     OW18949   6.495   4.880   2.769
 6017SOL    HW118950   6.444   4.923   2.843
 6017SOL    HW218951   6.463   4.915   2.681
 6018SOL     OW18952   3.638   1.961   0.181
 6018SOL    HW118953   3.722   2.003   0.147
 6018SOL    HW218954   3.616   1.880   0.128
 6019SOL     OW18955   5.105   1.634   4.085
 6019SOL    HW118956   5.116   1.732   4.065
 6019SOL    HW218957   5.187   1.585   4.056
 6020SOL     OW18958   1.609   6.309   2.443
 6020SOL    HW118959   1.637   6.232   2.386
 6020SOL    HW218960   1.513   6.298   2.469
 6021SOL     OW18961   3.884   0.139   2.416
 6021SOL    HW118962   3.908   0.098   2.329
 6021SOL    HW218963   3.945   0.215   2.436
 6022SOL     OW18964   4.443   0.911   4.648
 6022SOL    HW118965   4.438   1.010   4.652
 6022SOL    HW218966   4.351   0.873   4.638
 6023SOL     OW18967   6.232   1.393   2.733
 6023SOL    HW118968   6.223   1.390   2.633
 6023SOL    HW218969   6.157   1.341   2.775
 6024SOL     OW18970   0.630   4.090   3.128
 6024SOL    HW118971   0.574   4.022   3.176
 6024SOL    HW218972   0.668   4.049   3.045
 6025SOL     OW18973   3.771   0.541   2.334
 6025SOL    HW118974   3.741   0.528   2.239
 6025SOL    HW218975   3.714   0.484   2.393
 6026SOL     OW18976   0.148   3.795   4.147
 6026SOL    HW118977   0.063   3.821   4.101
 6026SOL    HW218978   0.128   3.760   4.238
 6027SOL     OW18979   2.154   3.976   5.607
 6027SOL    HW118980   2.116   4.069   5.609
 6027SOL    HW218981   2.227   3.971   5.539
 6028SOL     OW18982   1.079   3.932   0.338
 6028SOL    HW118983   0.988   3.947   0.377
 6028SOL    HW218984   1.073   3.867   0.263
 6029SOL     OW18985   2.412   6.332   6.107
 6029SOL    HW118986   2.386   6.262   6.173
 6029SOL    HW218987   2.490   6.299   6.053
 6030SOL     OW18988   3.226   6.979   2.558
 6030SOL    HW118989   3.217   0.056   2.562
 6030SOL    HW218990   3.143   6.940   2.519
 6031SOL     OW18991   4.181   4.775   4.225
 6031SOL    HW118992   4.122   4.847   4.188
 6031SOL    HW218993   4.156   4.688   4.184
 6032SOL     OW18994   2.024   3.570   2.999
 6032SOL    HW118995   1.979   3.653   3.034
 6032SOL    HW218996   2.014   3.496   3.065
 6033SOL     OW18997   2.644   2.353   2.528
 6033SOL    HW118998   2.697   2.327   2.447
 6033SOL    HW218999   2.582   2.428   2.504
 6034SOL     OW19000   1.693   5.941   5.046
 6034SOL    HW119001   1.641   6.025   5.029
 6034SOL    HW219002   1.769   5.961   5.108
 6035SOL     OW19003   5.698   1.341   3.787
 6035SOL    HW119004   5.763   1.384   3.850
 6035SOL    HW219005   5.618   1.400   3.776
 6036SOL     OW19006   0.273   6.207   4.433
 6036SOL    HW119007   0.317   6.121   4.455
 6036SOL    HW219008   0.251   6.211   4.335
 6037SOL     OW19009   4.635   5.035   6.473
 6037SOL    HW119010   4.713   4.982   6.439
 6037SOL    HW219011   4.633   5.124   6.430
 6038SOL     OW19012   0.904   3.757   6.233
 6038SOL    HW119013   1.001   3.738   6.219
 6038SOL    HW219014   0.850   3.686   6.189
 6039SOL     OW19015   3.271   3.300   3.193
 6039SOL    HW119016   3.251   3.270   3.100
 6039SOL    HW219017   3.218   3.246   3.258
 6040SOL     OW19018   0.177   2.115   6.733
 6040SOL    HW119019   0.187   2.027   6.779
 6040SOL    HW219020   0.104   2.109   6.666
 6041SOL     OW19021   1.962   1.650   5.307
 6041SOL    HW119022   1.916   1.739   5.312
 6041SOL    HW219023   1.895   1.577   5.320
 6042SOL     OW19024   5.556   5.370   1.722
 6042SOL    HW119025   5.458   5.381   1.740
 6042SOL    HW219026   5.571   5.284   1.672
 6043SOL     OW19027   1.162   4.857   5.121
 6043SOL    HW119028   1.243   4.801   5.139
 6043SOL    HW219029   1.096   4.805   5.068
 6044SOL     OW19030   1.094   2.166   1.232
 6044SOL    HW119031   1.042   2.251   1.223
 6044SOL    HW219032   1.073   2.123   1.319
 6045SOL     OW19033   5.778   5.979   0.985
 6045SOL    HW119034   5.708   6.035   1.029
 6045SOL    HW219035   5.816   5.915   1.051
 6046SOL     OW19036   2.978   2.084   0.919
 6046SOL    HW119037   2.891   2.063   0.965
 6046SOL    HW219038   3.039   2.130   0.983
 6047SOL     OW19039   6.517   0.991   2.473
 6047SOL    HW119040   6.422   1.021   2.481
 6047SOL    HW219041   6.540   0.980   2.376
 6048SOL     OW19042   4.896   6.207   3.378
 6048SOL    HW119043   4.905   6.146   3.299
 6048SOL    HW219044   4.865   6.154   3.457
 6049SOL     OW19045   5.283   3.772   5.831
 6049SOL    HW119046   5.279   3.786   5.930
 6049SOL    HW219047   5.200   3.810   5.789
 6050SOL     OW19048   3.590   4.062   5.697
 6050SOL    HW119049   3.501   4.034   5.663
 6050SOL    HW219050   3.660   4.043   5.628
 6051SOL     OW19051   2.947   2.018   3.788
 6051SOL    HW119052   2.948   2.116   3.769
 6051SOL    HW219053   3.031   1.976   3.753
 6052SOL     OW19054   6.401   6.691   6.759
 6052SOL    HW119055   6.437   6.711   6.849
 6052SOL    HW219056   6.315   6.740   6.745
 6053SOL     OW19057   3.671   1.001   0.173
 6053SOL    HW119058   3.656   0.924   0.236
 6053SOL    HW219059   3.585   1.026   0.129
 6054SOL     OW19060   2.474   4.164   0.667
 6054SOL    HW119061   2.521   4.133   0.584
 6054SOL    HW219062   2.527   4.134   0.747
 6055SOL     OW19063   5.537   1.016   6.364
 6055SOL    HW119064   5.605   1.088   6.346
 6055SOL    HW219065   5.583   0.928   6.372
 6056SOL     OW19066   5.136   3.288   4.920
 6056SOL    HW119067   5.057   3.319   4.867
 6056SOL    HW219068   5.210   3.354   4.910
 6057SOL     OW19069   5.564   2.880   4.470
 6057SOL    HW119070   5.492   2.871   4.539
 6057SOL    HW219071   5.524   2.918   4.386
 6058SOL     OW19072   5.186   2.704   2.535
 6058SOL    HW119073   5.153   2.714   2.441
 6058SOL    HW219074   5.267   2.645   2.535
 6059SOL     OW19075   4.555   5.898   5.639
 6059SOL    HW119076   4.537   5.990   5.603
 6059SOL    HW219077   4.596   5.906   5.730
 6060SOL     OW19078   2.759   4.214   6.036
 6060SOL    HW119079   2.831   4.227   6.104
 6060SOL    HW219080   2.795   4.237   5.945
 6061SOL     OW19081   4.297   2.254   6.870
 6061SOL    HW119082   4.277   2.295   6.781
 6061SOL    HW219083   4.215   2.212   6.907
 6062SOL     OW19084   2.278   0.518   4.286
 6062SOL    HW119085   2.317   0.451   4.222
 6062SOL    HW219086   2.269   0.606   4.240
 6063SOL     OW19087   4.118   1.313   6.830
 6063SOL    HW119088   4.034   1.324   6.778
 6063SOL    HW219089   4.101   1.253   6.909
 6064SOL     OW19090   2.809   6.071   2.208
 6064SOL    HW119091   2.905   6.095   2.217
 6064SOL    HW219092   2.794   6.026   2.120
 6065SOL     OW19093   5.693   0.385   2.525
 6065SOL    HW119094   5.676   0.412   2.430
 6065SOL    HW219095   5.789   0.401   2.548
 6066SOL     OW19096   4.541   1.386   0.198
 6066SOL    HW119097   4.463   1.366   0.138
 6066SOL    HW219098   4.594   1.462   0.160
 6067SOL     OW19099   5.366   1.884   6.843
 6067SOL    HW119100   5.321   1.959   6.795
 6067SOL    HW219101   5.425   1.834   6.780
 6068SOL     OW19102   5.935   2.676   4.729
 6068SOL    HW119103   5.858   2.697   4.789
 6068SOL    HW219104   6.012   2.735   4.753
 6069SOL     OW19105   0.491   3.923   5.404
 6069SOL    HW119106   0.455   3.903   5.495
 6069SOL    HW219107   0.415   3.951   5.344
 6070SOL     OW19108   2.178   1.786   5.836
 6070SOL    HW119109   2.212   1.788   5.742
 6070SOL    HW219110   2.240   1.732   5.893
 6071SOL     OW19111   4.816   6.074   5.126
 6071SOL    HW119112   4.744   6.093   5.059
 6071SOL    HW219113   4.861   6.159   5.152
 6072SOL     OW19114   0.572   0.981   1.860
 6072SOL    HW119115   0.590   0.967   1.762
 6072SOL    HW219116   0.587   1.077   1.883
 6073SOL     OW19117   6.660   3.900   0.511
 6073SOL    HW119118   6.700   3.822   0.464
 6073SOL    HW219119   6.560   3.889   0.516
 6074SOL     OW19120   0.863   6.619   4.243
 6074SOL    HW119121   0.908   6.532   4.222
 6074SOL    HW219122   0.765   6.603   4.255
 6075SOL     OW19123   0.117   2.174   6.384
 6075SOL    HW119124   0.192   2.182   6.319
 6075SOL    HW219125   0.097   2.078   6.402
 6076SOL     OW19126   2.690   6.173   5.452
 6076SOL    HW119127   2.743   6.101   5.496
 6076SOL    HW219128   2.668   6.146   5.358
 6077SOL     OW19129   5.281   5.348   1.802
 6077SOL    HW119130   5.270   5.309   1.893
 6077SOL    HW219131   5.203   5.321   1.745
 6078SOL     OW19132   3.913   5.196   1.853
 6078SOL    HW119133   3.976   5.228   1.923
 6078SOL    HW219134   3.901   5.097   1.861
 6079SOL     OW19135   3.087   3.775   6.150
 6079SOL    HW119136   3.074   3.813   6.058
 6079SOL    HW219137   3.014   3.809   6.211
 6080SOL     OW19138   0.485   1.160   2.165
 6080SOL    HW119139   0.399   1.209   2.179
 6080SOL    HW219140   0.540   1.165   2.249
 6081SOL     OW19141   5.934   3.717   4.562
 6081SOL    HW119142   5.932   3.808   4.523
 6081SOL    HW219143   6.025   3.697   4.598
 6082SOL     OW19144   3.839   1.730   3.743
 6082SOL    HW119145   3.859   1.816   3.695
 6082SOL    HW219146   3.851   1.654   3.680
 6083SOL     OW19147   0.679   5.923   6.375
 6083SOL    HW119148   0.611   5.975   6.324
 6083SOL    HW219149   0.718   5.980   6.447
 6084SOL     OW19150   0.084   5.554   4.089
 6084SOL    HW119151   0.075   5.466   4.042
 6084SOL    HW219152   7.016   5.592   4.106
 6085SOL     OW19153   7.015   4.268   0.566
 6085SOL    HW119154   6.934   4.218   0.598
 6085SOL    HW219155   0.044   4.210   0.504
 6086SOL     OW19156   2.994   1.385   5.509
 6086SOL    HW119157   3.005   1.385   5.410
 6086SOL    HW219158   3.069   1.334   5.551
 6087SOL     OW19159   5.308   6.434   6.825
 6087SOL    HW119160   5.280   6.528   6.803
 6087SOL    HW219161   5.243   6.394   6.889
 6088SOL     OW19162   6.361   5.960   4.831
 6088SOL    HW119163   6.422   5.882   4.846
 6088SOL    HW219164   6.385   6.005   4.745
 6089SOL     OW19165   0.671   3.691   1.521
 6089SOL    HW119166   0.721   3.620   1.473
 6089SOL    HW219167   0.688   3.779   1.477
 6090SOL     OW19168   1.502   6.375   6.028
 6090SOL    HW119169   1.597   6.371   5.996
 6090SOL    HW219170   1.442   6.400   5.952
 6091SOL     OW19171   1.125   1.643   2.535
 6091SOL    HW119172   1.192   1.584   2.580
 6091SOL    HW219173   1.122   1.622   2.437
 6092SOL     OW19174   2.925   0.214   2.938
 6092SOL    HW119175   2.996   0.258   2.992
 6092SOL    HW219176   2.955   0.122   2.913
 6093SOL     OW19177   1.514   2.442   2.554
 6093SOL    HW119178   1.537   2.372   2.622
 6093SOL    HW219179   1.473   2.521   2.599
 6094SOL     OW19180   3.478   1.067   1.257
 6094SOL    HW119181   3.543   1.142   1.270
 6094SOL    HW219182   3.492   1.025   1.167
 6095SOL     OW19183   4.755   2.416   6.993
 6095SOL    HW119184   4.846   2.449   6.968
 6095SOL    HW219185   4.686   2.467   6.941
 6096SOL     OW19186   5.847   0.114   4.252
 6096SOL    HW119187   5.756   0.091   4.287
 6096SOL    HW219188   5.843   0.124   4.153
 6097SOL     OW19189   1.362   0.434   2.249
 6097SOL    HW119190   1.456   0.437   2.217
 6097SOL    HW219191   1.318   0.350   2.216
 6098SOL     OW19192   1.330   2.310   5.849
 6098SOL    HW119193   1.310   2.375   5.775
 6098SOL    HW219194   1.272   2.229   5.838
 6099SOL     OW19195   6.243   5.898   6.833
 6099SOL    HW119196   6.271   5.804   6.813
 6099SOL    HW219197   6.147   5.909   6.809
 6100SOL     OW19198   5.840   2.646   6.855
 6100SOL    HW119199   5.863   2.607   6.766
 6100SOL    HW219200   5.741   2.664   6.859
 6101SOL     OW19201   6.415   1.677   5.683
 6101SOL    HW119202   6.398   1.740   5.607
 6101SOL    HW219203   6.339   1.613   5.692
 6102SOL     OW19204   4.186   0.674   3.878
 6102SOL    HW119205   4.207   0.760   3.925
 6102SOL    HW219206   4.184   0.599   3.945
 6103SOL     OW19207   0.223   1.098   3.465
 6103SOL    HW119208   0.177   1.150   3.394
 6103SOL    HW219209   0.169   1.100   3.549
 6104SOL     OW19210   6.612   2.428   6.172
 6104SOL    HW119211   6.652   2.431   6.080
 6104SOL    HW219212   6.522   2.385   6.168
 6105SOL     OW19213   3.095   6.981   5.933
 6105SOL    HW119214   2.997   6.960   5.935
 6105SOL    HW219215   3.108   0.057   5.932
 6106SOL     OW19216   1.470   4.631   5.646
 6106SOL    HW119217   1.467   4.554   5.710
 6106SOL    HW219218   1.400   4.698   5.672
 6107SOL     OW19219   2.534   5.241   4.552
 6107SOL    HW119220   2.456   5.201   4.599
 6107SOL    HW219221   2.557   5.329   4.594
 6108SOL     OW19222   0.749   2.367   3.183
 6108SOL    HW119223   0.709   2.275   3.189
 6108SOL    HW219224   0.842   2.366   3.217
 6109SOL     OW19225   5.451   2.944   6.590
 6109SOL    HW119226   5.380   2.927   6.659
 6109SOL    HW219227   5.509   3.020   6.620
 6110SOL     OW19228   3.574   2.988   6.917
 6110SOL    HW119229   3.505   3.038   6.865
 6110SOL    HW219230   3.655   2.973   6.860
 6111SOL     OW19231   2.077   4.787   2.664
 6111SOL    HW119232   1.999   4.727   2.643
 6111SOL    HW219233   2.117   4.819   2.578
 6112SOL     OW19234   3.370   1.126   3.229
 6112SOL    HW119235   3.417   1.140   3.316
 6112SOL    HW219236   3.378   1.030   3.201
 6113SOL     OW19237   0.288   0.923   6.040
 6113SOL    HW119238   0.271   1.002   5.981
 6113SOL    HW219239   0.350   0.859   5.994
 6114SOL     OW19240   5.202   4.182   1.044
 6114SOL    HW119241   5.125   4.118   1.044
 6114SOL    HW219242   5.262   4.163   0.967
 6115SOL     OW19243   5.422   6.218   2.697
 6115SOL    HW119244   5.496   6.163   2.735
 6115SOL    HW219245   5.415   6.200   2.599
 6116SOL     OW19246   2.715   1.587   1.363
 6116SOL    HW119247   2.756   1.628   1.282
 6116SOL    HW219248   2.769   1.508   1.391
 6117SOL     OW19249   0.084   0.333   5.559
 6117SOL    HW119250   0.058   0.327   5.463
 6117SOL    HW219251   0.155   0.265   5.578
 6118SOL     OW19252   6.821   1.341   1.695
 6118SOL    HW119253   6.811   1.415   1.761
 6118SOL    HW219254   6.733   1.321   1.652
 6119SOL     OW19255   0.470   3.826   4.148
 6119SOL    HW119256   0.370   3.816   4.150
 6119SOL    HW219257   0.509   3.793   4.234
 6120SOL     OW19258   3.495   0.044   3.228
 6120SOL    HW119259   3.471   0.108   3.301
 6120SOL    HW219260   3.573   7.011   3.256
 6121SOL     OW19261   7.014   2.571   4.301
 6121SOL    HW119262   6.934   2.623   4.273
 6121SOL    HW219263   7.012   2.480   4.259
 6122SOL     OW19264   3.303   6.616   1.867
 6122SOL    HW119265   3.244   6.696   1.881
 6122SOL    HW219266   3.262   6.556   1.799
 6123SOL     OW19267   6.552   0.580   0.241
 6123SOL    HW119268   6.604   0.594   0.325
 6123SOL    HW219269   6.559   0.485   0.212
 6124SOL     OW19270   3.684   0.332   5.455
 6124SOL    HW119271   3.650   0.342   5.548
 6124SOL    HW219272   3.607   0.337   5.391
 6125SOL     OW19273   2.388   5.739   0.830
 6125SOL    HW119274   2.303   5.753   0.780
 6125SOL    HW219275   2.464   5.778   0.779
 6126SOL     OW19276   5.803   6.241   4.190
 6126SOL    HW119277   5.900   6.258   4.208
 6126SOL    HW219278   5.751   6.323   4.212
 6127SOL     OW19279   1.981   0.180   2.032
 6127SOL    HW119280   2.063   0.176   2.090
 6127SOL    HW219281   1.965   0.275   2.004
 6128SOL     OW19282   6.791   3.471   0.507
 6128SOL    HW119283   6.711   3.424   0.545
 6128SOL    HW219284   6.856   3.403   0.472
 6129SOL     OW19285   6.237   4.449   3.376
 6129SOL    HW119286   6.180   4.509   3.431
 6129SOL    HW219287   6.180   4.382   3.328
 6130SOL     OW19288   6.148   2.186   3.956
 6130SOL    HW119289   6.138   2.217   3.861
 6130SOL    HW219290   6.144   2.086   3.959
 6131SOL     OW19291   0.129   1.706   5.553
 6131SOL    HW119292   0.091   1.799   5.548
 6131SOL    HW219293   0.055   1.640   5.537
 6132SOL     OW19294   4.503   0.728   0.705
 6132SOL    HW119295   4.578   0.724   0.638
 6132SOL    HW219296   4.513   0.652   0.770
 6133SOL     OW19297   0.715   2.858   2.438
 6133SOL    HW119298   0.751   2.877   2.529
 6133SOL    HW219299   0.709   2.759   2.424
 6134SOL     OW19300   3.737   3.749   6.905
 6134SOL    HW119301   3.673   3.673   6.920
 6134SOL    HW219302   3.781   3.738   6.816
 6135SOL     OW19303   6.735   6.577   2.560
 6135SOL    HW119304   6.745   6.595   2.462
 6135SOL    HW219305   6.689   6.655   2.604
 6136SOL     OW19306   0.622   2.097   2.293
 6136SOL    HW119307   0.641   2.194   2.311
 6136SOL    HW219308   0.676   2.067   2.215
 6137SOL     OW19309   4.286   1.183   5.053
 6137SOL    HW119310   4.201   1.220   5.016
 6137SOL    HW219311   4.299   1.217   5.146
 6138SOL     OW19312   3.730   6.581   2.620
 6138SOL    HW119313   3.709   6.505   2.681
 6138SOL    HW219314   3.702   6.557   2.527
 6139SOL     OW19315   2.215   3.141   4.704
 6139SOL    HW119316   2.261   3.192   4.777
 6139SOL    HW219317   2.229   3.043   4.718
 6140SOL     OW19318   0.608   6.051   1.523
 6140SOL    HW119319   0.607   5.961   1.479
 6140SOL    HW219320   0.514   6.082   1.538
 6141SOL     OW19321   6.064   6.307   5.092
 6141SOL    HW119322   5.967   6.319   5.109
 6141SOL    HW219323   6.077   6.250   5.011
 6142SOL     OW19324   6.929   5.108   0.860
 6142SOL    HW119325   6.882   5.168   0.924
 6142SOL    HW219326   6.969   5.163   0.786
 6143SOL     OW19327   6.263   5.082   6.645
 6143SOL    HW119328   6.195   5.153   6.663
 6143SOL    HW219329   6.323   5.110   6.570
 6144SOL     OW19330   6.768   4.951   2.478
 6144SOL    HW119331   6.709   5.019   2.435
 6144SOL    HW219332   6.712   4.875   2.512
 6145SOL     OW19333   4.834   6.017   3.871
 6145SOL    HW119334   4.927   5.987   3.888
 6145SOL    HW219335   4.830   6.066   3.784
 6146SOL     OW19336   4.307   1.061   3.369
 6146SOL    HW119337   4.364   1.028   3.445
 6146SOL    HW219338   4.211   1.041   3.388
 6147SOL     OW19339   1.930   3.914   3.607
 6147SOL    HW119340   2.009   3.976   3.610
 6147SOL    HW219341   1.943   3.840   3.673
 6148SOL     OW19342   6.991   0.423   4.984
 6148SOL    HW119343   6.895   0.413   4.957
 6148SOL    HW219344   0.018   0.339   4.961
 6149SOL     OW19345   3.638   4.917   2.830
 6149SOL    HW119346   3.588   4.932   2.746
 6149SOL    HW219347   3.575   4.886   2.902
 6150SOL     OW19348   4.268   5.009   6.940
 6150SOL    HW119349   4.234   4.926   6.983
 6150SOL    HW219350   4.290   5.076   7.011
 6151SOL     OW19351   6.134   4.184   4.406
 6151SOL    HW119352   6.069   4.133   4.463
 6151SOL    HW219353   6.129   4.151   4.312
 6152SOL     OW19354   5.552   4.516   5.145
 6152SOL    HW119355   5.541   4.579   5.222
 6152SOL    HW219356   5.518   4.425   5.171
 6153SOL     OW19357   4.572   3.647   1.648
 6153SOL    HW119358   4.593   3.696   1.563
 6153SOL    HW219359   4.479   3.611   1.644
 6154SOL     OW19360   5.087   1.453   2.217
 6154SOL    HW119361   5.012   1.413   2.164
 6154SOL    HW219362   5.081   1.553   2.213
 6155SOL     OW19363   1.465   2.348   4.013
 6155SOL    HW119364   1.456   2.352   4.112
 6155SOL    HW219365   1.376   2.326   3.972
 6156SOL     OW19366   4.579   5.066   2.468
 6156SOL    HW119367   4.522   5.039   2.390
 6156SOL    HW219368   4.658   5.118   2.435
 6157SOL     OW19369   1.309   1.523   4.044
 6157SOL    HW119370   1.253   1.513   4.126
 6157SOL    HW219371   1.386   1.459   4.047
 6158SOL     OW19372   4.417   0.685   6.495
 6158SOL    HW119373   4.346   0.710   6.562
 6158SOL    HW219374   4.452   0.767   6.452
 6159SOL     OW19375   4.661   1.992   0.725
 6159SOL    HW119376   4.589   2.061   0.711
 6159SOL    HW219377   4.619   1.908   0.760
 6160SOL     OW19378   5.569   5.739   0.728
 6160SOL    HW119379   5.565   5.714   0.631
 6160SOL    HW219380   5.663   5.762   0.752
 6161SOL     OW19381   5.963   1.770   6.157
 6161SOL    HW119382   6.015   1.811   6.083
 6161SOL    HW219383   6.005   1.683   6.183
 6162SOL     OW19384   0.920   5.301   4.401
 6162SOL    HW119385   0.970   5.276   4.319
 6162SOL    HW219386   0.980   5.289   4.481
 6163SOL     OW19387   5.556   5.708   1.674
 6163SOL    HW119388   5.467   5.665   1.657
 6163SOL    HW219389   5.565   5.726   1.772
 6164SOL     OW19390   2.000   3.553   1.531
 6164SOL    HW119391   2.064   3.519   1.600
 6164SOL    HW219392   2.027   3.645   1.502
 6165SOL     OW19393   3.222   0.160   6.588
 6165SOL    HW119394   3.180   0.076   6.622
 6165SOL    HW219395   3.300   0.185   6.646
 6166SOL     OW19396   3.840   0.829   5.016
 6166SOL    HW119397   3.934   0.797   5.018
 6166SOL    HW219398   3.827   0.889   4.937
 6167SOL     OW19399   6.997   4.478   2.123
 6167SOL    HW119400   6.971   4.384   2.097
 6167SOL    HW219401   6.925   4.516   2.181
 6168SOL     OW19402   0.356   3.881   1.217
 6168SOL    HW119403   0.367   3.895   1.118
 6168SOL    HW219404   0.401   3.956   1.266
 6169SOL     OW19405   0.794   3.322   2.705
 6169SOL    HW119406   0.782   3.353   2.611
 6169SOL    HW219407   0.713   3.272   2.735
 6170SOL     OW19408   0.721   3.489   5.219
 6170SOL    HW119409   0.788   3.563   5.207
 6170SOL    HW219410   0.758   3.421   5.283
 6171SOL     OW19411   0.536   1.646   0.365
 6171SOL    HW119412   0.629   1.669   0.335
 6171SOL    HW219413   0.541   1.593   0.450
 6172SOL     OW19414   1.324   2.701   2.345
 6172SOL    HW119415   1.348   2.606   2.361
 6172SOL    HW219416   1.400   2.748   2.301
 6173SOL     OW19417   6.371   5.470   3.693
 6173SOL    HW119418   6.422   5.385   3.706
 6173SOL    HW219419   6.274   5.449   3.677
 6174SOL     OW19420   4.477   5.294   3.727
 6174SOL    HW119421   4.429   5.359   3.786
 6174SOL    HW219422   4.417   5.266   3.652
 6175SOL     OW19423   3.595   0.869   4.391
 6175SOL    HW119424   3.618   0.930   4.467
 6175SOL    HW219425   3.509   0.822   4.412
 6176SOL     OW19426   4.544   3.843   5.332
 6176SOL    HW119427   4.610   3.768   5.335
 6176SOL    HW219428   4.451   3.806   5.331
 6177SOL     OW19429   4.847   2.134   1.606
 6177SOL    HW119430   4.879   2.040   1.592
 6177SOL    HW219431   4.747   2.135   1.610
 6178SOL     OW19432   4.813   3.620   1.898
 6178SOL    HW119433   4.786   3.586   1.988
 6178SOL    HW219434   4.800   3.549   1.829
 6179SOL     OW19435   6.572   5.079   1.765
 6179SOL    HW119436   6.577   4.995   1.711
 6179SOL    HW219437   6.634   5.071   1.844
 6180SOL     OW19438   3.738   4.921   0.635
 6180SOL    HW119439   3.703   4.954   0.548
 6180SOL    HW219440   3.827   4.877   0.621
 6181SOL     OW19441   4.663   6.348   5.963
 6181SOL    HW119442   4.698   6.430   5.918
 6181SOL    HW219443   4.718   6.329   6.045
 6182SOL     OW19444   4.606   2.471   6.545
 6182SOL    HW119445   4.509   2.491   6.557
 6182SOL    HW219446   4.646   2.539   6.484
 6183SOL     OW19447   1.753   2.263   1.749
 6183SOL    HW119448   1.708   2.267   1.660
 6183SOL    HW219449   1.847   2.230   1.738
 6184SOL     OW19450   3.171   0.218   5.946
 6184SOL    HW119451   3.270   0.225   5.958
 6184SOL    HW219452   3.129   0.307   5.967
 6185SOL     OW19453   1.998   4.193   5.611
 6185SOL    HW119454   1.941   4.239   5.543
 6185SOL    HW219455   1.979   4.231   5.702
 6186SOL     OW19456   6.598   1.119   1.762
 6186SOL    HW119457   6.642   1.139   1.849
 6186SOL    HW219458   6.500   1.108   1.775
 6187SOL     OW19459   4.726   2.913   5.226
 6187SOL    HW119460   4.693   2.819   5.210
 6187SOL    HW219461   4.722   2.965   5.140
 6188SOL     OW19462   1.853   1.879   5.430
 6188SOL    HW119463   1.924   1.929   5.479
 6188SOL    HW219464   1.805   1.941   5.368
 6189SOL     OW19465   3.890   5.416   2.676
 6189SOL    HW119466   3.953   5.402   2.599
 6189SOL    HW219467   3.836   5.333   2.690
 6190SOL     OW19468   5.897   2.698   5.544
 6190SOL    HW119469   5.943   2.614   5.513
 6190SOL    HW219470   5.814   2.674   5.594
 6191SOL     OW19471   2.472   3.152   5.548
 6191SOL    HW119472   2.397   3.120   5.489
 6191SOL    HW219473   2.532   3.211   5.495
 6192SOL     OW19474   2.672   2.063   6.507
 6192SOL    HW119475   2.752   2.043   6.451
 6192SOL    HW219476   2.645   2.159   6.495
 6193SOL     OW19477   4.992   5.884   0.883
 6193SOL    HW119478   5.068   5.927   0.834
 6193SOL    HW219479   5.002   5.785   0.879
 6194SOL     OW19480   6.502   0.327   6.466
 6194SOL    HW119481   6.579   0.391   6.462
 6194SOL    HW219482   6.451   0.342   6.551
 6195SOL     OW19483   5.850   6.608   4.966
 6195SOL    HW119484   5.860   6.624   4.868
 6195SOL    HW219485   5.938   6.581   5.005
 6196SOL     OW19486   4.688   4.653   2.690
 6196SOL    HW119487   4.648   4.702   2.613
 6196SOL    HW219488   4.615   4.616   2.748
 6197SOL     OW19489   2.466   5.151   2.560
 6197SOL    HW119490   2.473   5.056   2.531
 6197SOL    HW219491   2.384   5.193   2.521
 6198SOL     OW19492   5.137   6.250   0.018
 6198SOL    HW119493   5.156   6.228   0.114
 6198SOL    HW219494   5.168   6.175   6.983
 6199SOL     OW19495   0.214   1.054   0.344
 6199SOL    HW119496   0.251   1.145   0.365
 6199SOL    HW219497   0.134   1.064   0.285
 6200SOL     OW19498   0.655   1.478   3.192
 6200SOL    HW119499   0.591   1.420   3.242
 6200SOL    HW219500   0.647   1.572   3.223
 6201SOL     OW19501   0.547   3.633   3.873
 6201SOL    HW119502   0.539   3.639   3.773
 6201SOL    HW219503   0.543   3.724   3.913
 6202SOL     OW19504   5.671   1.645   2.751
 6202SOL    HW119505   5.735   1.717   2.723
 6202SOL    HW219506   5.589   1.688   2.790
 6203SOL     OW19507   5.941   5.423   2.065
 6203SOL    HW119508   5.964   5.468   1.979
 6203SOL    HW219509   5.960   5.325   2.058
 6204SOL     OW19510   0.966   6.227   5.138
 6204SOL    HW119511   0.925   6.308   5.180
 6204SOL    HW219512   1.059   6.216   5.172
 6205SOL     OW19513   5.364   4.550   1.660
 6205SOL    HW119514   5.303   4.626   1.639
 6205SOL    HW219515   5.360   4.483   1.586
 6206SOL     OW19516   5.674   1.891   3.356
 6206SOL    HW119517   5.641   1.797   3.369
 6206SOL    HW219518   5.690   1.933   3.445
 6207SOL     OW19519   1.906   5.812   4.845
 6207SOL    HW119520   1.894   5.712   4.850
 6207SOL    HW219521   1.858   5.854   4.922
 6208SOL     OW19522   3.203   2.402   5.881
 6208SOL    HW119523   3.104   2.400   5.892
 6208SOL    HW219524   3.226   2.432   5.788
 6209SOL     OW19525   3.066   4.938   0.905
 6209SOL    HW119526   2.968   4.933   0.890
 6209SOL    HW219527   3.103   5.019   0.858
 6210SOL     OW19528   5.291   3.792   2.721
 6210SOL    HW119529   5.258   3.714   2.775
 6210SOL    HW219530   5.388   3.806   2.740
 6211SOL     OW19531   4.456   5.968   6.191
 6211SOL    HW119532   4.449   5.975   6.092
 6211SOL    HW219533   4.549   5.940   6.216
 6212SOL     OW19534   2.473   4.855   4.379
 6212SOL    HW119535   2.514   4.940   4.344
 6212SOL    HW219536   2.450   4.866   4.475
 6213SOL     OW19537   4.773   6.458   0.469
 6213SOL    HW119538   4.744   6.517   0.393
 6213SOL    HW219539   4.795   6.514   0.548
 6214SOL     OW19540   5.503   5.802   6.006
 6214SOL    HW119541   5.479   5.882   5.950
 6214SOL    HW219542   5.602   5.795   6.014
 6215SOL     OW19543   4.373   3.143   6.449
 6215SOL    HW119544   4.389   3.135   6.351
 6215SOL    HW219545   4.375   3.240   6.475
 6216SOL     OW19546   5.936   2.672   3.444
 6216SOL    HW119547   5.975   2.667   3.536
 6216SOL    HW219548   5.840   2.700   3.449
 6217SOL     OW19549   1.118   4.783   2.369
 6217SOL    HW119550   1.059   4.844   2.422
 6217SOL    HW219551   1.073   4.759   2.283
 6218SOL     OW19552   3.938   6.459   0.452
 6218SOL    HW119553   4.037   6.467   0.463
 6218SOL    HW219554   3.892   6.501   0.530
 6219SOL     OW19555   2.079   0.705   5.524
 6219SOL    HW119556   2.031   0.783   5.484
 6219SOL    HW219557   2.105   0.641   5.452
 6220SOL     OW19558   3.420   1.253   6.898
 6220SOL    HW119559   3.460   1.222   6.812
 6220SOL    HW219560   3.320   1.256   6.889
 6221SOL     OW19561   6.081   6.798   6.977
 6221SOL    HW119562   6.065   6.704   7.008
 6221SOL    HW219563   6.100   6.856   0.033
 6222SOL     OW19564   5.974   0.511   2.256
 6222SOL    HW119565   5.935   0.601   2.238
 6222SOL    HW219566   5.965   0.490   2.353
 6223SOL     OW19567   0.726   5.118   3.757
 6223SOL    HW119568   0.739   5.099   3.659
 6223SOL    HW219569   0.815   5.115   3.803
 6224SOL     OW19570   4.421   1.251   5.764
 6224SOL    HW119571   4.484   1.216   5.695
 6224SOL    HW219572   4.328   1.251   5.726
 6225SOL     OW19573   4.177   1.750   6.317
 6225SOL    HW119574   4.218   1.795   6.396
 6225SOL    HW219575   4.152   1.819   6.249
 6226SOL     OW19576   1.238   1.572   3.770
 6226SOL    HW119577   1.237   1.556   3.869
 6226SOL    HW219578   1.195   1.660   3.750
 6227SOL     OW19579   3.004   4.607   5.348
 6227SOL    HW119580   2.925   4.596   5.288
 6227SOL    HW219581   3.050   4.518   5.359
 6228SOL     OW19582   0.914   2.409   4.146
 6228SOL    HW119583   0.860   2.462   4.211
 6228SOL    HW219584   0.989   2.364   4.194
 6229SOL     OW19585   0.195   2.918   5.194
 6229SOL    HW119586   0.244   2.832   5.210
 6229SOL    HW219587   0.196   2.973   5.277
 6230SOL     OW19588   1.044   2.084   3.234
 6230SOL    HW119589   0.961   2.043   3.197
 6230SOL    HW219590   1.060   2.050   3.326
 6231SOL     OW19591   5.333   4.960   0.468
 6231SOL    HW119592   5.396   4.920   0.402
 6231SOL    HW219593   5.270   5.022   0.422
 6232SOL     OW19594   6.100   0.934   0.757
 6232SOL    HW119595   6.119   1.016   0.811
 6232SOL    HW219596   6.077   0.961   0.663
 6233SOL     OW19597   0.417   3.520   1.954
 6233SOL    HW119598   0.371   3.561   1.876
 6233SOL    HW219599   0.469   3.440   1.923
 6234SOL     OW19600   0.448   0.277   5.164
 6234SOL    HW119601   0.439   0.349   5.233
 6234SOL    HW219602   0.385   0.295   5.088
 6235SOL     OW19603   6.954   0.746   1.815
 6235SOL    HW119604   6.888   0.775   1.745
 6235SOL    HW219605   0.020   0.785   1.794
 6236SOL     OW19606   6.764   4.394   0.724
 6236SOL    HW119607   6.691   4.329   0.705
 6236SOL    HW219608   6.852   4.346   0.729
 6237SOL     OW19609   3.693   7.015   0.416
 6237SOL    HW119610   3.697   7.014   0.316
 6237SOL    HW219611   3.675   0.085   0.448
 6238SOL     OW19612   3.635   6.886   3.403
 6238SOL    HW119613   3.687   6.808   3.367
 6238SOL    HW219614   3.557   6.853   3.456
 6239SOL     OW19615   3.615   6.970   1.675
 6239SOL    HW119616   3.582   0.022   1.733
 6239SOL    HW219617   3.538   6.910   1.653
 6240SOL     OW19618   3.165   4.073   4.755
 6240SOL    HW119619   3.172   4.141   4.682
 6240SOL    HW219620   3.160   3.981   4.715
 6241SOL     OW19621   3.877   0.306   3.609
 6241SOL    HW119622   3.807   0.377   3.609
 6241SOL    HW219623   3.836   0.218   3.584
 6242SOL     OW19624   2.162   1.579   3.470
 6242SOL    HW119625   2.064   1.572   3.454
 6242SOL    HW219626   2.182   1.566   3.567
 6243SOL     OW19627   6.656   0.772   5.669
 6243SOL    HW119628   6.690   0.742   5.580
 6243SOL    HW219629   6.565   0.813   5.658
 6244SOL     OW19630   5.116   4.005   2.712
 6244SOL    HW119631   5.169   3.924   2.735
 6244SOL    HW219632   5.019   3.980   2.704
 6245SOL     OW19633   0.858   5.079   1.966
 6245SOL    HW119634   0.806   5.005   1.923
 6245SOL    HW219635   0.798   5.132   2.026
 6246SOL     OW19636   1.181   6.852   4.218
 6246SOL    HW119637   1.147   6.784   4.153
 6246SOL    HW219638   1.145   6.942   4.193
 6247SOL     OW19639   1.429   5.648   3.350
 6247SOL    HW119640   1.407   5.580   3.419
 6247SOL    HW219641   1.526   5.673   3.357
 6248SOL     OW19642   3.690   3.243   6.846
 6248SOL    HW119643   3.651   3.292   6.924
 6248SOL    HW219644   3.755   3.175   6.880
 6249SOL     OW19645   0.287   2.734   1.649
 6249SOL    HW119646   0.297   2.785   1.564
 6249SOL    HW219647   0.196   2.749   1.687
 6250SOL     OW19648   0.214   6.755   0.857
 6250SOL    HW119649   0.212   6.817   0.778
 6250SOL    HW219650   0.272   6.677   0.835
 6251SOL     OW19651   3.846   5.867   4.448
 6251SOL    HW119652   3.820   5.927   4.372
 6251SOL    HW219653   3.773   5.866   4.516
 6252SOL     OW19654   2.717   5.080   0.209
 6252SOL    HW119655   2.634   5.114   0.254
 6252SOL    HW219656   2.798   5.118   0.254
 6253SOL     OW19657   2.584   4.958   4.837
 6253SOL    HW119658   2.585   4.878   4.777
 6253SOL    HW219659   2.677   4.989   4.854
 6254SOL     OW19660   1.167   6.036   1.159
 6254SOL    HW119661   1.189   5.944   1.191
 6254SOL    HW219662   1.230   6.102   1.200
 6255SOL     OW19663   1.649   2.741   0.826
 6255SOL    HW119664   1.604   2.672   0.883
 6255SOL    HW219665   1.594   2.758   0.744
 6256SOL     OW19666   4.718   5.451   2.553
 6256SOL    HW119667   4.629   5.443   2.597
 6256SOL    HW219668   4.780   5.382   2.589
 6257SOL     OW19669   4.107   3.230   0.385
 6257SOL    HW119670   4.053   3.249   0.303
 6257SOL    HW219671   4.079   3.293   0.458
 6258SOL     OW19672   3.615   6.921   5.296
 6258SOL    HW119673   3.522   6.940   5.329
 6258SOL    HW219674   3.610   6.884   5.203
 6259SOL     OW19675   1.714   1.667   5.549
 6259SOL    HW119676   1.787   1.731   5.524
 6259SOL    HW219677   1.630   1.717   5.568
 6260SOL     OW19678   1.660   0.586   0.774
 6260SOL    HW119679   1.581   0.591   0.835
 6260SOL    HW219680   1.712   0.502   0.794
 6261SOL     OW19681   5.163   0.283   1.125
 6261SOL    HW119682   5.159   0.271   1.026
 6261SOL    HW219683   5.238   0.345   1.149
 6262SOL     OW19684   0.220   6.341   3.176
 6262SOL    HW119685   0.318   6.359   3.166
 6262SOL    HW219686   0.168   6.408   3.124
 6263SOL     OW19687   0.157   6.602   4.684
 6263SOL    HW119688   0.208   6.669   4.736
 6263SOL    HW219689   0.065   6.637   4.665
 6264SOL     OW19690   0.998   6.958   1.227
 6264SOL    HW119691   1.042   7.021   1.292
 6264SOL    HW219692   0.908   6.932   1.262
 6265SOL     OW19693   4.043   2.543   0.748
 6265SOL    HW119694   4.067   2.470   0.684
 6265SOL    HW219695   4.033   2.504   0.840
 6266SOL     OW19696   3.680   6.455   3.038
 6266SOL    HW119697   3.752   6.522   3.022
 6266SOL    HW219698   3.718   6.374   3.082
 6267SOL     OW19699   0.893   6.551   4.942
 6267SOL    HW119700   0.799   6.528   4.917
 6267SOL    HW219701   0.924   6.489   5.014
 6268SOL     OW19702   3.573   0.058   2.125
 6268SOL    HW119703   3.593   6.983   2.133
 6268SOL    HW219704   3.602   0.104   2.209
 6269SOL     OW19705   5.730   6.101   1.467
 6269SOL    HW119706   5.699   6.100   1.372
 6269SOL    HW219707   5.723   6.009   1.505
 6270SOL     OW19708   0.394   6.749   0.073
 6270SOL    HW119709   0.345   6.663   0.086
 6270SOL    HW219710   0.390   6.803   0.157
 6271SOL     OW19711   5.611   2.484   6.503
 6271SOL    HW119712   5.642   2.392   6.480
 6271SOL    HW219713   5.577   2.529   6.421
 6272SOL     OW19714   6.965   0.419   6.718
 6272SOL    HW119715   6.897   0.463   6.658
 6272SOL    HW219716   0.021   0.479   6.728
 6273SOL     OW19717   0.595   6.176   3.081
 6273SOL    HW119718   0.677   6.178   3.138
 6273SOL    HW219719   0.534   6.250   3.107
 6274SOL     OW19720   2.944   6.377   4.743
 6274SOL    HW119721   2.939   6.438   4.822
 6274SOL    HW219722   2.857   6.379   4.694
 6275SOL     OW19723   2.709   6.137   0.403
 6275SOL    HW119724   2.636   6.199   0.431
 6275SOL    HW219725   2.683   6.090   0.319
 6276SOL     OW19726   3.731   5.936   3.745
 6276SOL    HW119727   3.781   5.852   3.722
 6276SOL    HW219728   3.645   5.939   3.694
 6277SOL     OW19729   4.925   1.882   1.569
 6277SOL    HW119730   4.916   1.877   1.470
 6277SOL    HW219731   4.984   1.808   1.601
 6278SOL     OW19732   3.544   0.385   5.709
 6278SOL    HW119733   3.448   0.411   5.700
 6278SOL    HW219734   3.550   0.288   5.735
 6279SOL     OW19735   3.571   5.548   0.364
 6279SOL    HW119736   3.499   5.604   0.404
 6279SOL    HW219737   3.567   5.556   0.264
 6280SOL     OW19738   0.134   1.437   6.780
 6280SOL    HW119739   0.183   1.350   6.778
 6280SOL    HW219740   0.039   1.422   6.807
 6281SOL     OW19741   5.645   4.583   4.063
 6281SOL    HW119742   5.706   4.507   4.039
 6281SOL    HW219743   5.694   4.670   4.051
 6282SOL     OW19744   6.026   3.310   5.007
 6282SOL    HW119745   6.072   3.285   4.921
 6282SOL    HW219746   6.031   3.409   5.019
 6283SOL     OW19747   0.887   5.349   4.927
 6283SOL    HW119748   0.820   5.420   4.903
 6283SOL    HW219749   0.839   5.267   4.958
 6284SOL     OW19750   0.896   4.960   6.536
 6284SOL    HW119751   0.809   4.984   6.580
 6284SOL    HW219752   0.905   4.861   6.531
 6285SOL     OW19753   1.958   3.604   3.941
 6285SOL    HW119754   1.990   3.513   3.913
 6285SOL    HW219755   1.873   3.625   3.893
 6286SOL     OW19756   6.740   3.580   4.943
 6286SOL    HW119757   6.729   3.663   4.998
 6286SOL    HW219758   6.674   3.581   4.868
 6287SOL     OW19759   4.301   4.710   5.580
 6287SOL    HW119760   4.314   4.612   5.591
 6287SOL    HW219761   4.203   4.730   5.580
 6288SOL     OW19762   4.128   3.620   0.377
 6288SOL    HW119763   4.051   3.683   0.370
 6288SOL    HW219764   4.120   3.567   0.462
 6289SOL     OW19765   2.322   4.194   6.823
 6289SOL    HW119766   2.238   4.157   6.783
 6289SOL    HW219767   2.370   4.249   6.754
 6290SOL     OW19768   6.568   5.182   6.498
 6290SOL    HW119769   6.573   5.102   6.438
 6290SOL    HW219770   6.643   5.179   6.564
 6291SOL     OW19771   3.492   2.865   2.965
 6291SOL    HW119772   3.589   2.854   2.988
 6291SOL    HW219773   3.436   2.813   3.030
 6292SOL     OW19774   1.755   2.733   4.904
 6292SOL    HW119775   1.849   2.725   4.871
 6292SOL    HW219776   1.713   2.815   4.866
 6293SOL     OW19777   4.761   1.900   0.480
 6293SOL    HW119778   4.812   1.823   0.517
 6293SOL    HW219779   4.709   1.944   0.553
 6294SOL     OW19780   3.545   0.429   3.348
 6294SOL    HW119781   3.617   0.488   3.386
 6294SOL    HW219782   3.532   0.452   3.251
 6295SOL     OW19783   5.361   4.923   4.541
 6295SOL    HW119784   5.384   4.832   4.574
 6295SOL    HW219785   5.410   4.992   4.595
 6296SOL     OW19786   0.637   3.939   6.181
 6296SOL    HW119787   0.667   4.035   6.175
 6296SOL    HW219788   0.605   3.909   6.091
 6297SOL     OW19789   6.128   0.128   5.377
 6297SOL    HW119790   6.095   0.211   5.332
 6297SOL    HW219791   6.215   0.147   5.423
 6298SOL     OW19792   6.223   4.579   6.745
 6298SOL    HW119793   6.203   4.481   6.745
 6298SOL    HW219794   6.313   4.595   6.705
 6299SOL     OW19795   5.395   2.499   2.580
 6299SOL    HW119796   5.408   2.446   2.497
 6299SOL    HW219797   5.343   2.446   2.647
 6300SOL     OW19798   4.384   0.970   6.166
 6300SOL    HW119799   4.363   1.061   6.200
 6300SOL    HW219800   4.438   0.921   6.234
 6301SOL     OW19801   3.214   6.759   6.525
 6301SOL    HW119802   3.265   6.844   6.530
 6301SOL    HW219803   3.118   6.779   6.504
 6302SOL     OW19804   2.279   1.832   5.029
 6302SOL    HW119805   2.375   1.827   5.058
 6302SOL    HW219806   2.220   1.843   5.109
 6303SOL     OW19807   1.212   6.752   5.786
 6303SOL    HW119808   1.282   6.791   5.845
 6303SOL    HW219809   1.121   6.775   5.822
 6304SOL     OW19810   4.135   1.761   3.612
 6304SOL    HW119811   4.162   1.759   3.516
 6304SOL    HW219812   4.132   1.668   3.648
 6305SOL     OW19813   6.030   5.991   6.619
 6305SOL    HW119814   6.018   6.074   6.565
 6305SOL    HW219815   6.045   5.913   6.557
 6306SOL     OW19816   0.279   3.324   3.590
 6306SOL    HW119817   0.263   3.399   3.653
 6306SOL    HW219818   0.270   3.356   3.496
 6307SOL     OW19819   3.708   3.651   4.211
 6307SOL    HW119820   3.742   3.643   4.118
 6307SOL    HW219821   3.667   3.742   4.224
 6308SOL     OW19822   0.643   2.126   5.783
 6308SOL    HW119823   0.703   2.163   5.712
 6308SOL    HW219824   0.606   2.202   5.837
 6309SOL     OW19825   0.527   6.656   4.047
 6309SOL    HW119826   0.453   6.589   4.043
 6309SOL    HW219827   0.599   6.622   4.107
 6310SOL     OW19828   1.650   6.990   3.144
 6310SOL    HW119829   1.670   6.914   3.082
 6310SOL    HW219830   1.696   0.049   3.112
 6311SOL     OW19831   5.178   0.864   6.880
 6311SOL    HW119832   5.137   0.902   6.797
 6311SOL    HW219833   5.114   0.874   6.956
 6312SOL     OW19834   2.643   6.864   6.322
 6312SOL    HW119835   2.687   6.775   6.322
 6312SOL    HW219836   2.595   6.878   6.235
 6313SOL     OW19837   5.668   6.741   3.603
 6313SOL    HW119838   5.706   6.686   3.677
 6313SOL    HW219839   5.589   6.793   3.636
 6314SOL     OW19840   3.289   0.049   1.214
 6314SOL    HW119841   3.232   7.001   1.173
 6314SOL    HW219842   3.357   0.008   1.274
 6315SOL     OW19843   2.042   2.673   4.764
 6315SOL    HW119844   2.060   2.588   4.814
 6315SOL    HW219845   2.100   2.746   4.800
 6316SOL     OW19846   4.896   2.193   5.800
 6316SOL    HW119847   4.986   2.193   5.756
 6316SOL    HW219848   4.833   2.137   5.746
 6317SOL     OW19849   5.328   4.373   2.921
 6317SOL    HW119850   5.259   4.358   2.850
 6317SOL    HW219851   5.292   4.438   2.988
 6318SOL     OW19852   6.129   0.528   6.871
 6318SOL    HW119853   6.061   0.564   6.807
 6318SOL    HW219854   6.146   0.594   6.943
 6319SOL     OW19855   5.317   2.364   5.020
 6319SOL    HW119856   5.343   2.377   4.924
 6319SOL    HW219857   5.313   2.452   5.066
 6320SOL     OW19858   0.051   0.224   3.907
 6320SOL    HW119859   6.995   0.186   3.861
 6320SOL    HW219860   0.135   0.197   3.859
 6321SOL     OW19861   5.544   3.359   0.626
 6321SOL    HW119862   5.572   3.281   0.571
 6321SOL    HW219863   5.590   3.442   0.594
 6322SOL     OW19864   2.623   1.782   0.727
 6322SOL    HW119865   2.644   1.868   0.773
 6322SOL    HW219866   2.708   1.734   0.706
 6323SOL     OW19867   2.290   3.299   1.239
 6323SOL    HW119868   2.206   3.267   1.194
 6323SOL    HW219869   2.298   3.398   1.225
 6324SOL     OW19870   4.649   1.447   0.639
 6324SOL    HW119871   4.643   1.354   0.601
 6324SOL    HW219872   4.656   1.441   0.739
 6325SOL     OW19873   1.751   2.781   2.436
 6325SOL    HW119874   1.803   2.712   2.487
 6325SOL    HW219875   1.806   2.864   2.426
 6326SOL     OW19876   4.714   5.117   5.570
 6326SOL    HW119877   4.784   5.186   5.583
 6326SOL    HW219878   4.739   5.034   5.621
 6327SOL     OW19879   0.438   1.873   3.247
 6327SOL    HW119880   0.466   1.834   3.159
 6327SOL    HW219881   0.380   1.953   3.230
 6328SOL     OW19882   5.137   4.139   6.832
 6328SOL    HW119883   5.158   4.075   6.906
 6328SOL    HW219884   5.173   4.229   6.853
 6329SOL     OW19885   1.217   2.859   4.662
 6329SOL    HW119886   1.119   2.854   4.682
 6329SOL    HW219887   1.261   2.774   4.692
 6330SOL     OW19888   5.517   0.537   3.189
 6330SOL    HW119889   5.585   0.511   3.120
 6330SOL    HW219890   5.426   0.535   3.148
 6331SOL     OW19891   6.444   3.099   4.651
 6331SOL    HW119892   6.497   3.014   4.652
 6331SOL    HW219893   6.381   3.098   4.573
 6332SOL     OW19894   1.549   2.027   1.734
 6332SOL    HW119895   1.627   1.985   1.688
 6332SOL    HW219896   1.484   2.061   1.666
 6333SOL     OW19897   4.537   0.151   0.133
 6333SOL    HW119898   4.619   0.160   0.189
 6333SOL    HW219899   4.560   0.165   0.037
 6334SOL     OW19900   2.393   1.737   2.008
 6334SOL    HW119901   2.314   1.786   1.972
 6334SOL    HW219902   2.470   1.747   1.945
 6335SOL     OW19903   4.878   1.225   0.806
 6335SOL    HW119904   4.792   1.178   0.825
 6335SOL    HW219905   4.931   1.231   0.891
 6336SOL     OW19906   0.090   4.781   6.378
 6336SOL    HW119907   0.067   4.746   6.469
 6336SOL    HW219908   0.007   4.785   6.322
 6337SOL     OW19909   4.239   5.415   5.137
 6337SOL    HW119910   4.205   5.492   5.083
 6337SOL    HW219911   4.277   5.449   5.223
 6338SOL     OW19912   2.989   1.851   4.468
 6338SOL    HW119913   3.032   1.884   4.552
 6338SOL    HW219914   2.906   1.905   4.450
 6339SOL     OW19915   1.028   3.358   2.825
 6339SOL    HW119916   1.106   3.318   2.776
 6339SOL    HW219917   0.948   3.357   2.765
 6340SOL     OW19918   2.503   3.835   1.495
 6340SOL    HW119919   2.407   3.857   1.515
 6340SOL    HW219920   2.511   3.808   1.399
 6341SOL     OW19921   0.591   3.279   3.393
 6341SOL    HW119922   0.688   3.271   3.371
 6341SOL    HW219923   0.580   3.284   3.493
 6342SOL     OW19924   3.205   1.264   1.540
 6342SOL    HW119925   3.243   1.337   1.596
 6342SOL    HW219926   3.212   1.177   1.589
 6343SOL     OW19927   3.509   6.700   6.878
 6343SOL    HW119928   3.460   6.654   6.804
 6343SOL    HW219929   3.532   6.634   6.949
 6344SOL     OW19930   6.409   2.653   3.511
 6344SOL    HW119931   6.335   2.715   3.485
 6344SOL    HW219932   6.370   2.568   3.548
 6345SOL     OW19933   4.688   3.198   1.189
 6345SOL    HW119934   4.693   3.121   1.125
 6345SOL    HW219935   4.696   3.164   1.283
 6346SOL     OW19936   6.889   4.207   5.236
 6346SOL    HW119937   6.935   4.295   5.226
 6346SOL    HW219938   6.864   4.172   5.145
 6347SOL     OW19939   2.596   2.119   2.259
 6347SOL    HW119940   2.506   2.074   2.262
 6347SOL    HW219941   2.616   2.147   2.165
 6348SOL     OW19942   0.876   1.893   5.877
 6348SOL    HW119943   0.904   1.910   5.783
 6348SOL    HW219944   0.927   1.953   5.939
 6349SOL     OW19945   1.474   0.302   0.004
 6349SOL    HW119946   1.392   0.247   7.011
 6349SOL    HW219947   1.555   0.249   7.000
 6350SOL     OW19948   0.946   5.184   2.675
 6350SOL    HW119949   0.910   5.223   2.760
 6350SOL    HW219950   1.021   5.241   2.642
 6351SOL     OW19951   6.360   4.472   3.647
 6351SOL    HW119952   6.288   4.453   3.714
 6351SOL    HW219953   6.325   4.453   3.555
 6352SOL     OW19954   2.987   1.035   3.862
 6352SOL    HW119955   2.922   1.110   3.854
 6352SOL    HW219956   3.002   0.994   3.771
 6353SOL     OW19957   2.183   5.034   0.217
 6353SOL    HW119958   2.258   4.969   0.212
 6353SOL    HW219959   2.182   5.090   0.134
 6354SOL     OW19960   4.511   5.384   2.759
 6354SOL    HW119961   4.534   5.292   2.790
 6354SOL    HW219962   4.414   5.389   2.739
 6355SOL     OW19963   3.376   5.676   0.512
 6355SOL    HW119964   3.446   5.703   0.579
 6355SOL    HW219965   3.332   5.592   0.542
 6356SOL     OW19966   5.274   4.774   0.093
 6356SOL    HW119967   5.180   4.741   0.083
 6356SOL    HW219968   5.276   4.873   0.083
 6357SOL     OW19969   5.804   2.684   1.410
 6357SOL    HW119970   5.868   2.609   1.394
 6357SOL    HW219971   5.855   2.770   1.422
 6358SOL     OW19972   1.189   1.986   0.058
 6358SOL    HW119973   1.136   1.903   0.076
 6358SOL    HW219974   1.286   1.968   0.073
 6359SOL     OW19975   5.856   6.815   0.680
 6359SOL    HW119976   5.828   6.888   0.743
 6359SOL    HW219977   5.924   6.756   0.725
 6360SOL     OW19978   0.088   2.750   3.868
 6360SOL    HW119979   0.136   2.798   3.795
 6360SOL    HW219980   0.053   2.816   3.934
 6361SOL     OW19981   0.459   0.665   0.386
 6361SOL    HW119982   0.394   0.608   0.335
 6361SOL    HW219983   0.467   0.754   0.343
 6362SOL     OW19984   1.472   6.267   6.712
 6362SOL    HW119985   1.496   6.173   6.739
 6362SOL    HW219986   1.525   6.293   6.632
 6363SOL     OW19987   2.556   4.902   3.847
 6363SOL    HW119988   2.608   4.939   3.925
 6363SOL    HW219989   2.459   4.915   3.863
 6364SOL     OW19990   2.249   2.352   4.732
 6364SOL    HW119991   2.286   2.305   4.812
 6364SOL    HW219992   2.296   2.439   4.720
 6365SOL     OW19993   6.087   5.377   5.392
 6365SOL    HW119994   6.162   5.330   5.438
 6365SOL    HW219995   6.029   5.310   5.346
 6366SOL     OW19996   6.413   6.546   4.634
 6366SOL    HW119997   6.380   6.549   4.539
 6366SOL    HW219998   6.491   6.607   4.644
 6367SOL     OW19999   2.943   1.866   2.899
 6367SOL    HW120000   3.015   1.924   2.938
 6367SOL    HW220001   2.978   1.774   2.885
 6368SOL     OW20002   4.561   4.472   4.249
 6368SOL    HW120003   4.660   4.458   4.257
 6368SOL    HW220004   4.516   4.434   4.330
 6369SOL     OW20005   2.237   6.248   5.725
 6369SOL    HW120006   2.216   6.189   5.802
 6369SOL    HW220007   2.293   6.198   5.659
 6370SOL     OW20008   4.888   3.892   3.416
 6370SOL    HW120009   4.835   3.960   3.365
 6370SOL    HW220010   4.901   3.811   3.359
 6371SOL     OW20011   5.533   3.666   1.641
 6371SOL    HW120012   5.508   3.575   1.606
 6371SOL    HW220013   5.570   3.657   1.733
 6372SOL     OW20014   0.618   0.971   2.882
 6372SOL    HW120015   0.534   1.021   2.861
 6372SOL    HW220016   0.656   1.005   2.968
 6373SOL     OW20017   5.947   4.083   1.885
 6373SOL    HW120018   6.038   4.060   1.920
 6373SOL    HW220019   5.900   4.140   1.951
 6374SOL     OW20020   4.515   3.225   0.277
 6374SOL    HW120021   4.487   3.319   0.256
 6374SOL    HW220022   4.439   3.163   0.259
 6375SOL     OW20023   1.048   3.013   2.174
 6375SOL    HW120024   1.139   3.022   2.132
 6375SOL    HW220025   1.051   2.940   2.243
 6376SOL     OW20026   4.644   1.370   5.914
 6376SOL    HW120027   4.627   1.458   5.868
 6376SOL    HW220028   4.564   1.311   5.903
 6377SOL     OW20029   6.940   0.820   5.785
 6377SOL    HW120030   0.013   0.828   5.758
 6377SOL    HW220031   6.882   0.834   5.705
 6378SOL     OW20032   4.820   5.890   3.238
 6378SOL    HW120033   4.728   5.896   3.200
 6378SOL    HW220034   4.887   5.916   3.168
 6379SOL     OW20035   1.360   4.923   5.335
 6379SOL    HW120036   1.344   4.920   5.236
 6379SOL    HW220037   1.453   4.892   5.355
 6380SOL     OW20038   0.954   2.785   4.703
 6380SOL    HW120039   0.889   2.860   4.705
 6380SOL    HW220040   0.925   2.713   4.766
 6381SOL     OW20041   3.985   2.848   0.523
 6381SOL    HW120042   3.999   2.757   0.483
 6381SOL    HW220043   3.887   2.871   0.521
 6382SOL     OW20044   2.682   1.763   1.581
 6382SOL    HW120045   2.659   1.729   1.490
 6382SOL    HW220046   2.713   1.858   1.575
 6383SOL     OW20047   1.540   2.779   2.177
 6383SOL    HW120048   1.537   2.794   2.078
 6383SOL    HW220049   1.608   2.839   2.218
 6384SOL     OW20050   5.961   2.196   2.170
 6384SOL    HW120051   6.054   2.198   2.134
 6384SOL    HW220052   5.918   2.286   2.159
 6385SOL     OW20053   0.084   3.986   1.282
 6385SOL    HW120054   0.153   3.919   1.254
 6385SOL    HW220055   0.109   4.076   1.246
 6386SOL     OW20056   1.895   4.157   0.505
 6386SOL    HW120057   1.940   4.138   0.592
 6386SOL    HW220058   1.884   4.256   0.494
 6387SOL     OW20059   6.168   1.494   0.375
 6387SOL    HW120060   6.170   1.587   0.339
 6387SOL    HW220061   6.074   1.465   0.388
 6388SOL     OW20062   6.664   4.805   2.953
 6388SOL    HW120063   6.595   4.837   2.889
 6388SOL    HW220064   6.666   4.705   2.953
 6389SOL     OW20065   1.836   6.767   0.347
 6389SOL    HW120066   1.867   6.860   0.363
 6389SOL    HW220067   1.797   6.729   0.431
 6390SOL     OW20068   6.363   0.359   6.923
 6390SOL    HW120069   6.285   0.420   6.906
 6390SOL    HW220070   6.337   0.288   6.988
 6391SOL     OW20071   1.286   1.528   5.704
 6391SOL    HW120072   1.263   1.625   5.703
 6391SOL    HW220073   1.366   1.514   5.762
 6392SOL     OW20074   3.286   5.754   3.740
 6392SOL    HW120075   3.342   5.789   3.816
 6392SOL    HW220076   3.317   5.796   3.654
 6393SOL     OW20077   5.527   6.741   2.048
 6393SOL    HW120078   5.432   6.720   2.071
 6393SOL    HW220079   5.531   6.825   1.994
 6394SOL     OW20080   1.047   4.816   1.077
 6394SOL    HW120081   0.957   4.859   1.066
 6394SOL    HW220082   1.035   4.720   1.101
 6395SOL     OW20083   0.025   3.736   2.563
 6395SOL    HW120084   0.039   3.745   2.661
 6395SOL    HW220085   6.951   3.749   2.541
 6396SOL     OW20086   6.732   3.534   6.372
 6396SOL    HW120087   6.700   3.537   6.467
 6396SOL    HW220088   6.813   3.475   6.366
 6397SOL     OW20089   6.247   1.061   2.439
 6397SOL    HW120090   6.280   0.987   2.380
 6397SOL    HW220091   6.160   1.095   2.403
 6398SOL     OW20092   1.704   6.473   1.301
 6398SOL    HW120093   1.721   6.471   1.202
 6398SOL    HW220094   1.607   6.491   1.317
 6399SOL     OW20095   1.576   0.017   6.761
 6399SOL    HW120096   1.588   0.110   6.797
 6399SOL    HW220097   1.516   0.019   6.681
 6400SOL     OW20098   1.866   5.518   2.997
 6400SOL    HW120099   1.858   5.514   2.898
 6400SOL    HW220100   1.860   5.613   3.028
 6401SOL     OW20101   4.494   4.750   3.002
 6401SOL    HW120102   4.471   4.679   2.934
 6401SOL    HW220103   4.593   4.757   3.010
 6402SOL     OW20104   1.204   3.087   3.209
 6402SOL    HW120105   1.138   3.053   3.276
 6402SOL    HW220106   1.271   3.016   3.189
 6403SOL     OW20107   5.536   5.970   4.961
 6403SOL    HW120108   5.593   5.911   4.905
 6403SOL    HW220109   5.478   6.027   4.902
 6404SOL     OW20110   3.442   1.055   2.698
 6404SOL    HW120111   3.531   1.060   2.744
 6404SOL    HW220112   3.403   1.147   2.691
 6405SOL     OW20113   4.961   1.659   3.656
 6405SOL    HW120114   5.005   1.716   3.587
 6405SOL    HW220115   4.910   1.718   3.720
 6406SOL     OW20116   1.069   2.779   2.352
 6406SOL    HW120117   1.031   2.780   2.445
 6406SOL    HW220118   1.165   2.755   2.355
 6407SOL     OW20119   1.900   6.258   3.345
 6407SOL    HW120120   1.963   6.279   3.270
 6407SOL    HW220121   1.947   6.273   3.432
 6408SOL     OW20122   6.837   0.636   1.098
 6408SOL    HW120123   6.777   0.606   1.173
 6408SOL    HW220124   6.785   0.638   1.013
 6409SOL     OW20125   6.203   4.934   3.827
 6409SOL    HW120126   6.214   4.866   3.754
 6409SOL    HW220127   6.252   4.903   3.909
 6410SOL     OW20128   2.379   1.425   6.131
 6410SOL    HW120129   2.446   1.497   6.148
 6410SOL    HW220130   2.402   1.378   6.046
 6411SOL     OW20131   0.146   2.987   1.909
 6411SOL    HW120132   0.099   2.947   1.987
 6411SOL    HW220133   0.115   2.944   1.825
 6412SOL     OW20134   3.312   0.991   6.467
 6412SOL    HW120135   3.257   1.070   6.442
 6412SOL    HW220136   3.257   0.908   6.456
 6413SOL     OW20137   4.149   4.782   4.491
 6413SOL    HW120138   4.059   4.822   4.508
 6413SOL    HW220139   4.166   4.781   4.392
 6414SOL     OW20140   0.517   6.353   6.367
 6414SOL    HW120141   0.542   6.415   6.293
 6414SOL    HW220142   0.426   6.376   6.401
 6415SOL     OW20143   1.327   3.469   2.896
 6415SOL    HW120144   1.307   3.419   2.981
 6415SOL    HW220145   1.414   3.518   2.907
 6416SOL     OW20146   2.979   0.002   6.662
 6416SOL    HW120147   2.923   6.946   6.688
 6416SOL    HW220148   2.934   0.085   6.694
 6417SOL     OW20149   5.441   2.198   1.195
 6417SOL    HW120150   5.474   2.212   1.288
 6417SOL    HW220151   5.509   2.147   1.142
 6418SOL     OW20152   4.872   4.480   2.162
 6418SOL    HW120153   4.815   4.400   2.180
 6418SOL    HW220154   4.923   4.504   2.245
 6419SOL     OW20155   0.637   6.545   5.531
 6419SOL    HW120156   0.593   6.613   5.473
 6419SOL    HW220157   0.659   6.587   5.620
 6420SOL     OW20158   1.183   2.404   3.928
 6420SOL    HW120159   1.225   2.489   3.961
 6420SOL    HW220160   1.116   2.372   3.995
 6421SOL     OW20161   5.548   0.302   0.939
 6421SOL    HW120162   5.616   0.358   0.891
 6421SOL    HW220163   5.458   0.344   0.930
 6422SOL     OW20164   7.007   1.722   5.872
 6422SOL    HW120165   0.011   1.635   5.912
 6422SOL    HW220166   0.030   1.734   5.784
 6423SOL     OW20167   3.689   6.098   4.423
 6423SOL    HW120168   3.638   6.066   4.503
 6423SOL    HW220169   3.768   6.151   4.453
 6424SOL     OW20170   0.782   3.165   5.140
 6424SOL    HW120171   0.756   3.175   5.044
 6424SOL    HW220172   0.870   3.118   5.145
 6425SOL     OW20173   0.268   5.251   2.899
 6425SOL    HW120174   0.326   5.308   2.957
 6425SOL    HW220175   0.211   5.308   2.841
 6426SOL     OW20176   5.362   5.180   4.184
 6426SOL    HW120177   5.372   5.261   4.241
 6426SOL    HW220178   5.419   5.190   4.102
 6427SOL     OW20179   3.130   3.987   2.891
 6427SOL    HW120180   3.217   4.004   2.846
 6427SOL    HW220181   3.146   3.971   2.989
 6428SOL     OW20182   5.344   2.718   0.274
 6428SOL    HW120183   5.287   2.768   0.340
 6428SOL    HW220184   5.433   2.763   0.266
 6429SOL     OW20185   1.668   0.569   5.330
 6429SOL    HW120186   1.694   0.665   5.326
 6429SOL    HW220187   1.571   0.560   5.307
 6430SOL     OW20188   6.889   0.480   5.610
 6430SOL    HW120189   6.981   0.440   5.615
 6430SOL    HW220190   6.858   0.505   5.702
 6431SOL     OW20191   4.294   5.425   3.072
 6431SOL    HW120192   4.251   5.439   2.983
 6431SOL    HW220193   4.379   5.373   3.061
 6432SOL     OW20194   3.486   4.022   6.251
 6432SOL    HW120195   3.583   4.034   6.232
 6432SOL    HW220196   3.473   4.010   6.349
 6433SOL     OW20197   2.994   5.461   0.023
 6433SOL    HW120198   3.036   5.453   0.114
 6433SOL    HW220199   2.902   5.497   0.032
 6434SOL     OW20200   2.762   6.608   6.323
 6434SOL    HW120201   2.771   6.534   6.390
 6434SOL    HW220202   2.710   6.574   6.244
 6435SOL     OW20203   5.999   0.112   0.504
 6435SOL    HW120204   5.932   0.048   0.541
 6435SOL    HW220205   5.954   0.175   0.441
 6436SOL     OW20206   0.629   2.970   3.559
 6436SOL    HW120207   0.692   2.927   3.495
 6436SOL    HW220208   0.597   2.902   3.625
 6437SOL     OW20209   0.652   1.645   5.287
 6437SOL    HW120210   0.607   1.570   5.335
 6437SOL    HW220211   0.745   1.618   5.263
 6438SOL     OW20212   1.058   5.248   6.353
 6438SOL    HW120213   0.969   5.201   6.345
 6438SOL    HW220214   1.131   5.180   6.352
 6439SOL     OW20215   6.344   1.018   3.467
 6439SOL    HW120216   6.299   1.050   3.550
 6439SOL    HW220217   6.414   0.952   3.490
 6440SOL     OW20218   2.457   0.926   6.846
 6440SOL    HW120219   2.471   1.014   6.801
 6440SOL    HW220220   2.460   0.937   6.945
 6441SOL     OW20221   0.310   0.996   2.813
 6441SOL    HW120222   0.248   0.923   2.844
 6441SOL    HW220223   0.270   1.085   2.836
 6442SOL     OW20224   2.673   2.390   4.547
 6442SOL    HW120225   2.749   2.332   4.518
 6442SOL    HW220226   2.693   2.429   4.637
 6443SOL     OW20227   3.665   2.204   6.093
 6443SOL    HW120228   3.652   2.250   6.005
 6443SOL    HW220229   3.734   2.133   6.083
 6444SOL     OW20230   0.620   2.485   4.955
 6444SOL    HW120231   0.597   2.459   5.048
 6444SOL    HW220232   0.600   2.410   4.893
 6445SOL     OW20233   3.679   3.209   3.072
 6445SOL    HW120234   3.695   3.157   3.155
 6445SOL    HW220235   3.727   3.297   3.078
 6446SOL     OW20236   1.233   1.663   6.916
 6446SOL    HW120237   1.203   1.626   7.004
 6446SOL    HW220238   1.302   1.603   6.876
 6447SOL     OW20239   0.180   4.310   1.767
 6447SOL    HW120240   0.138   4.248   1.834
 6447SOL    HW220241   0.266   4.345   1.804
 6448SOL     OW20242   4.951   4.957   1.380
 6448SOL    HW120243   4.859   4.942   1.343
 6448SOL    HW220244   5.018   4.954   1.307
 6449SOL     OW20245   1.941   5.643   1.336
 6449SOL    HW120246   1.987   5.575   1.278
 6449SOL    HW220247   1.983   5.643   1.427
 6450SOL     OW20248   0.717   4.584   0.613
 6450SOL    HW120249   0.701   4.493   0.651
 6450SOL    HW220250   0.669   4.593   0.526
 6451SOL     OW20251   3.265   1.957   6.641
 6451SOL    HW120252   3.298   2.048   6.619
 6451SOL    HW220253   3.257   1.903   6.558
 6452SOL     OW20254   5.181   3.625   2.501
 6452SOL    HW120255   5.118   3.595   2.572
 6452SOL    HW220256   5.228   3.708   2.532
 6453SOL     OW20257   3.544   6.831   0.658
 6453SOL    HW120258   3.487   6.880   0.593
 6453SOL    HW220259   3.584   6.895   0.723
 6454SOL     OW20260   0.027   1.383   2.639
 6454SOL    HW120261   0.056   1.380   2.544
 6454SOL    HW220262   7.000   1.299   2.662
 6455SOL     OW20263   6.628   4.047   3.229
 6455SOL    HW120264   6.561   3.974   3.219
 6455SOL    HW220265   6.580   4.132   3.252
 6456SOL     OW20266   0.825   0.313   2.991
 6456SOL    HW120267   0.756   0.369   2.946
 6456SOL    HW220268   0.885   0.372   3.046
 6457SOL     OW20269   4.803   0.090   1.875
 6457SOL    HW120270   4.719   0.097   1.821
 6457SOL    HW220271   4.877   0.138   1.828
 6458SOL     OW20272   1.260   5.370   4.282
 6458SOL    HW120273   1.332   5.379   4.213
 6458SOL    HW220274   1.252   5.275   4.310
 6459SOL     OW20275   6.090   2.539   3.050
 6459SOL    HW120276   6.138   2.507   3.132
 6459SOL    HW220277   6.149   2.528   2.970
 6460SOL     OW20278   6.258   5.581   5.701
 6460SOL    HW120279   6.185   5.617   5.643
 6460SOL    HW220280   6.329   5.540   5.644
 6461SOL     OW20281   3.792   4.494   0.329
 6461SOL    HW120282   3.831   4.555   0.260
 6461SOL    HW220283   3.693   4.498   0.325
 6462SOL     OW20284   1.259   3.519   4.133
 6462SOL    HW120285   1.211   3.436   4.159
 6462SOL    HW220286   1.218   3.557   4.050
 6463SOL     OW20287   5.607   0.154   0.718
 6463SOL    HW120288   5.522   0.164   0.769
 6463SOL    HW220289   5.607   0.215   0.640
 6464SOL     OW20290   0.828   6.058   4.991
 6464SOL    HW120291   0.851   5.965   5.017
 6464SOL    HW220292   0.877   6.123   5.049
 6465SOL     OW20293   5.859   2.444   2.132
 6465SOL    HW120294   5.800   2.453   2.051
 6465SOL    HW220295   5.933   2.512   2.127
 6466SOL     OW20296   0.084   2.917   6.677
 6466SOL    HW120297   0.126   2.980   6.742
 6466SOL    HW220298   0.129   2.828   6.683
 6467SOL     OW20299   4.069   1.455   0.925
 6467SOL    HW120300   4.148   1.463   0.864
 6467SOL    HW220301   4.100   1.463   1.020
 6468SOL     OW20302   3.968   6.261   0.845
 6468SOL    HW120303   4.050   6.286   0.793
 6468SOL    HW220304   3.891   6.316   0.814
 6469SOL     OW20305   2.760   2.130   3.979
 6469SOL    HW120306   2.817   2.183   3.917
 6469SOL    HW220307   2.714   2.057   3.928
 6470SOL     OW20308   5.853   2.269   0.629
 6470SOL    HW120309   5.951   2.288   0.624
 6470SOL    HW220310   5.823   2.224   0.545
 6471SOL     OW20311   0.588   6.474   4.572
 6471SOL    HW120312   0.642   6.413   4.514
 6471SOL    HW220313   0.491   6.461   4.553
 6472SOL     OW20314   6.700   6.146   2.566
 6472SOL    HW120315   6.730   6.139   2.470
 6472SOL    HW220316   6.768   6.101   2.625
 6473SOL     OW20317   1.916   1.702   4.590
 6473SOL    HW120318   1.845   1.753   4.541
 6473SOL    HW220319   1.909   1.721   4.688
 6474SOL     OW20320   3.847   5.224   5.633
 6474SOL    HW120321   3.916   5.185   5.572
 6474SOL    HW220322   3.888   5.300   5.684
 6475SOL     OW20323   5.157   5.101   3.422
 6475SOL    HW120324   5.249   5.082   3.458
 6475SOL    HW220325   5.139   5.199   3.428
 6476SOL     OW20326   3.564   2.471   6.619
 6476SOL    HW120327   3.491   2.460   6.686
 6476SOL    HW220328   3.531   2.526   6.542
 6477SOL     OW20329   6.548   5.338   0.682
 6477SOL    HW120330   6.569   5.241   0.695
 6477SOL    HW220331   6.482   5.368   0.751
 6478SOL     OW20332   2.674   5.892   1.527
 6478SOL    HW120333   2.627   5.888   1.440
 6478SOL    HW220334   2.621   5.948   1.591
 6479SOL     OW20335   2.990   5.396   4.497
 6479SOL    HW120336   3.086   5.399   4.467
 6479SOL    HW220337   2.931   5.415   4.418
 6480SOL     OW20338   2.262   1.586   0.238
 6480SOL    HW120339   2.176   1.550   0.276
 6480SOL    HW220340   2.259   1.686   0.237
 6481SOL     OW20341   3.291   2.561   1.739
 6481SOL    HW120342   3.192   2.547   1.733
 6481SOL    HW220343   3.322   2.613   1.659
 6482SOL     OW20344   6.684   2.298   5.511
 6482SOL    HW120345   6.700   2.289   5.413
 6482SOL    HW220346   6.647   2.389   5.530
 6483SOL     OW20347   1.062   6.034   4.042
 6483SOL    HW120348   0.991   6.072   3.981
 6483SOL    HW220349   1.140   6.004   3.987
 6484SOL     OW20350   2.493   1.709   2.472
 6484SOL    HW120351   2.521   1.776   2.541
 6484SOL    HW220352   2.504   1.748   2.381
 6485SOL     OW20353   2.212   6.033   4.509
 6485SOL    HW120354   2.296   5.991   4.544
 6485SOL    HW220355   2.236   6.100   4.438
 6486SOL     OW20356   1.155   4.754   3.001
 6486SOL    HW120357   1.136   4.709   2.914
 6486SOL    HW220358   1.094   4.717   3.071
 6487SOL     OW20359   0.969   5.729   4.431
 6487SOL    HW120360   1.051   5.672   4.439
 6487SOL    HW220361   0.986   5.804   4.367
 6488SOL     OW20362   4.494   5.917   5.212
 6488SOL    HW120363   4.583   5.872   5.199
 6488SOL    HW220364   4.422   5.847   5.213
 6489SOL     OW20365   3.134   3.116   6.118
 6489SOL    HW120366   3.122   3.089   6.023
 6489SOL    HW220367   3.045   3.126   6.162
 6490SOL     OW20368   2.465   1.576   6.573
 6490SOL    HW120369   2.482   1.566   6.475
 6490SOL    HW220370   2.444   1.672   6.594
 6491SOL     OW20371   2.141   0.626   1.282
 6491SOL    HW120372   2.200   0.569   1.226
 6491SOL    HW220373   2.142   0.592   1.376
 6492SOL     OW20374   3.779   3.990   4.259
 6492SOL    HW120375   3.702   3.937   4.222
 6492SOL    HW220376   3.801   3.956   4.351
 6493SOL     OW20377   1.524   4.670   6.440
 6493SOL    HW120378   1.622   4.679   6.454
 6493SOL    HW220379   1.503   4.577   6.409
 6494SOL     OW20380   6.198   6.119   2.619
 6494SOL    HW120381   6.298   6.124   2.625
 6494SOL    HW220382   6.162   6.066   2.696
 6495SOL     OW20383   6.554   6.945   4.841
 6495SOL    HW120384   6.603   0.005   4.867
 6495SOL    HW220385   6.615   6.866   4.848
 6496SOL     OW20386   5.171   6.717   1.387
 6496SOL    HW120387   5.181   6.785   1.315
 6496SOL    HW220388   5.087   6.734   1.438
 6497SOL     OW20389   1.010   1.212   1.189
 6497SOL    HW120390   0.918   1.203   1.150
 6497SOL    HW220391   1.004   1.259   1.278
 6498SOL     OW20392   0.721   3.966   4.148
 6498SOL    HW120393   0.818   3.955   4.128
 6498SOL    HW220394   0.675   3.878   4.142
 6499SOL     OW20395   5.609   3.807   4.329
 6499SOL    HW120396   5.576   3.801   4.235
 6499SOL    HW220397   5.631   3.902   4.351
 6500SOL     OW20398   0.772   3.882   2.437
 6500SOL    HW120399   0.782   3.977   2.407
 6500SOL    HW220400   0.821   3.823   2.374
 6501SOL     OW20401   0.118   1.444   0.979
 6501SOL    HW120402   0.043   1.509   0.972
 6501SOL    HW220403   0.174   1.447   0.896
 6502SOL     OW20404   6.523   4.020   1.536
 6502SOL    HW120405   6.553   3.928   1.511
 6502SOL    HW220406   6.442   4.044   1.483
 6503SOL     OW20407   6.419   1.139   5.188
 6503SOL    HW120408   6.357   1.172   5.116
 6503SOL    HW220409   6.495   1.203   5.198
 6504SOL     OW20410   4.914   6.543   6.735
 6504SOL    HW120411   4.880   6.474   6.670
 6504SOL    HW220412   4.909   6.506   6.828
 6505SOL     OW20413   5.365   6.726   6.833
 6505SOL    HW120414   5.338   6.775   6.916
 6505SOL    HW220415   5.463   6.707   6.836
 6506SOL     OW20416   0.055   3.190   3.695
 6506SOL    HW120417   0.072   3.100   3.736
 6506SOL    HW220418   0.142   3.227   3.661
 6507SOL     OW20419   2.832   5.473   6.378
 6507SOL    HW120420   2.733   5.483   6.382
 6507SOL    HW220421   2.872   5.557   6.340
 6508SOL     OW20422   1.869   6.772   2.449
 6508SOL    HW120423   1.896   6.840   2.518
 6508SOL    HW220424   1.797   6.809   2.392
 6509SOL     OW20425   4.934   1.296   5.500
 6509SOL    HW120426   4.920   1.333   5.591
 6509SOL    HW220427   4.908   1.199   5.498
 6510SOL     OW20428   4.565   6.038   6.597
 6510SOL    HW120429   4.542   6.088   6.514
 6510SOL    HW220430   4.509   6.072   6.673
 6511SOL     OW20431   4.064   0.626   5.633
 6511SOL    HW120432   4.094   0.607   5.539
 6511SOL    HW220433   4.143   0.640   5.692
 6512SOL     OW20434   2.959   6.193   2.645
 6512SOL    HW120435   2.920   6.109   2.609
 6512SOL    HW220436   3.055   6.199   2.618
 6513SOL     OW20437   2.833   6.051   4.638
 6513SOL    HW120438   2.897   6.044   4.561
 6513SOL    HW220439   2.884   6.066   4.722
 6514SOL     OW20440   5.834   0.585   4.936
 6514SOL    HW120441   5.754   0.643   4.917
 6514SOL    HW220442   5.917   0.639   4.926
 6515SOL     OW20443   2.046   4.287   2.285
 6515SOL    HW120444   1.999   4.325   2.206
 6515SOL    HW220445   1.981   4.235   2.341
 6516SOL     OW20446   6.942   3.204   2.024
 6516SOL    HW120447   6.981   3.296   2.036
 6516SOL    HW220448   6.991   3.156   1.951
 6517SOL     OW20449   0.325   2.070   0.907
 6517SOL    HW120450   0.283   2.034   0.991
 6517SOL    HW220451   0.257   2.073   0.834
 6518SOL     OW20452   6.636   0.640   2.091
 6518SOL    HW120453   6.734   0.620   2.098
 6518SOL    HW220454   6.617   0.684   2.003
 6519SOL     OW20455   0.520   0.656   3.100
 6519SOL    HW120456   0.596   0.702   3.145
 6519SOL    HW220457   0.453   0.723   3.069
 6520SOL     OW20458   6.955   5.864   6.507
 6520SOL    HW120459   6.983   5.878   6.412
 6520SOL    HW220460   6.913   5.774   6.517
 6521SOL     OW20461   1.585   2.995   2.847
 6521SOL    HW120462   1.602   2.999   2.945
 6521SOL    HW220463   1.532   3.076   2.819
 6522SOL     OW20464   2.613   4.622   5.372
 6522SOL    HW120465   2.549   4.553   5.338
 6522SOL    HW220466   2.679   4.644   5.301
 6523SOL     OW20467   4.698   6.724   6.961
 6523SOL    HW120468   4.609   6.740   6.918
 6523SOL    HW220469   4.704   6.628   6.989
 6524SOL     OW20470   3.023   2.568   1.715
 6524SOL    HW120471   2.975   2.516   1.785
 6524SOL    HW220472   2.959   2.628   1.668
 6525SOL     OW20473   2.510   5.548   3.373
 6525SOL    HW120474   2.529   5.542   3.471
 6525SOL    HW220475   2.596   5.557   3.323
 6526SOL     OW20476   0.460   6.976   0.929
 6526SOL    HW120477   0.360   6.969   0.937
 6526SOL    HW220478   0.487   6.970   0.833
 6527SOL     OW20479   0.344   2.110   0.318
 6527SOL    HW120480   0.423   2.064   0.360
 6527SOL    HW220481   0.365   2.206   0.304
 6528SOL     OW20482   6.930   1.576   6.403
 6528SOL    HW120483   6.872   1.628   6.340
 6528SOL    HW220484   6.916   1.609   6.496
 6529SOL     OW20485   0.616   0.449   2.893
 6529SOL    HW120486   0.549   0.411   2.829
 6529SOL    HW220487   0.653   0.534   2.855
 6530SOL     OW20488   0.510   2.044   1.557
 6530SOL    HW120489   0.436   2.103   1.525
 6530SOL    HW220490   0.473   1.978   1.623
 6531SOL     OW20491   4.295   3.408   5.515
 6531SOL    HW120492   4.306   3.461   5.431
 6531SOL    HW220493   4.380   3.413   5.568
 6532SOL     OW20494   1.895   1.433   0.739
 6532SOL    HW120495   1.906   1.336   0.719
 6532SOL    HW220496   1.966   1.463   0.802
 6533SOL     OW20497   4.070   5.783   0.440
 6533SOL    HW120498   3.988   5.809   0.391
 6533SOL    HW220499   4.135   5.859   0.441
 6534SOL     OW20500   5.263   4.757   1.523
 6534SOL    HW120501   5.235   4.845   1.560
 6534SOL    HW220502   5.319   4.771   1.441
 6535SOL     OW20503   5.839   4.328   4.342
 6535SOL    HW120504   5.892   4.268   4.403
 6535SOL    HW220505   5.749   4.345   4.383
 6536SOL     OW20506   0.586   1.889   5.416
 6536SOL    HW120507   0.626   1.809   5.371
 6536SOL    HW220508   0.569   1.960   5.349
 6537SOL     OW20509   6.807   4.855   4.600
 6537SOL    HW120510   6.890   4.906   4.577
 6537SOL    HW220511   6.830   4.758   4.613
 6538SOL     OW20512   1.468   3.719   5.718
 6538SOL    HW120513   1.546   3.704   5.779
 6538SOL    HW220514   1.501   3.729   5.624
 6539SOL     OW20515   4.855   0.581   6.804
 6539SOL    HW120516   4.899   0.510   6.750
 6539SOL    HW220517   4.767   0.605   6.763
 6540SOL     OW20518   2.093   2.878   6.260
 6540SOL    HW120519   2.071   2.976   6.270
 6540SOL    HW220520   2.041   2.840   6.184
 6541SOL     OW20521   5.299   2.491   5.889
 6541SOL    HW120522   5.300   2.391   5.878
 6541SOL    HW220523   5.237   2.532   5.823
 6542SOL     OW20524   1.319   3.264   4.582
 6542SOL    HW120525   1.351   3.202   4.653
 6542SOL    HW220526   1.343   3.358   4.605
 6543SOL     OW20527   3.514   2.609   5.435
 6543SOL    HW120528   3.541   2.660   5.517
 6543SOL    HW220529   3.577   2.532   5.422
 6544SOL     OW20530   0.228   6.375   2.355
 6544SOL    HW120531   0.195   6.419   2.271
 6544SOL    HW220532   0.155   6.318   2.393
 6545SOL     OW20533   4.252   6.816   0.480
 6545SOL    HW120534   4.351   6.831   0.489
 6545SOL    HW220535   4.204   6.904   0.483
 6546SOL     OW20536   4.339   4.153   6.724
 6546SOL    HW120537   4.368   4.109   6.639
 6546SOL    HW220538   4.400   4.230   6.744
 6547SOL     OW20539   4.590   0.447   5.584
 6547SOL    HW120540   4.557   0.355   5.604
 6547SOL    HW220541   4.605   0.458   5.486
 6548SOL     OW20542   1.137   3.276   6.873
 6548SOL    HW120543   1.232   3.293   6.900
 6548SOL    HW220544   1.081   3.260   6.954
 6549SOL     OW20545   4.707   0.277   2.119
 6549SOL    HW120546   4.649   0.212   2.070
 6549SOL    HW220547   4.800   0.241   2.124
 6550SOL     OW20548   0.134   6.844   3.795
 6550SOL    HW120549   0.125   6.814   3.891
 6550SOL    HW220550   0.078   6.784   3.737
 6551SOL     OW20551   2.758   3.350   1.769
 6551SOL    HW120552   2.793   3.424   1.712
 6551SOL    HW220553   2.834   3.307   1.818
 6552SOL     OW20554   2.446   0.110   0.454
 6552SOL    HW120555   2.526   0.119   0.514
 6552SOL    HW220556   2.363   0.103   0.510
 6553SOL     OW20557   0.923   1.572   3.146
 6553SOL    HW120558   0.987   1.500   3.172
 6553SOL    HW220559   0.829   1.542   3.163
 6554SOL     OW20560   2.686   0.971   5.327
 6554SOL    HW120561   2.701   0.884   5.373
 6554SOL    HW220562   2.608   0.963   5.265
 6555SOL     OW20563   6.142   1.674   4.122
 6555SOL    HW120564   6.133   1.723   4.209
 6555SOL    HW220565   6.170   1.580   4.139
 6556SOL     OW20566   6.250   3.338   2.366
 6556SOL    HW120567   6.204   3.367   2.282
 6556SOL    HW220568   6.205   3.256   2.401
 6557SOL     OW20569   2.663   0.517   2.225
 6557SOL    HW120570   2.573   0.532   2.183
 6557SOL    HW220571   2.684   0.595   2.285
 6558SOL     OW20572   5.674   5.326   0.172
 6558SOL    HW120573   5.761   5.363   0.205
 6558SOL    HW220574   5.600   5.354   0.234
 6559SOL     OW20575   6.981   3.722   6.322
 6559SOL    HW120576   6.893   3.675   6.307
 6559SOL    HW220577   6.977   3.813   6.281
 6560SOL     OW20578   4.023   4.557   0.657
 6560SOL    HW120579   3.997   4.648   0.625
 6560SOL    HW220580   3.943   4.499   0.664
 6561SOL     OW20581   3.822   4.531   0.911
 6561SOL    HW120582   3.914   4.495   0.896
 6561SOL    HW220583   3.758   4.455   0.928
 6562SOL     OW20584   5.571   2.263   1.424
 6562SOL    HW120585   5.644   2.270   1.492
 6562SOL    HW220586   5.587   2.330   1.351
 6563SOL     OW20587   5.069   0.592   6.167
 6563SOL    HW120588   5.159   0.620   6.134
 6563SOL    HW220589   5.067   0.595   6.267
 6564SOL     OW20590   6.270   3.423   1.957
 6564SOL    HW120591   6.196   3.416   2.024
 6564SOL    HW220592   6.236   3.467   1.874
 6565SOL     OW20593   6.395   6.377   3.121
 6565SOL    HW120594   6.407   6.428   3.205
 6565SOL    HW220595   6.483   6.364   3.076
 6566SOL     OW20596   3.239   5.107   2.147
 6566SOL    HW120597   3.154   5.094   2.197
 6566SOL    HW220598   3.278   5.018   2.124
 6567SOL     OW20599   4.617   0.925   1.680
 6567SOL    HW120600   4.552   0.922   1.604
 6567SOL    HW220601   4.604   1.011   1.731
 6568SOL     OW20602   3.863   2.161   2.942
 6568SOL    HW120603   3.873   2.182   3.039
 6568SOL    HW220604   3.948   2.121   2.908
 6569SOL     OW20605   1.033   3.551   6.461
 6569SOL    HW120606   0.937   3.523   6.454
 6569SOL    HW220607   1.078   3.497   6.532
 6570SOL     OW20608   3.695   1.099   2.815
 6570SOL    HW120609   3.781   1.143   2.788
 6570SOL    HW220610   3.711   1.002   2.833
 6571SOL     OW20611   2.827   4.823   2.574
 6571SOL    HW120612   2.787   4.804   2.484
 6571SOL    HW220613   2.774   4.777   2.645
 6572SOL     OW20614   0.221   3.519   4.251
 6572SOL    HW120615   0.230   3.467   4.335
 6572SOL    HW220616   0.306   3.513   4.198
 6573SOL     OW20617   1.422   1.425   3.211
 6573SOL    HW120618   1.400   1.380   3.124
 6573SOL    HW220619   1.444   1.356   3.280
 6574SOL     OW20620   2.541   6.414   3.579
 6574SOL    HW120621   2.499   6.338   3.529
 6574SOL    HW220622   2.560   6.489   3.515
 6575SOL     OW20623   0.495   6.446   3.177
 6575SOL    HW120624   0.492   6.471   3.274
 6575SOL    HW220625   0.472   6.526   3.121
 6576SOL     OW20626   3.220   5.443   0.604
 6576SOL    HW120627   3.123   5.448   0.583
 6576SOL    HW220628   3.233   5.414   0.699
 6577SOL     OW20629   1.616   1.934   3.579
 6577SOL    HW120630   1.654   1.846   3.609
 6577SOL    HW220631   1.670   1.969   3.502
 6578SOL     OW20632   0.694   6.008   2.259
 6578SOL    HW120633   0.719   6.073   2.330
 6578SOL    HW220634   0.772   5.991   2.199
 6579SOL     OW20635   6.811   2.326   4.320
 6579SOL    HW120636   6.826   2.361   4.227
 6579SOL    HW220637   6.757   2.242   4.317
 6580SOL     OW20638   1.019   1.425   0.710
 6580SOL    HW120639   1.002   1.350   0.646
 6580SOL    HW220640   0.932   1.464   0.739
 6581SOL     OW20641   1.456   0.793   0.630
 6581SOL    HW120642   1.534   0.735   0.654
 6581SOL    HW220643   1.486   0.865   0.567
 6582SOL     OW20644   6.418   0.512   3.074
 6582SOL    HW120645   6.479   0.544   3.002
 6582SOL    HW220646   6.446   0.421   3.104
 6583SOL     OW20647   5.141   6.461   5.162
 6583SOL    HW120648   5.159   6.539   5.223
 6583SOL    HW220649   5.222   6.403   5.157
 6584SOL     OW20650   3.477   2.511   0.837
 6584SOL    HW120651   3.446   2.472   0.751
 6584SOL    HW220652   3.544   2.584   0.819
 6585SOL     OW20653   6.821   6.577   6.862
 6585SOL    HW120654   6.746   6.582   6.796
 6585SOL    HW220655   6.860   6.668   6.876
 6586SOL     OW20656   6.374   1.993   6.239
 6586SOL    HW120657   6.390   1.895   6.231
 6586SOL    HW220658   6.421   2.029   6.320
 6587SOL     OW20659   1.252   4.653   6.583
 6587SOL    HW120660   1.333   4.659   6.525
 6587SOL    HW220661   1.170   4.673   6.529
 6588SOL     OW20662   0.416   3.313   1.150
 6588SOL    HW120663   0.388   3.251   1.077
 6588SOL    HW220664   0.484   3.378   1.114
 6589SOL     OW20665   4.995   1.117   2.310
 6589SOL    HW120666   5.088   1.153   2.316
 6589SOL    HW220667   4.986   1.061   2.228
 6590SOL     OW20668   0.451   0.057   5.365
 6590SOL    HW120669   0.405   0.086   5.449
 6590SOL    HW220670   0.449   0.132   5.298
 6591SOL     OW20671   5.509   6.519   3.515
 6591SOL    HW120672   5.560   6.592   3.561
 6591SOL    HW220673   5.553   6.497   3.428
 6592SOL     OW20674   4.882   0.421   2.565
 6592SOL    HW120675   4.936   0.343   2.599
 6592SOL    HW220676   4.942   0.482   2.513
 6593SOL     OW20677   2.817   2.283   2.344
 6593SOL    HW120678   2.868   2.299   2.260
 6593SOL    HW220679   2.731   2.236   2.323
 6594SOL     OW20680   3.743   1.697   5.732
 6594SOL    HW120681   3.704   1.769   5.674
 6594SOL    HW220682   3.831   1.727   5.769
 6595SOL     OW20683   1.068   3.172   5.418
 6595SOL    HW120684   1.105   3.214   5.501
 6595SOL    HW220685   1.090   3.075   5.417
 6596SOL     OW20686   3.644   6.369   3.569
 6596SOL    HW120687   3.677   6.456   3.606
 6596SOL    HW220688   3.571   6.387   3.504
 6597SOL     OW20689   1.541   5.162   1.979
 6597SOL    HW120690   1.501   5.183   1.890
 6597SOL    HW220691   1.578   5.069   1.978
 6598SOL     OW20692   1.978   4.459   4.045
 6598SOL    HW120693   1.944   4.535   4.101
 6598SOL    HW220694   2.058   4.489   3.994
 6599SOL     OW20695   4.582   6.227   0.073
 6599SOL    HW120696   4.519   6.149   0.079
 6599SOL    HW220697   4.673   6.198   0.105
 6600SOL     OW20698   3.954   6.819   4.485
 6600SOL    HW120699   4.013   6.748   4.448
 6600SOL    HW220700   3.915   6.789   4.572
 6601SOL     OW20701   0.439   2.314   3.377
 6601SOL    HW120702   0.483   2.404   3.375
 6601SOL    HW220703   0.494   2.251   3.433
 6602SOL     OW20704   2.196   0.264   1.241
 6602SOL    HW120705   2.216   0.362   1.231
 6602SOL    HW220706   2.227   0.233   1.331
 6603SOL     OW20707   0.997   3.006   4.050
 6603SOL    HW120708   0.982   2.909   4.030
 6603SOL    HW220709   1.030   3.052   3.967
 6604SOL     OW20710   1.687   0.422   1.275
 6604SOL    HW120711   1.610   0.358   1.284
 6604SOL    HW220712   1.679   0.493   1.346
 6605SOL     OW20713   5.884   5.897   2.597
 6605SOL    HW120714   5.956   5.861   2.656
 6605SOL    HW220715   5.817   5.948   2.652
 6606SOL     OW20716   6.882   4.732   2.711
 6606SOL    HW120717   6.805   4.743   2.648
 6606SOL    HW220718   6.964   4.773   2.672
 6607SOL     OW20719   6.489   5.201   3.744
 6607SOL    HW120720   6.405   5.169   3.790
 6607SOL    HW220721   6.558   5.223   3.813
 6608SOL     OW20722   0.069   0.444   0.506
 6608SOL    HW120723   0.033   0.438   0.599
 6608SOL    HW220724   0.016   0.385   0.446
 6609SOL     OW20725   5.303   1.417   6.416
 6609SOL    HW120726   5.204   1.417   6.401
 6609SOL    HW220727   5.342   1.332   6.382
 6610SOL     OW20728   2.650   6.369   0.166
 6610SOL    HW120729   2.651   6.451   0.109
 6610SOL    HW220730   2.674   6.394   0.260
 6611SOL     OW20731   5.317   2.931   3.222
 6611SOL    HW120732   5.263   2.985   3.286
 6611SOL    HW220733   5.256   2.872   3.169
 6612SOL     OW20734   6.797   2.259   6.261
 6612SOL    HW120735   6.862   2.301   6.325
 6612SOL    HW220736   6.720   2.321   6.246
 6613SOL     OW20737   5.205   0.178   5.728
 6613SOL    HW120738   5.139   0.224   5.788
 6613SOL    HW220739   5.283   0.146   5.782
 6614SOL     OW20740   4.749   6.880   0.586
 6614SOL    HW120741   4.813   6.957   0.577
 6614SOL    HW220742   4.800   6.794   0.587
 6615SOL     OW20743   2.150   5.638   0.483
 6615SOL    HW120744   2.220   5.571   0.509
 6615SOL    HW220745   2.135   5.634   0.385
 6616SOL     OW20746   4.557   0.146   6.081
 6616SOL    HW120747   4.613   0.064   6.072
 6616SOL    HW220748   4.499   0.156   6.000
 6617SOL     OW20749   4.418   6.399   3.375
 6617SOL    HW120750   4.441   6.305   3.403
 6617SOL    HW220751   4.321   6.416   3.391
 6618SOL     OW20752   0.976   1.304   2.716
 6618SOL    HW120753   1.016   1.311   2.807
 6618SOL    HW220754   0.955   1.396   2.681
 6619SOL     OW20755   4.520   0.003   3.806
 6619SOL    HW120756   4.602   0.060   3.800
 6619SOL    HW220757   4.526   6.951   3.740
 6620SOL     OW20758   2.084   3.569   4.577
 6620SOL    HW120759   2.041   3.641   4.523
 6620SOL    HW220760   2.126   3.502   4.516
 6621SOL     OW20761   3.798   2.874   5.189
 6621SOL    HW120762   3.710   2.913   5.161
 6621SOL    HW220763   3.868   2.902   5.123
 6622SOL     OW20764   6.321   5.791   2.147
 6622SOL    HW120765   6.271   5.852   2.209
 6622SOL    HW220766   6.331   5.701   2.190
 6623SOL     OW20767   3.399   4.084   4.930
 6623SOL    HW120768   3.395   4.098   5.029
 6623SOL    HW220769   3.307   4.071   4.894
 6624SOL     OW20770   0.580   3.716   5.694
 6624SOL    HW120771   0.616   3.650   5.759
 6624SOL    HW220772   0.588   3.808   5.732
 6625SOL     OW20773   5.284   2.063   5.125
 6625SOL    HW120774   5.270   2.000   5.048
 6625SOL    HW220775   5.312   2.152   5.090
 6626SOL     OW20776   3.469   6.746   5.834
 6626SOL    HW120777   3.511   6.721   5.747
 6626SOL    HW220778   3.523   6.708   5.909
 6627SOL     OW20779   1.897   6.315   4.130
 6627SOL    HW120780   1.895   6.409   4.165
 6627SOL    HW220781   1.881   6.315   4.031
 6628SOL     OW20782   5.048   4.775   4.024
 6628SOL    HW120783   4.984   4.819   3.960
 6628SOL    HW220784   5.141   4.805   4.003
 6629SOL     OW20785   4.393   5.631   6.435
 6629SOL    HW120786   4.472   5.692   6.442
 6629SOL    HW220787   4.423   5.541   6.403
 6630SOL     OW20788   3.348   1.506   1.910
 6630SOL    HW120789   3.386   1.414   1.913
 6630SOL    HW220790   3.348   1.545   2.002
 6631SOL     OW20791   2.276   5.622   4.391
 6631SOL    HW120792   2.232   5.536   4.414
 6631SOL    HW220793   2.372   5.620   4.421
 6632SOL     OW20794   1.529   0.923   0.894
 6632SOL    HW120795   1.504   0.827   0.877
 6632SOL    HW220796   1.578   0.930   0.981
 6633SOL     OW20797   2.580   4.737   5.873
 6633SOL    HW120798   2.644   4.722   5.798
 6633SOL    HW220799   2.506   4.798   5.843
 6634SOL     OW20800   4.426   1.720   4.895
 6634SOL    HW120801   4.480   1.666   4.961
 6634SOL    HW220802   4.419   1.670   4.809
 6635SOL     OW20803   4.816   4.090   3.139
 6635SOL    HW120804   4.908   4.095   3.101
 6635SOL    HW220805   4.769   4.009   3.103
 6636SOL     OW20806   3.337   1.510   0.745
 6636SOL    HW120807   3.374   1.486   0.835
 6636SOL    HW220808   3.366   1.603   0.721
 6637SOL     OW20809   3.015   0.374   6.106
 6637SOL    HW120810   3.036   0.443   6.175
 6637SOL    HW220811   2.973   0.295   6.150
 6638SOL     OW20812   3.211   3.823   3.128
 6638SOL    HW120813   3.166   3.775   3.203
 6638SOL    HW220814   3.212   3.765   3.046
 6639SOL     OW20815   3.540   3.697   6.395
 6639SOL    HW120816   3.555   3.780   6.449
 6639SOL    HW220817   3.577   3.709   6.303
 6640SOL     OW20818   7.017   2.362   5.058
 6640SOL    HW120819   6.938   2.422   5.047
 6640SOL    HW220820   0.078   2.412   5.037
 6641SOL     OW20821   3.642   1.651   6.703
 6641SOL    HW120822   3.615   1.619   6.794
 6641SOL    HW220823   3.656   1.750   6.705
 6642SOL     OW20824   2.260   5.254   6.309
 6642SOL    HW120825   2.162   5.237   6.314
 6642SOL    HW220826   2.284   5.288   6.219
 6643SOL     OW20827   6.464   6.771   0.664
 6643SOL    HW120828   6.532   6.735   0.601
 6643SOL    HW220829   6.509   6.825   0.735
 6644SOL     OW20830   2.180   5.918   3.171
 6644SOL    HW120831   2.266   5.870   3.185
 6644SOL    HW220832   2.144   5.948   3.259
 6645SOL     OW20833   5.942   3.286   0.638
 6645SOL    HW120834   5.923   3.269   0.542
 6645SOL    HW220835   5.902   3.212   0.693
 6646SOL     OW20836   4.472   0.971   5.651
 6646SOL    HW120837   4.397   1.002   5.594
 6646SOL    HW220838   4.482   0.872   5.643
 6647SOL     OW20839   4.243   6.527   1.018
 6647SOL    HW120840   4.304   6.591   0.971
 6647SOL    HW220841   4.282   6.501   1.106
 6648SOL     OW20842   3.358   5.971   4.334
 6648SOL    HW120843   3.434   5.936   4.389
 6648SOL    HW220844   3.291   6.014   4.393
 6649SOL     OW20845   5.886   2.906   6.588
 6649SOL    HW120846   5.803   2.852   6.605
 6649SOL    HW220847   5.961   2.869   6.642
 6650SOL     OW20848   3.569   1.583   5.069
 6650SOL    HW120849   3.484   1.597   5.017
 6650SOL    HW220850   3.547   1.541   5.157
 6651SOL     OW20851   1.859   2.077   6.467
 6651SOL    HW120852   1.769   2.048   6.434
 6651SOL    HW220853   1.923   2.001   6.460
 6652SOL     OW20854   0.449   4.983   0.171
 6652SOL    HW120855   0.389   4.904   0.156
 6652SOL    HW220856   0.402   5.066   0.142
 6653SOL     OW20857   4.823   2.949   0.695
 6653SOL    HW120858   4.732   2.921   0.725
 6653SOL    HW220859   4.819   2.983   0.601
 6654SOL     OW20860   0.444   5.436   2.608
 6654SOL    HW120861   0.534   5.474   2.586
 6654SOL    HW220862   0.414   5.376   2.534
 6655SOL     OW20863   0.044   6.172   2.132
 6655SOL    HW120864   0.133   6.131   2.148
 6655SOL    HW220865   0.052   6.272   2.134
 6656SOL     OW20866   5.397   2.339   3.173
 6656SOL    HW120867   5.331   2.275   3.136
 6656SOL    HW220868   5.476   2.346   3.111
 6657SOL     OW20869   5.880   2.894   4.977
 6657SOL    HW120870   5.801   2.894   4.915
 6657SOL    HW220871   5.851   2.862   5.067
 6658SOL     OW20872   6.516   6.935   6.110
 6658SOL    HW120873   6.571   6.993   6.171
 6658SOL    HW220874   6.426   6.975   6.098
 6659SOL     OW20875   1.194   3.795   1.532
 6659SOL    HW120876   1.236   3.883   1.555
 6659SOL    HW220877   1.121   3.775   1.598
 6660SOL     OW20878   1.794   5.424   1.596
 6660SOL    HW120879   1.850   5.344   1.618
 6660SOL    HW220880   1.812   5.497   1.662
 6661SOL     OW20881   2.833   0.717   4.982
 6661SOL    HW120882   2.906   0.695   5.047
 6661SOL    HW220883   2.848   0.809   4.944
 6662SOL     OW20884   1.808   0.773   0.593
 6662SOL    HW120885   1.740   0.846   0.591
 6662SOL    HW220886   1.787   0.709   0.667
 6663SOL     OW20887   0.617   6.575   4.890
 6663SOL    HW120888   0.647   6.548   4.799
 6663SOL    HW220889   0.532   6.527   4.914
 6664SOL     OW20890   2.211   0.367   0.911
 6664SOL    HW120891   2.177   0.433   0.844
 6664SOL    HW220892   2.265   0.297   0.864
 6665SOL     OW20893   1.591   6.781   5.513
 6665SOL    HW120894   1.638   6.719   5.452
 6665SOL    HW220895   1.611   6.876   5.487
 6666SOL     OW20896   6.169   5.223   5.746
 6666SOL    HW120897   6.234   5.216   5.670
 6666SOL    HW220898   6.211   5.184   5.829
 6667SOL     OW20899   6.754   6.651   5.785
 6667SOL    HW120900   6.721   6.682   5.874
 6667SOL    HW220901   6.705   6.569   5.757
 6668SOL     OW20902   6.567   6.117   1.102
 6668SOL    HW120903   6.501   6.164   1.042
 6668SOL    HW220904   6.623   6.185   1.149
 6669SOL     OW20905   3.469   2.164   1.446
 6669SOL    HW120906   3.454   2.213   1.532
 6669SOL    HW220907   3.496   2.070   1.466
 6670SOL     OW20908   3.665   0.997   6.053
 6670SOL    HW120909   3.642   0.908   6.093
 6670SOL    HW220910   3.702   0.984   5.961
 6671SOL     OW20911   5.598   6.604   0.051
 6671SOL    HW120912   5.584   6.506   0.062
 6671SOL    HW220913   5.616   6.625   6.978
 6672SOL     OW20914   1.015   2.786   0.143
 6672SOL    HW120915   0.972   2.866   0.100
 6672SOL    HW220916   1.068   2.815   0.222
 6673SOL     OW20917   4.826   4.381   3.488
 6673SOL    HW120918   4.779   4.386   3.576
 6673SOL    HW220919   4.787   4.306   3.434
 6674SOL     OW20920   0.822   3.410   6.958
 6674SOL    HW120921   0.900   3.473   6.959
 6674SOL    HW220922   0.774   3.418   6.871
 6675SOL     OW20923   6.034   2.490   0.266
 6675SOL    HW120924   6.069   2.497   0.359
 6675SOL    HW220925   6.108   2.463   0.204
 6676SOL     OW20926   0.505   3.184   3.142
 6676SOL    HW120927   0.542   3.223   3.226
 6676SOL    HW220928   0.410   3.211   3.131
 6677SOL     OW20929   0.609   0.910   6.569
 6677SOL    HW120930   0.554   0.949   6.496
 6677SOL    HW220931   0.567   0.824   6.599
 6678SOL     OW20932   2.504   4.790   0.712
 6678SOL    HW120933   2.471   4.801   0.806
 6678SOL    HW220934   2.593   4.743   0.713
 6679SOL     OW20935   3.914   1.007   4.112
 6679SOL    HW120936   3.872   0.933   4.165
 6679SOL    HW220937   4.013   0.992   4.106
 6680SOL     OW20938   4.552   6.518   6.766
 6680SOL    HW120939   4.585   6.484   6.854
 6680SOL    HW220940   4.504   6.604   6.779
 6681SOL     OW20941   4.670   5.513   0.882
 6681SOL    HW120942   4.620   5.426   0.871
 6681SOL    HW220943   4.672   5.562   0.795
 6682SOL     OW20944   2.330   4.842   6.957
 6682SOL    HW120945   2.367   4.796   0.014
 6682SOL    HW220946   2.391   4.917   6.930
 6683SOL     OW20947   6.229   3.192   5.843
 6683SOL    HW120948   6.216   3.187   5.942
 6683SOL    HW220949   6.147   3.232   5.801
 6684SOL     OW20950   4.022   6.586   1.994
 6684SOL    HW120951   4.064   6.674   1.974
 6684SOL    HW220952   3.987   6.545   1.909
 6685SOL     OW20953   4.903   2.604   6.177
 6685SOL    HW120954   4.990   2.632   6.218
 6685SOL    HW220955   4.914   2.513   6.136
 6686SOL     OW20956   5.661   5.926   3.612
 6686SOL    HW120957   5.658   6.025   3.625
 6686SOL    HW220958   5.678   5.882   3.700
 6687SOL     OW20959   0.550   2.967   2.102
 6687SOL    HW120960   0.513   2.987   2.011
 6687SOL    HW220961   0.537   3.047   2.161
 6688SOL     OW20962   4.078   4.476   0.296
 6688SOL    HW120963   4.010   4.522   0.353
 6688SOL    HW220964   4.161   4.532   0.292
 6689SOL     OW20965   4.623   3.534   6.019
 6689SOL    HW120966   4.566   3.615   6.004
 6689SOL    HW220967   4.576   3.471   6.080
 6690SOL     OW20968   0.683   6.594   0.863
 6690SOL    HW120969   0.688   6.514   0.803
 6690SOL    HW220970   0.775   6.617   0.896
 6691SOL     OW20971   1.943   0.438   2.770
 6691SOL    HW120972   2.007   0.453   2.695
 6691SOL    HW220973   1.993   0.428   2.856
 6692SOL     OW20974   4.253   3.970   1.658
 6692SOL    HW120975   4.290   4.035   1.725
 6692SOL    HW220976   4.291   3.879   1.676
 6693SOL     OW20977   4.244   2.265   4.831
 6693SOL    HW120978   4.219   2.324   4.908
 6693SOL    HW220979   4.325   2.211   4.854
 6694SOL     OW20980   4.357   6.466   1.264
 6694SOL    HW120981   4.420   6.518   1.321
 6694SOL    HW220982   4.302   6.406   1.321
 6695SOL     OW20983   2.641   2.248   7.021
 6695SOL    HW120984   2.546   2.277   7.007
 6695SOL    HW220985   2.672   2.197   6.940
 6696SOL     OW20986   3.888   3.087   3.894
 6696SOL    HW120987   3.894   3.177   3.937
 6696SOL    HW220988   3.916   3.093   3.799
 6697SOL     OW20989   4.679   2.313   3.179
 6697SOL    HW120990   4.752   2.363   3.225
 6697SOL    HW220991   4.675   2.340   3.083
 6698SOL     OW20992   3.272   3.244   0.670
 6698SOL    HW120993   3.230   3.173   0.726
 6698SOL    HW220994   3.202   3.309   0.640
 6699SOL     OW20995   2.263   6.798   5.449
 6699SOL    HW120996   2.211   6.750   5.379
 6699SOL    HW220997   2.306   6.731   5.510
 6700SOL     OW20998   6.439   1.267   1.135
 6700SOL    HW120999   6.450   1.355   1.182
 6700SOL    HW221000   6.444   1.281   1.036
 6701SOL     OW21001   5.248   6.205   1.820
 6701SOL    HW121002   5.165   6.218   1.766
 6701SOL    HW221003   5.263   6.285   1.879
 6702SOL     OW21004   1.886   2.575   2.127
 6702SOL    HW121005   1.975   2.601   2.090
 6702SOL    HW221006   1.884   2.589   2.226
 6703SOL     OW21007   1.092   1.045   0.129
 6703SOL    HW121008   1.023   1.116   0.141
 6703SOL    HW221009   1.116   1.038   0.032
 6704SOL     OW21010   3.931   2.179   4.353
 6704SOL    HW121011   4.005   2.121   4.387
 6704SOL    HW221012   3.922   2.167   4.254
 6705SOL     OW21013   6.023   2.601   0.866
 6705SOL    HW121014   6.025   2.676   0.800
 6705SOL    HW221015   5.932   2.560   0.866
 6706SOL     OW21016   1.581   5.836   0.511
 6706SOL    HW121017   1.585   5.737   0.525
 6706SOL    HW221018   1.585   5.883   0.599
 6707SOL     OW21019   5.282   6.678   3.489
 6707SOL    HW121020   5.310   6.770   3.459
 6707SOL    HW221021   5.359   6.634   3.537
 6708SOL     OW21022   5.562   5.342   1.362
 6708SOL    HW121023   5.653   5.363   1.399
 6708SOL    HW221024   5.556   5.244   1.345
 6709SOL     OW21025   0.586   5.227   3.227
 6709SOL    HW121026   0.568   5.156   3.159
 6709SOL    HW221027   0.682   5.225   3.254
 6710SOL     OW21028   4.454   0.803   6.876
 6710SOL    HW121029   4.392   0.882   6.883
 6710SOL    HW221030   4.400   0.721   6.856
 6711SOL     OW21031   4.698   6.590   5.850
 6711SOL    HW121032   4.780   6.627   5.893
 6711SOL    HW221033   4.649   6.663   5.802
 6712SOL     OW21034   6.028   3.402   1.194
 6712SOL    HW121035   6.070   3.314   1.174
 6712SOL    HW221036   6.027   3.417   1.293
 6713SOL     OW21037   1.438   0.680   3.075
 6713SOL    HW121038   1.338   0.681   3.076
 6713SOL    HW221039   1.471   0.610   3.138
 6714SOL     OW21040   5.842   1.528   0.597
 6714SOL    HW121041   5.746   1.502   0.589
 6714SOL    HW221042   5.852   1.598   0.668
 6715SOL     OW21043   1.451   0.279   1.323
 6715SOL    HW121044   1.394   0.332   1.385
 6715SOL    HW221045   1.396   0.247   1.246
 6716SOL     OW21046   0.712   5.447   2.256
 6716SOL    HW121047   0.736   5.430   2.351
 6716SOL    HW221048   0.642   5.519   2.251
 6717SOL     OW21049   2.225   2.030   6.549
 6717SOL    HW121050   2.275   2.117   6.554
 6717SOL    HW221051   2.143   2.042   6.494
 6718SOL     OW21052   4.831   0.040   0.886
 6718SOL    HW121053   4.734   0.030   0.864
 6718SOL    HW221054   4.865   6.977   0.923
 6719SOL     OW21055   2.533   6.860   0.383
 6719SOL    HW121056   2.623   6.903   0.386
 6719SOL    HW221057   2.476   6.906   0.315
 6720SOL     OW21058   2.358   0.951   4.037
 6720SOL    HW121059   2.314   1.012   3.971
 6720SOL    HW221060   2.326   0.973   4.129
 6721SOL     OW21061   6.843   6.455   0.827
 6721SOL    HW121062   6.872   6.546   0.798
 6721SOL    HW221063   6.823   6.399   0.747
 6722SOL     OW21064   0.117   3.160   0.176
 6722SOL    HW121065   0.151   3.104   0.252
 6722SOL    HW221066   0.018   3.150   0.168
 6723SOL     OW21067   1.451   6.788   5.179
 6723SOL    HW121068   1.481   6.828   5.093
 6723SOL    HW221069   1.525   6.731   5.217
 6724SOL     OW21070   2.272   2.776   6.440
 6724SOL    HW121071   2.194   2.793   6.380
 6724SOL    HW221072   2.290   2.857   6.495
 6725SOL     OW21073   6.978   2.015   2.586
 6725SOL    HW121074   6.931   1.956   2.520
 6725SOL    HW221075   0.005   2.087   2.537
 6726SOL     OW21076   0.317   2.550   3.833
 6726SOL    HW121077   0.383   2.476   3.850
 6726SOL    HW221078   0.269   2.534   3.747
 6727SOL     OW21079   0.083   4.400   6.060
 6727SOL    HW121080   0.031   4.404   5.975
 6727SOL    HW221081   0.160   4.463   6.055
 6728SOL     OW21082   4.149   1.845   2.548
 6728SOL    HW121083   4.114   1.938   2.539
 6728SOL    HW221084   4.105   1.787   2.480
 6729SOL     OW21085   0.216   1.625   0.543
 6729SOL    HW121086   0.125   1.608   0.581
 6729SOL    HW221087   0.285   1.585   0.603
 6730SOL     OW21088   2.020   0.167   0.962
 6730SOL    HW121089   1.972   0.187   1.047
 6730SOL    HW221090   2.105   0.220   0.957
 6731SOL     OW21091   1.348   6.882   0.678
 6731SOL    HW121092   1.427   6.821   0.679
 6731SOL    HW221093   1.370   6.964   0.627
 6732SOL     OW21094   5.463   4.731   4.747
 6732SOL    HW121095   5.458   4.638   4.782
 6732SOL    HW221096   5.483   4.794   4.822
 6733SOL     OW21097   3.817   5.438   6.161
 6733SOL    HW121098   3.772   5.406   6.245
 6733SOL    HW221099   3.899   5.490   6.185
 6734SOL     OW21100   5.744   2.181   5.714
 6734SOL    HW121101   5.727   2.242   5.637
 6734SOL    HW221102   5.725   2.086   5.688
 6735SOL     OW21103   5.577   3.363   4.554
 6735SOL    HW121104   5.561   3.308   4.472
 6735SOL    HW221105   5.612   3.453   4.528
 6736SOL     OW21106   3.326   3.903   6.070
 6736SOL    HW121107   3.253   3.865   6.127
 6736SOL    HW221108   3.394   3.948   6.128
 6737SOL     OW21109   1.570   3.383   1.096
 6737SOL    HW121110   1.644   3.331   1.053
 6737SOL    HW221111   1.487   3.374   1.041
 6738SOL     OW21112   1.901   5.675   4.207
 6738SOL    HW121113   1.831   5.736   4.244
 6738SOL    HW221114   1.991   5.707   4.236
 6739SOL     OW21115   5.991   5.864   4.019
 6739SOL    HW121116   5.930   5.839   4.094
 6739SOL    HW221117   6.055   5.935   4.050
 6740SOL     OW21118   6.374   0.778   5.648
 6740SOL    HW121119   6.304   0.707   5.649
 6740SOL    HW221120   6.376   0.823   5.558
 6741SOL     OW21121   3.608   2.302   5.430
 6741SOL    HW121122   3.520   2.267   5.398
 6741SOL    HW221123   3.680   2.274   5.367
 6742SOL     OW21124   5.488   5.446   3.503
 6742SOL    HW121125   5.490   5.540   3.471
 6742SOL    HW221126   5.545   5.389   3.443
 6743SOL     OW21127   3.763   4.021   6.158
 6743SOL    HW121128   3.802   4.111   6.175
 6743SOL    HW221129   3.736   4.014   6.062
 6744SOL     OW21130   0.323   6.276   5.129
 6744SOL    HW121131   0.330   6.355   5.068
 6744SOL    HW221132   0.409   6.225   5.127
 6745SOL     OW21133   6.644   6.001   3.773
 6745SOL    HW121134   6.665   6.047   3.686
 6745SOL    HW221135   6.675   5.906   3.768
 6746SOL     OW21136   1.201   0.082   3.597
 6746SOL    HW121137   1.293   0.048   3.580
 6746SOL    HW221138   1.134   0.013   3.571
 6747SOL     OW21139   5.756   0.434   0.008
 6747SOL    HW121140   5.840   0.381   7.023
 6747SOL    HW221141   5.773   0.517   0.061
 6748SOL     OW21142   3.642   1.642   3.021
 6748SOL    HW121143   3.722   1.700   3.038
 6748SOL    HW221144   3.560   1.686   3.058
 6749SOL     OW21145   4.074   4.312   0.864
 6749SOL    HW121146   4.151   4.305   0.801
 6749SOL    HW221147   4.097   4.373   0.939
 6750SOL     OW21148   3.177   1.738   4.212
 6750SOL    HW121149   3.117   1.814   4.185
 6750SOL    HW221150   3.272   1.762   4.191
 6751SOL     OW21151   4.883   0.631   3.413
 6751SOL    HW121152   4.948   0.640   3.488
 6751SOL    HW221153   4.888   0.711   3.353
 6752SOL     OW21154   2.183   0.174   2.630
 6752SOL    HW121155   2.268   0.225   2.616
 6752SOL    HW221156   2.168   0.158   2.727
 6753SOL     OW21157   3.663   1.483   6.248
 6753SOL    HW121158   3.751   1.529   6.265
 6753SOL    HW221159   3.588   1.544   6.274
 6754SOL     OW21160   6.701   0.547   0.879
 6754SOL    HW121161   6.622   0.488   0.899
 6754SOL    HW221162   6.675   0.616   0.811
 6755SOL     OW21163   4.096   3.679   1.304
 6755SOL    HW121164   4.076   3.700   1.399
 6755SOL    HW221165   4.192   3.700   1.285
 6756SOL     OW21166   3.875   6.416   5.461
 6756SOL    HW121167   3.817   6.342   5.496
 6756SOL    HW221168   3.897   6.479   5.535
 6757SOL     OW21169   3.594   2.257   0.417
 6757SOL    HW121170   3.678   2.249   0.471
 6757SOL    HW221171   3.533   2.182   0.440
 6758SOL     OW21172   6.361   3.192   1.769
 6758SOL    HW121173   6.338   3.249   1.847
 6758SOL    HW221174   6.370   3.097   1.798
 6759SOL     OW21175   0.536   3.512   2.631
 6759SOL    HW121176   0.527   3.596   2.577
 6759SOL    HW221177   0.522   3.433   2.571
 6760SOL     OW21178   6.799   3.756   2.460
 6760SOL    HW121179   6.830   3.706   2.380
 6760SOL    HW221180   6.699   3.757   2.463
 6761SOL     OW21181   6.303   2.646   4.896
 6761SOL    HW121182   6.223   2.701   4.871
 6761SOL    HW221183   6.357   2.626   4.814
 6762SOL     OW21184   0.515   4.800   3.966
 6762SOL    HW121185   0.424   4.772   3.996
 6762SOL    HW221186   0.572   4.719   3.951
 6763SOL     OW21187   5.983   4.963   3.976
 6763SOL    HW121188   5.993   5.044   4.034
 6763SOL    HW221189   6.062   4.955   3.916
 6764SOL     OW21190   2.689   5.487   1.530
 6764SOL    HW121191   2.662   5.473   1.435
 6764SOL    HW221192   2.789   5.479   1.537
 6765SOL     OW21193   5.568   4.993   3.067
 6765SOL    HW121194   5.518   5.064   3.117
 6765SOL    HW221195   5.620   4.937   3.131
 6766SOL     OW21196   5.524   6.601   5.546
 6766SOL    HW121197   5.528   6.605   5.646
 6766SOL    HW221198   5.492   6.511   5.518
 6767SOL     OW21199   2.867   0.588   1.658
 6767SOL    HW121200   2.846   0.686   1.652
 6767SOL    HW221201   2.886   0.552   1.567
 6768SOL     OW21202   2.058   0.497   5.340
 6768SOL    HW121203   2.090   0.416   5.388
 6768SOL    HW221204   1.986   0.472   5.275
 6769SOL     OW21205   3.370   1.254   0.597
 6769SOL    HW121206   3.369   1.297   0.507
 6769SOL    HW221207   3.358   1.323   0.668
 6770SOL     OW21208   6.930   0.621   2.181
 6770SOL    HW121209   0.006   0.635   2.180
 6770SOL    HW221210   6.908   0.536   2.229
 6771SOL     OW21211   5.093   2.637   3.375
 6771SOL    HW121212   5.135   2.692   3.446
 6771SOL    HW221213   5.032   2.694   3.319
 6772SOL     OW21214   3.799   1.865   3.147
 6772SOL    HW121215   3.769   1.946   3.198
 6772SOL    HW221216   3.829   1.892   3.056
 6773SOL     OW21217   6.530   5.248   2.686
 6773SOL    HW121218   6.586   5.183   2.737
 6773SOL    HW221219   6.565   5.257   2.593
 6774SOL     OW21220   0.856   2.435   5.757
 6774SOL    HW121221   0.818   2.510   5.811
 6774SOL    HW221222   0.928   2.470   5.697
 6775SOL     OW21223   2.658   2.598   1.649
 6775SOL    HW121224   2.681   2.537   1.573
 6775SOL    HW221225   2.580   2.655   1.623
 6776SOL     OW21226   4.503   5.200   0.387
 6776SOL    HW121227   4.558   5.117   0.392
 6776SOL    HW221228   4.476   5.228   0.479
 6777SOL     OW21229   4.560   4.464   0.030
 6777SOL    HW121230   4.610   4.396   0.083
 6777SOL    HW221231   4.528   4.423   6.968
 6778SOL     OW21232   6.111   4.958   2.000
 6778SOL    HW121233   6.144   4.912   1.917
 6778SOL    HW221234   6.067   4.890   2.059
 6779SOL     OW21235   6.243   5.430   6.640
 6779SOL    HW121236   6.245   5.385   6.551
 6779SOL    HW221237   6.298   5.376   6.705
 6780SOL     OW21238   1.341   3.023   2.086
 6780SOL    HW121239   1.383   3.112   2.104
 6780SOL    HW221240   1.377   2.985   2.001
 6781SOL     OW21241   6.572   1.120   4.475
 6781SOL    HW121242   6.631   1.041   4.459
 6781SOL    HW221243   6.476   1.093   4.465
 6782SOL     OW21244   7.010   0.501   3.680
 6782SOL    HW121245   6.911   0.514   3.672
 6782SOL    HW221246   0.034   0.569   3.624
 6783SOL     OW21247   6.419   2.045   5.947
 6783SOL    HW121248   6.333   2.049   5.895
 6783SOL    HW221249   6.398   2.034   6.044
 6784SOL     OW21250   2.399   3.717   1.003
 6784SOL    HW121251   2.358   3.628   0.982
 6784SOL    HW221252   2.433   3.758   0.918
 6785SOL     OW21253   5.476   5.061   3.366
 6785SOL    HW121254   5.475   5.130   3.293
 6785SOL    HW221255   5.537   5.091   3.439
 6786SOL     OW21256   1.864   1.927   6.943
 6786SOL    HW121257   1.909   1.965   0.001
 6786SOL    HW221258   1.889   1.981   6.863
 6787SOL     OW21259   1.780   2.799   1.561
 6787SOL    HW121260   1.731   2.761   1.639
 6787SOL    HW221261   1.824   2.726   1.509
 6788SOL     OW21262   2.257   4.426   1.387
 6788SOL    HW121263   2.340   4.430   1.443
 6788SOL    HW221264   2.182   4.391   1.442
 6789SOL     OW21265   6.739   5.427   3.456
 6789SOL    HW121266   6.804   5.426   3.380
 6789SOL    HW221267   6.738   5.337   3.500
 6790SOL     OW21268   0.851   4.002   1.608
 6790SOL    HW121269   0.883   3.929   1.667
 6790SOL    HW221270   0.752   3.994   1.595
 6791SOL     OW21271   3.402   2.288   1.209
 6791SOL    HW121272   3.443   2.242   1.288
 6791SOL    HW221273   3.425   2.385   1.211
 6792SOL     OW21274   6.457   6.045   5.084
 6792SOL    HW121275   6.406   5.992   5.015
 6792SOL    HW221276   6.552   6.013   5.086
 6793SOL     OW21277   1.153   1.721   1.078
 6793SOL    HW121278   1.066   1.760   1.106
 6793SOL    HW221279   1.137   1.633   1.033
 6794SOL     OW21280   5.042   1.842   5.991
 6794SOL    HW121281   5.129   1.798   6.012
 6794SOL    HW221282   5.012   1.896   6.070
 6795SOL     OW21283   2.283   6.904   1.574
 6795SOL    HW121284   2.234   6.826   1.537
 6795SOL    HW221285   2.299   6.891   1.672
 6796SOL     OW21286   6.221   0.864   1.969
 6796SOL    HW121287   6.262   0.954   1.952
 6796SOL    HW221288   6.229   0.808   1.887
 6797SOL     OW21289   5.668   2.457   1.932
 6797SOL    HW121290   5.677   2.358   1.922
 6797SOL    HW221291   5.577   2.486   1.901
 6798SOL     OW21292   4.716   6.878   1.970
 6798SOL    HW121293   4.759   6.965   1.946
 6798SOL    HW221294   4.715   6.868   2.070
 6799SOL     OW21295   6.200   6.316   1.538
 6799SOL    HW121296   6.194   6.221   1.505
 6799SOL    HW221297   6.169   6.320   1.633
 6800SOL     OW21298   1.915   3.629   1.768
 6800SOL    HW121299   1.856   3.710   1.764
 6800SOL    HW221300   1.920   3.587   1.677
 6801SOL     OW21301   0.589   0.126   3.042
 6801SOL    HW121302   0.564   0.093   2.951
 6801SOL    HW221303   0.663   0.192   3.036
 6802SOL     OW21304   3.532   5.453   0.840
 6802SOL    HW121305   3.496   5.364   0.810
 6802SOL    HW221306   3.545   5.512   0.760
 6803SOL     OW21307   5.195   3.243   6.116
 6803SOL    HW121308   5.144   3.225   6.032
 6803SOL    HW221309   5.238   3.333   6.111
 6804SOL     OW21310   3.656   5.247   3.752
 6804SOL    HW121311   3.703   5.245   3.840
 6804SOL    HW221312   3.712   5.202   3.683
 6805SOL     OW21313   6.631   4.718   6.365
 6805SOL    HW121314   6.705   4.655   6.341
 6805SOL    HW221315   6.544   4.669   6.369
 6806SOL     OW21316   5.730   0.470   4.106
 6806SOL    HW121317   5.690   0.545   4.055
 6806SOL    HW221318   5.674   0.388   4.094
 6807SOL     OW21319   3.274   3.345   6.989
 6807SOL    HW121320   3.232   3.295   0.041
 6807SOL    HW221321   3.256   3.298   6.903
 6808SOL     OW21322   0.002   1.753   4.625
 6808SOL    HW121323   6.942   1.726   4.673
 6808SOL    HW221324   0.061   1.805   4.686
 6809SOL     OW21325   1.280   3.139   1.344
 6809SOL    HW121326   1.345   3.083   1.292
 6809SOL    HW221327   1.306   3.235   1.340
 6810SOL     OW21328   1.979   0.581   2.506
 6810SOL    HW121329   2.015   0.654   2.565
 6810SOL    HW221330   1.914   0.620   2.441
 6811SOL     OW21331   6.057   3.894   0.807
 6811SOL    HW121332   6.096   3.948   0.732
 6811SOL    HW221333   5.966   3.862   0.781
 6812SOL     OW21334   3.190   3.545   3.220
 6812SOL    HW121335   3.225   3.455   3.193
 6812SOL    HW221336   3.144   3.587   3.143
 6813SOL     OW21337   4.883   2.228   2.547
 6813SOL    HW121338   4.825   2.201   2.469
 6813SOL    HW221339   4.832   2.214   2.632
 6814SOL     OW21340   3.347   1.678   5.796
 6814SOL    HW121341   3.312   1.750   5.736
 6814SOL    HW221342   3.333   1.589   5.754
 6815SOL     OW21343   3.199   0.085   1.538
 6815SOL    HW121344   3.249   7.022   1.549
 6815SOL    HW221345   3.118   0.085   1.596
 6816SOL     OW21346   0.332   0.131   0.071
 6816SOL    HW121347   0.273   0.126   7.014
 6816SOL    HW221348   0.340   0.040   0.112
 6817SOL     OW21349   1.685   2.551   3.218
 6817SOL    HW121350   1.772   2.576   3.261
 6817SOL    HW221351   1.693   2.461   3.176
 6818SOL     OW21352   3.004   5.494   2.154
 6818SOL    HW121353   3.060   5.471   2.235
 6818SOL    HW221354   3.014   5.591   2.134
 6819SOL     OW21355   5.177   0.881   4.238
 6819SOL    HW121356   5.185   0.953   4.170
 6819SOL    HW221357   5.150   0.921   4.326
 6820SOL     OW21358   2.232   5.811   2.766
 6820SOL    HW121359   2.299   5.737   2.765
 6820SOL    HW221360   2.215   5.843   2.673
 6821SOL     OW21361   3.676   1.619   4.228
 6821SOL    HW121362   3.675   1.546   4.160
 6821SOL    HW221363   3.719   1.585   4.312
 6822SOL     OW21364   5.852   2.312   6.808
 6822SOL    HW121365   5.764   2.320   6.762
 6822SOL    HW221366   5.842   2.333   6.905
 6823SOL     OW21367   3.855   3.138   4.762
 6823SOL    HW121368   3.882   3.233   4.776
 6823SOL    HW221369   3.900   3.103   4.680
 6824SOL     OW21370   0.869   2.232   6.604
 6824SOL    HW121371   0.895   2.283   6.686
 6824SOL    HW221372   0.773   2.249   6.583
 6825SOL     OW21373   5.204   6.887   2.158
 6825SOL    HW121374   5.159   6.910   2.244
 6825SOL    HW221375   5.223   6.789   2.156
 6826SOL     OW21376   2.099   4.015   2.759
 6826SOL    HW121377   2.116   3.922   2.791
 6826SOL    HW221378   2.174   4.074   2.787
 6827SOL     OW21379   4.402   5.334   6.316
 6827SOL    HW121380   4.303   5.323   6.318
 6827SOL    HW221381   4.443   5.262   6.260
 6828SOL     OW21382   2.791   2.333   1.520
 6828SOL    HW121383   2.706   2.283   1.539
 6828SOL    HW221384   2.868   2.282   1.558
 6829SOL     OW21385   4.388   6.736   4.303
 6829SOL    HW121386   4.352   6.776   4.388
 6829SOL    HW221387   4.415   6.641   4.321
 6830SOL     OW21388   4.900   1.149   4.292
 6830SOL    HW121389   4.876   1.067   4.240
 6830SOL    HW221390   4.868   1.230   4.243
 6831SOL     OW21391   1.388   0.867   6.804
 6831SOL    HW121392   1.443   0.879   6.886
 6831SOL    HW221393   1.408   0.778   6.763
 6832SOL     OW21394   2.522   4.495   1.515
 6832SOL    HW121395   2.587   4.422   1.536
 6832SOL    HW221396   2.565   4.562   1.454
 6833SOL     OW21397   4.080   4.051   6.381
 6833SOL    HW121398   4.035   4.139   6.368
 6833SOL    HW221399   4.114   4.017   6.294
 6834SOL     OW21400   5.050   6.420   0.644
 6834SOL    HW121401   5.075   6.385   0.734
 6834SOL    HW221402   5.099   6.368   0.574
 6835SOL     OW21403   3.681   0.396   3.864
 6835SOL    HW121404   3.693   0.471   3.799
 6835SOL    HW221405   3.598   0.345   3.843
 6836SOL     OW21406   2.741   5.499   0.118
 6836SOL    HW121407   2.685   5.425   0.081
 6836SOL    HW221408   2.755   5.484   0.216
 6837SOL     OW21409   0.987   1.992   2.611
 6837SOL    HW121410   1.042   2.061   2.564
 6837SOL    HW221411   0.927   1.947   2.545
 6838SOL     OW21412   2.990   6.300   0.400
 6838SOL    HW121413   3.082   6.267   0.420
 6838SOL    HW221414   2.957   6.356   0.476
 6839SOL     OW21415   5.060   0.634   0.224
 6839SOL    HW121416   5.033   0.680   0.308
 6839SOL    HW221417   5.154   0.659   0.202
 6840SOL     OW21418   3.308   1.368   4.894
 6840SOL    HW121419   3.389   1.312   4.874
 6840SOL    HW221420   3.235   1.309   4.929
 6841SOL     OW21421   4.971   4.082   6.620
 6841SOL    HW121422   5.040   4.094   6.692
 6841SOL    HW221423   4.957   3.984   6.605
 6842SOL     OW21424   2.972   4.199   1.178
 6842SOL    HW121425   2.936   4.167   1.266
 6842SOL    HW221426   2.944   4.136   1.106
 6843SOL     OW21427   6.086   6.682   0.805
 6843SOL    HW121428   6.123   6.616   0.871
 6843SOL    HW221429   6.070   6.769   0.850
 6844SOL     OW21430   5.470   0.447   4.195
 6844SOL    HW121431   5.427   0.529   4.157
 6844SOL    HW221432   5.549   0.474   4.250
 6845SOL     OW21433   6.168   3.696   3.180
 6845SOL    HW121434   6.144   3.636   3.104
 6845SOL    HW221435   6.097   3.690   3.251
 6846SOL     OW21436   3.911   3.315   0.176
 6846SOL    HW121437   3.814   3.335   0.185
 6846SOL    HW221438   3.923   3.220   0.150
 6847SOL     OW21439   6.985   3.739   4.892
 6847SOL    HW121440   6.908   3.703   4.945
 6847SOL    HW221441   7.000   3.835   4.916
 6848SOL     OW21442   4.951   4.741   3.549
 6848SOL    HW121443   4.885   4.705   3.482
 6848SOL    HW221444   4.956   4.841   3.540
 6849SOL     OW21445   4.915   4.082   5.306
 6849SOL    HW121446   4.933   3.991   5.269
 6849SOL    HW221447   4.978   4.148   5.265
 6850SOL     OW21448   5.495   3.258   2.938
 6850SOL    HW121449   5.463   3.301   2.854
 6850SOL    HW221450   5.420   3.209   2.982
 6851SOL     OW21451   6.959   2.328   3.291
 6851SOL    HW121452   6.959   2.324   3.391
 6851SOL    HW221453   0.028   2.308   3.258
 6852SOL     OW21454   2.629   4.683   1.399
 6852SOL    HW121455   2.641   4.718   1.492
 6852SOL    HW221456   2.598   4.758   1.339
 6853SOL     OW21457   5.536   4.482   6.749
 6853SOL    HW121458   5.571   4.521   6.835
 6853SOL    HW221459   5.487   4.553   6.699
 6854SOL     OW21460   5.112   0.810   5.467
 6854SOL    HW121461   5.023   0.787   5.506
 6854SOL    HW221462   5.166   0.862   5.533
 6855SOL     OW21463   4.255   6.387   4.046
 6855SOL    HW121464   4.230   6.474   4.004
 6855SOL    HW221465   4.249   6.314   3.978
 6856SOL     OW21466   0.277   2.468   4.989
 6856SOL    HW121467   0.304   2.553   5.034
 6856SOL    HW221468   0.304   2.471   4.893
 6857SOL     OW21469   1.615   2.632   6.695
 6857SOL    HW121470   1.539   2.597   6.641
 6857SOL    HW221471   1.601   2.729   6.714
 6858SOL     OW21472   4.042   4.146   1.668
 6858SOL    HW121473   4.116   4.079   1.656
 6858SOL    HW221474   3.980   4.114   1.740
 6859SOL     OW21475   1.234   1.265   1.522
 6859SOL    HW121476   1.236   1.362   1.545
 6859SOL    HW221477   1.148   1.225   1.553
 6860SOL     OW21478   0.433   4.846   1.258
 6860SOL    HW121479   0.479   4.877   1.175
 6860SOL    HW221480   0.498   4.795   1.315
 6861SOL     OW21481   4.906   3.800   6.580
 6861SOL    HW121482   4.840   3.828   6.649
 6861SOL    HW221483   4.874   3.716   6.536
 6862SOL     OW21484   1.011   5.473   5.422
 6862SOL    HW121485   0.962   5.544   5.372
 6862SOL    HW221486   1.045   5.404   5.358
 6863SOL     OW21487   6.376   6.485   6.119
 6863SOL    HW121488   6.398   6.387   6.108
 6863SOL    HW221489   6.327   6.517   6.038
 6864SOL     OW21490   2.457   4.856   5.278
 6864SOL    HW121491   2.518   4.903   5.215
 6864SOL    HW221492   2.504   4.779   5.320
 6865SOL     OW21493   0.272   6.699   4.323
 6865SOL    HW121494   0.329   6.769   4.367
 6865SOL    HW221495   0.303   6.609   4.351
 6866SOL     OW21496   5.703   5.494   2.950
 6866SOL    HW121497   5.759   5.413   2.935
 6866SOL    HW221498   5.705   5.552   2.868
 6867SOL     OW21499   1.968   3.591   2.015
 6867SOL    HW121500   2.045   3.528   2.026
 6867SOL    HW221501   1.956   3.612   1.918
 6868SOL     OW21502   1.984   6.573   6.174
 6868SOL    HW121503   2.060   6.618   6.126
 6868SOL    HW221504   2.004   6.476   6.183
 6869SOL     OW21505   4.973   0.802   5.995
 6869SOL    HW121506   4.984   0.727   6.060
 6869SOL    HW221507   4.959   0.766   5.903
 6870SOL     OW21508   0.236   4.536   1.131
 6870SOL    HW121509   0.242   4.595   1.050
 6870SOL    HW221510   0.329   4.517   1.165
 6871SOL     OW21511   6.034   4.428   2.854
 6871SOL    HW121512   5.936   4.443   2.865
 6871SOL    HW221513   6.058   4.437   2.757
 6872SOL     OW21514   0.373   2.431   1.732
 6872SOL    HW121515   0.302   2.491   1.694
 6872SOL    HW221516   0.332   2.373   1.803
 6873SOL     OW21517   0.200   3.169   4.541
 6873SOL    HW121518   0.295   3.166   4.509
 6873SOL    HW221519   0.143   3.111   4.482
 6874SOL     OW21520   0.004   4.737   3.257
 6874SOL    HW121521   7.018   4.787   3.171
 6874SOL    HW221522   0.033   4.799   3.329
 6875SOL     OW21523   2.068   1.981   2.491
 6875SOL    HW121524   1.976   1.953   2.465
 6875SOL    HW221525   2.135   1.918   2.452
 6876SOL     OW21526   4.245   0.062   3.509
 6876SOL    HW121527   4.220   6.988   3.500
 6876SOL    HW221528   4.205   0.098   3.594
 6877SOL     OW21529   3.108   4.450   1.401
 6877SOL    HW121530   3.167   4.395   1.342
 6877SOL    HW221531   3.134   4.435   1.497
 6878SOL     OW21532   3.315   1.722   3.908
 6878SOL    HW121533   3.407   1.758   3.894
 6878SOL    HW221534   3.315   1.662   3.988
 6879SOL     OW21535   2.056   2.968   0.532
 6879SOL    HW121536   2.071   2.946   0.436
 6879SOL    HW221537   2.130   2.931   0.588
 6880SOL     OW21538   1.278   5.773   5.552
 6880SOL    HW121539   1.211   5.791   5.479
 6880SOL    HW221540   1.315   5.859   5.585
 6881SOL     OW21541   1.304   4.037   1.650
 6881SOL    HW121542   1.226   4.075   1.700
 6881SOL    HW221543   1.314   4.085   1.563
 6882SOL     OW21544   2.697   0.393   0.330
 6882SOL    HW121545   2.780   0.349   0.363
 6882SOL    HW221546   2.721   0.468   0.267
 6883SOL     OW21547   5.056   2.111   0.381
 6883SOL    HW121548   5.026   2.206   0.381
 6883SOL    HW221549   5.066   2.078   0.475
 6884SOL     OW21550   1.071   4.040   3.249
 6884SOL    HW121551   1.160   4.021   3.292
 6884SOL    HW221552   1.043   4.133   3.271
 6885SOL     OW21553   4.636   4.733   3.395
 6885SOL    HW121554   4.573   4.663   3.361
 6885SOL    HW221555   4.594   4.780   3.473
 6886SOL     OW21556   6.927   1.158   4.394
 6886SOL    HW121557   7.018   1.119   4.408
 6886SOL    HW221558   6.858   1.094   4.427
 6887SOL     OW21559   4.695   5.632   6.709
 6887SOL    HW121560   4.762   5.682   6.764
 6887SOL    HW221561   4.735   5.545   6.680
 6888SOL     OW21562   5.269   5.281   6.637
 6888SOL    HW121563   5.328   5.206   6.670
 6888SOL    HW221564   5.236   5.333   6.716
 6889SOL     OW21565   1.405   2.771   6.362
 6889SOL    HW121566   1.493   2.725   6.365
 6889SOL    HW221567   1.418   2.869   6.378
 6890SOL     OW21568   4.294   6.368   2.192
 6890SOL    HW121569   4.370   6.379   2.256
 6890SOL    HW221570   4.242   6.453   2.188
 6891SOL     OW21571   1.877   4.166   1.592
 6891SOL    HW121572   1.812   4.199   1.661
 6891SOL    HW221573   1.925   4.086   1.627
 6892SOL     OW21574   3.795   1.970   3.993
 6892SOL    HW121575   3.832   1.905   3.927
 6892SOL    HW221576   3.867   1.999   4.056
 6893SOL     OW21577   4.719   3.915   6.761
 6893SOL    HW121578   4.715   4.000   6.812
 6893SOL    HW221579   4.626   3.884   6.740
 6894SOL     OW21580   6.048   4.831   1.482
 6894SOL    HW121581   5.982   4.758   1.500
 6894SOL    HW221582   6.024   4.877   1.397
 6895SOL     OW21583   2.083   5.176   1.352
 6895SOL    HW121584   1.991   5.199   1.323
 6895SOL    HW221585   2.080   5.098   1.415
 6896SOL     OW21586   3.201   1.902   3.690
 6896SOL    HW121587   3.200   1.847   3.774
 6896SOL    HW221588   3.269   1.866   3.627
 6897SOL     OW21589   4.888   3.734   4.729
 6897SOL    HW121590   4.847   3.823   4.708
 6897SOL    HW221591   4.855   3.703   4.818
 6898SOL     OW21592   4.064   1.495   1.361
 6898SOL    HW121593   3.987   1.559   1.365
 6898SOL    HW221594   4.124   1.520   1.285
 6899SOL     OW21595   4.519   6.111   1.977
 6899SOL    HW121596   4.562   6.159   2.053
 6899SOL    HW221597   4.534   6.163   1.893
 6900SOL     OW21598   6.709   5.218   4.728
 6900SOL    HW121599   6.703   5.128   4.772
 6900SOL    HW221600   6.667   5.214   4.637
 6901SOL     OW21601   6.136   6.476   6.278
 6901SOL    HW121602   6.207   6.413   6.250
 6901SOL    HW221603   6.116   6.540   6.203
 6902SOL     OW21604   6.412   5.486   5.919
 6902SOL    HW121605   6.403   5.387   5.910
 6902SOL    HW221606   6.340   5.531   5.866
 6903SOL     OW21607   3.356   5.028   5.242
 6903SOL    HW121608   3.373   5.076   5.156
 6903SOL    HW221609   3.363   4.930   5.228
 6904SOL     OW21610   5.927   0.563   6.106
 6904SOL    HW121611   6.006   0.515   6.144
 6904SOL    HW221612   5.854   0.566   6.175
 6905SOL     OW21613   5.539   5.832   6.809
 6905SOL    HW121614   5.566   5.881   6.726
 6905SOL    HW221615   5.605   5.853   6.882
 6906SOL     OW21616   3.751   1.345   3.853
 6906SOL    HW121617   3.740   1.351   3.952
 6906SOL    HW221618   3.832   1.291   3.831
 6907SOL     OW21619   5.962   2.449   1.471
 6907SOL    HW121620   6.002   2.371   1.424
 6907SOL    HW221621   5.915   2.417   1.554
 6908SOL     OW21622   2.056   5.652   6.246
 6908SOL    HW121623   1.982   5.660   6.312
 6908SOL    HW221624   2.021   5.613   6.161
 6909SOL     OW21625   5.140   3.641   0.670
 6909SOL    HW121626   5.218   3.696   0.702
 6909SOL    HW221627   5.086   3.696   0.605
 6910SOL     OW21628   1.300   3.350   3.158
 6910SOL    HW121629   1.303   3.256   3.192
 6910SOL    HW221630   1.236   3.404   3.213
 6911SOL     OW21631   4.303   6.981   3.946
 6911SOL    HW121632   4.390   7.006   3.904
 6911SOL    HW221633   4.267   0.036   3.997
 6912SOL     OW21634   2.802   3.366   6.046
 6912SOL    HW121635   2.850   3.411   6.121
 6912SOL    HW221636   2.712   3.336   6.078
 6913SOL     OW21637   5.409   6.108   4.741
 6913SOL    HW121638   5.401   6.199   4.781
 6913SOL    HW221639   5.480   6.108   4.670
 6914SOL     OW21640   5.432   4.584   3.856
 6914SOL    HW121641   5.348   4.530   3.859
 6914SOL    HW221642   5.485   4.568   3.940
 6915SOL     OW21643   0.014   2.689   1.988
 6915SOL    HW121644   6.996   2.715   2.075
 6915SOL    HW221645   0.113   2.675   2.000
 6916SOL     OW21646   5.492   1.212   0.739
 6916SOL    HW121647   5.529   1.199   0.647
 6916SOL    HW221648   5.424   1.141   0.758
 6917SOL     OW21649   4.148   6.833   1.026
 6917SOL    HW121650   4.052   6.818   1.002
 6917SOL    HW221651   4.196   6.745   1.022
 6918SOL     OW21652   0.355   2.621   4.329
 6918SOL    HW121653   0.438   2.673   4.347
 6918SOL    HW221654   0.377   2.523   4.323
 6919SOL     OW21655   5.715   5.390   4.342
 6919SOL    HW121656   5.677   5.455   4.276
 6919SOL    HW221657   5.756   5.440   4.418
 6920SOL     OW21658   4.663   6.836   5.493
 6920SOL    HW121659   4.590   6.773   5.467
 6920SOL    HW221660   4.658   6.918   5.435
 6921SOL     OW21661   4.468   6.166   3.517
 6921SOL    HW121662   4.418   6.212   3.590
 6921SOL    HW221663   4.456   6.067   3.526
 6922SOL     OW21664   1.819   6.152   5.793
 6922SOL    HW121665   1.775   6.064   5.776
 6922SOL    HW221666   1.752   6.226   5.779
 6923SOL     OW21667   5.029   5.490   2.303
 6923SOL    HW121668   5.043   5.414   2.367
 6923SOL    HW221669   4.977   5.457   2.224
 6924SOL     OW21670   2.386   4.640   0.134
 6924SOL    HW121671   2.396   4.585   0.217
 6924SOL    HW221672   2.354   4.582   0.059
 6925SOL     OW21673   5.178   5.669   4.503
 6925SOL    HW121674   5.078   5.668   4.508
 6925SOL    HW221675   5.209   5.589   4.452
 6926SOL     OW21676   2.745   2.402   0.714
 6926SOL    HW121677   2.774   2.440   0.802
 6926SOL    HW221678   2.819   2.345   0.678
 6927SOL     OW21679   3.650   2.814   5.887
 6927SOL    HW121680   3.726   2.851   5.941
 6927SOL    HW221681   3.622   2.726   5.926
 6928SOL     OW21682   5.552   5.549   1.165
 6928SOL    HW121683   5.596   5.608   1.233
 6928SOL    HW221684   5.536   5.459   1.205
 6929SOL     OW21685   4.799   5.863   2.334
 6929SOL    HW121686   4.820   5.799   2.408
 6929SOL    HW221687   4.738   5.820   2.268
 6930SOL     OW21688   1.519   0.791   1.702
 6930SOL    HW121689   1.614   0.761   1.705
 6930SOL    HW221690   1.475   0.754   1.620
 6931SOL     OW21691   1.535   1.143   2.488
 6931SOL    HW121692   1.480   1.211   2.538
 6931SOL    HW221693   1.579   1.188   2.411
 6932SOL     OW21694   4.504   6.902   0.492
 6932SOL    HW121695   4.485   7.000   0.495
 6932SOL    HW221696   4.593   6.884   0.533
 6933SOL     OW21697   3.626   6.285   5.545
 6933SOL    HW121698   3.532   6.309   5.520
 6933SOL    HW221699   3.652   6.200   5.499
 6934SOL     OW21700   4.850   3.248   6.166
 6934SOL    HW121701   4.753   3.234   6.186
 6934SOL    HW221702   4.896   3.288   6.246
 6935SOL     OW21703   4.609   6.055   2.371
 6935SOL    HW121704   4.650   5.967   2.344
 6935SOL    HW221705   4.532   6.038   2.432
 6936SOL     OW21706   6.210   3.286   4.015
 6936SOL    HW121707   6.182   3.214   4.079
 6936SOL    HW221708   6.309   3.298   4.020
 6937SOL     OW21709   6.181   6.223   1.082
 6937SOL    HW121710   6.105   6.247   1.143
 6937SOL    HW221711   6.215   6.132   1.107
 6938SOL     OW21712   6.745   2.619   4.833
 6938SOL    HW121713   6.753   2.575   4.743
 6938SOL    HW221714   6.729   2.550   4.903
 6939SOL     OW21715   0.037   5.134   2.280
 6939SOL    HW121716   0.076   5.210   2.228
 6939SOL    HW221717   0.047   5.049   2.228
 6940SOL     OW21718   3.649   0.839   0.380
 6940SOL    HW121719   3.661   0.742   0.403
 6940SOL    HW221720   3.642   0.892   0.465
 6941SOL     OW21721   3.313   3.798   1.856
 6941SOL    HW121722   3.240   3.764   1.916
 6941SOL    HW221723   3.279   3.803   1.762
 6942SOL     OW21724   5.872   6.623   2.325
 6942SOL    HW121725   5.776   6.649   2.317
 6942SOL    HW221726   5.888   6.536   2.277
 6943SOL     OW21727   3.867   5.674   1.065
 6943SOL    HW121728   3.886   5.662   1.162
 6943SOL    HW221729   3.908   5.760   1.033
 6944SOL     OW21730   1.233   5.174   6.089
 6944SOL    HW121731   1.198   5.266   6.072
 6944SOL    HW221732   1.235   5.157   6.187
 6945SOL     OW21733   6.922   1.636   0.982
 6945SOL    HW121734   6.832   1.605   1.011
 6945SOL    HW221735   6.937   1.729   1.015
 6946SOL     OW21736   4.297   6.880   1.275
 6946SOL    HW121737   4.286   6.824   1.357
 6946SOL    HW221738   4.234   6.850   1.204
 6947SOL     OW21739   3.754   5.162   6.780
 6947SOL    HW121740   3.746   5.254   6.741
 6947SOL    HW221741   3.846   5.149   6.816
 6948SOL     OW21742   0.977   6.253   1.083
 6948SOL    HW121743   1.011   6.320   1.150
 6948SOL    HW221744   1.027   6.167   1.094
 6949SOL     OW21745   2.800   0.440   3.360
 6949SOL    HW121746   2.802   0.356   3.305
 6949SOL    HW221747   2.748   0.423   3.444
 6950SOL     OW21748   1.499   0.995   4.645
 6950SOL    HW121749   1.458   1.079   4.611
 6950SOL    HW221750   1.595   1.011   4.668
 6951SOL     OW21751   0.812   5.701   6.220
 6951SOL    HW121752   0.838   5.741   6.132
 6951SOL    HW221753   0.755   5.766   6.271
 6952SOL     OW21754   1.236   5.314   3.369
 6952SOL    HW121755   1.327   5.337   3.335
 6952SOL    HW221756   1.167   5.367   3.320
 6953SOL     OW21757   5.139   6.345   0.900
 6953SOL    HW121758   5.201   6.390   0.964
 6953SOL    HW221759   5.048   6.339   0.940
 6954SOL     OW21760   1.206   4.427   1.742
 6954SOL    HW121761   1.202   4.525   1.764
 6954SOL    HW221762   1.275   4.382   1.798
 6955SOL     OW21763   5.260   0.785   2.326
 6955SOL    HW121764   5.319   0.863   2.306
 6955SOL    HW221765   5.225   0.792   2.420
 6956SOL     OW21766   4.941   5.881   3.483
 6956SOL    HW121767   4.858   5.898   3.536
 6956SOL    HW221768   4.918   5.873   3.386
 6957SOL     OW21769   6.157   6.019   0.347
 6957SOL    HW121770   6.176   6.076   0.267
 6957SOL    HW221771   6.110   5.935   0.318
 6958SOL     OW21772   3.933   3.341   4.969
 6958SOL    HW121773   3.966   3.435   4.976
 6958SOL    HW221774   3.953   3.292   5.054
 6959SOL     OW21775   1.865   3.325   3.415
 6959SOL    HW121776   1.907   3.235   3.407
 6959SOL    HW221777   1.766   3.317   3.404
 6960SOL     OW21778   1.833   4.063   1.034
 6960SOL    HW121779   1.862   3.969   1.018
 6960SOL    HW221780   1.752   4.064   1.092
 6961SOL     OW21781   6.084   0.754   4.903
 6961SOL    HW121782   6.171   0.728   4.860
 6961SOL    HW221783   6.098   0.838   4.955
 6962SOL     OW21784   4.344   5.919   1.182
 6962SOL    HW121785   4.437   5.914   1.146
 6962SOL    HW221786   4.346   5.961   1.273
 6963SOL     OW21787   5.442   5.737   0.988
 6963SOL    HW121788   5.464   5.667   1.056
 6963SOL    HW221789   5.502   5.726   0.908
 6964SOL     OW21790   4.038   1.264   5.949
 6964SOL    HW121791   4.082   1.354   5.957
 6964SOL    HW221792   3.951   1.265   5.999
 6965SOL     OW21793   1.992   1.358   6.722
 6965SOL    HW121794   1.952   1.442   6.687
 6965SOL    HW221795   1.937   1.280   6.692
 6966SOL     OW21796   0.708   0.688   2.828
 6966SOL    HW121797   0.784   0.698   2.763
 6966SOL    HW221798   0.661   0.775   2.838
 6967SOL     OW21799   3.161   1.112   5.625
 6967SOL    HW121800   3.078   1.086   5.674
 6967SOL    HW221801   3.241   1.099   5.685
 6968SOL     OW21802   3.212   1.272   3.769
 6968SOL    HW121803   3.231   1.186   3.723
 6968SOL    HW221804   3.247   1.348   3.714
 6969SOL     OW21805   3.102   2.413   1.473
 6969SOL    HW121806   3.083   2.475   1.550
 6969SOL    HW221807   3.114   2.467   1.390
 6970SOL     OW21808   4.055   3.819   5.627
 6970SOL    HW121809   4.046   3.794   5.531
 6970SOL    HW221810   3.986   3.770   5.681
 6971SOL     OW21811   6.281   4.689   1.099
 6971SOL    HW121812   6.295   4.711   1.002
 6971SOL    HW221813   6.185   4.703   1.122
 6972SOL     OW21814   5.051   4.554   2.825
 6972SOL    HW121815   5.067   4.475   2.765
 6972SOL    HW221816   5.120   4.624   2.809
 6973SOL     OW21817   0.605   2.569   3.325
 6973SOL    HW121818   0.589   2.542   3.420
 6973SOL    HW221819   0.685   2.521   3.290
 6974SOL     OW21820   3.250   3.933   2.562
 6974SOL    HW121821   3.156   3.949   2.592
 6974SOL    HW221822   3.264   3.977   2.473
 6975SOL     OW21823   1.223   6.668   4.670
 6975SOL    HW121824   1.313   6.633   4.697
 6975SOL    HW221825   1.234   6.739   4.601
 6976SOL     OW21826   6.451   4.723   6.069
 6976SOL    HW121827   6.369   4.716   6.012
 6976SOL    HW221828   6.424   4.725   6.166
 6977SOL     OW21829   3.518   3.284   0.492
 6977SOL    HW121830   3.449   3.313   0.558
 6977SOL    HW221831   3.474   3.227   0.422
 6978SOL     OW21832   4.992   2.395   1.998
 6978SOL    HW121833   4.914   2.435   1.949
 6978SOL    HW221834   4.958   2.344   2.078
 6979SOL     OW21835   0.935   4.145   1.238
 6979SOL    HW121836   1.012   4.189   1.191
 6979SOL    HW221837   0.964   4.055   1.272
 6980SOL     OW21838   1.766   0.984   3.286
 6980SOL    HW121839   1.816   1.066   3.314
 6980SOL    HW221840   1.831   0.913   3.258
 6981SOL     OW21841   3.456   3.503   5.851
 6981SOL    HW121842   3.497   3.501   5.759
 6981SOL    HW221843   3.384   3.434   5.857
 6982SOL     OW21844   1.230   1.182   4.317
 6982SOL    HW121845   1.173   1.122   4.373
 6982SOL    HW221846   1.287   1.126   4.256
 6983SOL     OW21847   4.612   1.439   4.740
 6983SOL    HW121848   4.584   1.368   4.804
 6983SOL    HW221849   4.532   1.473   4.690
 6984SOL     OW21850   2.460   1.673   3.298
 6984SOL    HW121851   2.470   1.757   3.352
 6984SOL    HW221852   2.386   1.685   3.231
 6985SOL     OW21853   5.876   4.950   0.906
 6985SOL    HW121854   5.963   4.925   0.865
 6985SOL    HW221855   5.867   5.049   0.910
 6986SOL     OW21856   3.310   0.429   6.758
 6986SOL    HW121857   3.350   0.340   6.734
 6986SOL    HW221858   3.306   0.487   6.676
 6987SOL     OW21859   6.608   1.239   6.383
 6987SOL    HW121860   6.619   1.152   6.336
 6987SOL    HW221861   6.519   1.241   6.430
 6988SOL     OW21862   1.297   0.234   6.361
 6988SOL    HW121863   1.239   0.312   6.338
 6988SOL    HW221864   1.358   0.259   6.436
 6989SOL     OW21865   0.614   4.473   2.941
 6989SOL    HW121866   0.640   4.527   2.861
 6989SOL    HW221867   0.518   4.445   2.934
 6990SOL     OW21868   4.366   3.033   0.998
 6990SOL    HW121869   4.336   3.097   1.068
 6990SOL    HW221870   4.384   2.944   1.040
 6991SOL     OW21871   4.655   4.210   3.315
 6991SOL    HW121872   4.639   4.299   3.272
 6991SOL    HW221873   4.703   4.150   3.252
 6992SOL     OW21874   5.535   0.473   6.851
 6992SOL    HW121875   5.592   0.434   6.923
 6992SOL    HW221876   5.562   0.568   6.834
 6993SOL     OW21877   5.843   0.345   2.067
 6993SOL    HW121878   5.919   0.302   2.018
 6993SOL    HW221879   5.878   0.398   2.144
 6994SOL     OW21880   0.510   2.420   4.216
 6994SOL    HW121881   0.605   2.448   4.228
 6994SOL    HW221882   0.480   2.445   4.124
 6995SOL     OW21883   0.601   3.690   6.537
 6995SOL    HW121884   0.558   3.780   6.540
 6995SOL    HW221885   0.681   3.689   6.596
 6996SOL     OW21886   2.100   0.282   0.019
 6996SOL    HW121887   2.038   0.349   7.002
 6996SOL    HW221888   2.194   0.303   7.015
 6997SOL     OW21889   0.376   5.045   5.051
 6997SOL    HW121890   0.412   4.972   5.109
 6997SOL    HW221891   0.301   5.091   5.098
 6998SOL     OW21892   1.776   1.586   1.366
 6998SOL    HW121893   1.829   1.555   1.445
 6998SOL    HW221894   1.688   1.539   1.364
 6999SOL     OW21895   1.685   2.718   5.977
 6999SOL    HW121896   1.590   2.716   5.946
 6999SOL    HW221897   1.699   2.648   6.047
 7000SOL     OW21898   6.091   6.756   2.240
 7000SOL    HW121899   6.154   6.713   2.305
 7000SOL    HW221900   5.997   6.731   2.262
 7001SOL     OW21901   0.818   3.284   5.371
 7001SOL    HW121902   0.905   3.239   5.391
 7001SOL    HW221903   0.775   3.239   5.293
 7002SOL     OW21904   1.941   5.562   4.598
 7002SOL    HW121905   1.865   5.510   4.557
 7002SOL    HW221906   1.945   5.653   4.557
 7003SOL     OW21907   4.765   6.059   1.391
 7003SOL    HW121908   4.841   5.999   1.417
 7003SOL    HW221909   4.720   6.023   1.310
 7004SOL     OW21910   0.326   5.958   1.244
 7004SOL    HW121911   0.322   6.043   1.296
 7004SOL    HW221912   0.268   5.890   1.287
 7005SOL     OW21913   1.357   0.397   0.820
 7005SOL    HW121914   1.413   0.388   0.737
 7005SOL    HW221915   1.278   0.336   0.813
 7006SOL     OW21916   5.865   5.834   3.431
 7006SOL    HW121917   5.765   5.838   3.422
 7006SOL    HW221918   5.903   5.926   3.420
 7007SOL     OW21919   4.018   0.846   4.396
 7007SOL    HW121920   3.941   0.823   4.337
 7007SOL    HW221921   4.104   0.823   4.349
 7008SOL     OW21922   0.544   4.131   4.387
 7008SOL    HW121923   0.448   4.148   4.365
 7008SOL    HW221924   0.589   4.089   4.308
 7009SOL     OW21925   4.155   6.609   2.249
 7009SOL    HW121926   4.205   6.695   2.259
 7009SOL    HW221927   4.086   6.619   2.177
 7010SOL     OW21928   5.308   4.207   3.839
 7010SOL    HW121929   5.376   4.195   3.911
 7010SOL    HW221930   5.282   4.117   3.803
 7011SOL     OW21931   3.537   6.986   6.794
 7011SOL    HW121932   3.631   7.000   6.827
 7011SOL    HW221933   3.505   6.896   6.824
 7012SOL     OW21934   0.844   1.467   1.169
 7012SOL    HW121935   0.768   1.529   1.188
 7012SOL    HW221936   0.818   1.402   1.098
 7013SOL     OW21937   1.168   6.723   6.621
 7013SOL    HW121938   1.231   6.646   6.622
 7013SOL    HW221939   1.092   6.706   6.684
 7014SOL     OW21940   5.704   3.102   6.853
 7014SOL    HW121941   5.677   3.031   6.919
 7014SOL    HW221942   5.803   3.101   6.842
 7015SOL     OW21943   6.009   4.127   1.602
 7015SOL    HW121944   6.034   4.224   1.594
 7015SOL    HW221945   5.981   4.107   1.696
 7016SOL     OW21946   4.066   4.730   1.362
 7016SOL    HW121947   4.043   4.814   1.410
 7016SOL    HW221948   4.126   4.673   1.419
 7017SOL     OW21949   3.124   5.568   3.120
 7017SOL    HW121950   3.147   5.471   3.125
 7017SOL    HW221951   3.106   5.593   3.025
 7018SOL     OW21952   5.060   3.872   4.353
 7018SOL    HW121953   5.044   3.815   4.433
 7018SOL    HW221954   4.987   3.939   4.344
 7019SOL     OW21955   3.879   4.342   0.611
 7019SOL    HW121956   3.910   4.266   0.668
 7019SOL    HW221957   3.921   4.335   0.521
 7020SOL     OW21958   6.768   3.909   5.442
 7020SOL    HW121959   6.861   3.924   5.474
 7020SOL    HW221960   6.720   3.996   5.438
 7021SOL     OW21961   1.745   2.836   4.064
 7021SOL    HW121962   1.798   2.761   4.105
 7021SOL    HW221963   1.690   2.800   3.989
 7022SOL     OW21964   4.863   6.832   6.716
 7022SOL    HW121965   4.904   6.743   6.736
 7022SOL    HW221966   4.925   6.885   6.658
 7023SOL     OW21967   0.645   3.208   1.613
 7023SOL    HW121968   0.572   3.220   1.545
 7023SOL    HW221969   0.706   3.135   1.583
 7024SOL     OW21970   3.124   3.482   4.129
 7024SOL    HW121971   3.106   3.488   4.227
 7024SOL    HW221972   3.124   3.386   4.100
 7025SOL     OW21973   4.219   0.982   1.025
 7025SOL    HW121974   4.313   1.016   1.014
 7025SOL    HW221975   4.155   1.058   1.010
 7026SOL     OW21976   3.442   2.042   2.123
 7026SOL    HW121977   3.524   2.096   2.106
 7026SOL    HW221978   3.363   2.083   2.077
 7027SOL     OW21979   2.538   5.915   4.288
 7027SOL    HW121980   2.610   5.902   4.220
 7027SOL    HW221981   2.467   5.974   4.251
 7028SOL     OW21982   3.911   0.747   3.869
 7028SOL    HW121983   3.978   0.763   3.797
 7028SOL    HW221984   3.911   0.824   3.933
 7029SOL     OW21985   4.640   4.100   5.248
 7029SOL    HW121986   4.579   4.022   5.260
 7029SOL    HW221987   4.727   4.081   5.294
 7030SOL     OW21988   0.184   1.050   4.308
 7030SOL    HW121989   0.192   0.981   4.381
 7030SOL    HW221990   0.276   1.077   4.279
 7031SOL     OW21991   3.918   6.120   0.022
 7031SOL    HW121992   3.896   6.064   6.965
 7031SOL    HW221993   3.866   6.086   0.101
 7032SOL     OW21994   4.360   1.479   3.469
 7032SOL    HW121995   4.273   1.520   3.440
 7032SOL    HW221996   4.418   1.463   3.389
 7033SOL     OW21997   1.250   2.764   3.478
 7033SOL    HW121998   1.228   2.861   3.488
 7033SOL    HW221999   1.330   2.753   3.418
 7034SOL     OW22000   6.920   1.106   2.767
 7034SOL    HW122001   6.826   1.074   2.775
 7034SOL    HW222002   6.969   1.048   2.702
 7035SOL     OW22003   1.732   0.318   0.572
 7035SOL    HW122004   1.782   0.278   0.495
 7035SOL    HW222005   1.792   0.324   0.651
 7036SOL     OW22006   6.882   1.204   2.421
 7036SOL    HW122007   6.849   1.111   2.406
 7036SOL    HW222008   6.979   1.209   2.399
 7037SOL     OW22009   1.049   1.186   6.305
 7037SOL    HW122010   0.967   1.132   6.286
 7037SOL    HW222011   1.123   1.124   6.333
 7038SOL     OW22012   2.610   4.674   4.733
 7038SOL    HW122013   2.700   4.635   4.714
 7038SOL    HW222014   2.544   4.640   4.665
 7039SOL     OW22015   0.228   5.944   3.100
 7039SOL    HW122016   0.326   5.955   3.084
 7039SOL    HW222017   0.179   5.954   3.013
 7040SOL     OW22018   4.635   2.694   5.954
 7040SOL    HW122019   4.703   2.766   5.937
 7040SOL    HW222020   4.629   2.676   6.052
 7041SOL     OW22021   6.934   1.628   2.695
 7041SOL    HW122022   6.970   1.536   2.677
 7041SOL    HW222023   6.834   1.627   2.686
 7042SOL     OW22024   4.380   6.086   4.351
 7042SOL    HW122025   4.338   6.166   4.394
 7042SOL    HW222026   4.404   6.019   4.421
 7043SOL     OW22027   2.475   5.093   3.592
 7043SOL    HW122028   2.488   5.119   3.497
 7043SOL    HW222029   2.517   5.004   3.609
 7044SOL     OW22030   5.347   5.932   5.420
 7044SOL    HW122031   5.276   5.918   5.351
 7044SOL    HW222032   5.391   5.845   5.440
 7045SOL     OW22033   5.101   5.771   2.280
 7045SOL    HW122034   5.171   5.805   2.344
 7045SOL    HW222035   5.106   5.671   2.276
 7046SOL     OW22036   3.435   1.275   3.468
 7046SOL    HW122037   3.378   1.346   3.506
 7046SOL    HW222038   3.521   1.270   3.519
 7047SOL     OW22039   6.575   0.803   1.887
 7047SOL    HW122040   6.555   0.890   1.932
 7047SOL    HW222041   6.656   0.814   1.829
 7048SOL     OW22042   5.878   6.950   4.784
 7048SOL    HW122043   5.965   6.979   4.744
 7048SOL    HW222044   5.820   0.006   4.800
 7049SOL     OW22045   3.550   1.750   1.370
 7049SOL    HW122046   3.552   1.819   1.442
 7049SOL    HW222047   3.467   1.695   1.379
 7050SOL     OW22048   3.945   3.624   0.903
 7050SOL    HW122049   3.896   3.680   0.969
 7050SOL    HW222050   3.993   3.550   0.951
 7051SOL     OW22051   6.705   6.525   1.248
 7051SOL    HW122052   6.667   6.436   1.276
 7051SOL    HW222053   6.688   6.538   1.150
 7052SOL     OW22054   6.731   0.807   4.197
 7052SOL    HW122055   6.829   0.793   4.214
 7052SOL    HW222056   6.712   0.791   4.100
 7053SOL     OW22057   1.306   3.772   4.217
 7053SOL    HW122058   1.288   3.675   4.202
 7053SOL    HW222059   1.235   3.810   4.277
 7054SOL     OW22060   0.210   6.917   1.080
 7054SOL    HW122061   0.218   6.833   1.026
 7054SOL    HW222062   0.159   6.898   1.164
 7055SOL     OW22063   2.866   0.534   0.120
 7055SOL    HW122064   2.929   0.586   0.063
 7055SOL    HW222065   2.859   0.441   0.084
 7056SOL     OW22066   6.867   5.364   1.344
 7056SOL    HW122067   6.824   5.432   1.403
 7056SOL    HW222068   6.965   5.360   1.364
 7057SOL     OW22069   3.035   5.168   3.847
 7057SOL    HW122070   3.122   5.129   3.816
 7057SOL    HW222071   3.037   5.177   3.947
 7058SOL     OW22072   5.360   1.975   6.022
 7058SOL    HW122073   5.352   1.880   5.994
 7058SOL    HW222074   5.456   1.996   6.043
 7059SOL     OW22075   1.313   1.159   3.842
 7059SOL    HW122076   1.331   1.062   3.859
 7059SOL    HW222077   1.215   1.176   3.850
 7060SOL     OW22078   3.665   6.996   0.864
 7060SOL    HW122079   3.644   6.952   0.952
 7060SOL    HW222080   3.628   0.066   0.864
 7061SOL     OW22081   0.024   2.617   3.645
 7061SOL    HW122082   0.074   2.538   3.609
 7061SOL    HW222083   0.065   2.646   3.732
 7062SOL     OW22084   3.835   2.197   5.230
 7062SOL    HW122085   3.853   2.295   5.239
 7062SOL    HW222086   3.813   2.175   5.135
 7063SOL     OW22087   1.234   0.400   1.489
 7063SOL    HW122088   1.170   0.401   1.412
 7063SOL    HW222089   1.305   0.469   1.474
 7064SOL     OW22090   4.265   1.881   6.556
 7064SOL    HW122091   4.301   1.821   6.627
 7064SOL    HW222092   4.237   1.968   6.597
 7065SOL     OW22093   2.983   3.978   4.947
 7065SOL    HW122094   2.962   3.888   4.910
 7065SOL    HW222095   3.024   4.036   4.876
 7066SOL     OW22096   4.241   6.644   5.674
 7066SOL    HW122097   4.312   6.581   5.705
 7066SOL    HW222098   4.274   6.738   5.683
 7067SOL     OW22099   1.015   3.552   5.870
 7067SOL    HW122100   1.106   3.586   5.847
 7067SOL    HW222101   1.023   3.476   5.935
 7068SOL     OW22102   5.674   4.073   4.352
 7068SOL    HW122103   5.714   4.082   4.260
 7068SOL    HW222104   5.639   4.162   4.382
 7069SOL     OW22105   5.668   1.737   5.383
 7069SOL    HW122106   5.646   1.810   5.448
 7069SOL    HW222107   5.636   1.763   5.292
 7070SOL     OW22108   0.972   6.374   4.109
 7070SOL    HW122109   0.892   6.393   4.052
 7070SOL    HW222110   1.054   6.409   4.064
 7071SOL     OW22111   4.359   6.015   6.840
 7071SOL    HW122112   4.388   6.110   6.830
 7071SOL    HW222113   4.267   6.004   6.802
 7072SOL     OW22114   2.649   4.612   7.019
 7072SOL    HW122115   2.616   4.607   0.090
 7072SOL    HW222116   2.666   4.708   6.994
 7073SOL     OW22117   3.345   0.401   2.885
 7073SOL    HW122118   3.362   0.305   2.865
 7073SOL    HW222119   3.332   0.451   2.799
 7074SOL     OW22120   6.456   3.106   2.678
 7074SOL    HW122121   6.444   3.109   2.777
 7074SOL    HW222122   6.480   3.013   2.650
 7075SOL     OW22123   2.803   5.179   4.563
 7075SOL    HW122124   2.846   5.269   4.563
 7075SOL    HW222125   2.704   5.189   4.555
 7076SOL     OW22126   5.862   2.624   0.610
 7076SOL    HW122127   5.961   2.611   0.606
 7076SOL    HW222128   5.823   2.563   0.680
 7077SOL     OW22129   2.224   4.009   3.571
 7077SOL    HW122130   2.209   4.001   3.472
 7077SOL    HW222131   2.237   3.918   3.610
 7078SOL     OW22132   6.168   6.513   0.975
 7078SOL    HW122133   6.103   6.536   1.048
 7078SOL    HW222134   6.144   6.425   0.936
 7079SOL     OW22135   1.444   6.662   3.293
 7079SOL    HW122136   1.516   6.622   3.236
 7079SOL    HW222137   1.456   6.761   3.299
 7080SOL     OW22138   4.042   2.140   4.107
 7080SOL    HW122139   4.118   2.196   4.140
 7080SOL    HW222140   4.021   2.165   4.013
 7081SOL     OW22141   1.135   5.601   0.505
 7081SOL    HW122142   1.138   5.591   0.604
 7081SOL    HW222143   1.196   5.676   0.478
 7082SOL     OW22144   6.689   4.080   0.293
 7082SOL    HW122145   6.689   4.023   0.375
 7082SOL    HW222146   6.780   4.081   0.253
 7083SOL     OW22147   0.169   1.122   2.093
 7083SOL    HW122148   0.110   1.138   2.172
 7083SOL    HW222149   0.210   1.030   2.100
 7084SOL     OW22150   0.526   5.613   5.482
 7084SOL    HW122151   0.615   5.651   5.509
 7084SOL    HW222152   0.526   5.514   5.501
 7085SOL     OW22153   6.265   2.445   2.850
 7085SOL    HW122154   6.197   2.383   2.813
 7085SOL    HW222155   6.345   2.393   2.880
 7086SOL     OW22156   5.716   0.799   6.410
 7086SOL    HW122157   5.746   0.859   6.484
 7086SOL    HW222158   5.793   0.779   6.350
 7087SOL     OW22159   5.678   4.220   2.534
 7087SOL    HW122160   5.593   4.179   2.501
 7087SOL    HW222161   5.729   4.152   2.586
 7088SOL     OW22162   5.226   2.580   5.438
 7088SOL    HW122163   5.194   2.557   5.531
 7088SOL    HW222164   5.224   2.679   5.426
 7089SOL     OW22165   2.153   3.979   3.313
 7089SOL    HW122166   2.173   3.962   3.217
 7089SOL    HW222167   2.087   4.054   3.319
 7090SOL     OW22168   2.332   1.946   0.315
 7090SOL    HW122169   2.264   1.969   0.385
 7090SOL    HW222170   2.305   1.986   0.228
 7091SOL     OW22171   0.667   0.940   1.594
 7091SOL    HW122172   0.759   0.936   1.634
 7091SOL    HW222173   0.671   0.986   1.506
 7092SOL     OW22174   3.919   3.186   5.611
 7092SOL    HW122175   3.940   3.089   5.615
 7092SOL    HW222176   3.846   3.207   5.677
 7093SOL     OW22177   3.245   3.877   1.584
 7093SOL    HW122178   3.188   3.800   1.555
 7093SOL    HW222179   3.321   3.888   1.519
 7094SOL     OW22180   1.612   0.518   5.630
 7094SOL    HW122181   1.529   0.486   5.676
 7094SOL    HW222182   1.628   0.614   5.653
 7095SOL     OW22183   3.162   4.926   5.763
 7095SOL    HW122184   3.209   4.960   5.682
 7095SOL    HW222185   3.077   4.976   5.777
 7096SOL     OW22186   6.074   0.570   1.936
 7096SOL    HW122187   6.136   0.616   1.872
 7096SOL    HW222188   6.122   0.555   2.023
 7097SOL     OW22189   5.341   0.879   1.581
 7097SOL    HW122190   5.419   0.932   1.613
 7097SOL    HW222191   5.262   0.897   1.639
 7098SOL     OW22192   1.464   5.849   5.915
 7098SOL    HW122193   1.437   5.757   5.886
 7098SOL    HW222194   1.466   5.853   6.015
 7099SOL     OW22195   3.686   2.099   4.432
 7099SOL    HW122196   3.768   2.142   4.394
 7099SOL    HW222197   3.690   2.001   4.418
 7100SOL     OW22198   6.675   3.056   0.521
 7100SOL    HW122199   6.655   3.024   0.614
 7100SOL    HW222200   6.683   2.978   0.460
 7101SOL     OW22201   2.404   0.762   5.433
 7101SOL    HW122202   2.335   0.830   5.406
 7101SOL    HW222203   2.376   0.672   5.402
 7102SOL     OW22204   5.726   0.312   1.217
 7102SOL    HW122205   5.646   0.258   1.190
 7102SOL    HW222206   5.768   0.270   1.298
 7103SOL     OW22207   5.506   5.085   1.283
 7103SOL    HW122208   5.567   5.030   1.226
 7103SOL    HW222209   5.492   5.040   1.371
 7104SOL     OW22210   6.085   3.497   2.173
 7104SOL    HW122211   6.007   3.475   2.231
 7104SOL    HW222212   6.104   3.595   2.177
 7105SOL     OW22213   3.400   3.411   4.605
 7105SOL    HW122214   3.422   3.422   4.508
 7105SOL    HW222215   3.478   3.441   4.661
 7106SOL     OW22216   3.685   3.017   1.441
 7106SOL    HW122217   3.591   3.026   1.473
 7106SOL    HW222218   3.738   2.965   1.508
 7107SOL     OW22219   3.694   0.688   0.949
 7107SOL    HW122220   3.789   0.702   0.919
 7107SOL    HW222221   3.641   0.651   0.873
 7108SOL     OW22222   2.832   5.991   2.470
 7108SOL    HW122223   2.759   5.933   2.507
 7108SOL    HW222224   2.804   6.027   2.381
 7109SOL     OW22225   1.666   1.378   6.961
 7109SOL    HW122226   1.720   1.334   6.890
 7109SOL    HW222227   1.689   1.475   6.967
 7110SOL     OW22228   3.257   5.882   4.062
 7110SOL    HW122229   3.184   5.945   4.035
 7110SOL    HW222230   3.292   5.908   4.152
 7111SOL     OW22231   1.506   2.022   3.922
 7111SOL    HW122232   1.501   2.100   3.860
 7111SOL    HW222233   1.597   1.980   3.915
 7112SOL     OW22234   1.978   4.592   4.551
 7112SOL    HW122235   1.921   4.668   4.583
 7112SOL    HW222236   1.928   4.539   4.482
 7113SOL     OW22237   3.386   4.360   5.309
 7113SOL    HW122238   3.430   4.274   5.285
 7113SOL    HW222239   3.356   4.357   5.404
 7114SOL     OW22240   4.546   5.031   1.498
 7114SOL    HW122241   4.446   5.033   1.502
 7114SOL    HW222242   4.575   5.006   1.406
 7115SOL     OW22243   5.465   3.506   6.786
 7115SOL    HW122244   5.401   3.523   6.861
 7115SOL    HW222245   5.553   3.547   6.808
 7116SOL     OW22246   5.345   3.998   2.974
 7116SOL    HW122247   5.358   3.917   3.031
 7116SOL    HW222248   5.417   4.002   2.904
 7117SOL     OW22249   0.080   0.092   4.628
 7117SOL    HW122250   0.103   0.041   4.545
 7117SOL    HW222251   0.041   0.029   4.696
 7118SOL     OW22252   4.080   4.201   5.629
 7118SOL    HW122253   4.137   4.170   5.553
 7118SOL    HW222254   4.105   4.153   5.713
 7119SOL     OW22255   5.504   1.078   5.233
 7119SOL    HW122256   5.405   1.077   5.249
 7119SOL    HW222257   5.523   1.049   5.139
 7120SOL     OW22258   4.068   1.594   1.892
 7120SOL    HW122259   4.087   1.519   1.956
 7120SOL    HW222260   4.079   1.682   1.939
 7121SOL     OW22261   0.438   6.828   2.852
 7121SOL    HW122262   0.372   6.890   2.808
 7121SOL    HW222263   0.514   6.810   2.789
 7122SOL     OW22264   1.947   0.455   5.614
 7122SOL    HW122265   1.986   0.544   5.635
 7122SOL    HW222266   2.003   0.383   5.656
 7123SOL     OW22267   0.347   5.131   3.706
 7123SOL    HW122268   0.390   5.174   3.626
 7123SOL    HW222269   0.395   5.047   3.728
 7124SOL     OW22270   0.766   2.533   1.594
 7124SOL    HW122271   0.791   2.456   1.652
 7124SOL    HW222272   0.700   2.591   1.642
 7125SOL     OW22273   1.644   1.385   1.519
 7125SOL    HW122274   1.718   1.348   1.576
 7125SOL    HW222275   1.590   1.309   1.483
 7126SOL     OW22276   4.406   5.930   0.559
 7126SOL    HW122277   4.350   5.947   0.477
 7126SOL    HW222278   4.359   5.966   0.639
 7127SOL     OW22279   2.574   6.338   5.860
 7127SOL    HW122280   2.580   6.245   5.822
 7127SOL    HW222281   2.587   6.405   5.788
 7128SOL     OW22282   3.910   3.726   6.686
 7128SOL    HW122283   3.856   3.677   6.617
 7128SOL    HW222284   3.959   3.802   6.641
 7129SOL     OW22285   1.451   1.199   1.375
 7129SOL    HW122286   1.369   1.222   1.427
 7129SOL    HW222287   1.428   1.136   1.301
 7130SOL     OW22288   3.743   6.589   4.422
 7130SOL    HW122289   3.841   6.601   4.436
 7130SOL    HW222290   3.722   6.602   4.325
 7131SOL     OW22291   3.197   1.029   1.691
 7131SOL    HW122292   3.259   0.975   1.635
 7131SOL    HW222293   3.102   1.006   1.667
 7132SOL     OW22294   5.095   4.145   0.406
 7132SOL    HW122295   5.086   4.242   0.430
 7132SOL    HW222296   5.137   4.137   0.316
 7133SOL     OW22297   4.398   4.658   4.531
 7133SOL    HW122298   4.311   4.705   4.543
 7133SOL    HW222299   4.456   4.709   4.467
 7134SOL     OW22300   5.281   6.622   2.539
 7134SOL    HW122301   5.201   6.580   2.581
 7134SOL    HW222302   5.260   6.717   2.515
 7135SOL     OW22303   2.143   3.120   2.786
 7135SOL    HW122304   2.091   3.193   2.742
 7135SOL    HW222305   2.128   3.122   2.884
 7136SOL     OW22306   2.985   1.888   1.162
 7136SOL    HW122307   3.058   1.920   1.102
 7136SOL    HW222308   3.024   1.839   1.240
 7137SOL     OW22309   3.034   1.856   0.749
 7137SOL    HW122310   2.955   1.805   0.715
 7137SOL    HW222311   3.003   1.944   0.786
 7138SOL     OW22312   2.020   1.172   0.817
 7138SOL    HW122313   2.045   1.253   0.870
 7138SOL    HW222314   1.974   1.106   0.876
 7139SOL     OW22315   5.716   4.647   2.023
 7139SOL    HW122316   5.782   4.666   1.951
 7139SOL    HW222317   5.739   4.700   2.105
 7140SOL     OW22318   6.408   4.141   1.038
 7140SOL    HW122319   6.408   4.237   1.066
 7140SOL    HW222320   6.464   4.130   0.956
 7141SOL     OW22321   4.532   6.929   1.128
 7141SOL    HW122322   4.457   6.913   1.193
 7141SOL    HW222323   4.550   0.004   1.120
 7142SOL     OW22324   3.214   0.381   3.713
 7142SOL    HW122325   3.288   0.314   3.707
 7142SOL    HW222326   3.247   0.471   3.684
 7143SOL     OW22327   1.676   4.110   0.316
 7143SOL    HW122328   1.726   4.119   0.402
 7143SOL    HW222329   1.714   4.034   0.264
 7144SOL     OW22330   0.546   1.058   3.184
 7144SOL    HW122331   0.620   1.125   3.176
 7144SOL    HW222332   0.562   1.000   3.264
 7145SOL     OW22333   3.894   0.896   6.679
 7145SOL    HW122334   3.865   0.917   6.586
 7145SOL    HW222335   3.883   0.976   6.737
 7146SOL     OW22336   1.863   1.548   5.766
 7146SOL    HW122337   1.820   1.541   5.676
 7146SOL    HW222338   1.867   1.645   5.793
 7147SOL     OW22339   6.478   5.858   3.329
 7147SOL    HW122340   6.570   5.880   3.361
 7147SOL    HW222341   6.412   5.881   3.400
 7148SOL     OW22342   6.286   5.833   1.879
 7148SOL    HW122343   6.309   5.781   1.961
 7148SOL    HW222344   6.276   5.930   1.903
 7149SOL     OW22345   0.672   5.336   3.905
 7149SOL    HW122346   0.697   5.257   3.850
 7149SOL    HW222347   0.671   5.311   4.002
 7150SOL     OW22348   3.338   3.118   0.332
 7150SOL    HW122349   3.360   3.110   0.234
 7150SOL    HW222350   3.258   3.177   0.343
 7151SOL     OW22351   2.949   6.667   1.043
 7151SOL    HW122352   3.037   6.664   1.091
 7151SOL    HW222353   2.918   6.762   1.038
 7152SOL     OW22354   6.343   0.977   6.566
 7152SOL    HW122355   6.254   0.933   6.577
 7152SOL    HW222356   6.400   0.923   6.504
 7153SOL     OW22357   3.677   5.286   2.026
 7153SOL    HW122358   3.685   5.239   1.939
 7153SOL    HW222359   3.609   5.240   2.083
 7154SOL     OW22360   4.052   0.300   2.908
 7154SOL    HW122361   3.973   0.308   2.847
 7154SOL    HW222362   4.130   0.348   2.868
 7155SOL     OW22363   3.320   3.087   1.259
 7155SOL    HW122364   3.313   3.182   1.231
 7155SOL    HW222365   3.322   3.028   1.179
 7156SOL     OW22366   4.964   3.409   2.660
 7156SOL    HW122367   4.925   3.498   2.685
 7156SOL    HW222368   4.922   3.378   2.575
 7157SOL     OW22369   0.065   4.503   1.644
 7157SOL    HW122370   0.107   4.422   1.684
 7157SOL    HW222371   0.105   4.520   1.554
 7158SOL     OW22372   6.827   0.167   3.580
 7158SOL    HW122373   6.876   0.089   3.542
 7158SOL    HW222374   6.821   0.158   3.679
 7159SOL     OW22375   0.909   4.691   4.336
 7159SOL    HW122376   0.980   4.725   4.398
 7159SOL    HW222377   0.951   4.628   4.270
 7160SOL     OW22378   6.252   6.629   2.429
 7160SOL    HW122379   6.266   6.532   2.445
 7160SOL    HW222380   6.305   6.682   2.495
 7161SOL     OW22381   3.468   4.166   3.007
 7161SOL    HW122382   3.395   4.234   3.016
 7161SOL    HW222383   3.446   4.104   2.933
 7162SOL     OW22384   0.246   4.978   6.906
 7162SOL    HW122385   0.269   5.046   6.975
 7162SOL    HW222386   0.201   5.023   6.829
 7163SOL     OW22387   2.502   0.226   2.813
 7163SOL    HW122388   2.594   0.224   2.772
 7163SOL    HW222389   2.449   0.299   2.772
 7164SOL     OW22390   1.870   0.583   5.148
 7164SOL    HW122391   1.822   0.603   5.063
 7164SOL    HW222392   1.803   0.566   5.221
 7165SOL     OW22393   5.998   5.783   2.018
 7165SOL    HW122394   6.033   5.742   2.102
 7165SOL    HW222395   6.060   5.760   1.942
 7166SOL     OW22396   5.470   0.825   6.708
 7166SOL    HW122397   5.549   0.781   6.751
 7166SOL    HW222398   5.474   0.923   6.723
 7167SOL     OW22399   5.028   2.610   5.233
 7167SOL    HW122400   5.010   2.697   5.187
 7167SOL    HW222401   5.092   2.625   5.309
 7168SOL     OW22402   2.675   1.852   2.876
 7168SOL    HW122403   2.770   1.848   2.843
 7168SOL    HW222404   2.655   1.771   2.930
 7169SOL     OW22405   0.616   3.985   4.623
 7169SOL    HW122406   0.563   3.985   4.708
 7169SOL    HW222407   0.565   4.032   4.552
 7170SOL     OW22408   4.071   6.293   2.452
 7170SOL    HW122409   4.064   6.250   2.542
 7170SOL    HW222410   4.067   6.393   2.462
 7171SOL     OW22411   6.389   3.870   1.102
 7171SOL    HW122412   6.374   3.966   1.078
 7171SOL    HW222413   6.432   3.823   1.026
 7172SOL     OW22414   2.166   1.849   5.293
 7172SOL    HW122415   2.134   1.883   5.381
 7172SOL    HW222416   2.136   1.755   5.280
 7173SOL     OW22417   6.342   5.224   7.005
 7173SOL    HW122418   6.336   5.231   6.905
 7173SOL    HW222419   6.341   5.316   0.022
 7174SOL     OW22420   6.436   4.794   0.582
 7174SOL    HW122421   6.520   4.742   0.598
 7174SOL    HW222422   6.445   4.848   0.499
 7175SOL     OW22423   6.672   3.274   5.424
 7175SOL    HW122424   6.664   3.218   5.506
 7175SOL    HW222425   6.659   3.216   5.343
 7176SOL     OW22426   0.475   1.151   4.296
 7176SOL    HW122427   0.449   1.231   4.349
 7176SOL    HW222428   0.574   1.149   4.284
 7177SOL     OW22429   1.481   5.163   5.720
 7177SOL    HW122430   1.422   5.240   5.696
 7177SOL    HW222431   1.575   5.182   5.691
 7178SOL     OW22432   1.125   1.131   6.015
 7178SOL    HW122433   1.043   1.114   6.069
 7178SOL    HW222434   1.128   1.228   5.989
 7179SOL     OW22435   1.772   3.910   4.781
 7179SOL    HW122436   1.811   3.834   4.834
 7179SOL    HW222437   1.745   3.983   4.842
 7180SOL     OW22438   2.453   4.068   1.074
 7180SOL    HW122439   2.509   4.145   1.103
 7180SOL    HW222440   2.359   4.081   1.106
 7181SOL     OW22441   2.263   1.342   6.606
 7181SOL    HW122442   2.316   1.427   6.602
 7181SOL    HW222443   2.178   1.359   6.658
 7182SOL     OW22444   0.654   3.528   3.333
 7182SOL    HW122445   0.584   3.583   3.288
 7182SOL    HW222446   0.612   3.446   3.372
 7183SOL     OW22447   2.145   6.015   2.042
 7183SOL    HW122448   2.104   6.099   2.076
 7183SOL    HW222449   2.092   5.980   1.964
 7184SOL     OW22450   6.210   0.980   4.134
 7184SOL    HW122451   6.230   0.984   4.036
 7184SOL    HW222452   6.229   0.887   4.168
 7185SOL     OW22453   5.416   1.188   5.543
 7185SOL    HW122454   5.321   1.214   5.526
 7185SOL    HW222455   5.424   1.088   5.543
 7186SOL     OW22456   0.289   1.107   1.087
 7186SOL    HW122457   0.199   1.111   1.044
 7186SOL    HW222458   0.351   1.055   1.028
 7187SOL     OW22459   2.872   3.669   5.275
 7187SOL    HW122460   2.908   3.591   5.325
 7187SOL    HW222461   2.777   3.685   5.301
 7188SOL     OW22462   4.739   5.027   0.208
 7188SOL    HW122463   4.682   4.962   0.157
 7188SOL    HW222464   4.751   5.110   0.154
 7189SOL     OW22465   5.978   3.309   5.459
 7189SOL    HW122466   5.918   3.274   5.530
 7189SOL    HW222467   5.998   3.236   5.393
 7190SOL     OW22468   5.866   6.209   1.674
 7190SOL    HW122469   5.863   6.160   1.761
 7190SOL    HW222470   5.803   6.167   1.609
 7191SOL     OW22471   0.182   3.986   3.221
 7191SOL    HW122472   0.149   3.990   3.315
 7191SOL    HW222473   0.167   4.074   3.177
 7192SOL     OW22474   1.161   4.384   6.518
 7192SOL    HW122475   1.103   4.462   6.497
 7192SOL    HW222476   1.248   4.392   6.469
 7193SOL     OW22477   2.863   1.406   3.089
 7193SOL    HW122478   2.815   1.321   3.110
 7193SOL    HW222479   2.959   1.386   3.069
 7194SOL     OW22480   2.402   2.335   0.347
 7194SOL    HW122481   2.324   2.307   0.402
 7194SOL    HW222482   2.375   2.344   0.251
 7195SOL     OW22483   6.156   4.304   6.725
 7195SOL    HW122484   6.211   4.224   6.747
 7195SOL    HW222485   6.063   4.275   6.700
 7196SOL     OW22486   3.070   4.116   1.588
 7196SOL    HW122487   3.125   4.032   1.594
 7196SOL    HW222488   3.005   4.107   1.513
 7197SOL     OW22489   0.637   3.922   5.886
 7197SOL    HW122490   0.732   3.896   5.905
 7197SOL    HW222491   0.637   4.005   5.830
 7198SOL     OW22492   0.288   0.870   6.785
 7198SOL    HW122493   0.283   0.771   6.773
 7198SOL    HW222494   0.382   0.897   6.804
 7199SOL     OW22495   0.876   0.156   2.774
 7199SOL    HW122496   0.866   0.200   2.863
 7199SOL    HW222497   0.931   0.214   2.714
 7200SOL     OW22498   1.609   3.230   0.563
 7200SOL    HW122499   1.673   3.154   0.569
 7200SOL    HW222500   1.616   3.272   0.472
 7201SOL     OW22501   0.332   5.568   4.226
 7201SOL    HW122502   0.326   5.582   4.324
 7201SOL    HW222503   0.255   5.511   4.196
 7202SOL     OW22504   5.215   6.810   6.097
 7202SOL    HW122505   5.168   6.802   6.186
 7202SOL    HW222506   5.310   6.837   6.112
 7203SOL     OW22507   0.643   1.230   1.944
 7203SOL    HW122508   0.729   1.241   1.994
 7203SOL    HW222509   0.574   1.192   2.005
 7204SOL     OW22510   6.870   1.326   6.352
 7204SOL    HW122511   6.776   1.300   6.376
 7204SOL    HW222512   6.887   1.420   6.383
 7205SOL     OW22513   1.632   4.037   4.592
 7205SOL    HW122514   1.707   4.002   4.648
 7205SOL    HW222515   1.585   4.110   4.642
 7206SOL     OW22516   1.490   1.420   1.776
 7206SOL    HW122517   1.401   1.377   1.789
 7206SOL    HW222518   1.536   1.380   1.697
 7207SOL     OW22519   2.850   1.171   4.125
 7207SOL    HW122520   2.822   1.260   4.159
 7207SOL    HW222521   2.807   1.154   4.036
 7208SOL     OW22522   4.942   0.284   4.199
 7208SOL    HW122523   5.022   0.332   4.235
 7208SOL    HW222524   4.932   0.196   4.246
 7209SOL     OW22525   2.203   2.906   2.104
 7209SOL    HW122526   2.156   2.948   2.026
 7209SOL    HW222527   2.299   2.891   2.081
 7210SOL     OW22528   3.775   2.035   3.732
 7210SOL    HW122529   3.696   2.085   3.697
 7210SOL    HW222530   3.766   2.025   3.831
 7211SOL     OW22531   3.042   6.208   5.517
 7211SOL    HW122532   3.131   6.244   5.546
 7211SOL    HW222533   2.980   6.284   5.498
 7212SOL     OW22534   0.468   6.501   6.088
 7212SOL    HW122535   0.375   6.538   6.085
 7212SOL    HW222536   0.490   6.461   5.999
 7213SOL     OW22537   3.465   6.122   5.944
 7213SOL    HW122538   3.487   6.050   5.878
 7213SOL    HW222539   3.542   6.135   6.006
 7214SOL     OW22540   6.788   1.305   5.765
 7214SOL    HW122541   6.779   1.226   5.704
 7214SOL    HW222542   6.730   1.379   5.733
 7215SOL     OW22543   6.151   2.778   4.503
 7215SOL    HW122544   6.117   2.834   4.579
 7215SOL    HW222545   6.112   2.811   4.417
 7216SOL     OW22546   3.274   5.954   2.065
 7216SOL    HW122547   3.238   6.032   2.013
 7216SOL    HW222548   3.354   5.983   2.118
 7217SOL     OW22549   1.611   3.539   3.570
 7217SOL    HW122550   1.616   3.503   3.477
 7217SOL    HW222551   1.703   3.562   3.602
 7218SOL     OW22552   6.811   2.952   4.400
 7218SOL    HW122553   6.908   2.967   4.383
 7218SOL    HW222554   6.794   2.943   4.498
 7219SOL     OW22555   2.754   6.911   2.193
 7219SOL    HW122556   2.692   6.876   2.264
 7219SOL    HW222557   2.771   7.009   2.209
 7220SOL     OW22558   6.439   4.656   3.984
 7220SOL    HW122559   6.375   4.614   4.048
 7220SOL    HW222560   6.482   4.585   3.928
 7221SOL     OW22561   3.515   6.057   4.614
 7221SOL    HW122562   3.437   5.999   4.634
 7221SOL    HW222563   3.541   6.107   4.697
 7222SOL     OW22564   5.985   6.718   3.272
 7222SOL    HW122565   5.892   6.748   3.295
 7222SOL    HW222566   5.982   6.666   3.186
 7223SOL     OW22567   2.793   0.997   1.029
 7223SOL    HW122568   2.846   0.986   1.113
 7223SOL    HW222569   2.822   1.080   0.981
 7224SOL     OW22570   4.815   2.623   4.912
 7224SOL    HW122571   4.767   2.558   4.971
 7224SOL    HW222572   4.908   2.590   4.895
 7225SOL     OW22573   1.658   6.588   0.827
 7225SOL    HW122574   1.628   6.641   0.748
 7225SOL    HW222575   1.696   6.649   0.896
 7226SOL     OW22576   5.930   0.079   1.378
 7226SOL    HW122577   5.976   0.152   1.429
 7226SOL    HW222578   5.868   0.030   1.439
 7227SOL     OW22579   2.687   1.539   2.050
 7227SOL    HW122580   2.598   1.522   2.093
 7227SOL    HW222581   2.677   1.610   1.981
 7228SOL     OW22582   1.497   1.196   3.031
 7228SOL    HW122583   1.410   1.161   2.997
 7228SOL    HW222584   1.522   1.278   2.980
 7229SOL     OW22585   0.743   6.849   4.732
 7229SOL    HW122586   0.828   6.834   4.781
 7229SOL    HW222587   0.745   6.803   4.644
 7230SOL     OW22588   3.048   5.906   3.787
 7230SOL    HW122589   3.130   5.848   3.785
 7230SOL    HW222590   3.015   5.919   3.693
 7231SOL     OW22591   4.464   0.429   6.965
 7231SOL    HW122592   4.417   0.418   0.029
 7231SOL    HW222593   4.408   0.486   6.904
 7232SOL     OW22594   4.998   6.262   2.754
 7232SOL    HW122595   5.035   6.228   2.667
 7232SOL    HW222596   5.049   6.221   2.830
 7233SOL     OW22597   1.169   1.260   5.192
 7233SOL    HW122598   1.186   1.170   5.152
 7233SOL    HW222599   1.250   1.317   5.182
 7234SOL     OW22600   5.734   3.247   2.458
 7234SOL    HW122601   5.717   3.252   2.556
 7234SOL    HW222602   5.656   3.204   2.413
 7235SOL     OW22603   6.130   4.466   1.992
 7235SOL    HW122604   6.160   4.483   1.898
 7235SOL    HW222605   6.112   4.553   2.038
 7236SOL     OW22606   2.613   2.364   2.816
 7236SOL    HW122607   2.634   2.383   2.720
 7236SOL    HW222608   2.641   2.270   2.838
 7237SOL     OW22609   3.807   0.120   6.101
 7237SOL    HW122610   3.718   0.128   6.146
 7237SOL    HW222611   3.842   0.211   6.081
 7238SOL     OW22612   4.531   2.139   6.021
 7238SOL    HW122613   4.576   2.130   5.932
 7238SOL    HW222614   4.533   2.235   6.049
 7239SOL     OW22615   0.939   2.895   1.768
 7239SOL    HW122616   0.863   2.939   1.816
 7239SOL    HW222617   1.018   2.887   1.829
 7240SOL     OW22618   0.116   1.325   6.498
 7240SOL    HW122619   0.041   1.304   6.435
 7240SOL    HW222620   0.108   1.268   6.579
 7241SOL     OW22621   2.586   0.208   0.684
 7241SOL    HW122622   2.576   0.306   0.701
 7241SOL    HW222623   2.682   0.187   0.664
 7242SOL     OW22624   6.860   5.307   6.359
 7242SOL    HW122625   6.839   5.380   6.294
 7242SOL    HW222626   6.806   5.319   6.442
 7243SOL     OW22627   6.638   4.567   5.818
 7243SOL    HW122628   6.640   4.467   5.829
 7243SOL    HW222629   6.673   4.610   5.901
 7244SOL     OW22630   0.518   0.363   1.171
 7244SOL    HW122631   0.472   0.442   1.131
 7244SOL    HW222632   0.456   0.285   1.170
 7245SOL     OW22633   0.870   3.135   5.801
 7245SOL    HW122634   0.893   3.068   5.730
 7245SOL    HW222635   0.946   3.198   5.813
 7246SOL     OW22636   1.775   0.170   3.522
 7246SOL    HW122637   1.841   0.236   3.487
 7246SOL    HW222638   1.777   0.088   3.466
 7247SOL     OW22639   2.646   1.617   5.464
 7247SOL    HW122640   2.645   1.708   5.422
 7247SOL    HW222641   2.640   1.547   5.393
 7248SOL     OW22642   3.153   0.813   2.818
 7248SOL    HW122643   3.180   0.908   2.833
 7248SOL    HW222644   3.235   0.757   2.803
 7249SOL     OW22645   5.067   4.877   1.716
 7249SOL    HW122646   5.121   4.846   1.795
 7249SOL    HW222647   5.007   4.952   1.744
 7250SOL     OW22648   5.302   5.717   5.812
 7250SOL    HW122649   5.303   5.623   5.845
 7250SOL    HW222650   5.359   5.774   5.871
 7251SOL     OW22651   1.030   0.002   4.694
 7251SOL    HW122652   1.005   6.951   4.757
 7251SOL    HW222653   1.093   6.990   4.625
 7252SOL     OW22654   3.058   3.509   1.818
 7252SOL    HW122655   3.080   3.526   1.721
 7252SOL    HW222656   3.068   3.594   1.869
 7253SOL     OW22657   1.717   5.714   6.745
 7253SOL    HW122658   1.729   5.672   6.835
 7253SOL    HW222659   1.636   5.675   6.700
 7254SOL     OW22660   5.745   5.131   4.563
 7254SOL    HW122661   5.807   5.064   4.603
 7254SOL    HW222662   5.658   5.131   4.614
 7255SOL     OW22663   4.605   3.610   0.068
 7255SOL    HW122664   4.525   3.557   0.038
 7255SOL    HW222665   4.582   3.660   0.152
 7256SOL     OW22666   3.309   5.864   5.206
 7256SOL    HW122667   3.318   5.952   5.159
 7256SOL    HW222668   3.240   5.873   5.278
 7257SOL     OW22669   0.173   2.118   3.441
 7257SOL    HW122670   0.095   2.056   3.452
 7257SOL    HW222671   0.184   2.143   3.345
 7258SOL     OW22672   4.717   2.211   2.751
 7258SOL    HW122673   4.762   2.135   2.799
 7258SOL    HW222674   4.705   2.287   2.815
 7259SOL     OW22675   1.721   3.473   2.000
 7259SOL    HW122676   1.733   3.395   2.061
 7259SOL    HW222677   1.797   3.538   2.012
 7260SOL     OW22678   5.982   1.647   2.013
 7260SOL    HW122679   5.906   1.591   2.045
 7260SOL    HW222680   5.980   1.653   1.914
 7261SOL     OW22681   1.249   4.696   1.597
 7261SOL    HW122682   1.226   4.792   1.616
 7261SOL    HW222683   1.179   4.656   1.539
 7262SOL     OW22684   5.557   2.107   6.369
 7262SOL    HW122685   5.481   2.076   6.311
 7262SOL    HW222686   5.619   2.030   6.385
 7263SOL     OW22687   0.439   6.574   6.699
 7263SOL    HW122688   0.411   6.662   6.737
 7263SOL    HW222689   0.384   6.552   6.619
 7264SOL     OW22690   5.333   1.510   0.718
 7264SOL    HW122691   5.281   1.447   0.776
 7264SOL    HW222692   5.328   1.603   0.756
 7265SOL     OW22693   5.459   4.718   6.284
 7265SOL    HW122694   5.387   4.704   6.216
 7265SOL    HW222695   5.541   4.754   6.240
 7266SOL     OW22696   5.456   1.040   2.903
 7266SOL    HW122697   5.431   0.946   2.929
 7266SOL    HW222698   5.552   1.056   2.924
 7267SOL     OW22699   6.461   6.241   5.286
 7267SOL    HW122700   6.494   6.333   5.262
 7267SOL    HW222701   6.446   6.188   5.202
 7268SOL     OW22702   6.791   5.673   4.575
 7268SOL    HW122703   6.692   5.683   4.588
 7268SOL    HW222704   6.831   5.633   4.657
 7269SOL     OW22705   1.759   6.321   6.051
 7269SOL    HW122706   1.808   6.236   6.069
 7269SOL    HW222707   1.805   6.371   5.978
 7270SOL     OW22708   0.797   2.909   5.354
 7270SOL    HW122709   0.815   2.910   5.255
 7270SOL    HW222710   0.712   2.960   5.372
 7271SOL     OW22711   1.533   5.164   4.074
 7271SOL    HW122712   1.588   5.185   3.994
 7271SOL    HW222713   1.530   5.243   4.135
 7272SOL     OW22714   6.128   5.721   2.651
 7272SOL    HW122715   6.177   5.686   2.571
 7272SOL    HW222716   6.105   5.646   2.712
 7273SOL     OW22717   6.528   4.010   0.818
 7273SOL    HW122718   6.463   3.993   0.744
 7273SOL    HW222719   6.599   3.939   0.818
 7274SOL     OW22720   0.392   5.268   6.564
 7274SOL    HW122721   0.411   5.329   6.487
 7274SOL    HW222722   0.399   5.319   6.649
 7275SOL     OW22723   0.138   5.116   3.132
 7275SOL    HW122724   0.045   5.109   3.169
 7275SOL    HW222725   0.134   5.149   3.038
 7276SOL     OW22726   4.664   0.952   3.445
 7276SOL    HW122727   4.680   1.048   3.468
 7276SOL    HW222728   4.573   0.924   3.476
 7277SOL     OW22729   4.710   0.512   4.440
 7277SOL    HW122730   4.810   0.521   4.440
 7277SOL    HW222731   4.678   0.504   4.345
 7278SOL     OW22732   4.025   2.745   0.951
 7278SOL    HW122733   4.120   2.719   0.968
 7278SOL    HW222734   3.997   2.713   0.860
 7279SOL     OW22735   4.008   4.924   6.638
 7279SOL    HW122736   4.076   4.916   6.710
 7279SOL    HW222737   3.934   4.859   6.654
 7280SOL     OW22738   0.220   1.697   3.992
 7280SOL    HW122739   0.271   1.617   3.963
 7280SOL    HW222740   0.267   1.780   3.960
 7281SOL     OW22741   2.679   1.824   6.775
 7281SOL    HW122742   2.669   1.740   6.721
 7281SOL    HW222743   2.621   1.818   6.856
 7282SOL     OW22744   5.495   5.232   3.153
 7282SOL    HW122745   5.524   5.327   3.169
 7282SOL    HW222746   5.450   5.225   3.065
 7283SOL     OW22747   3.961   1.459   2.728
 7283SOL    HW122748   4.037   1.523   2.716
 7283SOL    HW222749   3.978   1.403   2.809
 7284SOL     OW22750   0.427   2.785   6.260
 7284SOL    HW122751   0.480   2.858   6.217
 7284SOL    HW222752   0.425   2.799   6.359
 7285SOL     OW22753   5.153   3.096   2.319
 7285SOL    HW122754   5.183   3.122   2.227
 7285SOL    HW222755   5.053   3.099   2.324
 7286SOL     OW22756   2.946   0.787   0.311
 7286SOL    HW122757   2.979   0.880   0.297
 7286SOL    HW222758   2.952   0.736   0.224
 7287SOL     OW22759   0.016   2.509   6.148
 7287SOL    HW122760   6.944   2.534   6.131
 7287SOL    HW222761   0.040   2.432   6.090
 7288SOL     OW22762   2.842   0.699   0.535
 7288SOL    HW122763   2.847   0.774   0.601
 7288SOL    HW222764   2.868   0.733   0.445
 7289SOL     OW22765   4.828   2.937   4.791
 7289SOL    HW122766   4.830   2.839   4.811
 7289SOL    HW222767   4.874   2.954   4.704
 7290SOL     OW22768   3.934   0.194   5.473
 7290SOL    HW122769   3.914   0.098   5.491
 7290SOL    HW222770   3.848   0.245   5.465
 7291SOL     OW22771   2.189   6.861   0.634
 7291SOL    HW122772   2.108   6.915   0.656
 7291SOL    HW222773   2.162   6.774   0.592
 7292SOL     OW22774   3.984   0.830   3.287
 7292SOL    HW122775   3.925   0.897   3.244
 7292SOL    HW222776   3.931   0.747   3.307
 7293SOL     OW22777   1.245   2.036   4.707
 7293SOL    HW122778   1.264   1.938   4.717
 7293SOL    HW222779   1.246   2.079   4.798
 7294SOL     OW22780   2.777   4.865   7.018
 7294SOL    HW122781   2.850   4.797   7.009
 7294SOL    HW222782   2.800   4.930   0.068
 7295SOL     OW22783   0.733   2.542   0.868
 7295SOL    HW122784   0.738   2.553   0.769
 7295SOL    HW222785   0.643   2.571   0.900
 7296SOL     OW22786   3.156   5.324   1.966
 7296SOL    HW122787   3.079   5.381   1.992
 7296SOL    HW222788   3.220   5.316   2.042
 7297SOL     OW22789   3.914   6.788   1.728
 7297SOL    HW122790   3.953   6.696   1.718
 7297SOL    HW222791   3.913   6.834   1.639
 7298SOL     OW22792   5.176   4.475   5.412
 7298SOL    HW122793   5.256   4.477   5.472
 7298SOL    HW222794   5.095   4.498   5.465
 7299SOL     OW22795   0.957   1.732   0.606
 7299SOL    HW122796   0.981   1.779   0.521
 7299SOL    HW222797   1.039   1.693   0.647
 7300SOL     OW22798   6.972   5.715   3.455
 7300SOL    HW122799   7.003   5.776   3.528
 7300SOL    HW222800   6.874   5.699   3.465
 7301SOL     OW22801   5.607   0.636   4.771
 7301SOL    HW122802   5.524   0.663   4.821
 7301SOL    HW222803   5.606   0.679   4.681
 7302SOL     OW22804   1.059   1.818   5.368
 7302SOL    HW122805   0.987   1.875   5.329
 7302SOL    HW222806   1.144   1.871   5.372
 7303SOL     OW22807   3.685   0.555   0.409
 7303SOL    HW122808   3.757   0.507   0.359
 7303SOL    HW222809   3.600   0.502   0.406
 7304SOL     OW22810   3.986   4.788   1.082
 7304SOL    HW122811   4.013   4.713   1.143
 7304SOL    HW222812   3.932   4.751   1.006
 7305SOL     OW22813   4.622   0.879   0.283
 7305SOL    HW122814   4.614   0.853   0.187
 7305SOL    HW222815   4.623   0.979   0.290
 7306SOL     OW22816   4.961   2.060   1.087
 7306SOL    HW122817   4.961   2.155   1.118
 7306SOL    HW222818   4.897   2.051   1.011
 7307SOL     OW22819   2.277   6.738   2.136
 7307SOL    HW122820   2.321   6.649   2.149
 7307SOL    HW222821   2.327   6.807   2.188
 7308SOL     OW22822   6.918   2.878   5.800
 7308SOL    HW122823   6.916   2.875   5.900
 7308SOL    HW222824   6.886   2.791   5.763
 7309SOL     OW22825   4.617   5.617   1.474
 7309SOL    HW122826   4.571   5.540   1.429
 7309SOL    HW222827   4.710   5.625   1.437
 7310SOL     OW22828   2.278   3.974   1.368
 7310SOL    HW122829   2.295   4.035   1.445
 7310SOL    HW222830   2.274   4.028   1.283
 7311SOL     OW22831   2.692   2.059   1.537
 7311SOL    HW122832   2.601   2.053   1.496
 7311SOL    HW222833   2.758   2.089   1.468
 7312SOL     OW22834   0.401   3.449   4.487
 7312SOL    HW122835   0.452   3.440   4.572
 7312SOL    HW222836   0.397   3.546   4.461
 7313SOL     OW22837   2.477   1.158   6.633
 7313SOL    HW122838   2.404   1.224   6.646
 7313SOL    HW222839   2.549   1.198   6.577
 7314SOL     OW22840   6.773   5.694   6.376
 7314SOL    HW122841   6.693   5.638   6.353
 7314SOL    HW222842   6.831   5.704   6.295
 7315SOL     OW22843   6.504   0.155   2.291
 7315SOL    HW122844   6.521   0.233   2.230
 7315SOL    HW222845   6.449   0.087   2.243
 7316SOL     OW22846   2.805   3.980   6.244
 7316SOL    HW122847   2.770   3.899   6.196
 7316SOL    HW222848   2.798   4.060   6.184
 7317SOL     OW22849   5.217   1.899   2.956
 7317SOL    HW122850   5.296   1.839   2.949
 7317SOL    HW222851   5.179   1.914   2.865
 7318SOL     OW22852   1.794   0.855   1.409
 7318SOL    HW122853   1.718   0.918   1.428
 7318SOL    HW222854   1.866   0.904   1.359
 7319SOL     OW22855   0.089   4.217   6.449
 7319SOL    HW122856   0.078   4.311   6.416
 7319SOL    HW222857   0.029   4.202   6.527
 7320SOL     OW22858   6.479   3.758   2.408
 7320SOL    HW122859   6.411   3.826   2.437
 7320SOL    HW222860   6.491   3.691   2.481
 7321SOL     OW22861   2.439   0.707   5.834
 7321SOL    HW122862   2.433   0.754   5.923
 7321SOL    HW222863   2.528   0.724   5.792
 7322SOL     OW22864   6.843   2.918   3.041
 7322SOL    HW122865   6.852   2.856   2.963
 7322SOL    HW222866   6.859   2.868   3.126
 7323SOL     OW22867   1.742   1.923   2.096
 7323SOL    HW122868   1.745   1.856   2.022
 7323SOL    HW222869   1.749   2.016   2.058
 7324SOL     OW22870   4.612   6.270   2.172
 7324SOL    HW122871   4.595   6.211   2.251
 7324SOL    HW222872   4.598   6.366   2.198
 7325SOL     OW22873   3.292   6.969   0.471
 7325SOL    HW122874   3.292   6.931   0.563
 7325SOL    HW222875   3.275   6.896   0.405
 7326SOL     OW22876   3.106   5.884   5.401
 7326SOL    HW122877   3.025   5.938   5.379
 7326SOL    HW222878   3.078   5.800   5.449
 7327SOL     OW22879   6.120   1.574   6.242
 7327SOL    HW122880   6.101   1.482   6.208
 7327SOL    HW222881   6.188   1.570   6.314
 7328SOL     OW22882   3.644   0.921   6.529
 7328SOL    HW122883   3.612   0.865   6.606
 7328SOL    HW222884   3.570   0.931   6.463
 7329SOL     OW22885   6.023   3.701   1.608
 7329SOL    HW122886   5.957   3.740   1.672
 7329SOL    HW222887   6.040   3.766   1.534
 7330SOL     OW22888   2.386   2.228   6.930
 7330SOL    HW122889   2.293   2.249   6.898
 7330SOL    HW222890   2.390   2.135   6.965
 7331SOL     OW22891   5.196   6.993   1.740
 7331SOL    HW122892   5.274   0.031   1.731
 7331SOL    HW222893   5.224   6.900   1.713
 7332SOL     OW22894   2.136   6.002   0.205
 7332SOL    HW122895   2.167   6.095   0.185
 7332SOL    HW222896   2.195   5.961   0.274
 7333SOL     OW22897   0.624   2.691   2.148
 7333SOL    HW122898   0.591   2.772   2.100
 7333SOL    HW222899   0.606   2.701   2.246
 7334SOL     OW22900   2.802   5.519   5.875
 7334SOL    HW122901   2.877   5.498   5.813
 7334SOL    HW222902   2.801   5.454   5.950
 7335SOL     OW22903   1.987   2.442   2.855
 7335SOL    HW122904   1.900   2.464   2.810
 7335SOL    HW222905   2.056   2.424   2.785
 7336SOL     OW22906   1.683   6.856   2.886
 7336SOL    HW122907   1.741   6.838   2.807
 7336SOL    HW222908   1.634   6.773   2.912
 7337SOL     OW22909   0.009   3.471   2.022
 7337SOL    HW122910   6.983   3.454   1.936
 7337SOL    HW222911   0.057   3.559   2.016
 7338SOL     OW22912   6.413   1.988   1.791
 7338SOL    HW122913   6.481   2.060   1.806
 7338SOL    HW222914   6.440   1.932   1.713
 7339SOL     OW22915   6.078   6.815   4.171
 7339SOL    HW122916   6.077   6.865   4.257
 7339SOL    HW222917   5.985   6.803   4.138
 7340SOL     OW22918   2.764   1.288   1.042
 7340SOL    HW122919   2.688   1.328   0.991
 7340SOL    HW222920   2.729   1.241   1.123
 7341SOL     OW22921   0.131   3.343   6.830
 7341SOL    HW122922   0.124   3.249   6.863
 7341SOL    HW222923   0.168   3.401   6.902
 7342SOL     OW22924   0.346   1.715   1.269
 7342SOL    HW122925   0.327   1.809   1.240
 7342SOL    HW222926   0.391   1.717   1.358
 7343SOL     OW22927   6.157   3.929   0.517
 7343SOL    HW122928   6.104   3.978   0.448
 7343SOL    HW222929   6.147   3.831   0.504
 7344SOL     OW22930   0.701   1.217   6.641
 7344SOL    HW122931   0.634   1.178   6.578
 7344SOL    HW222932   0.752   1.143   6.685
 7345SOL     OW22933   4.447   4.481   5.847
 7345SOL    HW122934   4.398   4.538   5.914
 7345SOL    HW222935   4.535   4.523   5.826
 7346SOL     OW22936   4.248   5.762   2.101
 7346SOL    HW122937   4.340   5.754   2.064
 7346SOL    HW222938   4.195   5.825   2.044
 7347SOL     OW22939   1.204   1.643   0.688
 7347SOL    HW122940   1.155   1.560   0.716
 7347SOL    HW222941   1.296   1.641   0.726
 7348SOL     OW22942   1.445   4.152   3.990
 7348SOL    HW122943   1.534   4.122   4.024
 7348SOL    HW222944   1.383   4.166   4.067
 7349SOL     OW22945   4.732   1.218   1.215
 7349SOL    HW122946   4.733   1.124   1.179
 7349SOL    HW222947   4.818   1.237   1.261
 7350SOL     OW22948   2.725   2.291   5.597
 7350SOL    HW122949   2.653   2.339   5.646
 7350SOL    HW222950   2.814   2.331   5.621
 7351SOL     OW22951   5.434   5.710   4.580
 7351SOL    HW122952   5.353   5.737   4.528
 7351SOL    HW222953   5.412   5.635   4.642
 7352SOL     OW22954   1.851   1.552   3.128
 7352SOL    HW122955   1.857   1.584   3.033
 7352SOL    HW222956   1.920   1.480   3.143
 7353SOL     OW22957   0.214   0.472   5.966
 7353SOL    HW122958   0.282   0.399   5.973
 7353SOL    HW222959   0.131   0.446   6.015
 7354SOL     OW22960   1.039   1.836   4.291
 7354SOL    HW122961   1.123   1.817   4.239
 7354SOL    HW222962   1.060   1.902   4.364
 7355SOL     OW22963   1.438   0.636   0.931
 7355SOL    HW122964   1.397   0.551   0.899
 7355SOL    HW222965   1.399   0.660   1.020
 7356SOL     OW22966   3.839   3.623   6.448
 7356SOL    HW122967   3.929   3.601   6.410
 7356SOL    HW222968   3.782   3.663   6.377
 7357SOL     OW22969   3.146   6.437   1.710
 7357SOL    HW122970   3.089   6.421   1.629
 7357SOL    HW222971   3.164   6.350   1.756
 7358SOL     OW22972   6.516   3.401   2.244
 7358SOL    HW122973   6.430   3.377   2.289
 7358SOL    HW222974   6.573   3.454   2.308
 7359SOL     OW22975   4.310   1.956   5.633
 7359SOL    HW122976   4.291   2.015   5.711
 7359SOL    HW222977   4.363   2.007   5.565
 7360SOL     OW22978   2.957   3.424   5.382
 7360SOL    HW122979   2.972   3.417   5.480
 7360SOL    HW222980   2.941   3.333   5.344
 7361SOL     OW22981   5.050   0.600   2.401
 7361SOL    HW122982   5.123   0.646   2.350
 7361SOL    HW222983   4.973   0.582   2.340
 7362SOL     OW22984   1.449   6.001   6.417
 7362SOL    HW122985   1.396   5.984   6.334
 7362SOL    HW222986   1.541   5.964   6.407
 7363SOL     OW22987   4.249   1.819   0.937
 7363SOL    HW122988   4.298   1.906   0.945
 7363SOL    HW222989   4.151   1.837   0.925
 7364SOL     OW22990   4.468   0.733   1.893
 7364SOL    HW122991   4.398   0.661   1.893
 7364SOL    HW222992   4.469   0.779   1.804
 7365SOL     OW22993   0.212   6.311   1.825
 7365SOL    HW122994   0.130   6.301   1.882
 7365SOL    HW222995   0.293   6.305   1.883
 7366SOL     OW22996   2.178   6.699   6.018
 7366SOL    HW122997   2.256   6.678   5.958
 7366SOL    HW222998   2.207   6.763   6.089
 7367SOL     OW22999   4.780   2.620   1.027
 7367SOL    HW123000   4.779   2.520   1.014
 7367SOL    HW223001   4.699   2.647   1.079
 7368SOL     OW23002   3.768   2.988   2.746
 7368SOL    HW123003   3.755   2.926   2.669
 7368SOL    HW223004   3.774   3.082   2.713
 7369SOL     OW23005   2.866   2.328   1.214
 7369SOL    HW123006   2.840   2.260   1.283
 7369SOL    HW223007   2.955   2.367   1.238
 7370SOL     OW23008   2.172   1.499   5.234
 7370SOL    HW123009   2.156   1.515   5.137
 7370SOL    HW223010   2.098   1.541   5.287
 7371SOL     OW23011   2.499   6.667   3.359
 7371SOL    HW123012   2.481   6.595   3.293
 7371SOL    HW223013   2.522   6.752   3.312
 7372SOL     OW23014   4.154   0.245   4.403
 7372SOL    HW123015   4.133   0.174   4.336
 7372SOL    HW223016   4.203   0.205   4.480
 7373SOL     OW23017   6.130   1.693   4.567
 7373SOL    HW123018   6.161   1.602   4.539
 7373SOL    HW223019   6.061   1.684   4.639
 7374SOL     OW23020   2.760   2.118   5.095
 7374SOL    HW123021   2.818   2.171   5.157
 7374SOL    HW223022   2.807   2.104   5.008
 7375SOL     OW23023   2.158   2.550   2.344
 7375SOL    HW123024   2.102   2.585   2.419
 7375SOL    HW223025   2.152   2.611   2.265
 7376SOL     OW23026   1.721   1.575   1.068
 7376SOL    HW123027   1.663   1.610   1.142
 7376SOL    HW223028   1.706   1.477   1.057
 7377SOL     OW23029   5.159   4.779   0.557
 7377SOL    HW123030   5.140   4.798   0.654
 7377SOL    HW223031   5.239   4.831   0.528
 7378SOL     OW23032   0.741   0.477   5.213
 7378SOL    HW123033   0.680   0.535   5.159
 7378SOL    HW223034   0.686   0.412   5.266
 7379SOL     OW23035   3.493   1.456   2.259
 7379SOL    HW123036   3.509   1.488   2.353
 7379SOL    HW223037   3.429   1.517   2.214
 7380SOL     OW23038   0.656   4.582   3.892
 7380SOL    HW123039   0.612   4.554   3.807
 7380SOL    HW223040   0.753   4.561   3.888
 7381SOL     OW23041   4.168   3.024   0.624
 7381SOL    HW123042   4.166   3.072   0.537
 7381SOL    HW223043   4.117   2.938   0.617
 7382SOL     OW23044   0.176   1.088   4.866
 7382SOL    HW123045   0.119   1.006   4.860
 7382SOL    HW223046   0.189   1.126   4.774
 7383SOL     OW23047   2.833   6.403   1.119
 7383SOL    HW123048   2.909   6.453   1.075
 7383SOL    HW223049   2.862   6.373   1.210
 7384SOL     OW23050   0.103   6.534   3.040
 7384SOL    HW123051   0.003   6.530   3.035
 7384SOL    HW223052   0.140   6.540   2.947
 7385SOL     OW23053   3.001   5.331   2.464
 7385SOL    HW123054   3.068   5.400   2.493
 7385SOL    HW223055   2.948   5.300   2.544
 7386SOL     OW23056   7.011   2.663   6.870
 7386SOL    HW123057   7.007   2.568   6.902
 7386SOL    HW223058   6.925   2.709   6.893
 7387SOL     OW23059   6.488   5.231   5.698
 7387SOL    HW123060   6.559   5.299   5.717
 7387SOL    HW223061   6.520   5.141   5.727
 7388SOL     OW23062   1.002   5.105   2.235
 7388SOL    HW123063   1.099   5.088   2.219
 7388SOL    HW223064   0.950   5.082   2.153
 7389SOL     OW23065   6.306   4.148   6.035
 7389SOL    HW123066   6.346   4.239   6.034
 7389SOL    HW223067   6.241   4.140   6.110
 7390SOL     OW23068   2.025   2.145   2.072
 7390SOL    HW123069   2.066   2.201   2.144
 7390SOL    HW223070   1.927   2.161   2.070
 7391SOL     OW23071   4.024   3.321   3.505
 7391SOL    HW123072   4.077   3.359   3.581
 7391SOL    HW223073   3.973   3.395   3.461
 7392SOL     OW23074   3.229   6.008   6.757
 7392SOL    HW123075   3.288   6.084   6.783
 7392SOL    HW223076   3.150   6.042   6.706
 7393SOL     OW23077   6.110   4.830   3.176
 7393SOL    HW123078   6.078   4.736   3.181
 7393SOL    HW223079   6.209   4.831   3.160
 7394SOL     OW23080   1.603   2.992   5.739
 7394SOL    HW123081   1.540   2.915   5.738
 7394SOL    HW223082   1.640   3.007   5.647
 7395SOL     OW23083   2.070   3.725   1.217
 7395SOL    HW123084   2.045   3.773   1.301
 7395SOL    HW223085   2.155   3.673   1.232
 7396SOL     OW23086   2.145   6.838   1.085
 7396SOL    HW123087   2.178   6.927   1.055
 7396SOL    HW223088   2.061   6.850   1.138
 7397SOL     OW23089   4.669   5.758   4.712
 7397SOL    HW123090   4.730   5.801   4.778
 7397SOL    HW223091   4.618   5.684   4.756
 7398SOL     OW23092   1.326   5.053   3.243
 7398SOL    HW123093   1.357   4.974   3.297
 7398SOL    HW223094   1.271   5.113   3.299
 7399SOL     OW23095   0.523   2.386   4.551
 7399SOL    HW123096   0.501   2.304   4.499
 7399SOL    HW223097   0.605   2.370   4.606
 7400SOL     OW23098   4.109   2.869   5.872
 7400SOL    HW123099   4.078   2.836   5.783
 7400SOL    HW223100   4.112   2.969   5.872
 7401SOL     OW23101   1.042   2.926   3.384
 7401SOL    HW123102   1.053   2.886   3.475
 7401SOL    HW223103   0.945   2.929   3.360
 7402SOL     OW23104   3.269   4.287   5.979
 7402SOL    HW123105   3.195   4.241   5.932
 7402SOL    HW223106   3.276   4.252   6.073
 7403SOL     OW23107   1.412   4.392   2.517
 7403SOL    HW123108   1.333   4.431   2.470
 7403SOL    HW223109   1.391   4.298   2.545
 7404SOL     OW23110   2.798   4.847   1.852
 7404SOL    HW123111   2.800   4.755   1.891
 7404SOL    HW223112   2.880   4.897   1.880
 7405SOL     OW23113   3.990   4.950   4.095
 7405SOL    HW123114   3.941   4.957   4.182
 7405SOL    HW223115   3.924   4.941   4.020
 7406SOL     OW23116   0.698   1.971   4.394
 7406SOL    HW123117   0.605   2.008   4.400
 7406SOL    HW223118   0.744   1.981   4.482
 7407SOL     OW23119   0.931   6.998   5.014
 7407SOL    HW123120   1.005   6.934   5.033
 7407SOL    HW223121   0.843   6.951   5.022
 7408SOL     OW23122   3.784   3.978   5.894
 7408SOL    HW123123   3.815   3.883   5.885
 7408SOL    HW223124   3.706   3.993   5.833
 7409SOL     OW23125   5.498   3.235   6.739
 7409SOL    HW123126   5.567   3.190   6.795
 7409SOL    HW223127   5.486   3.330   6.769
 7410SOL     OW23128   0.732   0.793   6.802
 7410SOL    HW123129   0.771   0.701   6.800
 7410SOL    HW223130   0.716   0.824   6.709
 7411SOL     OW23131   2.498   1.114   0.118
 7411SOL    HW123132   2.455   1.200   0.146
 7411SOL    HW223133   2.503   1.052   0.197
 7412SOL     OW23134   4.263   0.074   1.438
 7412SOL    HW123135   4.257   0.012   1.360
 7412SOL    HW223136   4.220   0.031   1.518
 7413SOL     OW23137   4.456   5.089   3.949
 7413SOL    HW123138   4.505   5.157   3.893
 7413SOL    HW223139   4.371   5.064   3.904
 7414SOL     OW23140   1.961   0.895   3.523
 7414SOL    HW123141   1.995   0.900   3.617
 7414SOL    HW223142   1.972   0.985   3.480
 7415SOL     OW23143   1.908   4.236   4.823
 7415SOL    HW123144   1.956   4.149   4.815
 7415SOL    HW223145   1.975   4.310   4.834
 7416SOL     OW23146   2.423   0.306   2.035
 7416SOL    HW123147   2.395   0.395   2.071
 7416SOL    HW223148   2.484   0.319   1.957
 7417SOL     OW23149   2.024   2.218   1.690
 7417SOL    HW123150   2.021   2.313   1.659
 7417SOL    HW223151   2.090   2.209   1.764
 7418SOL     OW23152   1.523   5.391   6.914
 7418SOL    HW123153   1.517   5.330   6.835
 7418SOL    HW223154   1.484   5.480   6.890
 7419SOL     OW23155   6.729   4.056   4.078
 7419SOL    HW123156   6.824   4.048   4.109
 7419SOL    HW223157   6.705   3.978   4.021
 7420SOL     OW23158   0.265   6.626   1.128
 7420SOL    HW123159   0.173   6.595   1.104
 7420SOL    HW223160   0.259   6.696   1.199
 7421SOL     OW23161   4.048   3.453   1.138
 7421SOL    HW123162   4.059   3.517   1.213
 7421SOL    HW223163   4.079   3.362   1.166
 7422SOL     OW23164   0.324   4.495   2.127
 7422SOL    HW123165   0.359   4.453   2.044
 7422SOL    HW223166   0.226   4.513   2.118
 7423SOL     OW23167   6.416   2.220   5.465
 7423SOL    HW123168   6.512   2.220   5.493
 7423SOL    HW223169   6.357   2.232   5.546
 7424SOL     OW23170   6.996   1.484   6.030
 7424SOL    HW123171   6.997   1.384   6.026
 7424SOL    HW223172   6.902   1.516   6.032
 7425SOL     OW23173   4.962   0.002   0.502
 7425SOL    HW123174   4.944   0.085   0.556
 7425SOL    HW223175   5.057   6.996   0.517
 7426SOL     OW23176   2.942   1.780   5.165
 7426SOL    HW123177   2.958   1.878   5.161
 7426SOL    HW223178   2.860   1.757   5.112
 7427SOL     OW23179   4.804   0.913   4.131
 7427SOL    HW123180   4.733   0.926   4.200
 7427SOL    HW223181   4.818   0.816   4.115
 7428SOL     OW23182   3.989   0.522   5.079
 7428SOL    HW123183   3.914   0.535   5.144
 7428SOL    HW223184   4.026   0.611   5.053
 7429SOL     OW23185   0.497   6.120   3.691
 7429SOL    HW123186   0.567   6.101   3.623
 7429SOL    HW223187   0.540   6.146   3.777
 7430SOL     OW23188   0.305   3.749   1.448
 7430SOL    HW123189   0.372   3.680   1.478
 7430SOL    HW223190   0.332   3.785   1.359
 7431SOL     OW23191   1.160   2.269   2.802
 7431SOL    HW123192   1.179   2.295   2.708
 7431SOL    HW223193   1.175   2.171   2.814
 7432SOL     OW23194   2.034   0.504   3.255
 7432SOL    HW123195   2.091   0.576   3.216
 7432SOL    HW223196   1.985   0.539   3.335
 7433SOL     OW23197   3.917   6.108   6.489
 7433SOL    HW123198   3.891   6.023   6.443
 7433SOL    HW223199   3.854   6.181   6.464
 7434SOL     OW23200   4.838   5.376   5.607
 7434SOL    HW123201   4.841   5.457   5.549
 7434SOL    HW223202   4.896   5.390   5.687
 7435SOL     OW23203   4.842   6.300   1.009
 7435SOL    HW123204   4.820   6.205   0.987
 7435SOL    HW223205   4.809   6.322   1.101
 7436SOL     OW23206   4.682   4.184   6.187
 7436SOL    HW123207   4.740   4.255   6.147
 7436SOL    HW223208   4.739   4.114   6.229
 7437SOL     OW23209   2.933   5.979   0.369
 7437SOL    HW123210   2.977   5.977   0.279
 7437SOL    HW223211   2.845   6.027   0.361
 7438SOL     OW23212   0.663   6.830   7.012
 7438SOL    HW123213   0.582   6.772   7.016
 7438SOL    HW223214   0.690   6.855   0.082
 7439SOL     OW23215   1.731   6.658   6.292
 7439SOL    HW123216   1.810   6.605   6.262
 7439SOL    HW223217   1.716   6.735   6.229
 7440SOL     OW23218   6.774   2.719   3.985
 7440SOL    HW123219   6.786   2.808   3.943
 7440SOL    HW223220   6.780   2.728   4.085
 7441SOL     OW23221   5.798   0.306   4.851
 7441SOL    HW123222   5.838   0.385   4.898
 7441SOL    HW223223   5.847   0.290   4.766
 7442SOL     OW23224   6.092   1.540   0.033
 7442SOL    HW123225   6.074   1.542   0.131
 7442SOL    HW223226   6.177   1.590   0.013
 7443SOL     OW23227   6.010   5.827   1.615
 7443SOL    HW123228   6.090   5.880   1.589
 7443SOL    HW223229   5.963   5.871   1.692
 7444SOL     OW23230   5.407   1.796   0.237
 7444SOL    HW123231   5.456   1.711   0.255
 7444SOL    HW223232   5.394   1.846   0.323
 7445SOL     OW23233   3.226   0.744   1.225
 7445SOL    HW123234   3.173   0.818   1.185
 7445SOL    HW223235   3.301   0.720   1.164
 7446SOL     OW23236   5.489   2.393   6.908
 7446SOL    HW123237   5.532   2.413   6.996
 7446SOL    HW223238   5.396   2.358   6.923
 7447SOL     OW23239   6.436   4.931   0.348
 7447SOL    HW123240   6.375   4.998   0.307
 7447SOL    HW223241   6.498   4.895   0.278
 7448SOL     OW23242   6.188   6.629   4.763
 7448SOL    HW123243   6.267   6.599   4.710
 7448SOL    HW223244   6.196   6.596   4.857
 7449SOL     OW23245   0.514   5.296   0.896
 7449SOL    HW123246   0.567   5.282   0.812
 7449SOL    HW223247   0.491   5.393   0.904
 7450SOL     OW23248   5.533   2.471   4.761
 7450SOL    HW123249   5.452   2.529   4.754
 7450SOL    HW223250   5.613   2.528   4.781
 7451SOL     OW23251   6.306   6.366   2.499
 7451SOL    HW123252   6.393   6.374   2.549
 7451SOL    HW223253   6.252   6.292   2.539
 7452SOL     OW23254   5.723   5.854   3.868
 7452SOL    HW123255   5.692   5.916   3.940
 7452SOL    HW223256   5.732   5.761   3.905
 7453SOL     OW23257   4.946   5.411   4.677
 7453SOL    HW123258   5.006   5.345   4.722
 7453SOL    HW223259   4.904   5.369   4.596
 7454SOL     OW23260   2.180   2.344   1.347
 7454SOL    HW123261   2.210   2.248   1.352
 7454SOL    HW223262   2.084   2.347   1.317
 7455SOL     OW23263   6.741   2.717   2.077
 7455SOL    HW123264   6.834   2.708   2.112
 7455SOL    HW223265   6.703   2.806   2.105
 7456SOL     OW23266   1.759   1.036   4.746
 7456SOL    HW123267   1.779   1.039   4.844
 7456SOL    HW223268   1.759   0.941   4.715
 7457SOL     OW23269   3.133   0.401   4.828
 7457SOL    HW123270   3.131   0.470   4.754
 7457SOL    HW223271   3.040   0.381   4.857
 7458SOL     OW23272   2.085   0.419   5.890
 7458SOL    HW123273   2.157   0.428   5.822
 7458SOL    HW223274   2.115   0.357   5.963
 7459SOL     OW23275   5.777   1.222   2.472
 7459SOL    HW123276   5.862   1.187   2.431
 7459SOL    HW223277   5.702   1.160   2.449
 7460SOL     OW23278   0.669   5.720   0.214
 7460SOL    HW123279   0.733   5.740   0.289
 7460SOL    HW223280   0.649   5.804   0.164
 7461SOL     OW23281   6.010   6.956   6.537
 7461SOL    HW123282   6.032   6.875   6.484
 7461SOL    HW223283   6.083   6.975   6.603
 7462SOL     OW23284   1.706   4.680   2.361
 7462SOL    HW123285   1.642   4.737   2.309
 7462SOL    HW223286   1.658   4.601   2.397
 7463SOL     OW23287   3.108   4.247   6.947
 7463SOL    HW123288   3.091   4.341   6.974
 7463SOL    HW223289   3.022   4.203   6.921
 7464SOL     OW23290   5.628   0.006   5.598
 7464SOL    HW123291   5.695   7.022   5.524
 7464SOL    HW223292   5.661   6.978   5.678
 7465SOL     OW23293   2.453   5.053   6.855
 7465SOL    HW123294   2.431   5.081   6.761
 7465SOL    HW223295   2.510   5.124   6.898
 7466SOL     OW23296   6.764   0.646   5.443
 7466SOL    HW123297   6.790   0.581   5.514
 7466SOL    HW223298   6.838   0.656   5.377
 7467SOL     OW23299   0.492   2.353   5.901
 7467SOL    HW123300   0.406   2.308   5.927
 7467SOL    HW223301   0.551   2.361   5.982
 7468SOL     OW23302   5.485   3.066   3.959
 7468SOL    HW123303   5.395   3.092   3.995
 7468SOL    HW223304   5.533   3.011   4.027
 7469SOL     OW23305   0.099   0.948   6.561
 7469SOL    HW123306   0.162   0.923   6.634
 7469SOL    HW223307   0.149   0.953   6.474
 7470SOL     OW23308   5.378   3.672   3.868
 7470SOL    HW123309   5.423   3.710   3.949
 7470SOL    HW223310   5.421   3.585   3.844
 7471SOL     OW23311   5.246   6.558   6.018
 7471SOL    HW123312   5.188   6.545   5.938
 7471SOL    HW223313   5.240   6.653   6.049
 7472SOL     OW23314   6.727   1.040   5.687
 7472SOL    HW123315   6.646   1.085   5.651
 7472SOL    HW223316   6.704   0.947   5.716
 7473SOL     OW23317   5.075   5.210   3.716
 7473SOL    HW123318   5.074   5.299   3.670
 7473SOL    HW223319   5.028   5.217   3.804
 7474SOL     OW23320   6.580   1.785   6.520
 7474SOL    HW123321   6.611   1.856   6.584
 7474SOL    HW223322   6.599   1.814   6.427
 7475SOL     OW23323   4.206   2.368   1.841
 7475SOL    HW123324   4.304   2.374   1.862
 7475SOL    HW223325   4.194   2.325   1.752
 7476SOL     OW23326   2.698   1.323   2.797
 7476SOL    HW123327   2.760   1.392   2.836
 7476SOL    HW223328   2.667   1.262   2.870
 7477SOL     OW23329   6.661   2.353   4.836
 7477SOL    HW123330   6.726   2.281   4.861
 7477SOL    HW223331   6.588   2.355   4.905
 7478SOL     OW23332   5.986   3.550   5.323
 7478SOL    HW123333   5.901   3.591   5.289
 7478SOL    HW223334   5.964   3.470   5.379
 7479SOL     OW23335   4.616   2.431   1.927
 7479SOL    HW123336   4.711   2.428   1.896
 7479SOL    HW223337   4.562   2.487   1.865
 7480SOL     OW23338   1.795   4.931   2.760
 7480SOL    HW123339   1.736   4.853   2.741
 7480SOL    HW223340   1.788   4.997   2.685
 7481SOL     OW23341   5.609   4.880   0.917
 7481SOL    HW123342   5.613   4.804   0.853
 7481SOL    HW223343   5.692   4.935   0.910
 7482SOL     OW23344   4.571   2.611   2.746
 7482SOL    HW123345   4.635   2.579   2.676
 7482SOL    HW223346   4.541   2.704   2.723
 7483SOL     OW23347   4.910   3.409   4.862
 7483SOL    HW123348   4.829   3.379   4.812
 7483SOL    HW223349   4.886   3.487   4.920
 7484SOL     OW23350   1.786   5.823   4.588
 7484SOL    HW123351   1.690   5.832   4.614
 7484SOL    HW223352   1.842   5.812   4.670
 7485SOL     OW23353   2.898   0.357   4.951
 7485SOL    HW123354   2.834   0.430   4.926
 7485SOL    HW223355   2.907   0.354   5.050
 7486SOL     OW23356   1.050   6.320   6.830
 7486SOL    HW123357   1.058   6.264   6.747
 7486SOL    HW223358   1.140   6.330   6.872
 7487SOL     OW23359   3.012   0.920   3.624
 7487SOL    HW123360   3.082   0.879   3.565
 7487SOL    HW223361   2.961   0.989   3.573
 7488SOL     OW23362   1.803   5.539   4.883
 7488SOL    HW123363   1.855   5.539   4.969
 7488SOL    HW223364   1.821   5.453   4.834
 7489SOL     OW23365   6.566   2.887   6.725
 7489SOL    HW123366   6.627   2.870   6.647
 7489SOL    HW223367   6.508   2.965   6.705
 7490SOL     OW23368   1.526   0.489   3.272
 7490SOL    HW123369   1.617   0.470   3.235
 7490SOL    HW223370   1.531   0.496   3.371
 7491SOL     OW23371   4.294   3.043   6.697
 7491SOL    HW123372   4.376   3.003   6.737
 7491SOL    HW223373   4.315   3.080   6.606
 7492SOL     OW23374   2.262   0.613   3.643
 7492SOL    HW123375   2.316   0.644   3.722
 7492SOL    HW223376   2.286   0.667   3.563
 7493SOL     OW23377   6.670   2.681   6.266
 7493SOL    HW123378   6.652   2.756   6.203
 7493SOL    HW223379   6.636   2.595   6.228
 7494SOL     OW23380   5.885   1.502   3.484
 7494SOL    HW123381   5.837   1.566   3.424
 7494SOL    HW223382   5.845   1.411   3.474
 7495SOL     OW23383   0.997   3.208   6.256
 7495SOL    HW123384   0.953   3.122   6.284
 7495SOL    HW223385   1.082   3.219   6.307
 7496SOL     OW23386   5.933   3.852   3.901
 7496SOL    HW123387   5.859   3.786   3.916
 7496SOL    HW223388   5.901   3.922   3.837
 7497SOL     OW23389   1.570   4.834   1.270
 7497SOL    HW123390   1.511   4.900   1.222
 7497SOL    HW223391   1.539   4.824   1.364
 7498SOL     OW23392   3.307   1.204   4.312
 7498SOL    HW123393   3.403   1.213   4.284
 7498SOL    HW223394   3.267   1.125   4.266
 7499SOL     OW23395   4.237   2.168   3.396
 7499SOL    HW123396   4.253   2.266   3.392
 7499SOL    HW223397   4.290   2.122   3.325
 7500SOL     OW23398   3.727   5.712   3.391
 7500SOL    HW123399   3.701   5.617   3.375
 7500SOL    HW223400   3.770   5.720   3.481
 7501SOL     OW23401   5.258   4.445   4.091
 7501SOL    HW123402   5.324   4.371   4.102
 7501SOL    HW223403   5.265   4.508   4.169
 7502SOL     OW23404   2.922   0.307   4.470
 7502SOL    HW123405   2.851   0.366   4.432
 7502SOL    HW223406   2.883   0.250   4.542
 7503SOL     OW23407   2.650   6.820   1.210
 7503SOL    HW123408   2.655   6.772   1.298
 7503SOL    HW223409   2.723   6.788   1.150
 7504SOL     OW23410   0.512   6.063   3.421
 7504SOL    HW123411   0.594   6.007   3.423
 7504SOL    HW223412   0.431   6.005   3.414
 7505SOL     OW23413   1.486   2.485   6.407
 7505SOL    HW123414   1.579   2.450   6.395
 7505SOL    HW223415   1.444   2.499   6.318
 7506SOL     OW23416   5.146   2.710   4.105
 7506SOL    HW123417   5.049   2.690   4.092
 7506SOL    HW223418   5.158   2.757   4.192
 7507SOL     OW23419   5.840   1.862   2.716
 7507SOL    HW123420   5.847   1.949   2.668
 7507SOL    HW223421   5.931   1.832   2.746
 7508SOL     OW23422   2.388   5.150   0.775
 7508SOL    HW123423   2.326   5.077   0.747
 7508SOL    HW223424   2.401   5.214   0.700
 7509SOL     OW23425   6.145   3.643   0.489
 7509SOL    HW123426   6.172   3.581   0.415
 7509SOL    HW223427   6.065   3.605   0.536
 7510SOL     OW23428   3.803   3.595   4.634
 7510SOL    HW123429   3.805   3.553   4.543
 7510SOL    HW223430   3.732   3.551   4.689
 7511SOL     OW23431   3.091   6.172   3.261
 7511SOL    HW123432   3.093   6.220   3.349
 7511SOL    HW223433   3.184   6.145   3.235
 7512SOL     OW23434   2.761   1.107   6.630
 7512SOL    HW123435   2.772   1.049   6.710
 7512SOL    HW223436   2.731   1.198   6.657
 7513SOL     OW23437   1.537   0.857   2.369
 7513SOL    HW123438   1.616   0.905   2.406
 7513SOL    HW223439   1.515   0.895   2.278
 7514SOL     OW23440   2.409   4.829   2.904
 7514SOL    HW123441   2.339   4.769   2.865
 7514SOL    HW223442   2.495   4.815   2.856
 7515SOL     OW23443   6.597   4.959   4.759
 7515SOL    HW123444   6.542   4.895   4.811
 7515SOL    HW223445   6.684   4.916   4.734
 7516SOL     OW23446   0.736   5.444   5.991
 7516SOL    HW123447   0.731   5.437   6.091
 7516SOL    HW223448   0.828   5.418   5.961
 7517SOL     OW23449   0.804   2.175   0.475
 7517SOL    HW123450   0.839   2.220   0.393
 7517SOL    HW223451   0.804   2.076   0.461
 7518SOL     OW23452   5.304   3.376   4.051
 7518SOL    HW123453   5.376   3.401   3.986
 7518SOL    HW223454   5.292   3.450   4.117
 7519SOL     OW23455   6.902   6.670   4.674
 7519SOL    HW123456   6.858   6.606   4.611
 7519SOL    HW223457   6.845   6.681   4.755
 7520SOL     OW23458   2.307   0.563   2.893
 7520SOL    HW123459   2.338   0.497   2.824
 7520SOL    HW223460   2.302   0.654   2.851
 7521SOL     OW23461   5.446   2.916   5.193
 7521SOL    HW123462   5.420   3.009   5.221
 7521SOL    HW223463   5.514   2.880   5.257
 7522SOL     OW23464   1.515   0.751   5.970
 7522SOL    HW123465   1.430   0.803   5.973
 7522SOL    HW223466   1.577   0.791   5.903
 7523SOL     OW23467   4.810   0.761   6.406
 7523SOL    HW123468   4.844   0.853   6.425
 7523SOL    HW223469   4.879   0.694   6.435
 7524SOL     OW23470   0.806   2.667   5.501
 7524SOL    HW123471   0.793   2.737   5.430
 7524SOL    HW223472   0.730   2.671   5.565
 7525SOL     OW23473   4.115   7.015   6.963
 7525SOL    HW123474   4.155   0.018   6.875
 7525SOL    HW223475   4.181   0.007   0.013
 7526SOL     OW23476   2.797   3.044   1.732
 7526SOL    HW123477   2.872   3.088   1.781
 7526SOL    HW223478   2.764   3.105   1.660
 7527SOL     OW23479   3.109   5.549   3.792
 7527SOL    HW123480   3.164   5.619   3.746
 7527SOL    HW223481   3.168   5.490   3.847
 7528SOL     OW23482   5.959   2.024   6.724
 7528SOL    HW123483   5.979   2.121   6.739
 7528SOL    HW223484   5.925   2.011   6.631
 7529SOL     OW23485   5.458   1.827   4.788
 7529SOL    HW123486   5.500   1.808   4.876
 7529SOL    HW223487   5.521   1.883   4.733
 7530SOL     OW23488   6.049   2.642   2.151
 7530SOL    HW123489   6.122   2.701   2.116
 7530SOL    HW223490   6.011   2.682   2.235
 7531SOL     OW23491   5.113   3.614   4.047
 7531SOL    HW123492   5.088   3.518   4.052
 7531SOL    HW223493   5.206   3.626   4.083
 7532SOL     OW23494   4.611   6.082   0.680
 7532SOL    HW123495   4.657   6.142   0.615
 7532SOL    HW223496   4.531   6.041   0.635
 7533SOL     OW23497   3.544   2.000   1.855
 7533SOL    HW123498   3.589   2.088   1.840
 7533SOL    HW223499   3.445   2.012   1.853
 7534SOL     OW23500   5.264   5.861   4.324
 7534SOL    HW123501   5.209   5.791   4.370
 7534SOL    HW223502   5.264   5.844   4.226
 7535SOL     OW23503   1.649   6.648   4.982
 7535SOL    HW123504   1.659   6.577   5.052
 7535SOL    HW223505   1.717   6.720   4.997
 7536SOL     OW23506   4.691   5.343   4.075
 7536SOL    HW123507   4.683   5.443   4.076
 7536SOL    HW223508   4.767   5.316   4.016
 7537SOL     OW23509   1.659   4.855   3.017
 7537SOL    HW123510   1.565   4.829   3.040
 7537SOL    HW223511   1.663   4.887   2.923
 7538SOL     OW23512   2.000   2.476   1.587
 7538SOL    HW123513   2.008   2.536   1.508
 7538SOL    HW223514   1.962   2.527   1.664
 7539SOL     OW23515   1.700   4.037   4.022
 7539SOL    HW123516   1.687   3.944   3.986
 7539SOL    HW223517   1.735   4.096   3.949
 7540SOL     OW23518   4.224   0.134   4.645
 7540SOL    HW123519   4.124   0.125   4.646
 7540SOL    HW223520   4.264   0.065   4.706
 7541SOL     OW23521   0.160   4.003   5.939
 7541SOL    HW123522   0.216   3.921   5.948
 7541SOL    HW223523   0.180   4.066   6.015
 7542SOL     OW23524   6.582   6.181   0.368
 7542SOL    HW123525   6.618   6.095   0.332
 7542SOL    HW223526   6.571   6.173   0.467
 7543SOL     OW23527   3.321   1.281   5.274
 7543SOL    HW123528   3.311   1.202   5.215
 7543SOL    HW223529   3.406   1.329   5.252
 7544SOL     OW23530   6.775   2.708   4.264
 7544SOL    HW123531   6.720   2.632   4.298
 7544SOL    HW223532   6.743   2.794   4.305
 7545SOL     OW23533   0.842   6.491   6.284
 7545SOL    HW123534   0.837   6.442   6.371
 7545SOL    HW223535   0.923   6.550   6.284
 7546SOL     OW23536   4.625   2.222   1.268
 7546SOL    HW123537   4.569   2.185   1.343
 7546SOL    HW223538   4.630   2.321   1.275
 7547SOL     OW23539   5.010   1.214   1.047
 7547SOL    HW123540   4.965   1.128   1.072
 7547SOL    HW223541   4.997   1.281   1.119
 7548SOL     OW23542   4.753   2.271   6.237
 7548SOL    HW123543   4.803   2.329   6.173
 7548SOL    HW223544   4.817   2.222   6.295
 7549SOL     OW23545   3.795   3.092   6.388
 7549SOL    HW123546   3.759   3.036   6.463
 7549SOL    HW223547   3.782   3.189   6.409
 7550SOL     OW23548   1.855   4.567   3.512
 7550SOL    HW123549   1.940   4.577   3.460
 7550SOL    HW223550   1.815   4.478   3.494
 7551SOL     OW23551   5.863   2.968   5.494
 7551SOL    HW123552   5.788   3.013   5.445
 7551SOL    HW223553   5.847   2.870   5.498
 7552SOL     OW23554   1.739   5.904   4.319
 7552SOL    HW123555   1.776   5.914   4.411
 7552SOL    HW223556   1.644   5.875   4.323
 7553SOL     OW23557   4.577   6.794   5.742
 7553SOL    HW123558   4.480   6.817   5.753
 7553SOL    HW223559   4.605   6.811   5.648
 7554SOL     OW23560   4.639   0.609   6.622
 7554SOL    HW123561   4.702   0.659   6.564
 7554SOL    HW223562   4.545   0.622   6.588
 7555SOL     OW23563   3.059   5.409   6.542
 7555SOL    HW123564   2.963   5.403   6.515
 7555SOL    HW223565   3.066   5.454   6.631
 7556SOL     OW23566   2.593   1.847   0.253
 7556SOL    HW123567   2.500   1.884   0.247
 7556SOL    HW223568   2.658   1.913   0.215
 7557SOL     OW23569   4.714   0.462   6.098
 7557SOL    HW123570   4.759   0.411   6.172
 7557SOL    HW223571   4.732   0.560   6.110
 7558SOL     OW23572   2.024   2.931   4.380
 7558SOL    HW123573   2.049   2.973   4.293
 7558SOL    HW223574   2.067   2.841   4.387
 7559SOL     OW23575   3.851   3.022   6.001
 7559SOL    HW123576   3.917   2.958   6.040
 7559SOL    HW223577   3.877   3.116   6.024
 7560SOL     OW23578   5.619   0.314   0.478
 7560SOL    HW123579   5.532   0.321   0.430
 7560SOL    HW223580   5.695   0.322   0.413
 7561SOL     OW23581   6.309   2.552   5.744
 7561SOL    HW123582   6.406   2.573   5.754
 7561SOL    HW223583   6.254   2.627   5.779
 7562SOL     OW23584   0.881   4.730   5.288
 7562SOL    HW123585   0.948   4.721   5.215
 7562SOL    HW223586   0.793   4.757   5.250
 7563SOL     OW23587   2.737   6.468   1.725
 7563SOL    HW123588   2.765   6.515   1.642
 7563SOL    HW223589   2.660   6.516   1.767
 7564SOL     OW23590   3.625   0.176   4.309
 7564SOL    HW123591   3.634   0.223   4.397
 7564SOL    HW223592   3.683   0.095   4.309
 7565SOL     OW23593   5.781   3.984   6.066
 7565SOL    HW123594   5.784   3.884   6.065
 7565SOL    HW223595   5.870   4.021   6.039
 7566SOL     OW23596   5.546   5.107   2.066
 7566SOL    HW123597   5.600   5.173   2.118
 7566SOL    HW223598   5.587   5.094   1.976
 7567SOL     OW23599   1.276   1.161   5.725
 7567SOL    HW123600   1.286   1.062   5.717
 7567SOL    HW223601   1.285   1.188   5.821
 7568SOL     OW23602   5.354   4.496   2.142
 7568SOL    HW123603   5.391   4.571   2.087
 7568SOL    HW223604   5.419   4.475   2.216
 7569SOL     OW23605   2.971   4.913   6.199
 7569SOL    HW123606   3.019   4.842   6.148
 7569SOL    HW223607   2.877   4.883   6.218
 7570SOL     OW23608   5.894   3.763   4.251
 7570SOL    HW123609   5.811   3.817   4.258
 7570SOL    HW223610   5.872   3.671   4.218
 7571SOL     OW23611   4.889   3.621   3.303
 7571SOL    HW123612   4.851   3.560   3.233
 7571SOL    HW223613   4.951   3.569   3.362
 7572SOL     OW23614   4.997   0.777   2.784
 7572SOL    HW123615   4.955   0.801   2.871
 7572SOL    HW223616   4.968   0.685   2.757
 7573SOL     OW23617   6.193   0.588   5.760
 7573SOL    HW123618   6.189   0.492   5.732
 7573SOL    HW223619   6.212   0.593   5.859
 7574SOL     OW23620   5.813   1.115   4.421
 7574SOL    HW123621   5.742   1.063   4.470
 7574SOL    HW223622   5.777   1.205   4.396
 7575SOL     OW23623   5.831   6.767   0.396
 7575SOL    HW123624   5.838   6.799   0.490
 7575SOL    HW223625   5.747   6.801   0.355
 7576SOL     OW23626   4.947   2.710   0.074
 7576SOL    HW123627   5.018   2.643   0.053
 7576SOL    HW223628   4.974   2.764   0.153
 7577SOL     OW23629   0.364   6.308   6.975
 7577SOL    HW123630   0.295   6.344   6.913
 7577SOL    HW223631   0.419   6.239   6.928
 7578SOL     OW23632   2.019   5.199   2.668
 7578SOL    HW123633   1.976   5.281   2.632
 7578SOL    HW223634   2.119   5.210   2.667
 7579SOL     OW23635   0.187   1.471   1.520
 7579SOL    HW123636   0.184   1.372   1.513
 7579SOL    HW223637   0.132   1.512   1.448
 7580SOL     OW23638   0.895   4.129   3.535
 7580SOL    HW123639   0.920   4.171   3.448
 7580SOL    HW223640   0.845   4.044   3.518
 7581SOL     OW23641   0.809   1.447   1.553
 7581SOL    HW123642   0.869   1.483   1.481
 7581SOL    HW223643   0.859   1.446   1.640
 7582SOL     OW23644   4.091   1.823   4.133
 7582SOL    HW123645   4.111   1.913   4.171
 7582SOL    HW223646   4.148   1.808   4.052
 7583SOL     OW23647   5.234   3.114   2.056
 7583SOL    HW123648   5.323   3.133   2.013
 7583SOL    HW223649   5.168   3.087   1.986
 7584SOL     OW23650   1.709   0.606   2.734
 7584SOL    HW123651   1.797   0.559   2.744
 7584SOL    HW223652   1.669   0.582   2.645
 7585SOL     OW23653   1.897   2.605   6.223
 7585SOL    HW123654   1.990   2.577   6.248
 7585SOL    HW223655   1.861   2.543   6.153
 7586SOL     OW23656   1.661   6.399   3.430
 7586SOL    HW123657   1.730   6.329   3.410
 7586SOL    HW223658   1.599   6.365   3.501
 7587SOL     OW23659   2.963   1.495   6.980
 7587SOL    HW123660   3.031   1.565   6.956
 7587SOL    HW223661   2.876   1.517   6.936
 7588SOL     OW23662   2.074   2.285   3.545
 7588SOL    HW123663   2.122   2.273   3.458
 7588SOL    HW223664   2.085   2.203   3.601
 7589SOL     OW23665   6.856   0.450   2.610
 7589SOL    HW123666   6.908   0.371   2.576
 7589SOL    HW223667   6.917   0.530   2.615
 7590SOL     OW23668   5.279   1.224   0.289
 7590SOL    HW123669   5.250   1.302   0.234
 7590SOL    HW223670   5.201   1.185   0.337
 7591SOL     OW23671   5.331   4.044   0.288
 7591SOL    HW123672   5.359   4.138   0.303
 7591SOL    HW223673   5.337   4.022   0.190
 7592SOL     OW23674   5.945   5.214   4.834
 7592SOL    HW123675   6.040   5.203   4.865
 7592SOL    HW223676   5.924   5.144   4.766
 7593SOL     OW23677   6.848   3.316   6.952
 7593SOL    HW123678   6.887   3.296   6.862
 7593SOL    HW223679   6.838   3.415   6.963
 7594SOL     OW23680   1.521   4.764   1.527
 7594SOL    HW123681   1.428   4.740   1.553
 7594SOL    HW223682   1.583   4.687   1.544
 7595SOL     OW23683   6.596   2.921   6.434
 7595SOL    HW123684   6.528   2.849   6.430
 7595SOL    HW223685   6.687   2.881   6.444
 7596SOL     OW23686   3.097   6.800   4.312
 7596SOL    HW123687   3.050   6.727   4.362
 7596SOL    HW223688   3.155   6.852   4.375
 7597SOL     OW23689   2.009   6.402   3.126
 7597SOL    HW123690   1.939   6.473   3.134
 7597SOL    HW223691   1.987   6.341   3.050
 7598SOL     OW23692   6.209   0.678   3.647
 7598SOL    HW123693   6.129   0.712   3.696
 7598SOL    HW223694   6.181   0.606   3.583
 7599SOL     OW23695   5.346   2.407   1.567
 7599SOL    HW123696   5.395   2.325   1.538
 7599SOL    HW223697   5.409   2.470   1.610
 7600SOL     OW23698   0.911   0.652   3.600
 7600SOL    HW123699   0.819   0.629   3.567
 7600SOL    HW223700   0.974   0.653   3.522
 7601SOL     OW23701   2.667   5.144   2.206
 7601SOL    HW123702   2.728   5.218   2.176
 7601SOL    HW223703   2.573   5.175   2.201
 7602SOL     OW23704   1.275   3.452   6.638
 7602SOL    HW123705   1.255   3.547   6.665
 7602SOL    HW223706   1.324   3.407   6.713
 7603SOL     OW23707   2.239   6.458   6.281
 7603SOL    HW123708   2.306   6.425   6.214
 7603SOL    HW223709   2.155   6.405   6.273
 7604SOL     OW23710   1.212   2.122   5.154
 7604SOL    HW123711   1.249   2.176   5.078
 7604SOL    HW223712   1.114   2.110   5.141
 7605SOL     OW23713   1.549   0.537   0.069
 7605SOL    HW123714   1.647   0.528   0.089
 7605SOL    HW223715   1.513   0.449   0.039
 7606SOL     OW23716   5.490   3.375   4.875
 7606SOL    HW123717   5.455   3.395   4.783
 7606SOL    HW223718   5.581   3.335   4.868
 7607SOL     OW23719   4.312   5.180   0.109
 7607SOL    HW123720   4.247   5.253   0.128
 7607SOL    HW223721   4.389   5.186   0.173
 7608SOL     OW23722   5.501   2.611   0.704
 7608SOL    HW123723   5.424   2.673   0.714
 7608SOL    HW223724   5.533   2.582   0.794
 7609SOL     OW23725   0.958   3.312   3.457
 7609SOL    HW123726   0.972   3.395   3.402
 7609SOL    HW223727   0.934   3.236   3.397
 7610SOL     OW23728   4.008   4.608   6.000
 7610SOL    HW123729   4.084   4.658   5.957
 7610SOL    HW223730   3.930   4.605   5.937
 7611SOL     OW23731   5.014   3.895   1.194
 7611SOL    HW123732   5.069   3.930   1.270
 7611SOL    HW223733   5.022   3.795   1.190
 7612SOL     OW23734   4.762   2.929   3.078
 7612SOL    HW123735   4.685   2.983   3.045
 7612SOL    HW223736   4.801   2.876   3.003
 7613SOL     OW23737   0.399   1.638   1.539
 7613SOL    HW123738   0.475   1.586   1.578
 7613SOL    HW223739   0.318   1.579   1.534
 7614SOL     OW23740   5.393   3.343   1.288
 7614SOL    HW123741   5.364   3.384   1.201
 7614SOL    HW223742   5.401   3.244   1.277
 7615SOL     OW23743   4.870   4.012   6.283
 7615SOL    HW123744   4.962   4.016   6.321
 7615SOL    HW223745   4.824   3.929   6.316
 7616SOL     OW23746   6.874   6.846   4.464
 7616SOL    HW123747   6.857   6.791   4.546
 7616SOL    HW223748   6.973   6.863   4.456
 7617SOL     OW23749   5.321   6.173   3.684
 7617SOL    HW123750   5.397   6.144   3.742
 7617SOL    HW223751   5.356   6.202   3.595
 7618SOL     OW23752   0.855   2.639   6.780
 7618SOL    HW123753   0.881   2.735   6.794
 7618SOL    HW223754   0.877   2.613   6.686
 7619SOL     OW23755   0.158   2.672   4.556
 7619SOL    HW123756   0.136   2.764   4.589
 7619SOL    HW223757   0.149   2.669   4.457
 7620SOL     OW23758   4.468   5.349   1.297
 7620SOL    HW123759   4.465   5.414   1.221
 7620SOL    HW223760   4.395   5.281   1.286
 7621SOL     OW23761   0.565   0.676   1.314
 7621SOL    HW123762   0.487   0.739   1.313
 7621SOL    HW223763   0.607   0.676   1.405
 7622SOL     OW23764   4.804   4.808   6.340
 7622SOL    HW123765   4.884   4.785   6.395
 7622SOL    HW223766   4.767   4.725   6.298
 7623SOL     OW23767   4.551   4.494   1.043
 7623SOL    HW123768   4.481   4.424   1.036
 7623SOL    HW223769   4.638   4.452   1.067
 7624SOL     OW23770   6.854   3.344   3.734
 7624SOL    HW123771   6.941   3.295   3.732
 7624SOL    HW223772   6.845   3.393   3.821
 7625SOL     OW23773   6.406   1.531   0.165
 7625SOL    HW123774   6.441   1.461   0.227
 7625SOL    HW223775   6.342   1.590   0.214
 7626SOL     OW23776   6.465   0.806   5.932
 7626SOL    HW123777   6.423   0.811   5.842
 7626SOL    HW223778   6.443   0.718   5.974
 7627SOL     OW23779   3.205   2.479   0.228
 7627SOL    HW123780   3.238   2.395   0.271
 7627SOL    HW223781   3.116   2.462   0.186
 7628SOL     OW23782   3.829   2.857   1.601
 7628SOL    HW123783   3.896   2.826   1.533
 7628SOL    HW223784   3.876   2.884   1.685
 7629SOL     OW23785   0.100   3.980   3.514
 7629SOL    HW123786   0.013   3.937   3.493
 7629SOL    HW223787   0.111   3.987   3.613
 7630SOL     OW23788   1.009   0.797   6.418
 7630SOL    HW123789   0.939   0.844   6.364
 7630SOL    HW223790   1.093   0.852   6.419
 7631SOL     OW23791   1.322   1.499   5.438
 7631SOL    HW123792   1.345   1.515   5.534
 7631SOL    HW223793   1.334   1.583   5.386
 7632SOL     OW23794   4.414   4.773   0.673
 7632SOL    HW123795   4.335   4.821   0.711
 7632SOL    HW223796   4.459   4.831   0.605
 7633SOL     OW23797   4.760   0.515   1.825
 7633SOL    HW123798   4.730   0.522   1.920
 7633SOL    HW223799   4.851   0.474   1.822
 7634SOL     OW23800   2.492   1.436   1.440
 7634SOL    HW123801   2.510   1.416   1.537
 7634SOL    HW223802   2.568   1.489   1.403
 7635SOL     OW23803   3.275   4.900   4.389
 7635SOL    HW123804   3.250   4.894   4.486
 7635SOL    HW223805   3.214   4.843   4.335
 7636SOL     OW23806   0.962   3.863   4.029
 7636SOL    HW123807   0.957   3.871   3.930
 7636SOL    HW223808   0.922   3.776   4.058
 7637SOL     OW23809   2.244   6.084   2.763
 7637SOL    HW123810   2.240   5.993   2.804
 7637SOL    HW223811   2.308   6.083   2.686
 7638SOL     OW23812   1.657   5.339   2.759
 7638SOL    HW123813   1.745   5.386   2.768
 7638SOL    HW223814   1.633   5.297   2.847
 7639SOL     OW23815   0.787   1.228   0.710
 7639SOL    HW123816   0.722   1.304   0.717
 7639SOL    HW223817   0.775   1.167   0.789
 7640SOL     OW23818   2.437   2.771   6.735
 7640SOL    HW123819   2.490   2.754   6.652
 7640SOL    HW223820   2.496   2.811   6.805
 7641SOL     OW23821   6.734   3.976   2.617
 7641SOL    HW123822   6.800   4.049   2.632
 7641SOL    HW223823   6.781   3.896   2.580
 7642SOL     OW23824   5.292   1.115   2.354
 7642SOL    HW123825   5.318   1.206   2.322
 7642SOL    HW223826   5.319   1.104   2.450
 7643SOL     OW23827   5.090   1.398   2.478
 7643SOL    HW123828   5.059   1.392   2.383
 7643SOL    HW223829   5.169   1.460   2.483
 7644SOL     OW23830   4.888   3.076   2.307
 7644SOL    HW123831   4.833   3.023   2.371
 7644SOL    HW223832   4.859   3.056   2.213
 7645SOL     OW23833   4.582   3.852   5.629
 7645SOL    HW123834   4.584   3.945   5.595
 7645SOL    HW223835   4.610   3.789   5.557
 7646SOL     OW23836   0.528   2.653   4.029
 7646SOL    HW123837   0.496   2.714   4.102
 7646SOL    HW223838   0.457   2.643   3.960
 7647SOL     OW23839   0.353   3.206   4.779
 7647SOL    HW123840   0.391   3.297   4.762
 7647SOL    HW223841   0.305   3.175   4.696
 7648SOL     OW23842   2.421   1.478   2.567
 7648SOL    HW123843   2.441   1.564   2.521
 7648SOL    HW223844   2.489   1.410   2.541
 7649SOL     OW23845   1.417   0.919   3.878
 7649SOL    HW123846   1.509   0.899   3.845
 7649SOL    HW223847   1.351   0.861   3.832
 7650SOL     OW23848   6.409   0.694   0.924
 7650SOL    HW123849   6.378   0.641   0.845
 7650SOL    HW223850   6.409   0.635   1.005
 7651SOL     OW23851   2.659   6.371   4.626
 7651SOL    HW123852   2.578   6.421   4.656
 7651SOL    HW223853   2.631   6.296   4.566
 7652SOL     OW23854   5.549   2.217   4.886
 7652SOL    HW123855   5.546   2.298   4.827
 7652SOL    HW223856   5.470   2.159   4.866
 7653SOL     OW23857   1.486   1.549   0.300
 7653SOL    HW123858   1.391   1.580   0.310
 7653SOL    HW223859   1.490   1.475   0.233
 7654SOL     OW23860   5.141   3.241   4.479
 7654SOL    HW123861   5.168   3.337   4.482
 7654SOL    HW223862   5.045   3.234   4.452
 7655SOL     OW23863   3.504   0.235   3.738
 7655SOL    HW123864   3.456   0.225   3.650
 7655SOL    HW223865   3.581   0.171   3.741
 7656SOL     OW23866   4.848   2.851   6.520
 7656SOL    HW123867   4.930   2.907   6.534
 7656SOL    HW223868   4.828   2.800   6.604
 7657SOL     OW23869   2.139   2.282   3.992
 7657SOL    HW123870   2.229   2.288   3.950
 7657SOL    HW223871   2.073   2.249   3.924
 7658SOL     OW23872   2.882   0.481   0.693
 7658SOL    HW123873   2.856   0.551   0.627
 7658SOL    HW223874   2.981   0.482   0.706
 7659SOL     OW23875   4.749   4.107   0.084
 7659SOL    HW123876   4.654   4.117   0.056
 7659SOL    HW223877   4.808   4.152   0.016
 7660SOL     OW23878   6.430   5.446   4.043
 7660SOL    HW123879   6.416   5.544   4.027
 7660SOL    HW223880   6.342   5.399   4.040
 7661SOL     OW23881   5.270   2.297   5.588
 7661SOL    HW123882   5.333   2.254   5.653
 7661SOL    HW223883   5.317   2.311   5.501
 7662SOL     OW23884   1.051   2.706   3.179
 7662SOL    HW123885   1.122   2.771   3.206
 7662SOL    HW223886   0.996   2.744   3.105
 7663SOL     OW23887   4.952   5.387   6.366
 7663SOL    HW123888   4.965   5.291   6.345
 7663SOL    HW223889   5.040   5.435   6.361
 7664SOL     OW23890   4.207   1.230   2.468
 7664SOL    HW123891   4.238   1.176   2.546
 7664SOL    HW223892   4.179   1.169   2.394
 7665SOL     OW23893   5.632   0.997   4.590
 7665SOL    HW123894   5.680   0.978   4.676
 7665SOL    HW223895   5.558   1.062   4.606
 7666SOL     OW23896   0.294   4.779   3.580
 7666SOL    HW123897   0.204   4.794   3.539
 7666SOL    HW223898   0.292   4.811   3.675
 7667SOL     OW23899   4.425   0.445   2.778
 7667SOL    HW123900   4.463   0.407   2.862
 7667SOL    HW223901   4.498   0.492   2.728
 7668SOL     OW23902   2.547   4.922   1.236
 7668SOL    HW123903   2.517   4.888   1.147
 7668SOL    HW223904   2.514   5.015   1.249
 7669SOL     OW23905   4.912   1.008   5.224
 7669SOL    HW123906   4.948   1.101   5.232
 7669SOL    HW223907   4.984   0.946   5.192
 7670SOL     OW23908   1.316   5.810   0.395
 7670SOL    HW123909   1.333   5.833   0.299
 7670SOL    HW223910   1.403   5.811   0.445
 7671SOL     OW23911   4.023   0.439   2.373
 7671SOL    HW123912   3.940   0.491   2.349
 7671SOL    HW223913   4.060   0.397   2.290
 7672SOL     OW23914   6.707   5.168   3.578
 7672SOL    HW123915   6.683   5.102   3.507
 7672SOL    HW223916   6.627   5.186   3.635
 7673SOL     OW23917   1.978   5.651   2.453
 7673SOL    HW123918   2.064   5.616   2.492
 7673SOL    HW223919   1.981   5.645   2.353
 7674SOL     OW23920   4.623   0.488   4.189
 7674SOL    HW123921   4.540   0.539   4.166
 7674SOL    HW223922   4.606   0.390   4.180
 7675SOL     OW23923   5.288   6.260   3.416
 7675SOL    HW123924   5.238   6.341   3.384
 7675SOL    HW223925   5.230   6.179   3.403
 7676SOL     OW23926   3.106   2.092   6.318
 7676SOL    HW123927   3.148   2.158   6.256
 7676SOL    HW223928   3.100   2.133   6.410
 7677SOL     OW23929   0.705   4.065   0.839
 7677SOL    HW123930   0.628   4.128   0.849
 7677SOL    HW223931   0.756   4.089   0.756
 7678SOL     OW23932   1.845   2.938   5.500
 7678SOL    HW123933   1.834   2.872   5.574
 7678SOL    HW223934   1.920   2.909   5.440
 7679SOL     OW23935   1.777   5.444   5.866
 7679SOL    HW123936   1.710   5.494   5.811
 7679SOL    HW223937   1.804   5.361   5.818
 7680SOL     OW23938   1.804   0.517   0.163
 7680SOL    HW123939   1.880   0.519   0.099
 7680SOL    HW223940   1.825   0.574   0.243
 7681SOL     OW23941   3.063   1.042   0.249
 7681SOL    HW123942   2.974   1.078   0.277
 7681SOL    HW223943   3.053   0.995   0.161
 7682SOL     OW23944   4.674   0.678   2.456
 7682SOL    HW123945   4.695   0.585   2.429
 7682SOL    HW223946   4.626   0.725   2.383
 7683SOL     OW23947   0.369   1.461   4.833
 7683SOL    HW123948   0.333   1.425   4.919
 7683SOL    HW223949   0.389   1.386   4.770
 7684SOL     OW23950   3.691   2.344   1.005
 7684SOL    HW123951   3.596   2.330   0.979
 7684SOL    HW223952   3.711   2.442   1.007
 7685SOL     OW23953   3.470   1.725   6.312
 7685SOL    HW123954   3.437   1.738   6.218
 7685SOL    HW223955   3.414   1.779   6.375
 7686SOL     OW23956   6.378   6.994   4.384
 7686SOL    HW123957   6.279   7.010   4.391
 7686SOL    HW223958   6.396   6.939   4.303
 7687SOL     OW23959   4.881   5.531   4.924
 7687SOL    HW123960   4.948   5.586   4.974
 7687SOL    HW223961   4.929   5.466   4.865
 7688SOL     OW23962   0.178   6.030   6.256
 7688SOL    HW123963   0.159   5.974   6.176
 7688SOL    HW223964   0.230   5.977   6.323
 7689SOL     OW23965   5.263   6.516   3.276
 7689SOL    HW123966   5.332   6.546   3.210
 7689SOL    HW223967   5.255   6.584   3.349
 7690SOL     OW23968   5.129   5.432   0.603
 7690SOL    HW123969   5.151   5.526   0.632
 7690SOL    HW223970   5.130   5.372   0.683
 7691SOL     OW23971   5.478   4.222   2.174
 7691SOL    HW123972   5.409   4.240   2.103
 7691SOL    HW223973   5.541   4.300   2.179
 7692SOL     OW23974   0.638   5.835   1.760
 7692SOL    HW123975   0.723   5.881   1.785
 7692SOL    HW223976   0.636   5.821   1.661
 7693SOL     OW23977   3.084   0.484   1.255
 7693SOL    HW123978   3.023   0.438   1.191
 7693SOL    HW223979   3.123   0.565   1.211
 7694SOL     OW23980   5.617   2.880   4.160
 7694SOL    HW123981   5.682   2.947   4.126
 7694SOL    HW223982   5.667   2.802   4.200
 7695SOL     OW23983   6.036   0.529   1.294
 7695SOL    HW123984   6.059   0.620   1.259
 7695SOL    HW223985   5.944   0.529   1.332
 7696SOL     OW23986   6.257   1.582   6.454
 7696SOL    HW123987   6.339   1.629   6.421
 7696SOL    HW223988   6.277   1.541   6.543
 7697SOL     OW23989   2.777   0.693   2.479
 7697SOL    HW123990   2.814   0.698   2.572
 7697SOL    HW223991   2.834   0.747   2.417
 7698SOL     OW23992   6.648   1.261   5.478
 7698SOL    HW123993   6.689   1.172   5.457
 7698SOL    HW223994   6.657   1.322   5.399
 7699SOL     OW23995   2.431   5.408   6.792
 7699SOL    HW123996   2.352   5.425   6.851
 7699SOL    HW223997   2.399   5.386   6.700
 7700SOL     OW23998   4.090   6.049   3.266
 7700SOL    HW123999   4.075   6.110   3.189
 7700SOL    HW224000   4.187   6.024   3.271
 7701SOL     OW24001   0.382   2.546   6.786
 7701SOL    HW124002   0.469   2.588   6.811
 7701SOL    HW224003   0.330   2.608   6.727
 7702SOL     OW24004   4.306   5.695   5.234
 7702SOL    HW124005   4.337   5.606   5.266
 7702SOL    HW224006   4.289   5.691   5.135
 7703SOL     OW24007   6.388   6.451   5.801
 7703SOL    HW124008   6.482   6.471   5.775
 7703SOL    HW224009   6.347   6.533   5.841
 7704SOL     OW24010   6.166   1.584   3.560
 7704SOL    HW124011   6.232   1.509   3.550
 7704SOL    HW224012   6.075   1.552   3.533
 7705SOL     OW24013   2.601   5.458   1.263
 7705SOL    HW124014   2.686   5.486   1.220
 7705SOL    HW224015   2.526   5.513   1.227
 7706SOL     OW24016   4.143   3.314   4.062
 7706SOL    HW124017   4.120   3.341   4.155
 7706SOL    HW224018   4.143   3.214   4.055
 7707SOL     OW24019   0.297   4.509   6.568
 7707SOL    HW124020   0.339   4.445   6.632
 7707SOL    HW224021   0.205   4.532   6.600
 7708SOL     OW24022   1.564   6.273   4.445
 7708SOL    HW124023   1.551   6.286   4.346
 7708SOL    HW224024   1.475   6.268   4.490
 7709SOL     OW24025   6.983   5.136   1.893
 7709SOL    HW124026   6.930   5.074   1.950
 7709SOL    HW224027   0.038   5.086   1.853
 7710SOL     OW24028   1.608   2.346   0.913
 7710SOL    HW124029   1.613   2.322   1.009
 7710SOL    HW224030   1.696   2.328   0.869
 7711SOL     OW24031   5.421   6.005   5.855
 7711SOL    HW124032   5.434   6.068   5.932
 7711SOL    HW224033   5.333   6.024   5.811
 7712SOL     OW24034   6.052   4.566   0.709
 7712SOL    HW124035   6.118   4.495   0.687
 7712SOL    HW224036   6.066   4.644   0.648
 7713SOL     OW24037   1.688   3.368   0.800
 7713SOL    HW124038   1.672   3.292   0.737
 7713SOL    HW224039   1.770   3.350   0.854
 7714SOL     OW24040   0.226   5.966   5.128
 7714SOL    HW124041   0.307   5.961   5.186
 7714SOL    HW224042   0.201   6.061   5.113
 7715SOL     OW24043   2.656   2.346   6.515
 7715SOL    HW124044   2.611   2.423   6.471
 7715SOL    HW224045   2.755   2.354   6.504
 7716SOL     OW24046   6.285   5.210   0.638
 7716SOL    HW124047   6.351   5.139   0.662
 7716SOL    HW224048   6.212   5.213   0.706
 7717SOL     OW24049   1.314   1.961   5.356
 7717SOL    HW124050   1.341   2.013   5.437
 7717SOL    HW224051   1.269   2.021   5.290
 7718SOL     OW24052   6.835   4.181   3.351
 7718SOL    HW124053   6.758   4.148   3.297
 7718SOL    HW224054   6.803   4.205   3.443
 7719SOL     OW24055   0.957   4.124   4.697
 7719SOL    HW124056   1.036   4.126   4.757
 7719SOL    HW224057   0.954   4.037   4.648
 7720SOL     OW24058   6.087   1.977   6.349
 7720SOL    HW124059   6.159   1.968   6.280
 7720SOL    HW224060   6.000   1.946   6.310
 7721SOL     OW24061   0.314   6.560   2.569
 7721SOL    HW124062   0.298   6.492   2.498
 7721SOL    HW224063   0.382   6.627   2.536
 7722SOL     OW24064   1.768   4.976   3.910
 7722SOL    HW124065   1.702   4.930   3.969
 7722SOL    HW224066   1.723   5.048   3.858
 7723SOL     OW24067   4.121   3.636   6.379
 7723SOL    HW124068   4.126   3.717   6.438
 7723SOL    HW224069   4.171   3.561   6.422
 7724SOL     OW24070   3.307   4.244   0.155
 7724SOL    HW124071   3.338   4.149   0.153
 7724SOL    HW224072   3.237   4.258   0.085
 7725SOL     OW24073   6.077   1.800   2.853
 7725SOL    HW124074   6.135   1.783   2.774
 7725SOL    HW224075   6.082   1.896   2.879
 7726SOL     OW24076   1.581   3.722   6.187
 7726SOL    HW124077   1.595   3.784   6.264
 7726SOL    HW224078   1.571   3.628   6.222
 7727SOL     OW24079   6.046   2.896   1.977
 7727SOL    HW124080   5.964   2.853   2.013
 7727SOL    HW224081   6.062   2.983   2.024
 7728SOL     OW24082   2.272   2.858   4.789
 7728SOL    HW124083   2.320   2.832   4.706
 7728SOL    HW224084   2.337   2.895   4.856
 7729SOL     OW24085   5.748   1.504   2.131
 7729SOL    HW124086   5.817   1.438   2.162
 7729SOL    HW224087   5.693   1.534   2.209
 7730SOL     OW24088   0.035   4.660   6.639
 7730SOL    HW124089   0.012   4.565   6.660
 7730SOL    HW224090   0.038   4.714   6.724
 7731SOL     OW24091   6.581   6.910   0.264
 7731SOL    HW124092   6.582   6.929   0.166
 7731SOL    HW224093   6.601   6.813   0.280
 7732SOL     OW24094   3.883   0.577   0.621
 7732SOL    HW124095   3.810   0.608   0.560
 7732SOL    HW224096   3.898   0.479   0.608
 7733SOL     OW24097   6.170   5.324   2.524
 7733SOL    HW124098   6.233   5.331   2.446
 7733SOL    HW224099   6.220   5.292   2.605
 7734SOL     OW24100   2.068   4.498   4.792
 7734SOL    HW124101   2.046   4.570   4.858
 7734SOL    HW224102   2.025   4.518   4.705
 7735SOL     OW24103   5.971   5.679   7.017
 7735SOL    HW124104   5.926   5.590   7.021
 7735SOL    HW224105   6.060   5.670   6.972
 7736SOL     OW24106   2.306   3.188   0.352
 7736SOL    HW124107   2.355   3.271   0.378
 7736SOL    HW224108   2.367   3.129   0.298
 7737SOL     OW24109   3.751   6.372   1.753
 7737SOL    HW124110   3.739   6.287   1.804
 7737SOL    HW224111   3.774   6.352   1.658
 7738SOL     OW24112   2.720   5.383   0.380
 7738SOL    HW124113   2.632   5.377   0.426
 7738SOL    HW224114   2.755   5.291   0.362
 7739SOL     OW24115   1.946   1.938   1.720
 7739SOL    HW124116   1.948   2.038   1.711
 7739SOL    HW224117   1.954   1.896   1.630
 7740SOL     OW24118   1.744   0.986   2.544
 7740SOL    HW124119   1.733   0.937   2.630
 7740SOL    HW224120   1.674   1.058   2.537
 7741SOL     OW24121   0.514   3.676   5.175
 7741SOL    HW124122   0.595   3.621   5.191
 7741SOL    HW224123   0.524   3.765   5.220
 7742SOL     OW24124   4.618   1.630   3.595
 7742SOL    HW124125   4.552   1.583   3.536
 7742SOL    HW224126   4.665   1.700   3.543
 7743SOL     OW24127   4.844   1.120   6.938
 7743SOL    HW124128   4.896   1.098   7.021
 7743SOL    HW224129   4.875   1.060   6.864
 7744SOL     OW24130   0.993   5.918   3.175
 7744SOL    HW124131   0.936   5.846   3.135
 7744SOL    HW224132   1.057   5.878   3.241
 7745SOL     OW24133   2.448   0.382   0.421
 7745SOL    HW124134   2.542   0.399   0.389
 7745SOL    HW224135   2.430   0.284   0.422
 7746SOL     OW24136   1.145   0.004   0.457
 7746SOL    HW124137   1.119   0.101   0.465
 7746SOL    HW224138   1.180   6.995   0.545
 7747SOL     OW24139   6.854   6.101   1.845
 7747SOL    HW124140   6.909   6.179   1.876
 7747SOL    HW224141   6.808   6.124   1.759
 7748SOL     OW24142   3.438   4.156   4.028
 7748SOL    HW124143   3.401   4.233   3.976
 7748SOL    HW224144   3.471   4.086   3.964
 7749SOL     OW24145   3.927   3.861   3.625
 7749SOL    HW124146   3.855   3.793   3.610
 7749SOL    HW224147   3.958   3.896   3.537
 7750SOL     OW24148   6.125   5.981   6.340
 7750SOL    HW124149   6.138   6.079   6.354
 7750SOL    HW224150   6.155   5.957   6.247
 7751SOL     OW24151   0.802   2.293   2.498
 7751SOL    HW124152   0.781   2.224   2.568
 7751SOL    HW224153   0.845   2.372   2.542
 7752SOL     OW24154   5.434   6.360   5.456
 7752SOL    HW124155   5.507   6.309   5.501
 7752SOL    HW224156   5.353   6.302   5.448
 7753SOL     OW24157   2.667   1.111   3.913
 7753SOL    HW124158   2.579   1.132   3.956
 7753SOL    HW224159   2.655   1.035   3.849
 7754SOL     OW24160   5.411   0.138   1.699
 7754SOL    HW124161   5.466   0.198   1.757
 7754SOL    HW224162   5.358   0.194   1.635
 7755SOL     OW24163   1.496   1.813   5.625
 7755SOL    HW124164   1.457   1.895   5.585
 7755SOL    HW224165   1.466   1.804   5.720
 7756SOL     OW24166   3.147   5.595   2.387
 7756SOL    HW124167   3.246   5.607   2.377
 7756SOL    HW224168   3.108   5.674   2.434
 7757SOL     OW24169   5.256   6.166   4.070
 7757SOL    HW124170   5.172   6.182   4.017
 7757SOL    HW224171   5.232   6.121   4.156
 7758SOL     OW24172   1.933   2.092   6.744
 7758SOL    HW124173   1.901   2.092   6.649
 7758SOL    HW224174   1.906   2.178   6.787
 7759SOL     OW24175   1.670   1.639   4.867
 7759SOL    HW124176   1.599   1.568   4.870
 7759SOL    HW224177   1.758   1.598   4.890
 7760SOL     OW24178   5.976   3.126   2.375
 7760SOL    HW124179   6.047   3.108   2.443
 7760SOL    HW224180   5.892   3.156   2.421
 7761SOL     OW24181   1.696   6.926   6.176
 7761SOL    HW124182   1.752   6.992   6.125
 7761SOL    HW224183   1.613   6.970   6.209
 7762SOL     OW24184   4.175   0.782   4.603
 7762SOL    HW124185   4.113   0.808   4.529
 7762SOL    HW224186   4.138   0.703   4.653
 7763SOL     OW24187   1.589   1.689   1.622
 7763SOL    HW124188   1.619   1.738   1.703
 7763SOL    HW224189   1.618   1.593   1.628
 7764SOL     OW24190   3.375   3.088   2.835
 7764SOL    HW124191   3.433   3.011   2.860
 7764SOL    HW224192   3.432   3.167   2.810
 7765SOL     OW24193   5.851   3.157   4.347
 7765SOL    HW124194   5.872   3.090   4.418
 7765SOL    HW224195   5.914   3.235   4.357
 7766SOL     OW24196   5.165   1.791   0.551
 7766SOL    HW124197   5.162   1.705   0.500
 7766SOL    HW224198   5.242   1.846   0.519
 7767SOL     OW24199   3.843   6.625   3.373
 7767SOL    HW124200   3.811   6.623   3.467
 7767SOL    HW224201   3.861   6.531   3.342
 7768SOL     OW24202   4.097   5.251   2.062
 7768SOL    HW124203   4.133   5.192   2.134
 7768SOL    HW224204   4.035   5.319   2.103
 7769SOL     OW24205   5.073   2.226   1.788
 7769SOL    HW124206   5.043   2.311   1.832
 7769SOL    HW224207   4.995   2.184   1.741
 7770SOL     OW24208   1.027   4.059   2.517
 7770SOL    HW124209   1.076   3.982   2.478
 7770SOL    HW224210   1.091   4.116   2.570
 7771SOL     OW24211   2.461   2.711   5.159
 7771SOL    HW124212   2.539   2.715   5.221
 7771SOL    HW224213   2.451   2.799   5.112
 7772SOL     OW24214   4.825   0.899   3.695
 7772SOL    HW124215   4.766   0.919   3.616
 7772SOL    HW224216   4.804   0.807   3.729
 7773SOL     OW24217   3.083   5.556   5.424
 7773SOL    HW124218   3.012   5.606   5.374
 7773SOL    HW224219   3.149   5.520   5.359
 7774SOL     OW24220   6.372   2.356   6.452
 7774SOL    HW124221   6.336   2.364   6.359
 7774SOL    HW224222   6.325   2.281   6.500
 7775SOL     OW24223   3.825   6.690   2.999
 7775SOL    HW124224   3.738   6.738   2.990
 7775SOL    HW224225   3.901   6.755   2.993
 7776SOL     OW24226   3.195   3.987   6.373
 7776SOL    HW124227   3.103   4.012   6.403
 7776SOL    HW224228   3.217   4.037   6.289
 7777SOL     OW24229   2.423   1.302   5.372
 7777SOL    HW124230   2.337   1.263   5.339
 7777SOL    HW224231   2.474   1.339   5.294
 7778SOL     OW24232   4.861   6.609   0.254
 7778SOL    HW124233   4.787   6.677   0.251
 7778SOL    HW224234   4.944   6.652   0.289
 7779SOL     OW24235   3.033   3.004   0.405
 7779SOL    HW124236   2.988   2.949   0.476
 7779SOL    HW224237   3.132   2.999   0.417
 7780SOL     OW24238   1.869   5.220   5.080
 7780SOL    HW124239   1.846   5.135   5.034
 7780SOL    HW224240   1.905   5.285   5.014
 7781SOL     OW24241   1.771   4.662   6.813
 7781SOL    HW124242   1.771   4.737   6.879
 7781SOL    HW224243   1.784   4.699   6.721
 7782SOL     OW24244   1.183   4.193   5.768
 7782SOL    HW124245   1.272   4.147   5.764
 7782SOL    HW224246   1.182   4.269   5.703
 7783SOL     OW24247   1.688   5.877   5.741
 7783SOL    HW124248   1.619   5.905   5.807
 7783SOL    HW224249   1.676   5.780   5.720
 7784SOL     OW24250   2.395   2.642   0.485
 7784SOL    HW124251   2.469   2.577   0.471
 7784SOL    HW224252   2.309   2.602   0.453
 7785SOL     OW24253   1.384   6.510   4.148
 7785SOL    HW124254   1.470   6.461   4.132
 7785SOL    HW224255   1.331   6.462   4.219
 7786SOL     OW24256   3.125   5.764   6.675
 7786SOL    HW124257   3.079   5.692   6.726
 7786SOL    HW224258   3.130   5.847   6.731
 7787SOL     OW24259   2.352   3.337   5.706
 7787SOL    HW124260   2.389   3.258   5.656
 7787SOL    HW224261   2.279   3.378   5.652
 7788SOL     OW24262   1.638   6.824   1.511
 7788SOL    HW124263   1.612   6.920   1.504
 7788SOL    HW224264   1.737   6.817   1.525
 7789SOL     OW24265   3.096   0.053   0.215
 7789SOL    HW124266   3.179   0.067   0.161
 7789SOL    HW224267   3.119   0.006   0.300
 7790SOL     OW24268   5.822   4.804   2.241
 7790SOL    HW124269   5.783   4.762   2.323
 7790SOL    HW224270   5.856   4.895   2.264
 7791SOL     OW24271   3.065   6.466   3.901
 7791SOL    HW124272   3.123   6.526   3.957
 7791SOL    HW224273   2.970   6.499   3.905
 7792SOL     OW24274   1.373   5.450   5.889
 7792SOL    HW124275   1.296   5.480   5.944
 7792SOL    HW224276   1.411   5.365   5.926
 7793SOL     OW24277   2.058   0.826   6.452
 7793SOL    HW124278   1.994   0.902   6.464
 7793SOL    HW224279   2.134   0.836   6.517
 7794SOL     OW24280   4.933   5.012   3.575
 7794SOL    HW124281   4.864   5.066   3.527
 7794SOL    HW224282   5.023   5.052   3.559
 7795SOL     OW24283   1.784   3.456   5.509
 7795SOL    HW124284   1.871   3.474   5.464
 7795SOL    HW224285   1.764   3.358   5.507
 7796SOL     OW24286   3.024   3.875   3.400
 7796SOL    HW124287   3.092   3.945   3.380
 7796SOL    HW224288   2.994   3.883   3.495
 7797SOL     OW24289   0.755   6.472   2.977
 7797SOL    HW124290   0.744   6.388   3.030
 7797SOL    HW224291   0.743   6.551   3.037
 7798SOL     OW24292   1.332   4.678   5.993
 7798SOL    HW124293   1.295   4.753   5.938
 7798SOL    HW224294   1.305   4.591   5.953
 7799SOL     OW24295   6.996   6.501   1.362
 7799SOL    HW124296   6.927   6.514   1.291
 7799SOL    HW224297   6.992   6.577   1.427
 7800SOL     OW24298   1.815   5.469   0.180
 7800SOL    HW124299   1.884   5.398   0.188
 7800SOL    HW224300   1.826   5.534   0.255
 7801SOL     OW24301   2.504   2.298   1.591
 7801SOL    HW124302   2.409   2.299   1.623
 7801SOL    HW224303   2.566   2.287   1.669
 7802SOL     OW24304   5.440   2.050   1.716
 7802SOL    HW124305   5.379   2.079   1.642
 7802SOL    HW224306   5.387   2.026   1.797
 7803SOL     OW24307   4.383   2.803   6.431
 7803SOL    HW124308   4.298   2.852   6.448
 7803SOL    HW224309   4.424   2.835   6.345
 7804SOL     OW24310   5.757   1.458   4.102
 7804SOL    HW124311   5.742   1.403   4.185
 7804SOL    HW224312   5.687   1.529   4.095
 7805SOL     OW24313   5.162   1.449   0.948
 7805SOL    HW124314   5.148   1.528   1.008
 7805SOL    HW224315   5.123   1.367   0.992
 7806SOL     OW24316   6.000   2.477   5.894
 7806SOL    HW124317   5.969   2.539   5.821
 7806SOL    HW224318   6.025   2.531   5.974
 7807SOL     OW24319   6.878   4.175   5.961
 7807SOL    HW124320   6.962   4.216   5.997
 7807SOL    HW224321   6.895   4.142   5.868
 7808SOL     OW24322   0.167   2.924   4.693
 7808SOL    HW124323   0.158   3.008   4.639
 7808SOL    HW224324   0.111   2.932   4.776
 7809SOL     OW24325   2.443   5.536   4.728
 7809SOL    HW124326   2.458   5.521   4.631
 7809SOL    HW224327   2.345   5.530   4.748
 7810SOL     OW24328   3.651   6.877   5.020
 7810SOL    HW124329   3.672   6.858   4.924
 7810SOL    HW224330   3.653   6.976   5.036
 7811SOL     OW24331   0.568   4.918   3.328
 7811SOL    HW124332   0.605   4.911   3.236
 7811SOL    HW224333   0.470   4.940   3.323
 7812SOL     OW24334   1.354   1.811   3.514
 7812SOL    HW124335   1.399   1.730   3.476
 7812SOL    HW224336   1.413   1.853   3.584
 7813SOL     OW24337   3.824   2.363   6.672
 7813SOL    HW124338   3.886   2.441   6.664
 7813SOL    HW224339   3.734   2.388   6.637
 7814SOL     OW24340   6.469   3.404   3.753
 7814SOL    HW124341   6.389   3.395   3.693
 7814SOL    HW224342   6.517   3.489   3.730
 7815SOL     OW24343   4.768   0.193   6.572
 7815SOL    HW124344   4.752   0.097   6.550
 7815SOL    HW224345   4.685   0.232   6.613
 7816SOL     OW24346   1.159   2.668   6.949
 7816SOL    HW124347   1.228   2.724   6.903
 7816SOL    HW224348   1.106   2.725   7.012
 7817SOL     OW24349   5.448   4.551   3.596
 7817SOL    HW124350   5.469   4.586   3.688
 7817SOL    HW224351   5.355   4.578   3.571
 7818SOL     OW24352   3.959   1.109   3.045
 7818SOL    HW124353   3.966   1.198   3.000
 7818SOL    HW224354   3.900   1.117   3.126
 7819SOL     OW24355   6.619   2.956   2.117
 7819SOL    HW124356   6.623   3.009   2.033
 7819SOL    HW224357   6.523   2.937   2.140
 7820SOL     OW24358   1.091   2.366   4.489
 7820SOL    HW124359   1.040   2.452   4.484
 7820SOL    HW224360   1.030   2.291   4.462
 7821SOL     OW24361   5.172   6.094   0.816
 7821SOL    HW124362   5.153   6.189   0.839
 7821SOL    HW224363   5.272   6.081   0.812
 7822SOL     OW24364   0.640   0.850   5.511
 7822SOL    HW124365   0.541   0.838   5.523
 7822SOL    HW224366   0.685   0.760   5.517
 7823SOL     OW24367   2.654   3.830   5.344
 7823SOL    HW124368   2.734   3.887   5.325
 7823SOL    HW224369   2.576   3.865   5.293
 7824SOL     OW24370   5.949   2.001   4.455
 7824SOL    HW124371   5.862   1.981   4.410
 7824SOL    HW224372   5.970   2.098   4.445
 7825SOL     OW24373   1.343   2.861   0.846
 7825SOL    HW124374   1.353   2.766   0.877
 7825SOL    HW224375   1.361   2.866   0.748
 7826SOL     OW24376   6.188   1.273   1.251
 7826SOL    HW124377   6.089   1.285   1.263
 7826SOL    HW224378   6.205   1.190   1.197
 7827SOL     OW24379   1.907   6.099   1.049
 7827SOL    HW124380   1.891   6.063   0.957
 7827SOL    HW224381   1.906   6.024   1.115
 7828SOL     OW24382   6.385   4.515   0.551
 7828SOL    HW124383   6.484   4.531   0.554
 7828SOL    HW224384   6.352   4.524   0.457
 7829SOL     OW24385   2.503   3.519   1.510
 7829SOL    HW124386   2.504   3.449   1.581
 7829SOL    HW224387   2.565   3.594   1.535
 7830SOL     OW24388   2.475   4.995   5.549
 7830SOL    HW124389   2.553   5.001   5.612
 7830SOL    HW224390   2.502   4.941   5.469
 7831SOL     OW24391   1.308   6.957   1.344
 7831SOL    HW124392   1.229   6.950   1.404
 7831SOL    HW224393   1.383   7.003   1.393
 7832SOL     OW24394   6.535   0.709   4.605
 7832SOL    HW124395   6.571   0.668   4.520
 7832SOL    HW224396   6.465   0.777   4.582
 7833SOL     OW24397   0.805   0.777   5.154
 7833SOL    HW124398   0.860   0.840   5.100
 7833SOL    HW224399   0.857   0.745   5.233
 7834SOL     OW24400   6.737   1.379   3.838
 7834SOL    HW124401   6.649   1.376   3.790
 7834SOL    HW224402   6.743   1.302   3.902
 7835SOL     OW24403   3.759   1.961   5.320
 7835SOL    HW124404   3.686   1.935   5.258
 7835SOL    HW224405   3.793   2.053   5.297
 7836SOL     OW24406   3.283   3.787   4.817
 7836SOL    HW124407   3.204   3.797   4.879
 7836SOL    HW224408   3.252   3.749   4.730
 7837SOL     OW24409   4.578   5.679   0.135
 7837SOL    HW124410   4.589   5.589   0.093
 7837SOL    HW224411   4.651   5.740   0.105
 7838SOL     OW24412   4.281   6.918   0.801
 7838SOL    HW124413   4.199   6.907   0.857
 7838SOL    HW224414   4.344   6.842   0.817
 7839SOL     OW24415   5.860   4.275   4.640
 7839SOL    HW124416   5.822   4.273   4.733
 7839SOL    HW224417   5.861   4.369   4.606
 7840SOL     OW24418   6.906   3.543   4.279
 7840SOL    HW124419   7.004   3.556   4.289
 7840SOL    HW224420   6.883   3.447   4.299
 7841SOL     OW24421   3.830   1.992   6.102
 7841SOL    HW124422   3.793   1.945   6.183
 7841SOL    HW224423   3.930   1.989   6.106
 7842SOL     OW24424   2.384   1.513   2.856
 7842SOL    HW124425   2.472   1.534   2.898
 7842SOL    HW224426   2.394   1.511   2.756
 7843SOL     OW24427   0.422   5.662   3.202
 7843SOL    HW124428   0.464   5.733   3.147
 7843SOL    HW224429   0.337   5.696   3.242
 7844SOL     OW24430   2.922   0.424   2.235
 7844SOL    HW124431   2.969   0.465   2.157
 7844SOL    HW224432   2.823   0.423   2.218
 7845SOL     OW24433   5.156   1.975   2.666
 7845SOL    HW124434   5.063   1.938   2.670
 7845SOL    HW224435   5.152   2.072   2.643
 7846SOL     OW24436   0.920   2.374   1.275
 7846SOL    HW124437   0.879   2.324   1.352
 7846SOL    HW224438   0.940   2.468   1.302
 7847SOL     OW24439   6.553   1.484   3.103
 7847SOL    HW124440   6.478   1.474   3.038
 7847SOL    HW224441   6.519   1.475   3.197
 7848SOL     OW24442   3.177   5.118   0.730
 7848SOL    HW124443   3.226   5.060   0.666
 7848SOL    HW224444   3.087   5.141   0.693
 7849SOL     OW24445   6.764   4.038   4.456
 7849SOL    HW124446   6.786   4.112   4.392
 7849SOL    HW224447   6.707   3.970   4.410
 7850SOL     OW24448   0.674   1.552   3.576
 7850SOL    HW124449   0.673   1.647   3.544
 7850SOL    HW224450   0.729   1.496   3.514
 7851SOL     OW24451   0.166   2.064   1.729
 7851SOL    HW124452   0.234   1.991   1.724
 7851SOL    HW224453   0.104   2.056   1.651
 7852SOL     OW24454   3.312   1.693   0.097
 7852SOL    HW124455   3.396   1.641   0.084
 7852SOL    HW224456   3.250   1.676   0.021
 7853SOL     OW24457   5.151   2.924   1.240
 7853SOL    HW124458   5.107   2.856   1.181
 7853SOL    HW224459   5.083   2.961   1.304
 7854SOL     OW24460   3.049   3.148   5.862
 7854SOL    HW124461   2.964   3.157   5.810
 7854SOL    HW224462   3.126   3.169   5.803
 7855SOL     OW24463   4.156   6.392   4.741
 7855SOL    HW124464   4.109   6.427   4.822
 7855SOL    HW224465   4.170   6.294   4.750
 7856SOL     OW24466   6.905   5.680   5.224
 7856SOL    HW124467   6.850   5.599   5.246
 7856SOL    HW224468   6.882   5.754   5.288
 7857SOL     OW24469   4.540   2.846   0.471
 7857SOL    HW124470   4.534   2.825   0.569
 7857SOL    HW224471   4.498   2.772   0.419
 7858SOL     OW24472   6.780   6.506   4.480
 7858SOL    HW124473   6.853   6.510   4.412
 7858SOL    HW224474   6.761   6.410   4.504
 7859SOL     OW24475   4.438   3.357   6.586
 7859SOL    HW124476   4.472   3.447   6.615
 7859SOL    HW224477   4.512   3.290   6.594
 7860SOL     OW24478   4.564   0.819   3.984
 7860SOL    HW124479   4.492   0.752   3.997
 7860SOL    HW224480   4.653   0.774   3.994
 7861SOL     OW24481   3.100   4.901   1.776
 7861SOL    HW124482   3.186   4.855   1.752
 7861SOL    HW224483   3.064   4.863   1.861
 7862SOL     OW24484   2.175   4.840   2.425
 7862SOL    HW124485   2.141   4.930   2.402
 7862SOL    HW224486   2.200   4.790   2.342
 7863SOL     OW24487   0.421   4.046   3.940
 7863SOL    HW124488   0.439   4.143   3.955
 7863SOL    HW224489   0.423   3.998   4.027
 7864SOL     OW24490   0.527   5.337   5.557
 7864SOL    HW124491   0.486   5.341   5.649
 7864SOL    HW224492   0.616   5.293   5.563
 7865SOL     OW24493   6.347   5.739   4.038
 7865SOL    HW124494   6.284   5.721   4.114
 7865SOL    HW224495   6.440   5.747   4.073
 7866SOL     OW24496   1.171   0.473   5.509
 7866SOL    HW124497   1.201   0.534   5.583
 7866SOL    HW224498   1.119   0.526   5.442
 7867SOL     OW24499   6.307   5.992   3.539
 7867SOL    HW124500   6.323   5.971   3.635
 7867SOL    HW224501   6.216   6.031   3.528
 7868SOL     OW24502   4.323   6.042   1.428
 7868SOL    HW124503   4.417   6.069   1.452
 7868SOL    HW224504   4.303   5.954   1.470
 7869SOL     OW24505   5.451   4.316   6.203
 7869SOL    HW124506   5.423   4.373   6.280
 7869SOL    HW224507   5.455   4.220   6.232
 7870SOL     OW24508   5.099   6.225   4.296
 7870SOL    HW124509   5.015   6.279   4.295
 7870SOL    HW224510   5.176   6.284   4.321
 7871SOL     OW24511   4.551   2.417   1.559
 7871SOL    HW124512   4.587   2.445   1.470
 7871SOL    HW224513   4.568   2.320   1.574
 7872SOL     OW24514   1.813   4.058   2.812
 7872SOL    HW124515   1.904   4.043   2.774
 7872SOL    HW224516   1.788   4.154   2.800
 7873SOL     OW24517   6.274   0.093   7.023
 7873SOL    HW124518   6.202   0.129   6.964
 7873SOL    HW224519   6.233   0.062   0.086
 7874SOL     OW24520   4.791   2.341   0.998
 7874SOL    HW124521   4.810   2.258   0.944
 7874SOL    HW224522   4.693   2.349   1.012
 7875SOL     OW24523   4.156   2.485   0.135
 7875SOL    HW124524   4.203   2.502   0.048
 7875SOL    HW224525   4.069   2.438   0.118
 7876SOL     OW24526   1.174   6.005   3.586
 7876SOL    HW124527   1.087   5.979   3.544
 7876SOL    HW224528   1.218   6.075   3.530
 7877SOL     OW24529   0.476   1.555   2.687
 7877SOL    HW124530   0.553   1.544   2.750
 7877SOL    HW224531   0.397   1.591   2.737
 7878SOL     OW24532   4.555   4.443   3.946
 7878SOL    HW124533   4.545   4.529   3.897
 7878SOL    HW224534   4.482   4.433   4.013
 7879SOL     OW24535   3.737   5.202   2.745
 7879SOL    HW124536   3.643   5.225   2.769
 7879SOL    HW224537   3.769   5.126   2.803
 7880SOL     OW24538   2.007   3.942   1.720
 7880SOL    HW124539   2.101   3.948   1.753
 7880SOL    HW224540   1.948   3.911   1.795
 7881SOL     OW24541   5.079   4.627   4.824
 7881SOL    HW124542   4.982   4.603   4.817
 7881SOL    HW224543   5.120   4.629   4.733
 7882SOL     OW24544   1.780   3.867   1.862
 7882SOL    HW124545   1.695   3.880   1.811
 7882SOL    HW224546   1.763   3.884   1.959
 7883SOL     OW24547   1.169   0.439   6.284
 7883SOL    HW124548   1.245   0.497   6.254
 7883SOL    HW224549   1.088   0.458   6.228
 7884SOL     OW24550   1.572   4.140   4.889
 7884SOL    HW124551   1.648   4.179   4.941
 7884SOL    HW224552   1.525   4.212   4.839
 7885SOL     OW24553   6.798   5.663   1.344
 7885SOL    HW124554   6.741   5.644   1.424
 7885SOL    HW224555   6.811   5.579   1.291
 7886SOL     OW24556   3.904   5.959   6.795
 7886SOL    HW124557   3.954   5.949   6.710
 7886SOL    HW224558   3.806   5.944   6.778
 7887SOL     OW24559   3.378   2.665   6.021
 7887SOL    HW124560   3.396   2.604   5.943
 7887SOL    HW224561   3.284   2.651   6.053
 7888SOL     OW24562   6.112   0.351   5.636
 7888SOL    HW124563   6.051   0.284   5.593
 7888SOL    HW224564   6.126   0.326   5.732
 7889SOL     OW24565   1.878   4.616   2.605
 7889SOL    HW124566   1.842   4.652   2.519
 7889SOL    HW224567   1.805   4.574   2.657
 7890SOL     OW24568   1.564   3.553   2.924
 7890SOL    HW124569   1.601   3.504   3.004
 7890SOL    HW224570   1.612   3.639   2.913
 7891SOL     OW24571   1.481   3.721   3.257
 7891SOL    HW124572   1.482   3.788   3.182
 7891SOL    HW224573   1.387   3.707   3.287
 7892SOL     OW24574   1.743   2.375   4.004
 7892SOL    HW124575   1.796   2.443   3.953
 7892SOL    HW224576   1.645   2.393   3.993
 7893SOL     OW24577   6.760   6.964   2.855
 7893SOL    HW124578   6.759   0.013   2.924
 7893SOL    HW224579   6.807   6.997   2.773
 7894SOL     OW24580   2.655   6.637   1.459
 7894SOL    HW124581   2.582   6.570   1.447
 7894SOL    HW224582   2.625   6.708   1.523
 7895SOL     OW24583   6.721   1.523   6.002
 7895SOL    HW124584   6.694   1.429   5.981
 7895SOL    HW224585   6.705   1.582   5.923
 7896SOL     OW24586   4.921   3.398   6.821
 7896SOL    HW124587   4.929   3.468   6.750
 7896SOL    HW224588   4.879   3.438   6.902
 7897SOL     OW24589   2.399   4.056   6.331
 7897SOL    HW124590   2.430   4.036   6.238
 7897SOL    HW224591   2.479   4.068   6.391
 7898SOL     OW24592   5.461   2.216   3.811
 7898SOL    HW124593   5.439   2.308   3.843
 7898SOL    HW224594   5.532   2.222   3.740
 7899SOL     OW24595   5.967   1.349   1.710
 7899SOL    HW124596   5.875   1.356   1.749
 7899SOL    HW224597   5.973   1.268   1.651
 7900SOL     OW24598   1.508   5.798   1.446
 7900SOL    HW124599   1.506   5.701   1.469
 7900SOL    HW224600   1.437   5.846   1.498
 7901SOL     OW24601   4.739   0.722   6.143
 7901SOL    HW124602   4.803   0.792   6.112
 7901SOL    HW224603   4.740   0.718   6.243
 7902SOL     OW24604   5.790   5.505   1.709
 7902SOL    HW124605   5.691   5.497   1.697
 7902SOL    HW224606   5.815   5.601   1.723
 7903SOL     OW24607   6.319   2.105   0.819
 7903SOL    HW124608   6.263   2.063   0.890
 7903SOL    HW224609   6.416   2.087   0.837
 7904SOL     OW24610   5.567   0.442   3.428
 7904SOL    HW124611   5.539   0.346   3.421
 7904SOL    HW224612   5.545   0.490   3.344
 7905SOL     OW24613   4.467   1.883   0.443
 7905SOL    HW124614   4.428   1.794   0.419
 7905SOL    HW224615   4.557   1.892   0.402
 7906SOL     OW24616   0.544   5.813   0.560
 7906SOL    HW124617   0.558   5.872   0.480
 7906SOL    HW224618   0.632   5.787   0.598
 7907SOL     OW24619   5.823   1.890   3.854
 7907SOL    HW124620   5.917   1.918   3.875
 7907SOL    HW224621   5.823   1.795   3.822
 7908SOL     OW24622   0.938   1.487   4.202
 7908SOL    HW124623   1.021   1.512   4.252
 7908SOL    HW224624   0.935   1.536   4.115
 7909SOL     OW24625   5.470   3.936   5.014
 7909SOL    HW124626   5.519   3.856   4.978
 7909SOL    HW224627   5.527   4.017   5.005
 7910SOL     OW24628   2.872   2.820   5.643
 7910SOL    HW124629   2.852   2.917   5.628
 7910SOL    HW224630   2.905   2.780   5.558
 7911SOL     OW24631   1.164   3.256   6.482
 7911SOL    HW124632   1.090   3.227   6.542
 7911SOL    HW224633   1.202   3.343   6.513
 7912SOL     OW24634   0.246   5.388   0.611
 7912SOL    HW124635   0.239   5.464   0.677
 7912SOL    HW224636   0.299   5.418   0.532
 7913SOL     OW24637   1.518   5.045   0.818
 7913SOL    HW124638   1.570   4.982   0.760
 7913SOL    HW224639   1.434   5.000   0.848
 7914SOL     OW24640   0.242   4.991   6.407
 7914SOL    HW124641   0.230   5.014   6.504
 7914SOL    HW224642   0.169   4.929   6.379
 7915SOL     OW24643   4.772   2.877   2.472
 7915SOL    HW124644   4.776   2.893   2.570
 7915SOL    HW224645   4.760   2.779   2.455
 7916SOL     OW24646   6.118   3.921   5.704
 7916SOL    HW124647   6.149   3.978   5.627
 7916SOL    HW224648   6.093   3.830   5.670
 7917SOL     OW24649   3.132   3.009   3.989
 7917SOL    HW124650   3.197   2.934   4.001
 7917SOL    HW224651   3.155   3.060   3.906
 7918SOL     OW24652   0.290   1.434   0.748
 7918SOL    HW124653   0.387   1.428   0.772
 7918SOL    HW224654   0.247   1.344   0.756
 7919SOL     OW24655   0.936   4.274   3.297
 7919SOL    HW124656   0.900   4.299   3.207
 7919SOL    HW224657   0.979   4.354   3.339
 7920SOL     OW24658   0.861   5.055   1.478
 7920SOL    HW124659   0.819   5.140   1.510
 7920SOL    HW224660   0.958   5.070   1.461
 7921SOL     OW24661   3.675   5.578   0.643
 7921SOL    HW124662   3.755   5.561   0.700
 7921SOL    HW224663   3.695   5.558   0.548
 7922SOL     OW24664   6.471   5.699   0.555
 7922SOL    HW124665   6.434   5.751   0.478
 7922SOL    HW224666   6.512   5.762   0.621
 7923SOL     OW24667   2.901   0.281   2.498
 7923SOL    HW124668   2.978   0.254   2.555
 7923SOL    HW224669   2.934   0.333   2.419
 7924SOL     OW24670   3.987   6.170   3.026
 7924SOL    HW124671   3.911   6.173   2.961
 7924SOL    HW224672   4.026   6.261   3.036
 7925SOL     OW24673   0.604   1.701   6.474
 7925SOL    HW124674   0.515   1.666   6.504
 7925SOL    HW224675   0.632   1.654   6.390
 7926SOL     OW24676   4.848   1.101   4.801
 7926SOL    HW124677   4.791   1.146   4.732
 7926SOL    HW224678   4.793   1.078   4.881
 7927SOL     OW24679   3.919   5.550   4.450
 7927SOL    HW124680   3.929   5.649   4.462
 7927SOL    HW224681   3.981   5.519   4.378
 7928SOL     OW24682   1.168   3.200   3.824
 7928SOL    HW124683   1.239   3.179   3.890
 7928SOL    HW224684   1.123   3.286   3.849
 7929SOL     OW24685   4.194   4.075   5.293
 7929SOL    HW124686   4.271   4.130   5.325
 7929SOL    HW224687   4.223   3.979   5.287
 7930SOL     OW24688   4.667   5.620   3.927
 7930SOL    HW124689   4.620   5.682   3.989
 7930SOL    HW224690   4.604   5.547   3.899
 7931SOL     OW24691   1.312   1.798   6.255
 7931SOL    HW124692   1.283   1.892   6.241
 7931SOL    HW224693   1.261   1.759   6.333
 7932SOL     OW24694   2.812   6.647   0.387
 7932SOL    HW124695   2.854   6.568   0.433
 7932SOL    HW224696   2.788   6.716   0.454
 7933SOL     OW24697   6.977   0.051   0.155
 7933SOL    HW124698   6.974   0.097   0.066
 7933SOL    HW224699   6.972   6.975   0.143
 7934SOL     OW24700   2.498   4.604   6.778
 7934SOL    HW124701   2.516   4.590   6.875
 7934SOL    HW224702   2.400   4.605   6.762
 7935SOL     OW24703   5.450   5.481   0.016
 7935SOL    HW124704   5.543   5.480   0.052
 7935SOL    HW224705   5.453   5.494   6.940
 7936SOL     OW24706   3.672   5.313   2.421
 7936SOL    HW124707   3.597   5.270   2.371
 7936SOL    HW224708   3.638   5.346   2.509
 7937SOL     OW24709   5.874   6.977   3.671
 7937SOL    HW124710   5.892   6.925   3.755
 7937SOL    HW224711   5.842   6.914   3.600
 7938SOL     OW24712   5.691   4.844   5.415
 7938SOL    HW124713   5.725   4.907   5.486
 7938SOL    HW224714   5.706   4.885   5.325
 7939SOL     OW24715   0.277   2.224   5.971
 7939SOL    HW124716   0.278   2.144   5.911
 7939SOL    HW224717   0.252   2.196   6.064
 7940SOL     OW24718   1.788   4.252   2.603
 7940SOL    HW124719   1.874   4.299   2.623
 7940SOL    HW224720   1.713   4.319   2.602
 7941SOL     OW24721   6.886   6.959   1.141
 7941SOL    HW124722   6.791   6.947   1.171
 7941SOL    HW224723   6.909   0.033   1.146
 7942SOL     OW24724   6.644   6.357   2.919
 7942SOL    HW124725   6.583   6.354   2.839
 7942SOL    HW224726   6.696   6.442   2.918
 7943SOL     OW24727   5.796   2.040   0.777
 7943SOL    HW124728   5.815   2.118   0.718
 7943SOL    HW224729   5.697   2.021   0.776
 7944SOL     OW24730   0.285   3.169   0.875
 7944SOL    HW124731   0.328   3.112   0.805
 7944SOL    HW224732   0.290   3.265   0.848
 7945SOL     OW24733   5.619   6.847   2.687
 7945SOL    HW124734   5.574   6.935   2.675
 7945SOL    HW224735   5.718   6.860   2.688
 7946SOL     OW24736   2.091   2.691   5.693
 7946SOL    HW124737   2.110   2.789   5.689
 7946SOL    HW224738   2.176   2.641   5.677
 7947SOL     OW24739   3.643   2.786   6.452
 7947SOL    HW124740   3.681   2.788   6.359
 7947SOL    HW224741   3.546   2.761   6.447
 7948SOL     OW24742   0.252   6.427   1.334
 7948SOL    HW124743   0.177   6.482   1.370
 7948SOL    HW224744   0.282   6.466   1.246
 7949SOL     OW24745   4.418   4.520   3.588
 7949SOL    HW124746   4.319   4.532   3.595
 7949SOL    HW224747   4.464   4.582   3.651
 7950SOL     OW24748   4.871   5.573   3.751
 7950SOL    HW124749   4.832   5.483   3.732
 7950SOL    HW224750   4.817   5.618   3.823
 7951SOL     OW24751   1.942   3.814   0.968
 7951SOL    HW124752   2.021   3.856   0.925
 7951SOL    HW224753   1.971   3.760   1.047
 7952SOL     OW24754   0.539   3.256   6.848
 7952SOL    HW124755   0.511   3.244   6.943
 7952SOL    HW224756   0.466   3.300   6.796
 7953SOL     OW24757   2.245   2.932   3.594
 7953SOL    HW124758   2.157   2.902   3.556
 7953SOL    HW224759   2.320   2.894   3.539
 7954SOL     OW24760   4.572   4.500   5.404
 7954SOL    HW124761   4.646   4.441   5.372
 7954SOL    HW224762   4.610   4.588   5.433
 7955SOL     OW24763   1.465   6.541   6.262
 7955SOL    HW124764   1.498   6.471   6.199
 7955SOL    HW224765   1.543   6.594   6.296
 7956SOL     OW24766   1.314   6.327   2.301
 7956SOL    HW124767   1.352   6.248   2.253
 7956SOL    HW224768   1.249   6.296   2.370
 7957SOL     OW24769   2.068   1.139   0.484
 7957SOL    HW124770   2.159   1.171   0.512
 7957SOL    HW224771   2.053   1.046   0.517
 7958SOL     OW24772   3.142   5.650   4.442
 7958SOL    HW124773   3.115   5.696   4.358
 7958SOL    HW224774   3.114   5.704   4.521
 7959SOL     OW24775   4.267   5.138   1.268
 7959SOL    HW124776   4.285   5.040   1.276
 7959SOL    HW224777   4.188   5.161   1.324
 7960SOL     OW24778   3.650   1.472   0.777
 7960SOL    HW124779   3.599   1.492   0.861
 7960SOL    HW224780   3.730   1.532   0.771
 7961SOL     OW24781   0.828   6.128   0.176
 7961SOL    HW124782   0.853   6.224   0.187
 7961SOL    HW224783   0.874   6.090   0.096
 7962SOL     OW24784   1.958   0.536   6.955
 7962SOL    HW124785   1.923   0.535   6.862
 7962SOL    HW224786   2.007   0.622   6.972
 7963SOL     OW24787   6.502   0.690   4.052
 7963SOL    HW124788   6.532   0.743   4.132
 7963SOL    HW224789   6.403   0.693   4.045
 7964SOL     OW24790   6.060   5.185   3.786
 7964SOL    HW124791   6.085   5.252   3.715
 7964SOL    HW224792   6.134   5.118   3.795
 7965SOL     OW24793   3.452   2.562   6.343
 7965SOL    HW124794   3.357   2.547   6.371
 7965SOL    HW224795   3.455   2.633   6.273
 7966SOL     OW24796   0.375   3.228   5.364
 7966SOL    HW124797   0.381   3.300   5.294
 7966SOL    HW224798   0.381   3.269   5.455
 7967SOL     OW24799   3.223   6.627   4.044
 7967SOL    HW124800   3.296   6.582   4.094
 7967SOL    HW224801   3.167   6.681   4.107
 7968SOL     OW24802   2.386   2.755   3.390
 7968SOL    HW124803   2.295   2.726   3.360
 7968SOL    HW224804   2.451   2.680   3.377
 7969SOL     OW24805   4.697   6.927   2.427
 7969SOL    HW124806   4.718   6.993   2.500
 7969SOL    HW224807   4.598   6.920   2.416
 7970SOL     OW24808   0.028   3.370   2.779
 7970SOL    HW124809   7.014   3.279   2.764
 7970SOL    HW224810   0.089   3.395   2.703
 7971SOL     OW24811   3.472   1.744   0.738
 7971SOL    HW124812   3.442   1.836   0.763
 7971SOL    HW224813   3.492   1.691   0.820
 7972SOL     OW24814   0.843   4.260   1.458
 7972SOL    HW124815   0.855   4.220   1.367
 7972SOL    HW224816   0.855   4.189   1.528
 7973SOL     OW24817   5.371   3.395   2.709
 7973SOL    HW124818   5.316   3.325   2.663
 7973SOL    HW224819   5.440   3.430   2.647
 7974SOL     OW24820   5.540   0.314   4.789
 7974SOL    HW124821   5.517   0.369   4.709
 7974SOL    HW224822   5.636   0.328   4.813
 7975SOL     OW24823   5.613   0.548   3.685
 7975SOL    HW124824   5.611   0.508   3.593
 7975SOL    HW224825   5.697   0.521   3.732
 7976SOL     OW24826   0.782   0.589   5.545
 7976SOL    HW124827   0.703   0.556   5.595
 7976SOL    HW224828   0.778   0.556   5.450
 7977SOL     OW24829   4.698   5.697   2.148
 7977SOL    HW124830   4.649   5.623   2.194
 7977SOL    HW224831   4.766   5.659   2.085
 7978SOL     OW24832   5.851   3.450   6.147
 7978SOL    HW124833   5.769   3.395   6.142
 7978SOL    HW224834   5.862   3.503   6.063
 7979SOL     OW24835   3.142   0.571   5.391
 7979SOL    HW124836   3.072   0.567   5.463
 7979SOL    HW224837   3.176   0.478   5.374
 7980SOL     OW24838   3.087   6.091   0.056
 7980SOL    HW124839   3.009   6.129   0.106
 7980SOL    HW224840   3.089   5.992   0.068
 7981SOL     OW24841   0.560   5.817   2.494
 7981SOL    HW124842   0.490   5.883   2.467
 7981SOL    HW224843   0.650   5.856   2.480
 7982SOL     OW24844   6.641   1.730   0.576
 7982SOL    HW124845   6.693   1.763   0.655
 7982SOL    HW224846   6.602   1.809   0.528
 7983SOL     OW24847   5.270   2.159   3.009
 7983SOL    HW124848   5.354   2.174   2.957
 7983SOL    HW224849   5.252   2.061   3.017
 7984SOL     OW24850   1.635   2.249   1.483
 7984SOL    HW124851   1.644   2.200   1.396
 7984SOL    HW224852   1.575   2.329   1.470
 7985SOL     OW24853   2.416   6.912   3.690
 7985SOL    HW124854   2.365   6.931   3.774
 7985SOL    HW224855   2.378   6.965   3.615
 7986SOL     OW24856   3.488   1.129   6.678
 7986SOL    HW124857   3.428   1.082   6.614
 7986SOL    HW224858   3.566   1.166   6.629
 7987SOL     OW24859   0.751   3.372   6.666
 7987SOL    HW124860   0.714   3.403   6.579
 7987SOL    HW224861   0.678   3.332   6.721
 7988SOL     OW24862   1.715   1.864   4.471
 7988SOL    HW124863   1.714   1.908   4.381
 7988SOL    HW224864   1.621   1.856   4.505
 7989SOL     OW24865   3.357   2.213   5.382
 7989SOL    HW124866   3.298   2.169   5.450
 7989SOL    HW224867   3.300   2.246   5.306
 7990SOL     OW24868   6.224   3.970   3.808
 7990SOL    HW124869   6.224   3.920   3.721
 7990SOL    HW224870   6.209   3.907   3.883
 7991SOL     OW24871   6.366   0.799   5.103
 7991SOL    HW124872   6.353   0.745   5.020
 7991SOL    HW224873   6.464   0.809   5.121
 7992SOL     OW24874   1.287   6.346   0.758
 7992SOL    HW124875   1.247   6.437   0.749
 7992SOL    HW224876   1.372   6.352   0.811
 7993SOL     OW24877   1.349   5.882   6.824
 7993SOL    HW124878   1.273   5.818   6.837
 7993SOL    HW224879   1.373   5.886   6.727
 7994SOL     OW24880   4.641   0.620   3.158
 7994SOL    HW124881   4.659   0.702   3.105
 7994SOL    HW224882   4.728   0.582   3.192
 7995SOL     OW24883   4.200   5.488   3.570
 7995SOL    HW124884   4.271   5.527   3.512
 7995SOL    HW224885   4.110   5.507   3.530
 7996SOL     OW24886   2.991   6.616   4.493
 7996SOL    HW124887   3.043   6.545   4.540
 7996SOL    HW224888   2.944   6.672   4.561
 7997SOL     OW24889   0.206   1.133   0.757
 7997SOL    HW124890   0.129   1.080   0.793
 7997SOL    HW224891   0.284   1.072   0.741
 7998SOL     OW24892   4.159   5.409   1.005
 7998SOL    HW124893   4.183   5.502   1.036
 7998SOL    HW224894   4.195   5.394   0.913
 7999SOL     OW24895   1.434   0.822   6.309
 7999SOL    HW124896   1.388   0.743   6.268
 7999SOL    HW224897   1.499   0.791   6.378
 8000SOL     OW24898   5.545   0.747   0.111
 8000SOL    HW124899   5.532   0.787   0.201
 8000SOL    HW224900   5.456   0.723   0.072
 8001SOL     OW24901   3.538   6.330   1.341
 8001SOL    HW124902   3.452   6.282   1.358
 8001SOL    HW224903   3.519   6.426   1.320
 8002SOL     OW24904   0.142   2.634   5.729
 8002SOL    HW124905   0.125   2.688   5.647
 8002SOL    HW224906   0.240   2.639   5.752
 8003SOL     OW24907   2.318   4.920   1.908
 8003SOL    HW124908   2.298   4.896   2.002
 8003SOL    HW224909   2.291   4.845   1.848
 8004SOL     OW24910   1.717   4.384   2.884
 8004SOL    HW124911   1.795   4.446   2.876
 8004SOL    HW224912   1.682   4.386   2.977
 8005SOL     OW24913   3.344   1.659   2.141
 8005SOL    HW124914   3.267   1.706   2.184
 8005SOL    HW224915   3.413   1.726   2.114
 8006SOL     OW24916   2.576   6.557   0.697
 8006SOL    HW124917   2.526   6.640   0.719
 8006SOL    HW224918   2.667   6.561   0.738
 8007SOL     OW24919   1.195   6.873   3.864
 8007SOL    HW124920   1.141   6.793   3.889
 8007SOL    HW224921   1.139   6.956   3.876
 8008SOL     OW24922   4.879   6.819   5.899
 8008SOL    HW124923   4.871   6.782   5.806
 8008SOL    HW224924   4.945   6.894   5.900
 8009SOL     OW24925   6.218   0.472   3.475
 8009SOL    HW124926   6.307   0.443   3.512
 8009SOL    HW224927   6.200   0.422   3.390
 8010SOL     OW24928   1.475   1.555   6.796
 8010SOL    HW124929   1.492   1.458   6.812
 8010SOL    HW224930   1.525   1.610   6.862
 8011SOL     OW24931   2.537   2.905   1.460
 8011SOL    HW124932   2.589   2.845   1.399
 8011SOL    HW224933   2.520   2.858   1.547
 8012SOL     OW24934   2.355   5.781   1.463
 8012SOL    HW124935   2.438   5.824   1.499
 8012SOL    HW224936   2.304   5.847   1.407
 8013SOL     OW24937   0.583   5.202   4.776
 8013SOL    HW124938   0.607   5.287   4.822
 8013SOL    HW224939   0.640   5.191   4.695
 8014SOL     OW24940   0.927   6.484   5.210
 8014SOL    HW124941   1.019   6.506   5.243
 8014SOL    HW224942   0.864   6.558   5.236
 8015SOL     OW24943   2.897   1.431   0.214
 8015SOL    HW124944   2.978   1.443   0.272
 8015SOL    HW224945   2.921   1.449   0.119
 8016SOL     OW24946   4.331   0.255   6.414
 8016SOL    HW124947   4.384   0.327   6.370
 8016SOL    HW224948   4.306   0.185   6.347
 8017SOL     OW24949   6.567   4.984   6.264
 8017SOL    HW124950   6.586   4.892   6.299
 8017SOL    HW224951   6.470   4.990   6.239
 8018SOL     OW24952   4.068   2.537   6.363
 8018SOL    HW124953   3.994   2.562   6.426
 8018SOL    HW224954   4.030   2.519   6.272
 8019SOL     OW24955   2.279   3.818   0.100
 8019SOL    HW124956   2.187   3.787   0.077
 8019SOL    HW224957   2.332   3.829   0.016
 8020SOL     OW24958   6.447   6.154   0.696
 8020SOL    HW124959   6.544   6.133   0.699
 8020SOL    HW224960   6.429   6.236   0.751
 8021SOL     OW24961   1.216   2.355   1.926
 8021SOL    HW124962   1.251   2.301   2.002
 8021SOL    HW224963   1.286   2.421   1.897
 8022SOL     OW24964   4.285   0.373   2.550
 8022SOL    HW124965   4.331   0.415   2.628
 8022SOL    HW224966   4.191   0.408   2.544
 8023SOL     OW24967   5.960   5.941   3.770
 8023SOL    HW124968   5.988   5.922   3.864
 8023SOL    HW224969   5.876   5.892   3.749
 8024SOL     OW24970   2.716   4.764   0.299
 8024SOL    HW124971   2.718   4.864   0.307
 8024SOL    HW224972   2.808   4.731   0.278
 8025SOL     OW24973   2.726   6.007   5.816
 8025SOL    HW124974   2.796   5.970   5.878
 8025SOL    HW224975   2.768   6.025   5.726
 8026SOL     OW24976   0.328   4.688   0.016
 8026SOL    HW124977   0.325   4.747   6.959
 8026SOL    HW224978   0.386   4.609   7.020
 8027SOL     OW24979   4.541   2.032   5.494
 8027SOL    HW124980   4.589   1.969   5.433
 8027SOL    HW224981   4.595   2.115   5.506
 8028SOL     OW24982   3.525   4.648   6.094
 8028SOL    HW124983   3.458   4.666   6.022
 8028SOL    HW224984   3.580   4.730   6.110
 8029SOL     OW24985   5.691   3.704   0.101
 8029SOL    HW124986   5.657   3.759   0.024
 8029SOL    HW224987   5.760   3.639   0.068
 8030SOL     OW24988   5.811   3.986   6.482
 8030SOL    HW124989   5.717   3.969   6.450
 8030SOL    HW224990   5.871   3.913   6.449
 8031SOL     OW24991   5.088   5.839   2.560
 8031SOL    HW124992   5.118   5.809   2.650
 8031SOL    HW224993   5.008   5.786   2.532
 8032SOL     OW24994   5.702   4.495   5.771
 8032SOL    HW124995   5.602   4.500   5.774
 8032SOL    HW224996   5.732   4.408   5.810
 8033SOL     OW24997   5.230   3.152   6.745
 8033SOL    HW124998   5.325   3.183   6.743
 8033SOL    HW224999   5.187   3.181   6.830
 8034SOL     OW25000   6.264   1.306   5.417
 8034SOL    HW125001   6.287   1.213   5.445
 8034SOL    HW225002   6.170   1.309   5.384
 8035SOL     OW25003   4.418   0.097   5.019
 8035SOL    HW125004   4.475   0.177   5.039
 8035SOL    HW225005   4.464   0.015   5.053
 8036SOL     OW25006   0.778   4.059   2.885
 8036SOL    HW125007   0.805   3.983   2.826
 8036SOL    HW225008   0.709   4.115   2.838
 8037SOL     OW25009   1.654   3.997   2.147
 8037SOL    HW125010   1.584   3.934   2.114
 8037SOL    HW225011   1.727   3.945   2.192
 8038SOL     OW25012   4.610   1.211   2.666
 8038SOL    HW125013   4.603   1.287   2.601
 8038SOL    HW225014   4.679   1.147   2.634
 8039SOL     OW25015   1.233   0.129   3.145
 8039SOL    HW125016   1.241   0.193   3.222
 8039SOL    HW225017   1.290   0.161   3.069
 8040SOL     OW25018   1.586   5.954   1.217
 8040SOL    HW125019   1.579   5.916   1.309
 8040SOL    HW225020   1.632   5.889   1.157
 8041SOL     OW25021   3.148   2.020   2.317
 8041SOL    HW125022   3.221   2.045   2.381
 8041SOL    HW225023   3.147   2.084   2.241
 8042SOL     OW25024   3.771   2.907   3.022
 8042SOL    HW125025   3.728   2.995   3.042
 8042SOL    HW225026   3.785   2.898   2.924
 8043SOL     OW25027   3.572   6.242   0.729
 8043SOL    HW125028   3.481   6.282   0.735
 8043SOL    HW225029   3.640   6.315   0.718
 8044SOL     OW25030   3.034   3.559   0.607
 8044SOL    HW125031   2.988   3.581   0.693
 8044SOL    HW225032   3.132   3.577   0.618
 8045SOL     OW25033   5.503   0.846   1.927
 8045SOL    HW125034   5.511   0.886   1.835
 8045SOL    HW225035   5.520   0.748   1.922
 8046SOL     OW25036   6.632   4.912   6.797
 8046SOL    HW125037   6.690   4.915   6.878
 8046SOL    HW225038   6.649   4.994   6.742
 8047SOL     OW25039   3.886   5.028   5.107
 8047SOL    HW125040   3.806   5.051   5.163
 8047SOL    HW225041   3.967   5.073   5.146
 8048SOL     OW25042   5.371   1.074   5.836
 8048SOL    HW125043   5.445   1.101   5.775
 8048SOL    HW225044   5.341   1.152   5.890
 8049SOL     OW25045   1.303   0.121   1.127
 8049SOL    HW125046   1.291   0.047   1.195
 8049SOL    HW225047   1.229   0.115   1.060
 8050SOL     OW25048   0.869   4.183   2.165
 8050SOL    HW125049   0.918   4.107   2.124
 8050SOL    HW225050   0.792   4.149   2.218
 8051SOL     OW25051   5.030   6.391   3.206
 8051SOL    HW125052   4.987   6.349   3.286
 8051SOL    HW225053   5.115   6.436   3.233
 8052SOL     OW25054   3.578   1.318   1.942
 8052SOL    HW125055   3.648   1.249   1.923
 8052SOL    HW225056   3.613   1.383   2.009
 8053SOL     OW25057   3.733   3.866   3.030
 8053SOL    HW125058   3.825   3.891   3.059
 8053SOL    HW225059   3.669   3.938   3.058
 8054SOL     OW25060   5.651   6.444   4.276
 8054SOL    HW125061   5.587   6.472   4.204
 8054SOL    HW225062   5.604   6.385   4.342
 8055SOL     OW25063   0.502   0.180   5.704
 8055SOL    HW125064   0.478   0.173   5.801
 8055SOL    HW225065   0.568   0.254   5.691
 8056SOL     OW25066   4.100   1.330   4.034
 8056SOL    HW125067   4.153   1.327   4.119
 8056SOL    HW225068   4.046   1.413   4.031
 8057SOL     OW25069   2.226   1.821   2.343
 8057SOL    HW125070   2.311   1.773   2.365
 8057SOL    HW225071   2.186   1.780   2.261
 8058SOL     OW25072   3.146   0.223   2.627
 8058SOL    HW125073   3.195   0.192   2.709
 8058SOL    HW225074   3.167   0.319   2.610
 8059SOL     OW25075   4.066   2.129   4.695
 8059SOL    HW125076   4.117   2.174   4.768
 8059SOL    HW225077   4.053   2.193   4.619
 8060SOL     OW25078   0.377   1.326   4.029
 8060SOL    HW125079   0.280   1.310   4.049
 8060SOL    HW225080   0.429   1.330   4.114
 8061SOL     OW25081   6.537   6.657   1.672
 8061SOL    HW125082   6.565   6.708   1.753
 8061SOL    HW225083   6.464   6.593   1.697
 8062SOL     OW25084   2.485   4.447   4.202
 8062SOL    HW125085   2.574   4.473   4.238
 8062SOL    HW225086   2.438   4.529   4.168
 8063SOL     OW25087   1.907   3.258   0.909
 8063SOL    HW125088   1.842   3.199   0.956
 8063SOL    HW225089   1.944   3.211   0.829
 8064SOL     OW25090   0.377   5.108   1.339
 8064SOL    HW125091   0.283   5.139   1.326
 8064SOL    HW225092   0.397   5.034   1.275
 8065SOL     OW25093   4.464   6.317   3.816
 8065SOL    HW125094   4.508   6.401   3.782
 8065SOL    HW225095   4.484   6.306   3.913
 8066SOL     OW25096   1.180   1.641   6.426
 8066SOL    HW125097   1.106   1.668   6.488
 8066SOL    HW225098   1.160   1.551   6.387
 8067SOL     OW25099   4.697   3.086   1.441
 8067SOL    HW125100   4.643   3.122   1.517
 8067SOL    HW225101   4.666   2.994   1.419
 8068SOL     OW25102   6.547   5.537   6.376
 8068SOL    HW125103   6.563   5.475   6.300
 8068SOL    HW225104   6.450   5.557   6.383
 8069SOL     OW25105   2.127   5.967   1.364
 8069SOL    HW125106   2.201   6.031   1.385
 8069SOL    HW225107   2.064   5.962   1.441
 8070SOL     OW25108   2.703   3.641   0.579
 8070SOL    HW125109   2.638   3.639   0.503
 8070SOL    HW225110   2.731   3.548   0.602
 8071SOL     OW25111   2.870   6.422   5.130
 8071SOL    HW125112   2.786   6.451   5.176
 8071SOL    HW225113   2.902   6.337   5.171
 8072SOL     OW25114   3.410   1.203   0.137
 8072SOL    HW125115   3.415   1.221   0.038
 8072SOL    HW225116   3.372   1.112   0.152
 8073SOL     OW25117   4.618   6.915   6.399
 8073SOL    HW125118   4.591   6.899   6.494
 8073SOL    HW225119   4.634   6.827   6.354
 8074SOL     OW25120   3.161   2.751   6.699
 8074SOL    HW125121   3.232   2.740   6.629
 8074SOL    HW225122   3.192   2.707   6.783
 8075SOL     OW25123   6.659   1.015   1.517
 8075SOL    HW125124   6.645   1.069   1.600
 8075SOL    HW225125   6.673   1.077   1.439
 8076SOL     OW25126   4.392   2.437   5.663
 8076SOL    HW125127   4.369   2.480   5.751
 8076SOL    HW225128   4.487   2.459   5.640
 8077SOL     OW25129   0.915   6.023   2.077
 8077SOL    HW125130   1.010   5.999   2.098
 8077SOL    HW225131   0.904   6.122   2.085
 8078SOL     OW25132   6.429   1.820   1.001
 8078SOL    HW125133   6.351   1.770   0.965
 8078SOL    HW225134   6.505   1.757   1.017
 8079SOL     OW25135   5.175   1.907   3.725
 8079SOL    HW125136   5.145   1.923   3.819
 8079SOL    HW225137   5.258   1.851   3.725
 8080SOL     OW25138   0.795   4.095   0.164
 8080SOL    HW125139   0.816   4.032   0.089
 8080SOL    HW225140   0.849   4.178   0.153
 8081SOL     OW25141   5.111   0.431   5.000
 8081SOL    HW125142   5.205   0.405   5.020
 8081SOL    HW225143   5.076   0.375   4.925
 8082SOL     OW25144   6.213   1.251   2.141
 8082SOL    HW125145   6.259   1.323   2.194
 8082SOL    HW225146   6.280   1.203   2.086
 8083SOL     OW25147   5.293   2.812   2.031
 8083SOL    HW125148   5.295   2.895   2.086
 8083SOL    HW225149   5.199   2.791   2.005
 8084SOL     OW25150   5.566   6.692   0.756
 8084SOL    HW125151   5.658   6.720   0.728
 8084SOL    HW225152   5.570   6.651   0.848
 8085SOL     OW25153   5.996   0.099   2.456
 8085SOL    HW125154   6.047   0.063   2.534
 8085SOL    HW225155   5.932   0.030   2.423
 8086SOL     OW25156   4.466   0.453   3.851
 8086SOL    HW125157   4.407   0.373   3.836
 8086SOL    HW225158   4.410   0.529   3.885
 8087SOL     OW25159   2.004   1.468   1.209
 8087SOL    HW125160   1.921   1.514   1.238
 8087SOL    HW225161   2.077   1.536   1.199
 8088SOL     OW25162   5.958   1.631   1.689
 8088SOL    HW125163   6.036   1.676   1.645
 8088SOL    HW225164   5.978   1.534   1.704
 8089SOL     OW25165   5.477   2.214   0.647
 8089SOL    HW125166   5.394   2.269   0.656
 8089SOL    HW225167   5.538   2.257   0.581
 8090SOL     OW25168   4.472   1.843   6.366
 8090SOL    HW125169   4.466   1.744   6.360
 8090SOL    HW225170   4.415   1.877   6.440
 8091SOL     OW25171   2.644   3.657   6.334
 8091SOL    HW125172   2.572   3.652   6.265
 8091SOL    HW225173   2.726   3.609   6.301
 8092SOL     OW25174   1.064   1.971   4.548
 8092SOL    HW125175   0.978   1.936   4.586
 8092SOL    HW225176   1.126   1.995   4.622
 8093SOL     OW25177   5.635   5.829   1.911
 8093SOL    HW125178   5.570   5.904   1.910
 8093SOL    HW225179   5.649   5.798   2.005
 8094SOL     OW25180   2.163   3.913   4.707
 8094SOL    HW125181   2.158   4.013   4.704
 8094SOL    HW225182   2.201   3.884   4.795
 8095SOL     OW25183   6.026   4.184   3.816
 8095SOL    HW125184   6.100   4.117   3.825
 8095SOL    HW225185   5.941   4.136   3.797
 8096SOL     OW25186   3.328   5.406   3.896
 8096SOL    HW125187   3.326   5.317   3.850
 8096SOL    HW225188   3.399   5.463   3.854
 8097SOL     OW25189   5.434   0.466   3.875
 8097SOL    HW125190   5.488   0.413   3.941
 8097SOL    HW225191   5.486   0.476   3.790
 8098SOL     OW25192   1.682   6.559   4.425
 8098SOL    HW125193   1.603   6.620   4.432
 8098SOL    HW225194   1.658   6.470   4.463
 8099SOL     OW25195   6.253   0.547   4.375
 8099SOL    HW125196   6.296   0.461   4.348
 8099SOL    HW225197   6.288   0.576   4.464
 8100SOL     OW25198   0.018   6.519   0.207
 8100SOL    HW125199   7.022   6.615   0.187
 8100SOL    HW225200   0.108   6.494   0.173
 8101SOL     OW25201   2.255   0.457   4.555
 8101SOL    HW125202   2.179   0.407   4.514
 8101SOL    HW225203   2.311   0.498   4.483
 8102SOL     OW25204   1.298   5.011   5.883
 8102SOL    HW125205   1.371   5.048   5.826
 8102SOL    HW225206   1.289   5.067   5.965
 8103SOL     OW25207   4.288   1.427   0.723
 8103SOL    HW125208   4.291   1.345   0.666
 8103SOL    HW225209   4.281   1.508   0.665
 8104SOL     OW25210   2.729   6.715   5.787
 8104SOL    HW125211   2.801   6.732   5.719
 8104SOL    HW225212   2.766   6.658   5.860
 8105SOL     OW25213   1.672   2.123   3.227
 8105SOL    HW125214   1.720   2.073   3.299
 8105SOL    HW225215   1.727   2.202   3.199
 8106SOL     OW25216   2.501   6.169   3.940
 8106SOL    HW125217   2.455   6.136   4.023
 8106SOL    HW225218   2.519   6.267   3.948
 8107SOL     OW25219   1.395   6.107   5.493
 8107SOL    HW125220   1.307   6.123   5.447
 8107SOL    HW225221   1.379   6.069   5.583
 8108SOL     OW25222   5.687   2.717   4.859
 8108SOL    HW125223   5.670   2.697   4.956
 8108SOL    HW225224   5.620   2.783   4.826
 8109SOL     OW25225   1.175   3.760   4.538
 8109SOL    HW125226   1.247   3.808   4.589
 8109SOL    HW225227   1.155   3.810   4.454
 8110SOL     OW25228   3.406   6.609   0.765
 8110SOL    HW125229   3.312   6.632   0.788
 8110SOL    HW225230   3.445   6.679   0.705
 8111SOL     OW25231   3.596   0.149   5.825
 8111SOL    HW125232   3.625   0.063   5.783
 8111SOL    HW225233   3.675   0.193   5.867
 8112SOL     OW25234   1.913   1.228   5.045
 8112SOL    HW125235   1.987   1.196   5.104
 8112SOL    HW225236   1.832   1.170   5.057
 8113SOL     OW25237   2.336   3.284   6.850
 8113SOL    HW125238   2.325   3.379   6.879
 8113SOL    HW225239   2.395   3.236   6.914
 8114SOL     OW25240   2.170   3.032   2.384
 8114SOL    HW125241   2.192   2.986   2.298
 8114SOL    HW225242   2.216   2.985   2.460
 8115SOL     OW25243   4.113   1.312   1.545
 8115SOL    HW125244   4.039   1.244   1.544
 8115SOL    HW225245   4.085   1.392   1.492
 8116SOL     OW25246   4.544   6.674   4.693
 8116SOL    HW125247   4.637   6.647   4.671
 8116SOL    HW225248   4.529   6.768   4.665
 8117SOL     OW25249   2.148   1.577   3.767
 8117SOL    HW125250   2.246   1.563   3.753
 8117SOL    HW225251   2.131   1.671   3.796
 8118SOL     OW25252   0.171   3.538   6.220
 8118SOL    HW125253   0.204   3.530   6.126
 8118SOL    HW225254   0.168   3.634   6.246
 8119SOL     OW25255   0.088   5.736   5.047
 8119SOL    HW125256   0.017   5.710   5.112
 8119SOL    HW225257   0.120   5.828   5.067
 8120SOL     OW25258   4.024   4.411   6.478
 8120SOL    HW125259   3.983   4.393   6.568
 8120SOL    HW225260   3.976   4.487   6.435
 8121SOL     OW25261   6.367   5.449   3.376
 8121SOL    HW125262   6.372   5.541   3.337
 8121SOL    HW225263   6.366   5.456   3.476
 8122SOL     OW25264   0.346   5.262   2.396
 8122SOL    HW125265   0.345   5.187   2.463
 8122SOL    HW225266   0.340   5.225   2.304
 8123SOL     OW25267   0.205   0.036   0.418
 8123SOL    HW125268   0.237   0.121   0.460
 8123SOL    HW225269   0.106   0.028   0.432
 8124SOL     OW25270   0.407   6.199   1.397
 8124SOL    HW125271   0.504   6.200   1.375
 8124SOL    HW225272   0.368   6.290   1.386
 8125SOL     OW25273   6.843   5.327   3.210
 8125SOL    HW125274   6.860   5.229   3.196
 8125SOL    HW225275   6.746   5.346   3.196
 8126SOL     OW25276   6.430   4.093   2.094
 8126SOL    HW125277   6.504   4.120   2.032
 8126SOL    HW225278   6.468   4.038   2.169
 8127SOL     OW25279   2.156   5.951   0.679
 8127SOL    HW125280   2.144   5.956   0.580
 8127SOL    HW225281   2.067   5.961   0.724
 8128SOL     OW25282   3.178   2.905   0.008
 8128SOL    HW125283   3.083   2.918   7.004
 8128SOL    HW225284   3.210   2.815   7.002
 8129SOL     OW25285   4.914   1.005   6.357
 8129SOL    HW125286   4.881   1.011   6.262
 8129SOL    HW225287   4.897   1.092   6.403
 8130SOL     OW25288   0.825   4.755   6.156
 8130SOL    HW125289   0.791   4.794   6.070
 8130SOL    HW225290   0.901   4.693   6.137
 8131SOL     OW25291   2.558   0.686   0.310
 8131SOL    HW125292   2.556   0.602   0.365
 8131SOL    HW225293   2.557   0.766   0.371
 8132SOL     OW25294   5.819   6.465   6.271
 8132SOL    HW125295   5.863   6.527   6.206
 8132SOL    HW225296   5.839   6.370   6.245
 8133SOL     OW25297   3.589   4.908   2.222
 8133SOL    HW125298   3.565   4.856   2.141
 8133SOL    HW225299   3.530   4.881   2.298
 8134SOL     OW25300   1.858   1.036   4.358
 8134SOL    HW125301   1.931   1.096   4.326
 8134SOL    HW225302   1.846   1.049   4.457
 8135SOL     OW25303   2.268   5.450   2.296
 8135SOL    HW125304   2.254   5.549   2.302
 8135SOL    HW225305   2.357   5.431   2.253
 8136SOL     OW25306   4.568   4.750   2.460
 8136SOL    HW125307   4.594   4.847   2.461
 8136SOL    HW225308   4.551   4.721   2.366
 8137SOL     OW25309   2.609   1.762   4.438
 8137SOL    HW125310   2.593   1.853   4.476
 8137SOL    HW225311   2.603   1.766   4.338
 8138SOL     OW25312   6.005   2.157   1.588
 8138SOL    HW125313   5.951   2.142   1.672
 8138SOL    HW225314   6.098   2.184   1.613
 8139SOL     OW25315   1.708   2.778   3.077
 8139SOL    HW125316   1.695   2.703   3.142
 8139SOL    HW225317   1.643   2.767   3.002
 8140SOL     OW25318   3.470   0.371   0.398
 8140SOL    HW125319   3.489   0.288   0.450
 8140SOL    HW225320   3.481   0.352   0.300
 8141SOL     OW25321   4.963   6.871   5.304
 8141SOL    HW125322   5.003   6.942   5.362
 8141SOL    HW225323   4.892   6.822   5.355
 8142SOL     OW25324   1.830   5.111   1.098
 8142SOL    HW125325   1.733   5.124   1.076
 8142SOL    HW225326   1.838   5.060   1.183
 8143SOL     OW25327   4.958   4.929   0.987
 8143SOL    HW125328   4.902   4.850   1.013
 8143SOL    HW225329   5.034   4.939   1.051
 8144SOL     OW25330   1.152   6.092   5.399
 8144SOL    HW125331   1.091   6.171   5.411
 8144SOL    HW225332   1.103   6.008   5.422
 8145SOL     OW25333   5.203   4.394   0.819
 8145SOL    HW125334   5.236   4.370   0.728
 8145SOL    HW225335   5.178   4.311   0.869
 8146SOL     OW25336   6.383   0.161   5.511
 8146SOL    HW125337   6.421   0.137   5.600
 8146SOL    HW225338   6.435   0.238   5.472
 8147SOL     OW25339   6.867   0.859   0.410
 8147SOL    HW125340   6.948   0.872   0.466
 8147SOL    HW225341   6.845   0.944   0.362
 8148SOL     OW25342   4.076   4.547   6.795
 8148SOL    HW125343   4.035   4.638   6.798
 8148SOL    HW225344   4.006   4.480   6.769
 8149SOL     OW25345   1.246   6.058   4.322
 8149SOL    HW125346   1.242   6.115   4.404
 8149SOL    HW225347   1.161   6.068   4.270
 8150SOL     OW25348   0.857   3.418   0.912
 8150SOL    HW125349   0.780   3.354   0.921
 8150SOL    HW225350   0.835   3.487   0.844
 8151SOL     OW25351   5.717   5.599   3.967
 8151SOL    HW125352   5.816   5.592   3.982
 8151SOL    HW225353   5.691   5.540   3.890
 8152SOL     OW25354   5.475   2.311   3.431
 8152SOL    HW125355   5.463   2.320   3.332
 8152SOL    HW225356   5.470   2.402   3.474
 8153SOL     OW25357   0.153   0.766   3.185
 8153SOL    HW125358   0.082   0.832   3.211
 8153SOL    HW225359   0.235   0.814   3.155
 8154SOL     OW25360   3.122   0.338   3.068
 8154SOL    HW125361   3.203   0.366   3.016
 8154SOL    HW225362   3.124   0.382   3.158
 8155SOL     OW25363   1.468   4.196   2.173
 8155SOL    HW125364   1.544   4.132   2.189
 8155SOL    HW225365   1.384   4.160   2.213
 8156SOL     OW25366   5.006   6.199   1.685
 8156SOL    HW125367   4.915   6.174   1.718
 8156SOL    HW225368   5.003   6.291   1.645
 8157SOL     OW25369   5.929   4.613   5.998
 8157SOL    HW125370   5.891   4.706   5.992
 8157SOL    HW225371   5.858   4.547   5.975
 8158SOL     OW25372   5.448   4.865   6.721
 8158SOL    HW125373   5.410   4.772   6.721
 8158SOL    HW225374   5.453   4.899   6.814
 8159SOL     OW25375   3.387   5.952   5.518
 8159SOL    HW125376   3.450   5.971   5.443
 8159SOL    HW225377   3.297   5.926   5.480
 8160SOL     OW25378   4.332   0.219   3.793
 8160SOL    HW125379   4.238   0.197   3.764
 8160SOL    HW225380   4.396   0.156   3.749
 8161SOL     OW25381   5.969   3.842   6.280
 8161SOL    HW125382   6.055   3.805   6.317
 8161SOL    HW225383   5.948   3.797   6.193
 8162SOL     OW25384   6.966   5.258   6.758
 8162SOL    HW125385   6.960   5.348   6.716
 8162SOL    HW225386   6.959   5.267   6.857
 8163SOL     OW25387   2.681   4.976   5.980
 8163SOL    HW125388   2.638   5.000   6.067
 8163SOL    HW225389   2.647   4.887   5.950
 8164SOL     OW25390   4.682   1.197   0.309
 8164SOL    HW125391   4.618   1.251   0.254
 8164SOL    HW225392   4.769   1.244   0.316
 8165SOL     OW25393   6.804   3.965   6.449
 8165SOL    HW125394   6.731   3.974   6.381
 8165SOL    HW225395   6.772   3.907   6.524
 8166SOL     OW25396   2.239   1.413   3.275
 8166SOL    HW125397   2.229   1.490   3.338
 8166SOL    HW225398   2.151   1.392   3.232
 8167SOL     OW25399   0.423   0.741   3.628
 8167SOL    HW125400   0.405   0.667   3.563
 8167SOL    HW225401   0.509   0.725   3.675
 8168SOL     OW25402   2.683   0.072   1.230
 8168SOL    HW125403   2.782   0.084   1.233
 8168SOL    HW225404   2.661   6.998   1.240
 8169SOL     OW25405   4.101   1.798   0.316
 8169SOL    HW125406   4.002   1.812   0.317
 8169SOL    HW225407   4.146   1.879   0.354
 8170SOL     OW25408   6.943   4.696   1.529
 8170SOL    HW125409   6.964   4.754   1.449
 8170SOL    HW225410   6.948   4.600   1.502
 8171SOL     OW25411   1.773   1.624   6.204
 8171SOL    HW125412   1.741   1.603   6.296
 8171SOL    HW225413   1.819   1.544   6.165
 8172SOL     OW25414   0.149   2.332   1.893
 8172SOL    HW125415   0.054   2.362   1.904
 8172SOL    HW225416   0.152   2.245   1.845
 8173SOL     OW25417   6.224   1.791   2.610
 8173SOL    HW125418   6.182   1.733   2.540
 8173SOL    HW225419   6.253   1.878   2.568
 8174SOL     OW25420   1.113   6.435   2.808
 8174SOL    HW125421   1.123   6.366   2.736
 8174SOL    HW225422   1.029   6.418   2.860
 8175SOL     OW25423   0.412   2.818   4.637
 8175SOL    HW125424   0.386   2.722   4.622
 8175SOL    HW225425   0.329   2.874   4.642
 8176SOL     OW25426   2.392   4.553   1.775
 8176SOL    HW125427   2.459   4.576   1.846
 8176SOL    HW225428   2.440   4.534   1.689
 8177SOL     OW25429   4.025   1.242   3.790
 8177SOL    HW125430   4.062   1.159   3.749
 8177SOL    HW225431   4.050   1.245   3.887
 8178SOL     OW25432   3.287   6.450   1.243
 8178SOL    HW125433   3.275   6.380   1.313
 8178SOL    HW225434   3.292   6.408   1.153
 8179SOL     OW25435   5.723   1.479   4.728
 8179SOL    HW125436   5.670   1.494   4.811
 8179SOL    HW225437   5.664   1.493   4.648
 8180SOL     OW25438   5.791   0.669   0.188
 8180SOL    HW125439   5.700   0.701   0.162
 8180SOL    HW225440   5.861   0.733   0.155
 8181SOL     OW25441   1.232   0.870   0.795
 8181SOL    HW125442   1.267   0.914   0.878
 8181SOL    HW225443   1.304   0.815   0.753
 8182SOL     OW25444   3.275   3.729   4.458
 8182SOL    HW125445   3.253   3.777   4.373
 8182SOL    HW225446   3.355   3.770   4.500
 8183SOL     OW25447   6.419   1.942   4.399
 8183SOL    HW125448   6.319   1.951   4.389
 8183SOL    HW225449   6.456   1.893   4.320
 8184SOL     OW25450   0.726   7.017   0.493
 8184SOL    HW125451   0.720   0.093   0.499
 8184SOL    HW225452   0.782   6.983   0.569
 8185SOL     OW25453   2.209   0.502   0.405
 8185SOL    HW125454   2.306   0.481   0.393
 8185SOL    HW225455   2.154   0.422   0.382
 8186SOL     OW25456   2.619   4.183   5.307
 8186SOL    HW125457   2.699   4.142   5.262
 8186SOL    HW225458   2.536   4.157   5.257
 8187SOL     OW25459   2.211   1.032   4.615
 8187SOL    HW125460   2.154   0.973   4.557
 8187SOL    HW225461   2.164   1.118   4.631
 8188SOL     OW25462   4.718   2.700   3.839
 8188SOL    HW125463   4.630   2.652   3.838
 8188SOL    HW225464   4.780   2.657   3.774
 8189SOL     OW25465   5.553   5.521   2.036
 8189SOL    HW125466   5.620   5.471   2.090
 8189SOL    HW225467   5.557   5.491   1.941
 8190SOL     OW25468   4.799   4.134   3.871
 8190SOL    HW125469   4.760   4.135   3.963
 8190SOL    HW225470   4.732   4.171   3.806
 8191SOL     OW25471   4.327   5.208   2.518
 8191SOL    HW125472   4.312   5.305   2.500
 8191SOL    HW225473   4.423   5.185   2.503
 8192SOL     OW25474   1.484   5.449   2.583
 8192SOL    HW125475   1.397   5.474   2.627
 8192SOL    HW225476   1.539   5.395   2.646
 8193SOL     OW25477   5.855   4.812   5.080
 8193SOL    HW125478   5.894   4.731   5.124
 8193SOL    HW225479   5.927   4.862   5.032
 8194SOL     OW25480   4.583   0.671   1.044
 8194SOL    HW125481   4.584   0.607   0.967
 8194SOL    HW225482   4.540   0.628   1.123
 8195SOL     OW25483   6.515   0.703   3.694
 8195SOL    HW125484   6.557   0.618   3.727
 8195SOL    HW225485   6.418   0.704   3.718
 8196SOL     OW25486   4.446   6.781   6.872
 8196SOL    HW125487   4.378   6.749   6.806
 8196SOL    HW225488   4.403   6.793   6.961
 8197SOL     OW25489   3.684   1.881   1.164
 8197SOL    HW125490   3.648   1.827   1.240
 8197SOL    HW225491   3.784   1.887   1.173
 8198SOL     OW25492   3.639   6.470   2.358
 8198SOL    HW125493   3.690   6.539   2.307
 8198SOL    HW225494   3.694   6.387   2.365
 8199SOL     OW25495   5.356   3.544   5.678
 8199SOL    HW125496   5.264   3.509   5.697
 8199SOL    HW225497   5.381   3.611   5.748
 8200SOL     OW25498   6.330   4.796   1.530
 8200SOL    HW125499   6.234   4.817   1.514
 8200SOL    HW225500   6.340   4.699   1.551
 8201SOL     OW25501   0.009   1.004   5.336
 8201SOL    HW125502   0.067   1.008   5.255
 8201SOL    HW225503   0.038   1.074   5.401
 8202SOL     OW25504   0.169   5.625   3.331
 8202SOL    HW125505   0.132   5.544   3.286
 8202SOL    HW225506   0.095   5.679   3.370
 8203SOL     OW25507   2.109   2.410   6.933
 8203SOL    HW125508   2.098   2.505   6.904
 8203SOL    HW225509   2.023   2.361   6.916
 8204SOL     OW25510   3.664   3.963   0.396
 8204SOL    HW125511   3.627   3.950   0.304
 8204SOL    HW225512   3.594   3.943   0.464
 8205SOL     OW25513   6.614   4.000   6.930
 8205SOL    HW125514   6.545   4.044   6.987
 8205SOL    HW225515   6.581   3.911   6.900
 8206SOL     OW25516   4.732   2.016   6.722
 8206SOL    HW125517   4.710   2.080   6.649
 8206SOL    HW225518   4.662   2.021   6.793
 8207SOL     OW25519   3.412   3.559   4.045
 8207SOL    HW125520   3.392   3.571   3.947
 8207SOL    HW225521   3.327   3.547   4.095
 8208SOL     OW25522   1.267   0.770   1.138
 8208SOL    HW125523   1.315   0.848   1.177
 8208SOL    HW225524   1.169   0.776   1.159
 8209SOL     OW25525   0.220   0.671   4.691
 8209SOL    HW125526   0.211   0.595   4.756
 8209SOL    HW225527   0.317   0.684   4.669
 8210SOL     OW25528   2.452   2.308   0.698
 8210SOL    HW125529   2.533   2.279   0.750
 8210SOL    HW225530   2.478   2.377   0.631
 8211SOL     OW25531   3.799   4.612   1.448
 8211SOL    HW125532   3.864   4.647   1.381
 8211SOL    HW225533   3.805   4.665   1.533
 8212SOL     OW25534   1.470   2.396   2.982
 8212SOL    HW125535   1.511   2.422   3.070
 8212SOL    HW225536   1.393   2.334   2.999
 8213SOL     OW25537   0.186   4.577   1.406
 8213SOL    HW125538   0.249   4.639   1.452
 8213SOL    HW225539   0.203   4.580   1.307
 8214SOL     OW25540   6.053   5.114   4.393
 8214SOL    HW125541   6.086   5.028   4.432
 8214SOL    HW225542   6.039   5.180   4.467
 8215SOL     OW25543   3.910   5.463   5.751
 8215SOL    HW125544   3.963   5.548   5.757
 8215SOL    HW225545   3.832   5.468   5.812
 8216SOL     OW25546   5.327   5.527   4.092
 8216SOL    HW125547   5.305   5.463   4.018
 8216SOL    HW225548   5.305   5.620   4.064
 8217SOL     OW25549   1.798   5.158   0.467
 8217SOL    HW125550   1.835   5.068   0.486
 8217SOL    HW225551   1.821   5.184   0.373
 8218SOL     OW25552   0.018   0.205   6.583
 8218SOL    HW125553   6.999   0.279   6.637
 8218SOL    HW225554   0.053   0.242   6.497
 8219SOL     OW25555   4.654   1.842   0.172
 8219SOL    HW125556   4.665   1.789   0.088
 8219SOL    HW225557   4.668   1.939   0.153
 8220SOL     OW25558   3.667   3.191   3.418
 8220SOL    HW125559   3.615   3.138   3.484
 8220SOL    HW225560   3.758   3.152   3.408
 8221SOL     OW25561   5.189   6.009   4.629
 8221SOL    HW125562   5.263   6.058   4.675
 8221SOL    HW225563   5.225   5.967   4.545
 8222SOL     OW25564   5.305   1.809   2.100
 8222SOL    HW125565   5.218   1.774   2.133
 8222SOL    HW225566   5.370   1.814   2.176
 8223SOL     OW25567   1.433   4.391   5.856
 8223SOL    HW125568   1.461   4.308   5.807
 8223SOL    HW225569   1.336   4.386   5.877
 8224SOL     OW25570   6.621   0.988   2.777
 8224SOL    HW125571   6.548   1.019   2.838
 8224SOL    HW225572   6.587   0.982   2.684
 8225SOL     OW25573   3.862   1.287   6.686
 8225SOL    HW125574   3.848   1.230   6.768
 8225SOL    HW225575   3.819   1.242   6.607
 8226SOL     OW25576   4.353   6.526   1.731
 8226SOL    HW125577   4.254   6.533   1.734
 8226SOL    HW225578   4.389   6.528   1.824
 8227SOL     OW25579   6.915   2.304   3.581
 8227SOL    HW125580   6.886   2.209   3.591
 8227SOL    HW225581   6.881   2.358   3.659
 8228SOL     OW25582   6.713   1.887   5.586
 8228SOL    HW125583   6.637   1.869   5.524
 8228SOL    HW225584   6.679   1.890   5.680
 8229SOL     OW25585   3.542   4.052   0.747
 8229SOL    HW125586   3.482   4.132   0.744
 8229SOL    HW225587   3.632   4.079   0.781
 8230SOL     OW25588   3.865   6.696   5.042
 8230SOL    HW125589   3.943   6.759   5.046
 8230SOL    HW225590   3.782   6.744   5.072
 8231SOL     OW25591   4.194   5.315   0.483
 8231SOL    HW125592   4.256   5.379   0.436
 8231SOL    HW225593   4.167   5.354   0.571
 8232SOL     OW25594   4.886   1.762   0.976
 8232SOL    HW125595   4.863   1.762   0.879
 8232SOL    HW225596   4.802   1.761   1.031
 8233SOL     OW25597   0.971   6.335   6.452
 8233SOL    HW125598   1.043   6.310   6.518
 8233SOL    HW225599   1.013   6.362   6.366
 8234SOL     OW25600   2.585   4.032   6.769
 8234SOL    HW125601   2.676   3.994   6.787
 8234SOL    HW225602   2.518   3.987   6.828
 8235SOL     OW25603   0.567   3.870   0.480
 8235SOL    HW125604   0.542   3.967   0.476
 8235SOL    HW225605   0.487   3.814   0.457
 8236SOL     OW25606   6.861   4.311   6.966
 8236SOL    HW125607   6.803   4.340   0.019
 8236SOL    HW225608   6.948   4.362   6.968
 8237SOL     OW25609   4.294   6.593   4.615
 8237SOL    HW125610   4.268   6.537   4.694
 8237SOL    HW225611   4.393   6.598   4.608
 8238SOL     OW25612   0.787   5.085   6.905
 8238SOL    HW125613   0.780   5.185   6.916
 8238SOL    HW225614   0.762   5.041   6.991
 8239SOL     OW25615   6.433   1.090   5.521
 8239SOL    HW125616   6.414   1.112   5.617
 8239SOL    HW225617   6.484   1.164   5.479
 8240SOL     OW25618   3.274   4.103   2.350
 8240SOL    HW125619   3.360   4.125   2.305
 8240SOL    HW225620   3.249   4.178   2.412
 8241SOL     OW25621   3.917   0.503   0.177
 8241SOL    HW125622   3.995   0.480   0.119
 8241SOL    HW225623   3.883   0.594   0.153
 8242SOL     OW25624   0.590   4.980   5.720
 8242SOL    HW125625   0.595   5.080   5.724
 8242SOL    HW225626   0.610   4.949   5.627
 8243SOL     OW25627   0.940   2.280   0.152
 8243SOL    HW125628   0.912   2.372   0.125
 8243SOL    HW225629   1.040   2.275   0.155
 8244SOL     OW25630   1.215   6.864   4.484
 8244SOL    HW125631   1.192   6.840   4.390
 8244SOL    HW225632   1.278   6.942   4.484
 8245SOL     OW25633   4.246   2.279   2.389
 8245SOL    HW125634   4.340   2.313   2.400
 8245SOL    HW225635   4.199   2.333   2.319
 8246SOL     OW25636   0.533   3.559   6.016
 8246SOL    HW125637   0.600   3.538   5.945
 8246SOL    HW225638   0.575   3.617   6.086
 8247SOL     OW25639   0.600   0.072   2.498
 8247SOL    HW125640   0.523   0.047   2.439
 8247SOL    HW225641   0.685   0.069   2.444
 8248SOL     OW25642   6.270   5.249   4.877
 8248SOL    HW125643   6.329   5.300   4.815
 8248SOL    HW225644   6.325   5.181   4.927
 8249SOL     OW25645   1.677   2.972   4.779
 8249SOL    HW125646   1.602   3.028   4.814
 8249SOL    HW225647   1.762   3.025   4.778
 8250SOL     OW25648   3.519   4.085   2.240
 8250SOL    HW125649   3.517   4.039   2.151
 8250SOL    HW225650   3.600   4.056   2.291
 8251SOL     OW25651   6.270   3.494   3.342
 8251SOL    HW125652   6.288   3.405   3.301
 8251SOL    HW225653   6.228   3.555   3.275
 8252SOL     OW25654   3.344   1.788   5.502
 8252SOL    HW125655   3.326   1.834   5.415
 8252SOL    HW225656   3.428   1.823   5.542
 8253SOL     OW25657   4.805   4.387   5.316
 8253SOL    HW125658   4.752   4.302   5.314
 8253SOL    HW225659   4.901   4.366   5.299
 8254SOL     OW25660   4.583   4.777   5.087
 8254SOL    HW125661   4.672   4.801   5.049
 8254SOL    HW225662   4.512   4.834   5.045
 8255SOL     OW25663   2.453   6.472   4.814
 8255SOL    HW125664   2.375   6.515   4.860
 8255SOL    HW225665   2.522   6.541   4.793
 8256SOL     OW25666   6.185   0.234   2.267
 8256SOL    HW125667   6.107   0.244   2.328
 8256SOL    HW225668   6.181   0.145   2.221
 8257SOL     OW25669   5.929   3.874   3.558
 8257SOL    HW125670   5.977   3.960   3.546
 8257SOL    HW225671   5.947   3.814   3.480
 8258SOL     OW25672   5.530   1.934   0.733
 8258SOL    HW125673   5.470   1.889   0.799
 8258SOL    HW225674   5.496   2.027   0.715
 8259SOL     OW25675   4.140   2.075   3.623
 8259SOL    HW125676   4.186   2.109   3.541
 8259SOL    HW225677   4.139   1.975   3.622
 8260SOL     OW25678   2.945   6.527   1.910
 8260SOL    HW125679   3.036   6.550   1.875
 8260SOL    HW225680   2.887   6.497   1.834
 8261SOL     OW25681   6.010   0.998   1.889
 8261SOL    HW125682   6.092   0.944   1.908
 8261SOL    HW225683   6.035   1.076   1.830
 8262SOL     OW25684   0.580   3.103   0.269
 8262SOL    HW125685   0.680   3.103   0.264
 8262SOL    HW225686   0.543   3.044   0.197
 8263SOL     OW25687   1.569   2.336   6.883
 8263SOL    HW125688   1.572   2.306   6.788
 8263SOL    HW225689   1.567   2.256   6.943
 8264SOL     OW25690   2.490   6.138   2.616
 8264SOL    HW125691   2.512   6.056   2.669
 8264SOL    HW225692   2.493   6.218   2.675
 8265SOL     OW25693   0.830   6.876   0.722
 8265SOL    HW125694   0.779   6.826   0.791
 8265SOL    HW225695   0.873   6.957   0.764
 8266SOL     OW25696   2.278   1.135   3.809
 8266SOL    HW125697   2.282   1.218   3.864
 8266SOL    HW225698   2.202   1.142   3.744
 8267SOL     OW25699   1.397   2.924   1.235
 8267SOL    HW125700   1.478   2.891   1.284
 8267SOL    HW225701   1.328   2.852   1.230
 8268SOL     OW25702   1.987   6.783   5.837
 8268SOL    HW125703   1.998   6.821   5.929
 8268SOL    HW225704   2.053   6.708   5.824
 8269SOL     OW25705   4.105   2.192   2.099
 8269SOL    HW125706   4.035   2.213   2.031
 8269SOL    HW225707   4.193   2.227   2.067
 8270SOL     OW25708   2.854   6.747   5.312
 8270SOL    HW125709   2.900   6.731   5.399
 8270SOL    HW225710   2.755   6.751   5.327
 8271SOL     OW25711   6.230   0.277   3.263
 8271SOL    HW125712   6.210   0.226   3.180
 8271SOL    HW225713   6.329   0.278   3.278
 8272SOL     OW25714   4.897   1.800   1.938
 8272SOL    HW125715   4.809   1.800   1.890
 8272SOL    HW225716   4.900   1.877   2.002
 8273SOL     OW25717   3.159   0.243   0.481
 8273SOL    HW125718   3.115   0.330   0.457
 8273SOL    HW225719   3.249   0.238   0.438
 8274SOL     OW25720   4.802   4.956   3.291
 8274SOL    HW125721   4.741   4.878   3.305
 8274SOL    HW225722   4.896   4.923   3.280
 8275SOL     OW25723   5.169   1.550   5.560
 8275SOL    HW125724   5.151   1.466   5.610
 8275SOL    HW225725   5.085   1.580   5.515
 8276SOL     OW25726   0.885   2.115   3.612
 8276SOL    HW125727   0.916   2.052   3.683
 8276SOL    HW225728   0.932   2.202   3.621
 8277SOL     OW25729   6.914   6.769   0.126
 8277SOL    HW125730   6.821   6.741   0.153
 8277SOL    HW225731   6.913   6.799   0.031
 8278SOL     OW25732   2.517   1.936   5.680
 8278SOL    HW125733   2.534   2.020   5.628
 8278SOL    HW225734   2.597   1.912   5.734
 8279SOL     OW25735   1.687   6.869   4.409
 8279SOL    HW125736   1.731   6.948   4.366
 8279SOL    HW225737   1.644   6.813   4.338
 8280SOL     OW25738   2.320   3.822   0.575
 8280SOL    HW125739   2.244   3.761   0.555
 8280SOL    HW225740   2.301   3.913   0.538
 8281SOL     OW25741   2.718   5.113   1.904
 8281SOL    HW125742   2.792   5.174   1.932
 8281SOL    HW225743   2.746   5.018   1.917
 8282SOL     OW25744   4.830   3.453   0.066
 8282SOL    HW125745   4.743   3.500   0.057
 8282SOL    HW225746   4.815   3.354   0.066
 8283SOL     OW25747   1.443   5.255   6.684
 8283SOL    HW125748   1.350   5.278   6.655
 8283SOL    HW225749   1.508   5.293   6.618
 8284SOL     OW25750   0.746   3.611   0.732
 8284SOL    HW125751   0.823   3.674   0.726
 8284SOL    HW225752   0.665   3.661   0.764
 8285SOL     OW25753   2.925   3.509   4.624
 8285SOL    HW125754   2.910   3.495   4.722
 8285SOL    HW225755   2.871   3.443   4.573
 8286SOL     OW25756   6.114   2.743   6.333
 8286SOL    HW125757   6.132   2.729   6.430
 8286SOL    HW225758   6.185   2.801   6.293
 8287SOL     OW25759   1.935   5.660   3.918
 8287SOL    HW125760   1.935   5.649   4.017
 8287SOL    HW225761   1.955   5.755   3.895
 8288SOL     OW25762   3.244   1.837   1.690
 8288SOL    HW125763   3.222   1.934   1.701
 8288SOL    HW225764   3.247   1.793   1.780
 8289SOL     OW25765   0.478   5.572   0.925
 8289SOL    HW125766   0.459   5.576   1.023
 8289SOL    HW225767   0.570   5.608   0.908
 8290SOL     OW25768   6.296   1.518   1.224
 8290SOL    HW125769   6.223   1.577   1.190
 8290SOL    HW225770   6.266   1.422   1.221
 8291SOL     OW25771   4.931   6.248   5.789
 8291SOL    HW125772   5.014   6.294   5.756
 8291SOL    HW225773   4.893   6.191   5.715
 8292SOL     OW25774   2.554   6.569   6.947
 8292SOL    HW125775   2.621   6.595   6.878
 8292SOL    HW225776   2.544   6.642   7.014
 8293SOL     OW25777   3.404   6.198   6.863
 8293SOL    HW125778   3.342   6.276   6.861
 8293SOL    HW225779   3.453   6.196   6.950
 8294SOL     OW25780   5.494   4.023   4.673
 8294SOL    HW125781   5.499   4.046   4.770
 8294SOL    HW225782   5.583   3.989   4.642
 8295SOL     OW25783   5.204   5.110   1.525
 8295SOL    HW125784   5.109   5.091   1.547
 8295SOL    HW225785   5.217   5.209   1.513
 8296SOL     OW25786   1.549   5.332   6.068
 8296SOL    HW125787   1.559   5.256   6.133
 8296SOL    HW225788   1.639   5.366   6.043
 8297SOL     OW25789   6.267   2.844   2.453
 8297SOL    HW125790   6.201   2.899   2.504
 8297SOL    HW225791   6.353   2.839   2.504
 8298SOL     OW25792   6.158   1.763   1.178
 8298SOL    HW125793   6.239   1.798   1.226
 8298SOL    HW225794   6.103   1.840   1.146
 8299SOL     OW25795   6.679   3.009   1.739
 8299SOL    HW125796   6.705   3.038   1.647
 8299SOL    HW225797   6.685   3.087   1.802
 8300SOL     OW25798   0.140   5.856   4.710
 8300SOL    HW125799   0.223   5.885   4.758
 8300SOL    HW225800   0.060   5.898   4.753
 8301SOL     OW25801   4.073   1.799   1.676
 8301SOL    HW125802   4.161   1.787   1.631
 8301SOL    HW225803   4.044   1.712   1.717
 8302SOL     OW25804   6.232   6.198   0.155
 8302SOL    HW125805   6.287   6.276   0.186
 8302SOL    HW225806   6.256   6.176   0.061
 8303SOL     OW25807   6.508   0.396   4.037
 8303SOL    HW125808   6.486   0.492   4.021
 8303SOL    HW225809   6.448   0.339   3.981
 8304SOL     OW25810   0.287   3.421   0.795
 8304SOL    HW125811   0.228   3.428   0.714
 8304SOL    HW225812   0.300   3.512   0.835
 8305SOL     OW25813   4.241   5.086   4.516
 8305SOL    HW125814   4.221   4.988   4.509
 8305SOL    HW225815   4.306   5.101   4.590
 8306SOL     OW25816   0.008   2.938   6.368
 8306SOL    HW125817   0.075   2.992   6.316
 8306SOL    HW225818   0.034   2.936   6.464
 8307SOL     OW25819   3.740   5.431   1.479
 8307SOL    HW125820   3.777   5.513   1.436
 8307SOL    HW225821   3.670   5.456   1.546
 8308SOL     OW25822   3.975   5.257   1.167
 8308SOL    HW125823   4.009   5.327   1.104
 8308SOL    HW225824   4.036   5.251   1.246
 8309SOL     OW25825   6.434   5.103   4.142
 8309SOL    HW125826   6.401   5.196   4.159
 8309SOL    HW225827   6.357   5.039   4.140
 8310SOL     OW25828   0.225   4.645   0.820
 8310SOL    HW125829   0.126   4.657   0.824
 8310SOL    HW225830   0.246   4.556   0.778
 8311SOL     OW25831   0.667   1.970   3.941
 8311SOL    HW125832   0.699   1.913   4.017
 8311SOL    HW225833   0.681   2.067   3.964
 8312SOL     OW25834   4.749   0.064   0.292
 8312SOL    HW125835   4.820   0.073   0.363
 8312SOL    HW225836   4.791   0.075   0.202
 8313SOL     OW25837   5.344   0.591   2.114
 8313SOL    HW125838   5.247   0.570   2.097
 8313SOL    HW225839   5.355   0.618   2.210
 8314SOL     OW25840   4.255   0.825   0.599
 8314SOL    HW125841   4.216   0.746   0.551
 8314SOL    HW225842   4.342   0.798   0.640
 8315SOL     OW25843   4.172   3.195   1.194
 8315SOL    HW125844   4.123   3.124   1.142
 8315SOL    HW225845   4.132   3.203   1.285
 8316SOL     OW25846   0.003   2.388   2.256
 8316SOL    HW125847   6.987   2.473   2.222
 8316SOL    HW225848   6.963   2.313   2.239
 8317SOL     OW25849   2.226   2.207   2.509
 8317SOL    HW125850   2.170   2.124   2.503
 8317SOL    HW225851   2.317   2.183   2.543
 8318SOL     OW25852   4.405   1.188   4.659
 8318SOL    HW125853   4.315   1.229   4.677
 8318SOL    HW225854   4.454   1.177   4.745
 8319SOL     OW25855   2.467   1.880   6.542
 8319SOL    HW125856   2.374   1.917   6.540
 8319SOL    HW225857   2.530   1.949   6.578
 8320SOL     OW25858   3.089   3.202   1.583
 8320SOL    HW125859   3.021   3.166   1.518
 8320SOL    HW225860   3.080   3.153   1.670
 8321SOL     OW25861   0.141   0.800   0.149
 8321SOL    HW125862   0.163   0.721   0.205
 8321SOL    HW225863   0.128   0.880   0.207
 8322SOL     OW25864   0.217   0.452   0.809
 8322SOL    HW125865   0.291   0.478   0.747
 8322SOL    HW225866   0.186   0.360   0.786
 8323SOL     OW25867   5.816   5.700   2.400
 8323SOL    HW125868   5.873   5.640   2.456
 8323SOL    HW225869   5.816   5.792   2.440
 8324SOL     OW25870   5.297   0.287   1.512
 8324SOL    HW125871   5.304   0.379   1.552
 8324SOL    HW225872   5.328   0.290   1.417
 8325SOL     OW25873   2.852   3.167   5.627
 8325SOL    HW125874   2.786   3.199   5.559
 8325SOL    HW225875   2.944   3.169   5.589
 8326SOL     OW25876   5.535   3.351   6.082
 8326SOL    HW125877   5.564   3.441   6.051
 8326SOL    HW225878   5.485   3.360   6.168
 8327SOL     OW25879   6.274   1.211   6.217
 8327SOL    HW125880   6.336   1.169   6.151
 8327SOL    HW225881   6.312   1.201   6.309
 8328SOL     OW25882   2.269   5.164   5.546
 8328SOL    HW125883   2.311   5.251   5.572
 8328SOL    HW225884   2.339   5.093   5.543
 8329SOL     OW25885   0.764   3.396   6.372
 8329SOL    HW125886   0.676   3.398   6.323
 8329SOL    HW225887   0.825   3.331   6.327
 8330SOL     OW25888   2.784   6.990   0.376
 8330SOL    HW125889   2.811   7.005   0.281
 8330SOL    HW225890   2.854   0.007   0.436
 8331SOL     OW25891   2.948   1.702   1.679
 8331SOL    HW125892   2.859   1.685   1.635
 8331SOL    HW225893   2.946   1.792   1.723
 8332SOL     OW25894   5.104   5.212   2.380
 8332SOL    HW125895   5.140   5.130   2.424
 8332SOL    HW225896   5.168   5.242   2.309
 8333SOL     OW25897   0.635   6.664   6.208
 8333SOL    HW125898   0.705   6.612   6.256
 8333SOL    HW225899   0.577   6.602   6.156
 8334SOL     OW25900   3.968   1.607   4.006
 8334SOL    HW125901   3.980   1.687   4.064
 8334SOL    HW225902   3.903   1.628   3.933
 8335SOL     OW25903   6.289   6.256   6.701
 8335SOL    HW125904   6.196   6.280   6.673
 8335SOL    HW225905   6.288   6.220   6.794
 8336SOL     OW25906   6.374   6.157   3.271
 8336SOL    HW125907   6.293   6.100   3.286
 8336SOL    HW225908   6.348   6.238   3.218
 8337SOL     OW25909   1.529   6.170   2.816
 8337SOL    HW125910   1.455   6.237   2.826
 8337SOL    HW225911   1.499   6.082   2.852
 8338SOL     OW25912   2.021   5.274   1.720
 8338SOL    HW125913   2.099   5.310   1.670
 8338SOL    HW225914   2.014   5.175   1.705
 8339SOL     OW25915   5.798   0.230   1.620
 8339SOL    HW125916   5.731   0.304   1.612
 8339SOL    HW225917   5.890   0.268   1.622
 8340SOL     OW25918   5.020   3.322   1.518
 8340SOL    HW125919   5.114   3.322   1.551
 8340SOL    HW225920   4.981   3.230   1.527
 8341SOL     OW25921   1.766   6.126   6.999
 8341SOL    HW125922   1.758   6.207   0.035
 8341SOL    HW225923   1.746   6.044   0.030
 8342SOL     OW25924   4.453   0.141   2.079
 8342SOL    HW125925   4.451   0.206   2.155
 8342SOL    HW225926   4.438   0.189   1.993
 8343SOL     OW25927   1.128   5.510   6.029
 8343SOL    HW125928   1.125   5.588   5.966
 8343SOL    HW225929   1.114   5.543   6.123
 8344SOL     OW25930   4.417   6.535   4.903
 8344SOL    HW125931   4.415   6.435   4.901
 8344SOL    HW225932   4.476   6.569   4.829
 8345SOL     OW25933   4.655   1.710   3.170
 8345SOL    HW125934   4.714   1.645   3.217
 8345SOL    HW225935   4.674   1.709   3.072
 8346SOL     OW25936   2.741   4.404   0.551
 8346SOL    HW125937   2.781   4.318   0.517
 8346SOL    HW225938   2.697   4.388   0.639
 8347SOL     OW25939   3.441   5.144   5.001
 8347SOL    HW125940   3.366   5.146   4.935
 8347SOL    HW225941   3.487   5.233   5.002
 8348SOL     OW25942   1.530   6.587   2.319
 8348SOL    HW125943   1.604   6.550   2.264
 8348SOL    HW225944   1.520   6.533   2.403
 8349SOL     OW25945   5.855   6.582   1.374
 8349SOL    HW125946   5.812   6.528   1.446
 8349SOL    HW225947   5.804   6.667   1.361
 8350SOL     OW25948   4.718   0.589   4.697
 8350SOL    HW125949   4.748   0.538   4.617
 8350SOL    HW225950   4.730   0.687   4.681
 8351SOL     OW25951   4.609   4.885   3.864
 8351SOL    HW125952   4.690   4.939   3.843
 8351SOL    HW225953   4.548   4.939   3.922
 8352SOL     OW25954   0.227   6.272   3.440
 8352SOL    HW125955   0.201   6.298   3.347
 8352SOL    HW225956   0.259   6.178   3.440
 8353SOL     OW25957   6.924   3.840   1.573
 8353SOL    HW125958   6.895   3.798   1.487
 8353SOL    HW225959   6.906   3.938   1.570
 8354SOL     OW25960   3.760   0.175   6.644
 8354SOL    HW125961   3.772   0.090   6.696
 8354SOL    HW225962   3.782   0.253   6.703
 8355SOL     OW25963   2.983   0.755   6.655
 8355SOL    HW125964   3.050   0.772   6.582
 8355SOL    HW225965   2.891   0.776   6.620
 8356SOL     OW25966   1.500   6.374   0.921
 8356SOL    HW125967   1.579   6.425   0.887
 8356SOL    HW225968   1.515   6.349   1.017
 8357SOL     OW25969   3.640   0.654   4.977
 8357SOL    HW125970   3.718   0.715   4.994
 8357SOL    HW225971   3.583   0.651   5.059
 8358SOL     OW25972   1.150   3.860   5.537
 8358SOL    HW125973   1.069   3.894   5.488
 8358SOL    HW225974   1.195   3.790   5.482
 8359SOL     OW25975   2.629   6.976   5.060
 8359SOL    HW125976   2.636   6.942   4.966
 8359SOL    HW225977   2.536   6.960   5.094
 8360SOL     OW25978   3.661   6.199   1.127
 8360SOL    HW125979   3.604   6.122   1.097
 8360SOL    HW225980   3.619   6.243   1.206
 8361SOL     OW25981   2.659   6.681   2.949
 8361SOL    HW125982   2.585   6.747   2.934
 8361SOL    HW225983   2.656   6.611   2.877
 8362SOL     OW25984   3.439   2.219   0.951
 8362SOL    HW125985   3.412   2.241   1.045
 8362SOL    HW225986   3.377   2.265   0.887
 8363SOL     OW25987   0.631   2.270   6.771
 8363SOL    HW125988   0.692   2.193   6.788
 8363SOL    HW225989   0.548   2.238   6.725
 8364SOL     OW25990   0.309   3.258   2.164
 8364SOL    HW125991   0.403   3.281   2.190
 8364SOL    HW225992   0.301   3.253   2.065
 8365SOL     OW25993   2.254   3.961   1.793
 8365SOL    HW125994   2.267   3.993   1.887
 8365SOL    HW225995   2.297   3.872   1.781
 8366SOL     OW25996   2.549   5.982   2.303
 8366SOL    HW125997   2.467   6.030   2.335
 8366SOL    HW225998   2.625   6.046   2.298
 8367SOL     OW25999   4.045   6.000   4.059
 8367SOL    HW126000   3.984   5.922   4.046
 8367SOL    HW226001   4.121   5.994   3.995
 8368SOL     OW26002   2.433   6.631   6.344
 8368SOL    HW126003   2.467   6.602   6.433
 8368SOL    HW226004   2.357   6.571   6.316
 8369SOL     OW26005   2.444   6.932   6.499
 8369SOL    HW126006   2.498   6.995   6.556
 8369SOL    HW226007   2.502   6.898   6.425
 8370SOL     OW26008   2.555   2.445   5.031
 8370SOL    HW126009   2.515   2.522   5.081
 8370SOL    HW226010   2.637   2.413   5.079
 8371SOL     OW26011   2.084   4.757   1.376
 8371SOL    HW126012   2.092   4.836   1.437
 8371SOL    HW226013   2.148   4.768   1.299
 8372SOL     OW26014   0.522   5.534   2.861
 8372SOL    HW126015   0.482   5.514   2.772
 8372SOL    HW226016   0.476   5.479   2.931
 8373SOL     OW26017   1.551   0.301   3.622
 8373SOL    HW126018   1.535   0.264   3.714
 8373SOL    HW226019   1.632   0.258   3.582
 8374SOL     OW26020   0.377   0.974   5.535
 8374SOL    HW126021   0.415   1.066   5.548
 8374SOL    HW226022   0.282   0.972   5.564
 8375SOL     OW26023   4.035   6.863   5.350
 8375SOL    HW126024   4.055   6.769   5.376
 8375SOL    HW226025   4.014   6.868   5.253
 8376SOL     OW26026   1.583   0.555   3.873
 8376SOL    HW126027   1.569   0.459   3.847
 8376SOL    HW226028   1.629   0.603   3.798
 8377SOL     OW26029   5.489   5.957   1.547
 8377SOL    HW126030   5.487   6.026   1.618
 8377SOL    HW226031   5.498   5.866   1.588
 8378SOL     OW26032   4.114   5.049   2.577
 8378SOL    HW126033   4.191   5.113   2.573
 8378SOL    HW226034   4.148   4.960   2.609
 8379SOL     OW26035   6.308   2.436   1.456
 8379SOL    HW126036   6.215   2.459   1.483
 8379SOL    HW226037   6.336   2.351   1.501
 8380SOL     OW26038   0.182   0.732   2.439
 8380SOL    HW126039   0.160   0.647   2.487
 8380SOL    HW226040   0.129   0.808   2.477
 8381SOL     OW26041   0.095   3.395   5.037
 8381SOL    HW126042   0.117   3.437   4.949
 8381SOL    HW226043   0.110   3.296   5.032
 8382SOL     OW26044   2.340   0.567   2.165
 8382SOL    HW126045   2.284   0.638   2.122
 8382SOL    HW226046   2.310   0.553   2.259
 8383SOL     OW26047   2.645   0.091   5.896
 8383SOL    HW126048   2.610   0.172   5.942
 8383SOL    HW226049   2.582   0.065   5.823
 8384SOL     OW26050   0.382   0.929   0.678
 8384SOL    HW126051   0.437   0.985   0.616
 8384SOL    HW226052   0.418   0.836   0.680
 8385SOL     OW26053   6.276   2.204   1.637
 8385SOL    HW126054   6.261   2.286   1.692
 8385SOL    HW226055   6.282   2.124   1.698
 8386SOL     OW26056   1.390   4.452   2.143
 8386SOL    HW126057   1.313   4.466   2.205
 8386SOL    HW226058   1.431   4.363   2.159
 8387SOL     OW26059   1.876   0.903   1.973
 8387SOL    HW126060   1.793   0.866   2.014
 8387SOL    HW226061   1.873   0.891   1.874
 8388SOL     OW26062   1.649   5.938   0.164
 8388SOL    HW126063   1.600   5.850   0.165
 8388SOL    HW226064   1.614   5.996   0.237
 8389SOL     OW26065   6.398   3.369   2.594
 8389SOL    HW126066   6.350   3.365   2.506
 8389SOL    HW226067   6.392   3.280   2.639
 8390SOL     OW26068   3.958   0.877   6.132
 8390SOL    HW126069   3.929   0.794   6.084
 8390SOL    HW226070   3.992   0.944   6.065
 8391SOL     OW26071   6.384   5.373   0.890
 8391SOL    HW126072   6.295   5.328   0.882
 8391SOL    HW226073   6.400   5.398   0.986
 8392SOL     OW26074   6.491   3.762   4.355
 8392SOL    HW126075   6.410   3.749   4.298
 8392SOL    HW226076   6.555   3.687   4.338
 8393SOL     OW26077   6.313   0.452   2.762
 8393SOL    HW126078   6.361   0.380   2.712
 8393SOL    HW226079   6.375   0.528   2.779
 8394SOL     OW26080   6.626   2.757   1.209
 8394SOL    HW126081   6.565   2.779   1.133
 8394SOL    HW226082   6.661   2.664   1.198
 8395SOL     OW26083   2.677   6.416   5.552
 8395SOL    HW126084   2.750   6.434   5.619
 8395SOL    HW226085   2.689   6.323   5.515
 8396SOL     OW26086   4.725   5.187   3.412
 8396SOL    HW126087   4.625   5.183   3.416
 8396SOL    HW226088   4.761   5.102   3.376
 8397SOL     OW26089   1.259   0.928   2.706
 8397SOL    HW126090   1.349   0.890   2.723
 8397SOL    HW226091   1.192   0.887   2.768
 8398SOL     OW26092   4.488   2.408   6.216
 8398SOL    HW126093   4.573   2.374   6.256
 8398SOL    HW226094   4.421   2.423   6.289
 8399SOL     OW26095   6.408   6.992   6.660
 8399SOL    HW126096   6.320   6.948   6.678
 8399SOL    HW226097   6.455   6.943   6.586
 8400SOL     OW26098   2.275   1.628   4.312
 8400SOL    HW126099   2.309   1.602   4.402
 8400SOL    HW226100   2.247   1.547   4.262
 8401SOL     OW26101   2.252   0.941   5.298
 8401SOL    HW126102   2.191   1.021   5.295
 8401SOL    HW226103   2.201   0.859   5.271
 8402SOL     OW26104   5.328   1.927   6.407
 8402SOL    HW126105   5.368   1.835   6.412
 8402SOL    HW226106   5.292   1.942   6.315
 8403SOL     OW26107   6.856   3.698   4.615
 8403SOL    HW126108   6.875   3.697   4.713
 8403SOL    HW226109   6.849   3.604   4.582
 8404SOL     OW26110   3.685   6.937   5.718
 8404SOL    HW126111   3.614   6.868   5.705
 8404SOL    HW226112   3.727   6.959   5.630
 8405SOL     OW26113   2.390   1.341   5.656
 8405SOL    HW126114   2.409   1.346   5.558
 8405SOL    HW226115   2.291   1.340   5.670
 8406SOL     OW26116   4.147   0.615   0.355
 8406SOL    HW126117   4.108   0.654   0.272
 8406SOL    HW226118   4.245   0.602   0.343
 8407SOL     OW26119   4.047   6.335   3.721
 8407SOL    HW126120   4.048   6.430   3.754
 8407SOL    HW226121   3.966   6.288   3.756
 8408SOL     OW26122   5.641   4.088   1.071
 8408SOL    HW126123   5.694   4.004   1.082
 8408SOL    HW226124   5.654   4.124   0.979
 8409SOL     OW26125   5.053   2.044   3.286
 8409SOL    HW126126   5.097   1.963   3.248
 8409SOL    HW226127   5.110   2.082   3.358
 8410SOL     OW26128   6.098   0.756   1.163
 8410SOL    HW126129   6.175   0.751   1.100
 8410SOL    HW226130   6.093   0.848   1.202
 8411SOL     OW26131   0.401   6.226   0.567
 8411SOL    HW126132   0.370   6.174   0.487
 8411SOL    HW226133   0.333   6.218   0.640
 8412SOL     OW26134   3.587   2.790   1.107
 8412SOL    HW126135   3.657   2.844   1.155
 8412SOL    HW226136   3.555   2.717   1.167
 8413SOL     OW26137   4.988   5.987   6.416
 8413SOL    HW126138   5.063   5.937   6.459
 8413SOL    HW226139   4.958   6.061   6.476
 8414SOL     OW26140   2.894   0.068   3.455
 8414SOL    HW126141   2.906   0.164   3.480
 8414SOL    HW226142   2.908   0.010   3.535
 8415SOL     OW26143   0.547   5.702   4.585
 8415SOL    HW126144   0.593   5.737   4.667
 8415SOL    HW226145   0.608   5.637   4.539
 8416SOL     OW26146   6.543   1.751   3.921
 8416SOL    HW126147   6.574   1.671   3.868
 8416SOL    HW226148   6.621   1.813   3.935
 8417SOL     OW26149   0.723   3.483   5.840
 8417SOL    HW126150   0.813   3.526   5.835
 8417SOL    HW226151   0.706   3.433   5.755
 8418SOL     OW26152   6.658   5.504   1.514
 8418SOL    HW126153   6.598   5.582   1.530
 8418SOL    HW226154   6.603   5.421   1.503
 8419SOL     OW26155   5.643   0.451   2.274
 8419SOL    HW126156   5.714   0.409   2.218
 8419SOL    HW226157   5.554   0.438   2.231
 8420SOL     OW26158   4.103   0.265   1.300
 8420SOL    HW126159   4.157   0.206   1.360
 8420SOL    HW226160   4.038   0.209   1.248
 8421SOL     OW26161   2.990   4.918   0.388
 8421SOL    HW126162   2.997   4.850   0.316
 8421SOL    HW226163   2.978   4.872   0.476
 8422SOL     OW26164   4.530   1.348   2.140
 8422SOL    HW126165   4.551   1.399   2.056
 8422SOL    HW226166   4.444   1.298   2.129
 8423SOL     OW26167   4.339   4.229   6.071
 8423SOL    HW126168   4.245   4.256   6.050
 8423SOL    HW226169   4.388   4.308   6.110
 8424SOL     OW26170   1.562   2.018   2.795
 8424SOL    HW126171   1.644   2.040   2.742
 8424SOL    HW226172   1.588   1.996   2.889
 8425SOL     OW26173   4.140   3.966   6.126
 8425SOL    HW126174   4.090   3.999   6.046
 8425SOL    HW226175   4.236   3.951   6.102
 8426SOL     OW26176   3.572   3.293   2.837
 8426SOL    HW126177   3.656   3.332   2.800
 8426SOL    HW226178   3.594   3.233   2.914
 8427SOL     OW26179   3.578   4.167   3.611
 8427SOL    HW126180   3.643   4.109   3.660
 8427SOL    HW226181   3.498   4.183   3.669
 8428SOL     OW26182   6.975   6.241   1.465
 8428SOL    HW126183   7.009   6.329   1.433
 8428SOL    HW226184   0.021   6.197   1.523
 8429SOL     OW26185   1.574   5.579   5.752
 8429SOL    HW126186   1.505   5.548   5.816
 8429SOL    HW226187   1.569   5.525   5.668
 8430SOL     OW26188   3.842   4.838   3.659
 8430SOL    HW126189   3.843   4.766   3.589
 8430SOL    HW226190   3.927   4.834   3.711
 8431SOL     OW26191   4.147   3.942   0.011
 8431SOL    HW126192   4.216   3.983   0.070
 8431SOL    HW226193   4.065   3.921   0.065
 8432SOL     OW26194   6.345   5.804   5.500
 8432SOL    HW126195   6.253   5.782   5.530
 8432SOL    HW226196   6.398   5.719   5.492
 8433SOL     OW26197   4.029   3.038   0.164
 8433SOL    HW126198   4.128   3.029   0.158
 8433SOL    HW226199   3.998   3.007   0.254
 8434SOL     OW26200   2.662   0.387   4.340
 8434SOL    HW126201   2.664   0.328   4.421
 8434SOL    HW226202   2.744   0.373   4.286
 8435SOL     OW26203   5.604   0.146   2.571
 8435SOL    HW126204   5.637   0.235   2.541
 8435SOL    HW226205   5.521   0.122   2.521
 8436SOL     OW26206   3.439   6.780   3.584
 8436SOL    HW126207   3.347   6.805   3.555
 8436SOL    HW226208   3.441   6.768   3.683
 8437SOL     OW26209   2.184   1.914   3.193
 8437SOL    HW126210   2.222   1.828   3.158
 8437SOL    HW226211   2.176   1.980   3.119
 8438SOL     OW26212   2.294   4.369   3.113
 8438SOL    HW126213   2.330   4.458   3.088
 8438SOL    HW226214   2.303   4.356   3.212
 8439SOL     OW26215   6.351   4.700   2.237
 8439SOL    HW126216   6.330   4.638   2.313
 8439SOL    HW226217   6.396   4.649   2.164
 8440SOL     OW26218   3.227   1.989   3.242
 8440SOL    HW126219   3.151   2.034   3.288
 8440SOL    HW226220   3.283   1.941   3.310
 8441SOL     OW26221   5.846   6.492   6.895
 8441SOL    HW126222   5.799   6.403   6.897
 8441SOL    HW226223   5.914   6.495   6.968
 8442SOL     OW26224   4.012   1.997   5.474
 8442SOL    HW126225   4.099   1.951   5.455
 8442SOL    HW226226   3.945   1.971   5.404
 8443SOL     OW26227   2.548   4.796   3.586
 8443SOL    HW126228   2.483   4.723   3.604
 8443SOL    HW226229   2.571   4.842   3.672
 8444SOL     OW26230   3.394   6.445   4.195
 8444SOL    HW126231   3.464   6.453   4.124
 8444SOL    HW226232   3.435   6.409   4.278
 8445SOL     OW26233   2.678   0.184   0.970
 8445SOL    HW126234   2.690   0.189   1.070
 8445SOL    HW226235   2.592   0.229   0.945
 8446SOL     OW26236   5.887   5.468   5.928
 8446SOL    HW126237   5.826   5.461   6.006
 8446SOL    HW226238   5.970   5.517   5.955
 8447SOL     OW26239   4.563   1.281   1.425
 8447SOL    HW126240   4.612   1.246   1.345
 8447SOL    HW226241   4.478   1.230   1.437
 8448SOL     OW26242   4.329   6.069   3.152
 8448SOL    HW126243   4.361   6.164   3.156
 8448SOL    HW226244   4.408   6.009   3.141
 8449SOL     OW26245   0.086   3.029   3.071
 8449SOL    HW126246   7.011   3.016   3.062
 8449SOL    HW226247   0.129   3.020   2.981
 8450SOL     OW26248   0.939   0.633   1.602
 8450SOL    HW126249   0.907   0.623   1.508
 8450SOL    HW226250   0.939   0.729   1.628
 8451SOL     OW26251   3.600   1.488   6.932
 8451SOL    HW126252   3.688   1.453   6.964
 8451SOL    HW226253   3.536   1.413   6.918
 8452SOL     OW26254   6.133   3.047   3.783
 8452SOL    HW126255   6.188   3.022   3.703
 8452SOL    HW226256   6.194   3.082   3.855
 8453SOL     OW26257   0.334   5.523   0.372
 8453SOL    HW126258   0.286   5.605   0.403
 8453SOL    HW226259   0.351   5.530   0.273
 8454SOL     OW26260   0.251   5.356   1.174
 8454SOL    HW126261   0.349   5.377   1.178
 8454SOL    HW226262   0.239   5.265   1.133
 8455SOL     OW26263   0.817   1.814   2.248
 8455SOL    HW126264   0.836   1.888   2.184
 8455SOL    HW226265   0.778   1.852   2.332
 8456SOL     OW26266   4.488   6.814   3.400
 8456SOL    HW126267   4.546   6.746   3.354
 8456SOL    HW226268   4.441   6.870   3.331
 8457SOL     OW26269   6.681   6.143   4.158
 8457SOL    HW126270   6.667   6.052   4.119
 8457SOL    HW226271   6.763   6.142   4.216
 8458SOL     OW26272   2.607   0.749   0.054
 8458SOL    HW126273   2.573   0.733   0.146
 8458SOL    HW226274   2.691   0.695   0.040
 8459SOL     OW26275   2.604   5.706   2.226
 8459SOL    HW126276   2.689   5.662   2.258
 8459SOL    HW226277   2.598   5.798   2.263
 8460SOL     OW26278   4.609   4.401   5.082
 8460SOL    HW126279   4.556   4.324   5.047
 8460SOL    HW226280   4.707   4.382   5.071
 8461SOL     OW26281   0.956   3.173   4.711
 8461SOL    HW126282   0.871   3.121   4.716
 8461SOL    HW226283   1.018   3.128   4.646
 8462SOL     OW26284   1.953   2.999   6.661
 8462SOL    HW126285   1.993   2.940   6.732
 8462SOL    HW226286   1.867   2.957   6.629
 8463SOL     OW26287   6.972   0.147   1.470
 8463SOL    HW126288   6.925   0.111   1.390
 8463SOL    HW226289   0.037   0.187   1.443
 8464SOL     OW26290   5.140   4.692   4.584
 8464SOL    HW126291   5.110   4.787   4.589
 8464SOL    HW226292   5.185   4.677   4.496
 8465SOL     OW26293   0.825   2.552   0.604
 8465SOL    HW126294   0.882   2.630   0.578
 8465SOL    HW226295   0.882   2.470   0.613
 8466SOL     OW26296   0.510   6.458   3.829
 8466SOL    HW126297   0.579   6.444   3.757
 8466SOL    HW226298   0.456   6.539   3.807
 8467SOL     OW26299   3.051   5.941   0.603
 8467SOL    HW126300   3.047   5.847   0.638
 8467SOL    HW226301   2.987   5.951   0.527
 8468SOL     OW26302   3.099   1.515   0.366
 8468SOL    HW126303   3.093   1.609   0.332
 8468SOL    HW226304   3.194   1.484   0.363
 8469SOL     OW26305   3.374   3.063   0.078
 8469SOL    HW126306   3.452   3.028   0.027
 8469SOL    HW226307   3.296   3.000   0.067
 8470SOL     OW26308   2.063   3.680   0.532
 8470SOL    HW126309   2.047   3.629   0.617
 8470SOL    HW226310   1.984   3.738   0.512
 8471SOL     OW26311   2.979   1.527   2.536
 8471SOL    HW126312   2.964   1.433   2.565
 8471SOL    HW226313   2.928   1.545   2.452
 8472SOL     OW26314   0.561   0.089   4.106
 8472SOL    HW126315   0.603   0.180   4.104
 8472SOL    HW226316   0.497   0.080   4.030
 8473SOL     OW26317   6.672   5.441   6.832
 8473SOL    HW126318   6.685   5.376   6.907
 8473SOL    HW226319   6.670   5.534   6.870
 8474SOL     OW26320   3.494   3.017   2.239
 8474SOL    HW126321   3.417   3.057   2.189
 8474SOL    HW226322   3.497   3.053   2.332
 8475SOL     OW26323   0.370   1.278   3.252
 8475SOL    HW126324   0.423   1.193   3.247
 8475SOL    HW226325   0.409   1.338   3.321
 8476SOL     OW26326   6.749   0.932   1.130
 8476SOL    HW126327   6.777   0.837   1.141
 8476SOL    HW226328   6.725   0.970   1.219
 8477SOL     OW26329   3.763   6.123   1.853
 8477SOL    HW126330   3.844   6.090   1.804
 8477SOL    HW226331   3.786   6.133   1.950
 8478SOL     OW26332   1.811   0.368   5.933
 8478SOL    HW126333   1.766   0.436   5.990
 8478SOL    HW226334   1.868   0.415   5.865
 8479SOL     OW26335   6.432   2.735   0.989
 8479SOL    HW126336   6.381   2.723   0.904
 8479SOL    HW226337   6.394   2.811   1.041
 8480SOL     OW26338   3.252   0.814   0.563
 8480SOL    HW126339   3.202   0.898   0.541
 8480SOL    HW226340   3.320   0.833   0.633
 8481SOL     OW26341   4.387   1.421   3.756
 8481SOL    HW126342   4.288   1.429   3.769
 8481SOL    HW226343   4.409   1.438   3.660
 8482SOL     OW26344   3.607   0.057   2.770
 8482SOL    HW126345   3.636   0.074   2.864
 8482SOL    HW226346   3.652   6.998   2.736
 8483SOL     OW26347   4.258   5.692   1.806
 8483SOL    HW126348   4.264   5.593   1.805
 8483SOL    HW226349   4.349   5.731   1.825
 8484SOL     OW26350   6.897   5.049   3.203
 8484SOL    HW126351   6.830   5.015   3.270
 8484SOL    HW226352   6.914   4.978   3.135
 8485SOL     OW26353   2.814   3.682   6.569
 8485SOL    HW126354   2.761   3.695   6.485
 8485SOL    HW226355   2.878   3.606   6.556
 8486SOL     OW26356   4.856   1.498   3.184
 8486SOL    HW126357   4.940   1.516   3.234
 8486SOL    HW226358   4.875   1.497   3.086
 8487SOL     OW26359   5.682   0.459   0.700
 8487SOL    HW126360   5.648   0.418   0.616
 8487SOL    HW226361   5.782   0.462   0.698
 8488SOL     OW26362   5.584   4.915   4.954
 8488SOL    HW126363   5.504   4.887   5.007
 8488SOL    HW226364   5.659   4.938   5.016
 8489SOL     OW26365   6.404   0.743   1.334
 8489SOL    HW126366   6.437   0.837   1.341
 8489SOL    HW226367   6.338   0.726   1.408
 8490SOL     OW26368   4.072   6.394   4.230
 8490SOL    HW126369   3.994   6.348   4.188
 8490SOL    HW226370   4.151   6.388   4.169
 8491SOL     OW26371   1.942   0.368   1.631
 8491SOL    HW126372   1.933   0.286   1.574
 8491SOL    HW226373   1.853   0.392   1.669
 8492SOL     OW26374   4.497   4.240   6.400
 8492SOL    HW126375   4.436   4.317   6.378
 8492SOL    HW226376   4.552   4.217   6.320
 8493SOL     OW26377   3.220   1.846   6.395
 8493SOL    HW126378   3.142   1.784   6.403
 8493SOL    HW226379   3.194   1.925   6.339
 8494SOL     OW26380   2.349   4.855   0.296
 8494SOL    HW126381   2.317   4.830   0.387
 8494SOL    HW226382   2.378   4.773   0.247
 8495SOL     OW26383   6.866   3.740   0.227
 8495SOL    HW126384   6.788   3.692   0.267
 8495SOL    HW226385   6.940   3.746   0.294
 8496SOL     OW26386   0.483   1.823   1.973
 8496SOL    HW126387   0.480   1.729   2.007
 8496SOL    HW226388   0.577   1.856   1.977
 8497SOL     OW26389   6.800   0.453   4.650
 8497SOL    HW126390   6.895   0.422   4.645
 8497SOL    HW226391   6.766   0.470   4.557
 8498SOL     OW26392   0.412   5.975   2.787
 8498SOL    HW126393   0.351   5.920   2.731
 8498SOL    HW226394   0.494   5.923   2.808
 8499SOL     OW26395   2.192   5.540   6.837
 8499SOL    HW126396   2.110   5.483   6.833
 8499SOL    HW226397   2.181   5.608   6.910
 8500SOL     OW26398   1.906   0.843   5.821
 8500SOL    HW126399   1.893   0.870   5.916
 8500SOL    HW226400   2.000   0.811   5.808
 8501SOL     OW26401   1.235   2.389   0.573
 8501SOL    HW126402   1.229   2.434   0.484
 8501SOL    HW226403   1.144   2.364   0.604
 8502SOL     OW26404   1.859   4.925   1.284
 8502SOL    HW126405   1.766   4.889   1.284
 8502SOL    HW226406   1.923   4.851   1.303
 8503SOL     OW26407   1.271   5.922   2.595
 8503SOL    HW126408   1.368   5.917   2.619
 8503SOL    HW226409   1.219   5.959   2.673
 8504SOL     OW26410   2.027   6.322   3.601
 8504SOL    HW126411   2.113   6.300   3.646
 8504SOL    HW226412   1.951   6.309   3.665
 8505SOL     OW26413   4.858   3.848   3.836
 8505SOL    HW126414   4.805   3.933   3.834
 8505SOL    HW226415   4.827   3.792   3.912
 8506SOL     OW26416   0.314   0.787   1.064
 8506SOL    HW126417   0.214   0.790   1.067
 8506SOL    HW226418   0.352   0.846   1.136
 8507SOL     OW26419   3.368   0.724   5.428
 8507SOL    HW126420   3.305   0.647   5.414
 8507SOL    HW226421   3.316   0.806   5.449
 8508SOL     OW26422   6.966   2.441   4.537
 8508SOL    HW126423   6.921   2.390   4.464
 8508SOL    HW226424   7.018   2.518   4.498
 8509SOL     OW26425   5.178   1.172   4.164
 8509SOL    HW126426   5.164   1.214   4.075
 8509SOL    HW226427   5.131   1.226   4.235
 8510SOL     OW26428   5.584   4.448   3.013
 8510SOL    HW126429   5.496   4.408   2.985
 8510SOL    HW226430   5.573   4.496   3.100
 8511SOL     OW26431   5.496   3.428   1.538
 8511SOL    HW126432   5.580   3.378   1.517
 8511SOL    HW226433   5.443   3.441   1.454
 8512SOL     OW26434   2.821   2.274   0.356
 8512SOL    HW126435   2.774   2.188   0.338
 8512SOL    HW226436   2.888   2.261   0.429
 8513SOL     OW26437   4.655   3.755   1.410
 8513SOL    HW126438   4.734   3.698   1.388
 8513SOL    HW226439   4.670   3.848   1.379
 8514SOL     OW26440   2.674   2.393   3.689
 8514SOL    HW126441   2.629   2.482   3.692
 8514SOL    HW226442   2.660   2.351   3.600
 8515SOL     OW26443   6.173   0.991   6.952
 8515SOL    HW126444   6.248   0.940   6.995
 8515SOL    HW226445   6.096   0.996   7.016
 8516SOL     OW26446   6.747   2.755   1.815
 8516SOL    HW126447   6.769   2.743   1.911
 8516SOL    HW226448   6.716   2.849   1.800
 8517SOL     OW26449   2.229   2.333   5.836
 8517SOL    HW126450   2.294   2.382   5.778
 8517SOL    HW226451   2.138   2.373   5.825
 8518SOL     OW26452   4.863   4.362   6.152
 8518SOL    HW126453   4.824   4.453   6.141
 8518SOL    HW226454   4.883   4.346   6.249
 8519SOL     OW26455   1.487   5.532   1.468
 8519SOL    HW126456   1.432   5.450   1.450
 8519SOL    HW226457   1.551   5.546   1.393
 8520SOL     OW26458   2.903   2.816   6.660
 8520SOL    HW126459   2.998   2.803   6.691
 8520SOL    HW226460   2.904   2.850   6.567
 8521SOL     OW26461   2.252   5.364   5.787
 8521SOL    HW126462   2.237   5.462   5.771
 8521SOL    HW226463   2.279   5.350   5.883
 8522SOL     OW26464   0.624   6.797   1.555
 8522SOL    HW126465   0.699   6.774   1.617
 8522SOL    HW226466   0.597   6.892   1.570
 8523SOL     OW26467   2.035   6.157   6.898
 8523SOL    HW126468   1.948   6.149   6.947
 8523SOL    HW226469   2.078   6.067   6.892
 8524SOL     OW26470   0.483   2.987   5.752
 8524SOL    HW126471   0.445   2.904   5.714
 8524SOL    HW226472   0.560   2.965   5.812
 8525SOL     OW26473   6.375   5.242   1.890
 8525SOL    HW126474   6.453   5.179   1.884
 8525SOL    HW226475   6.300   5.206   1.835
 8526SOL     OW26476   3.334   6.288   1.016
 8526SOL    HW126477   3.317   6.303   0.918
 8526SOL    HW226478   3.371   6.196   1.030
 8527SOL     OW26479   2.972   1.037   6.948
 8527SOL    HW126480   2.873   1.034   6.962
 8527SOL    HW226481   3.003   0.951   6.907
 8528SOL     OW26482   4.112   1.177   0.043
 8528SOL    HW126483   4.191   1.127   0.078
 8528SOL    HW226484   4.039   1.176   0.112
 8529SOL     OW26485   0.657   0.684   0.558
 8529SOL    HW126486   0.749   0.678   0.518
 8529SOL    HW226487   0.589   0.670   0.486
 8530SOL     OW26488   4.311   3.735   5.272
 8530SOL    HW126489   4.224   3.759   5.229
 8530SOL    HW226490   4.338   3.644   5.243
 8531SOL     OW26491   0.113   4.967   2.787
 8531SOL    HW126492   0.098   4.917   2.702
 8531SOL    HW226493   0.205   4.949   2.820
 8532SOL     OW26494   4.298   5.582   4.464
 8532SOL    HW126495   4.235   5.573   4.387
 8532SOL    HW226496   4.378   5.523   4.449
 8533SOL     OW26497   1.862   5.656   0.377
 8533SOL    HW126498   1.886   5.663   0.473
 8533SOL    HW226499   1.881   5.744   0.332
 8534SOL     OW26500   5.497   2.262   4.581
 8534SOL    HW126501   5.548   2.345   4.600
 8534SOL    HW226502   5.429   2.281   4.509
 8535SOL     OW26503   5.776   1.269   3.535
 8535SOL    HW126504   5.751   1.276   3.632
 8535SOL    HW226505   5.829   1.185   3.520
 8536SOL     OW26506   0.183   1.212   4.635
 8536SOL    HW126507   0.229   1.199   4.548
 8536SOL    HW226508   0.151   1.307   4.642
 8537SOL     OW26509   5.244   0.816   3.076
 8537SOL    HW126510   5.186   0.880   3.025
 8537SOL    HW226511   5.253   0.848   3.170
 8538SOL     OW26512   1.710   0.882   0.217
 8538SOL    HW126513   1.790   0.840   0.259
 8538SOL    HW226514   1.676   0.955   0.276
 8539SOL     OW26515   6.504   1.066   3.004
 8539SOL    HW126516   6.493   1.147   2.947
 8539SOL    HW226517   6.435   1.068   3.077
 8540SOL     OW26518   5.539   0.580   6.401
 8540SOL    HW126519   5.580   0.668   6.376
 8540SOL    HW226520   5.517   0.580   6.498
 8541SOL     OW26521   3.264   2.130   3.550
 8541SOL    HW126522   3.238   2.047   3.600
 8541SOL    HW226523   3.184   2.169   3.505
 8542SOL     OW26524   4.104   5.136   6.533
 8542SOL    HW126525   4.175   5.165   6.597
 8542SOL    HW226526   4.056   5.056   6.569
 8543SOL     OW26527   2.150   1.689   1.174
 8543SOL    HW126528   2.061   1.731   1.192
 8543SOL    HW226529   2.190   1.731   1.092
 8544SOL     OW26530   5.356   3.614   4.208
 8544SOL    HW126531   5.437   3.559   4.187
 8544SOL    HW226532   5.379   3.711   4.199
 8545SOL     OW26533   4.109   0.504   5.385
 8545SOL    HW126534   4.192   0.467   5.342
 8545SOL    HW226535   4.031   0.491   5.323
 8546SOL     OW26536   5.604   2.007   4.626
 8546SOL    HW126537   5.703   2.020   4.620
 8546SOL    HW226538   5.559   2.096   4.625
 8547SOL     OW26539   1.000   6.544   5.626
 8547SOL    HW126540   0.936   6.574   5.556
 8547SOL    HW226541   1.069   6.615   5.640
 8548SOL     OW26542   6.314   2.276   5.699
 8548SOL    HW126543   6.297   2.371   5.725
 8548SOL    HW226544   6.398   2.244   5.742
 8549SOL     OW26545   0.464   3.482   4.080
 8549SOL    HW126546   0.485   3.546   4.006
 8549SOL    HW226547   0.549   3.442   4.114
 8550SOL     OW26548   1.856   5.124   6.880
 8550SOL    HW126549   1.803   5.119   6.795
 8550SOL    HW226550   1.926   5.053   6.879
 8551SOL     OW26551   3.866   3.711   5.830
 8551SOL    HW126552   3.926   3.653   5.886
 8551SOL    HW226553   3.827   3.657   5.757
 8552SOL     OW26554   2.823   6.599   3.791
 8552SOL    HW126555   2.788   6.668   3.729
 8552SOL    HW226556   2.816   6.509   3.749
 8553SOL     OW26557   4.975   5.386   5.843
 8553SOL    HW126558   4.910   5.318   5.875
 8553SOL    HW226559   4.968   5.469   5.898
 8554SOL     OW26560   0.930   5.265   0.309
 8554SOL    HW126561   0.966   5.354   0.282
 8554SOL    HW226562   0.932   5.203   0.230
 8555SOL     OW26563   0.861   6.920   2.810
 8555SOL    HW126564   0.869   7.017   2.787
 8555SOL    HW226565   0.917   6.899   2.890
 8556SOL     OW26566   0.734   6.470   3.980
 8556SOL    HW126567   0.669   6.532   3.937
 8556SOL    HW226568   0.693   6.380   3.990
 8557SOL     OW26569   6.289   0.734   2.651
 8557SOL    HW126570   6.208   0.728   2.710
 8557SOL    HW226571   6.269   0.691   2.563
 8558SOL     OW26572   2.561   5.963   3.468
 8558SOL    HW126573   2.658   5.973   3.488
 8558SOL    HW226574   2.545   5.984   3.371
 8559SOL     OW26575   6.544   0.868   2.211
 8559SOL    HW126576   6.445   0.867   2.224
 8559SOL    HW226577   6.573   0.781   2.171
 8560SOL     OW26578   0.086   6.844   1.850
 8560SOL    HW126579   0.024   6.911   1.810
 8560SOL    HW226580   0.174   6.847   1.804
 8561SOL     OW26581   3.705   6.621   1.863
 8561SOL    HW126582   3.763   6.687   1.815
 8561SOL    HW226583   3.714   6.531   1.821
 8562SOL     OW26584   5.000   6.233   4.964
 8562SOL    HW126585   4.950   6.251   5.049
 8562SOL    HW226586   5.055   6.150   4.975
 8563SOL     OW26587   2.617   4.263   6.903
 8563SOL    HW126588   2.629   4.324   6.825
 8563SOL    HW226589   2.597   4.171   6.872
 8564SOL     OW26590   2.829   1.445   3.580
 8564SOL    HW126591   2.875   1.418   3.495
 8564SOL    HW226592   2.732   1.461   3.561
 8565SOL     OW26593   5.058   6.488   1.627
 8565SOL    HW126594   5.007   6.523   1.549
 8565SOL    HW226595   4.998   6.485   1.707
 8566SOL     OW26596   1.083   0.513   1.856
 8566SOL    HW126597   1.035   0.545   1.773
 8566SOL    HW226598   1.149   0.581   1.885
 8567SOL     OW26599   6.733   1.387   2.535
 8567SOL    HW126600   6.784   1.317   2.485
 8567SOL    HW226601   6.745   1.373   2.633
 8568SOL     OW26602   5.139   1.368   5.757
 8568SOL    HW126603   5.051   1.323   5.771
 8568SOL    HW226604   5.203   1.338   5.828
 8569SOL     OW26605   5.292   1.793   5.515
 8569SOL    HW126606   5.226   1.856   5.556
 8569SOL    HW226607   5.257   1.700   5.519
 8570SOL     OW26608   1.028   2.521   5.501
 8570SOL    HW126609   1.034   2.471   5.414
 8570SOL    HW226610   0.945   2.577   5.501
 8571SOL     OW26611   0.869   5.098   5.996
 8571SOL    HW126612   0.887   5.079   6.093
 8571SOL    HW226613   0.780   5.059   5.970
 8572SOL     OW26614   3.285   5.181   6.315
 8572SOL    HW126615   3.318   5.213   6.404
 8572SOL    HW226616   3.194   5.219   6.298
 8573SOL     OW26617   3.302   0.200   6.316
 8573SOL    HW126618   3.316   0.199   6.415
 8573SOL    HW226619   3.222   0.145   6.293
 8574SOL     OW26620   0.480   5.586   5.959
 8574SOL    HW126621   0.567   5.550   5.991
 8574SOL    HW226622   0.470   5.568   5.861
 8575SOL     OW26623   3.100   2.616   6.074
 8575SOL    HW126624   3.035   2.677   6.029
 8575SOL    HW226625   3.051   2.540   6.117
 8576SOL     OW26626   1.076   6.379   0.526
 8576SOL    HW126627   1.054   6.472   0.557
 8576SOL    HW226628   1.094   6.380   0.428
 8577SOL     OW26629   6.551   5.503   4.317
 8577SOL    HW126630   6.486   5.430   4.294
 8577SOL    HW226631   6.567   5.560   4.237
 8578SOL     OW26632   4.472   0.393   4.537
 8578SOL    HW126633   4.562   0.436   4.530
 8578SOL    HW226634   4.411   0.450   4.592
 8579SOL     OW26635   1.398   6.315   3.593
 8579SOL    HW126636   1.330   6.294   3.663
 8579SOL    HW226637   1.394   6.413   3.571
 8580SOL     OW26638   2.018   6.771   2.057
 8580SOL    HW126639   1.979   6.862   2.073
 8580SOL    HW226640   2.114   6.770   2.086
 8581SOL     OW26641   3.391   3.123   1.794
 8581SOL    HW126642   3.396   3.105   1.696
 8581SOL    HW226643   3.399   3.037   1.845
 8582SOL     OW26644   4.217   4.866   1.863
 8582SOL    HW126645   4.202   4.770   1.837
 8582SOL    HW226646   4.173   4.883   1.951
 8583SOL     OW26647   5.726   1.053   5.639
 8583SOL    HW126648   5.667   1.043   5.558
 8583SOL    HW226649   5.750   1.149   5.651
 8584SOL     OW26650   0.289   3.803   6.238
 8584SOL    HW126651   0.236   3.885   6.260
 8584SOL    HW226652   0.313   3.804   6.141
 8585SOL     OW26653   0.209   0.002   5.910
 8585SOL    HW126654   0.133   7.009   5.973
 8585SOL    HW226655   0.185   6.988   5.820
 8586SOL     OW26656   2.902   6.921   3.672
 8586SOL    HW126657   2.816   6.926   3.723
 8586SOL    HW226658   2.979   6.928   3.735
 8587SOL     OW26659   1.842   0.186   2.735
 8587SOL    HW126660   1.762   0.204   2.678
 8587SOL    HW226661   1.894   0.271   2.748
 8588SOL     OW26662   2.536   0.759   6.625
 8588SOL    HW126663   2.525   0.823   6.701
 8588SOL    HW226664   2.520   0.666   6.657
 8589SOL     OW26665   4.664   2.640   4.267
 8589SOL    HW126666   4.676   2.688   4.354
 8589SOL    HW226667   4.591   2.573   4.276
 8590SOL     OW26668   6.439   5.974   4.255
 8590SOL    HW126669   6.440   6.021   4.167
 8590SOL    HW226670   6.354   5.994   4.303
 8591SOL     OW26671   1.299   5.128   6.375
 8591SOL    HW126672   1.339   5.218   6.390
 8591SOL    HW226673   1.366   5.057   6.394
 8592SOL     OW26674   0.068   4.131   0.361
 8592SOL    HW126675   0.014   4.101   0.282
 8592SOL    HW226676   0.133   4.059   0.386
 8593SOL     OW26677   1.225   0.084   2.674
 8593SOL    HW126678   1.144   0.065   2.730
 8593SOL    HW226679   1.196   0.121   2.585
 8594SOL     OW26680   3.535   3.195   5.201
 8594SOL    HW126681   3.544   3.107   5.154
 8594SOL    HW226682   3.576   3.267   5.145
 8595SOL     OW26683   2.293   1.799   2.823
 8595SOL    HW126684   2.364   1.731   2.807
 8595SOL    HW226685   2.336   1.889   2.834
 8596SOL     OW26686   6.062   5.881   3.120
 8596SOL    HW126687   6.155   5.860   3.087
 8596SOL    HW226688   6.059   5.977   3.148
 8597SOL     OW26689   4.605   1.976   1.133
 8597SOL    HW126690   4.653   2.056   1.171
 8597SOL    HW226691   4.523   2.007   1.085
 8598SOL     OW26692   6.920   5.910   1.506
 8598SOL    HW126693   6.850   5.981   1.496
 8598SOL    HW226694   6.879   5.821   1.486
 8599SOL     OW26695   0.674   3.007   3.947
 8599SOL    HW126696   0.575   3.015   3.931
 8599SOL    HW226697   0.716   3.097   3.942
 8600SOL     OW26698   5.309   5.210   6.352
 8600SOL    HW126699   5.291   5.258   6.438
 8600SOL    HW226700   5.334   5.115   6.372
 8601SOL     OW26701   1.437   0.559   5.205
 8601SOL    HW126702   1.369   0.495   5.242
 8601SOL    HW226703   1.395   0.649   5.191
 8602SOL     OW26704   2.912   6.009   3.047
 8602SOL    HW126705   2.996   6.018   3.101
 8602SOL    HW226706   2.905   6.086   2.983
 8603SOL     OW26707   3.289   4.788   0.095
 8603SOL    HW126708   3.295   4.700   0.142
 8603SOL    HW226709   3.344   4.784   0.011
 8604SOL     OW26710   0.176   2.702   3.301
 8604SOL    HW126711   0.242   2.736   3.234
 8604SOL    HW226712   0.221   2.692   3.390
 8605SOL     OW26713   3.278   4.936   3.982
 8605SOL    HW126714   3.223   4.947   3.900
 8605SOL    HW226715   3.220   4.902   4.057
 8606SOL     OW26716   2.049   4.359   5.331
 8606SOL    HW126717   2.088   4.450   5.344
 8606SOL    HW226718   2.111   4.304   5.274
 8607SOL     OW26719   3.329   4.989   0.542
 8607SOL    HW126720   3.428   5.000   0.534
 8607SOL    HW226721   3.306   4.892   0.540
 8608SOL     OW26722   4.384   4.993   3.072
 8608SOL    HW126723   4.344   4.997   2.980
 8608SOL    HW226724   4.443   4.912   3.079
 8609SOL     OW26725   4.720   0.570   3.818
 8609SOL    HW126726   4.630   0.528   3.821
 8609SOL    HW226727   4.780   0.518   3.757
 8610SOL     OW26728   1.741   1.012   3.016
 8610SOL    HW126729   1.755   1.004   3.115
 8610SOL    HW226730   1.663   1.072   2.999
 8611SOL     OW26731   2.187   2.656   3.926
 8611SOL    HW126732   2.258   2.617   3.868
 8611SOL    HW226733   2.217   2.653   4.021
 8612SOL     OW26734   2.949   3.434   0.058
 8612SOL    HW126735   2.874   3.399   0.003
 8612SOL    HW226736   2.990   3.359   0.109
 8613SOL     OW26737   2.683   2.389   1.811
 8613SOL    HW126738   2.767   2.426   1.851
 8613SOL    HW226739   2.654   2.447   1.736
 8614SOL     OW26740   0.500   3.282   2.537
 8614SOL    HW126741   0.482   3.228   2.619
 8614SOL    HW226742   0.536   3.222   2.465
 8615SOL     OW26743   4.900   1.593   5.387
 8615SOL    HW126744   4.824   1.528   5.380
 8615SOL    HW226745   4.890   1.664   5.316
 8616SOL     OW26746   1.819   5.321   1.328
 8616SOL    HW126747   1.789   5.381   1.401
 8616SOL    HW226748   1.739   5.290   1.275
 8617SOL     OW26749   6.587   1.313   6.733
 8617SOL    HW126750   6.592   1.328   6.831
 8617SOL    HW226751   6.560   1.218   6.715
 8618SOL     OW26752   5.318   6.532   0.806
 8618SOL    HW126753   5.265   6.448   0.799
 8618SOL    HW226754   5.396   6.528   0.744
 8619SOL     OW26755   3.240   5.177   1.766
 8619SOL    HW126756   3.228   5.078   1.757
 8619SOL    HW226757   3.218   5.205   1.859
 8620SOL     OW26758   6.483   6.980   3.218
 8620SOL    HW126759   6.480   0.029   3.149
 8620SOL    HW226760   6.488   6.891   3.173
 8621SOL     OW26761   5.958   1.883   3.274
 8621SOL    HW126762   5.870   1.880   3.321
 8621SOL    HW226763   6.030   1.904   3.340
 8622SOL     OW26764   4.821   4.076   0.636
 8622SOL    HW126765   4.787   4.105   0.546
 8622SOL    HW226766   4.920   4.089   0.640
 8623SOL     OW26767   0.779   3.959   3.366
 8623SOL    HW126768   0.690   3.985   3.404
 8623SOL    HW226769   0.809   4.029   3.301
 8624SOL     OW26770   0.966   3.751   3.502
 8624SOL    HW126771   0.891   3.806   3.464
 8624SOL    HW226772   0.962   3.659   3.463
 8625SOL     OW26773   5.124   6.694   4.772
 8625SOL    HW126774   5.180   6.672   4.852
 8625SOL    HW226775   5.105   6.792   4.770
 8626SOL     OW26776   3.550   2.951   5.068
 8626SOL    HW126777   3.612   2.933   4.991
 8626SOL    HW226778   3.456   2.931   5.040
 8627SOL     OW26779   0.691   0.539   3.490
 8627SOL    HW126780   0.630   0.473   3.534
 8627SOL    HW226781   0.744   0.493   3.419
 8628SOL     OW26782   6.145   6.993   1.595
 8628SOL    HW126783   6.182   6.914   1.546
 8628SOL    HW226784   6.115   6.964   1.686
 8629SOL     OW26785   1.452   5.576   5.204
 8629SOL    HW126786   1.508   5.496   5.180
 8629SOL    HW226787   1.474   5.652   5.142
 8630SOL     OW26788   5.937   4.051   4.521
 8630SOL    HW126789   5.863   4.043   4.455
 8630SOL    HW226790   5.920   4.129   4.580
 8631SOL     OW26791   3.318   5.467   6.533
 8631SOL    HW126792   3.374   5.386   6.552
 8631SOL    HW226793   3.224   5.440   6.514
 8632SOL     OW26794   3.497   6.475   3.935
 8632SOL    HW126795   3.399   6.458   3.920
 8632SOL    HW226796   3.549   6.393   3.913
 8633SOL     OW26797   5.082   1.369   4.784
 8633SOL    HW126798   5.005   1.382   4.722
 8633SOL    HW226799   5.097   1.271   4.799
 8634SOL     OW26800   5.816   2.934   0.546
 8634SOL    HW126801   5.841   2.874   0.470
 8634SOL    HW226802   5.718   2.929   0.562
 8635SOL     OW26803   5.899   4.437   6.307
 8635SOL    HW126804   5.835   4.361   6.313
 8635SOL    HW226805   5.961   4.423   6.230
 8636SOL     OW26806   5.404   5.844   0.186
 8636SOL    HW126807   5.393   5.919   0.121
 8636SOL    HW226808   5.316   5.800   0.203
 8637SOL     OW26809   2.174   1.175   0.186
 8637SOL    HW126810   2.204   1.268   0.165
 8637SOL    HW226811   2.182   1.160   0.285
 8638SOL     OW26812   2.015   3.287   6.747
 8638SOL    HW126813   2.051   3.194   6.753
 8638SOL    HW226814   1.934   3.288   6.689
 8639SOL     OW26815   6.261   1.940   2.018
 8639SOL    HW126816   6.218   1.854   1.990
 8639SOL    HW226817   6.326   1.969   1.947
 8640SOL     OW26818   4.764   3.803   0.458
 8640SOL    HW126819   4.775   3.709   0.428
 8640SOL    HW226820   4.723   3.858   0.385
 8641SOL     OW26821   6.608   4.635   4.256
 8641SOL    HW126822   6.564   4.644   4.166
 8641SOL    HW226823   6.687   4.697   4.260
 8642SOL     OW26824   3.969   0.979   2.489
 8642SOL    HW126825   4.037   0.963   2.417
 8642SOL    HW226826   3.878   0.982   2.448
 8643SOL     OW26827   3.747   0.273   0.120
 8643SOL    HW126828   3.664   0.328   0.121
 8643SOL    HW226829   3.827   0.333   0.132
 8644SOL     OW26830   4.347   2.623   5.856
 8644SOL    HW126831   4.282   2.698   5.861
 8644SOL    HW226832   4.426   2.643   5.914
 8645SOL     OW26833   5.446   4.270   1.163
 8645SOL    HW126834   5.522   4.210   1.137
 8645SOL    HW226835   5.361   4.234   1.125
 8646SOL     OW26836   6.623   1.519   1.275
 8646SOL    HW126837   6.696   1.574   1.314
 8646SOL    HW226838   6.540   1.529   1.331
 8647SOL     OW26839   2.660   5.097   6.232
 8647SOL    HW126840   2.615   5.165   6.290
 8647SOL    HW226841   2.759   5.117   6.228
 8648SOL     OW26842   5.963   0.825   4.145
 8648SOL    HW126843   5.919   0.836   4.056
 8648SOL    HW226844   6.043   0.884   4.151
 8649SOL     OW26845   6.010   4.759   6.621
 8649SOL    HW126846   6.063   4.676   6.639
 8649SOL    HW226847   5.922   4.734   6.581
 8650SOL     OW26848   1.430   4.294   5.266
 8650SOL    HW126849   1.359   4.234   5.303
 8650SOL    HW226850   1.516   4.243   5.257
 8651SOL     OW26851   3.506   0.602   0.767
 8651SOL    HW126852   3.445   0.538   0.720
 8651SOL    HW226853   3.475   0.695   0.751
 8652SOL     OW26854   1.036   3.765   3.150
 8652SOL    HW126855   1.028   3.863   3.173
 8652SOL    HW226856   1.111   3.752   3.085
 8653SOL     OW26857   5.814   1.310   5.583
 8653SOL    HW126858   5.726   1.350   5.608
 8653SOL    HW226859   5.806   1.265   5.494
 8654SOL     OW26860   1.475   6.015   1.881
 8654SOL    HW126861   1.476   5.956   1.962
 8654SOL    HW226862   1.398   6.079   1.888
 8655SOL     OW26863   5.821   0.903   3.899
 8655SOL    HW126864   5.829   0.999   3.927
 8655SOL    HW226865   5.732   0.867   3.928
 8656SOL     OW26866   6.659   1.079   0.897
 8656SOL    HW126867   6.677   1.010   0.967
 8656SOL    HW226868   6.704   1.053   0.812
 8657SOL     OW26869   4.353   4.892   6.728
 8657SOL    HW126870   4.307   4.931   6.808
 8657SOL    HW226871   4.442   4.935   6.716
 8658SOL     OW26872   4.249   6.435   6.894
 8658SOL    HW126873   4.162   6.388   6.879
 8658SOL    HW226874   4.251   6.519   6.840
 8659SOL     OW26875   4.013   1.255   3.483
 8659SOL    HW126876   4.085   1.309   3.440
 8659SOL    HW226877   3.993   1.292   3.574
 8660SOL     OW26878   5.845   3.694   0.853
 8660SOL    HW126879   5.896   3.698   0.939
 8660SOL    HW226880   5.749   3.674   0.872
 8661SOL     OW26881   5.806   3.859   1.201
 8661SOL    HW126882   5.848   3.775   1.166
 8661SOL    HW226883   5.718   3.836   1.244
 8662SOL     OW26884   5.048   5.620   1.561
 8662SOL    HW126885   5.036   5.531   1.515
 8662SOL    HW226886   4.970   5.679   1.540
 8663SOL     OW26887   2.416   6.288   1.244
 8663SOL    HW126888   2.480   6.238   1.186
 8663SOL    HW226889   2.324   6.280   1.207
 8664SOL     OW26890   3.480   5.994   1.077
 8664SOL    HW126891   3.406   5.966   1.016
 8664SOL    HW226892   3.503   5.920   1.139
 8665SOL     OW26893   5.629   5.996   5.400
 8665SOL    HW126894   5.553   6.049   5.436
 8665SOL    HW226895   5.644   5.915   5.457
 8666SOL     OW26896   4.940   1.760   5.167
 8666SOL    HW126897   5.015   1.729   5.110
 8666SOL    HW226898   4.919   1.855   5.146
 8667SOL     OW26899   4.440   2.142   3.187
 8667SOL    HW126900   4.378   2.182   3.120
 8667SOL    HW226901   4.526   2.193   3.188
 8668SOL     OW26902   5.829   3.048   3.045
 8668SOL    HW126903   5.886   3.010   2.972
 8668SOL    HW226904   5.748   3.091   3.005
 8669SOL     OW26905   2.634   6.322   6.816
 8669SOL    HW126906   2.603   6.402   6.868
 8669SOL    HW226907   2.733   6.314   6.823
 8670SOL     OW26908   3.875   4.577   5.768
 8670SOL    HW126909   3.776   4.580   5.756
 8670SOL    HW226910   3.908   4.483   5.754
 8671SOL     OW26911   5.598   1.975   3.057
 8671SOL    HW126912   5.631   1.921   3.135
 8671SOL    HW226913   5.606   2.072   3.078
 8672SOL     OW26914   2.539   5.414   3.605
 8672SOL    HW126915   2.609   5.372   3.664
 8672SOL    HW226916   2.456   5.358   3.608
 8673SOL     OW26917   6.947   1.902   6.868
 8673SOL    HW126918   0.017   1.903   6.907
 8673SOL    HW226919   6.890   1.840   6.922
 8674SOL     OW26920   6.120   5.482   1.856
 8674SOL    HW126921   6.157   5.522   1.772
 8674SOL    HW226922   6.193   5.474   1.924
 8675SOL     OW26923   3.885   2.107   4.984
 8675SOL    HW126924   3.963   2.164   4.957
 8675SOL    HW226925   3.856   2.051   4.907
 8676SOL     OW26926   4.058   6.856   2.973
 8676SOL    HW126927   4.021   6.947   2.989
 8676SOL    HW226928   4.068   6.808   3.061
 8677SOL     OW26929   2.455   6.570   5.565
 8677SOL    HW126930   2.527   6.501   5.577
 8677SOL    HW226931   2.454   6.630   5.645
 8678SOL     OW26932   0.319   0.519   1.038
 8678SOL    HW126933   0.299   0.498   0.943
 8678SOL    HW226934   0.330   0.618   1.049
 8679SOL     OW26935   6.566   3.321   4.389
 8679SOL    HW126936   6.564   3.225   4.362
 8679SOL    HW226937   6.616   3.331   4.475
 8680SOL     OW26938   0.576   4.372   1.507
 8680SOL    HW126939   0.664   4.331   1.484
 8680SOL    HW226940   0.508   4.348   1.438
 8681SOL     OW26941   4.519   5.176   6.926
 8681SOL    HW126942   4.561   5.261   6.958
 8681SOL    HW226943   4.430   5.164   6.972
 8682SOL     OW26944   4.513   6.564   1.451
 8682SOL    HW126945   4.462   6.565   1.537
 8682SOL    HW226946   4.596   6.508   1.462
 8683SOL     OW26947   1.510   2.373   2.308
 8683SOL    HW126948   1.539   2.278   2.302
 8683SOL    HW226949   1.531   2.409   2.399
 8684SOL     OW26950   0.850   2.647   4.911
 8684SOL    HW126951   0.761   2.602   4.924
 8684SOL    HW226952   0.849   2.736   4.955
 8685SOL     OW26953   0.949   2.962   5.630
 8685SOL    HW126954   0.925   2.904   5.552
 8685SOL    HW226955   1.040   2.938   5.664
 8686SOL     OW26956   0.057   1.577   1.275
 8686SOL    HW126957   0.037   1.518   1.197
 8686SOL    HW226958   0.120   1.649   1.247
 8687SOL     OW26959   3.563   5.753   3.049
 8687SOL    HW126960   3.656   5.777   3.076
 8687SOL    HW226961   3.500   5.777   3.123
 8688SOL     OW26962   3.365   6.595   6.676
 8688SOL    HW126963   3.306   6.653   6.620
 8688SOL    HW226964   3.410   6.527   6.618
 8689SOL     OW26965   3.369   4.539   0.848
 8689SOL    HW126966   3.453   4.588   0.872
 8689SOL    HW226967   3.373   4.511   0.752
 8690SOL     OW26968   2.192   2.350   3.025
 8690SOL    HW126969   2.200   2.250   3.025
 8690SOL    HW226970   2.109   2.377   2.978
 8691SOL     OW26971   3.400   2.269   6.851
 8691SOL    HW126972   3.429   2.359   6.885
 8691SOL    HW226973   3.372   2.211   6.927
 8692SOL     OW26974   3.579   2.138   2.872
 8692SOL    HW126975   3.522   2.140   2.953
 8692SOL    HW226976   3.672   2.166   2.896
 8693SOL     OW26977   6.509   1.584   0.776
 8693SOL    HW126978   6.553   1.620   0.694
 8693SOL    HW226979   6.429   1.639   0.798
 8694SOL     OW26980   3.567   1.386   5.268
 8694SOL    HW126981   3.544   1.438   5.350
 8694SOL    HW226982   3.619   1.304   5.294
 8695SOL     OW26983   4.348   3.184   6.160
 8695SOL    HW126984   4.415   3.196   6.087
 8695SOL    HW226985   4.269   3.133   6.126
 8696SOL     OW26986   2.935   5.699   0.723
 8696SOL    HW126987   2.981   5.684   0.810
 8696SOL    HW226988   2.929   5.612   0.673
 8697SOL     OW26989   6.529   3.101   6.991
 8697SOL    HW126990   6.534   3.199   6.972
 8697SOL    HW226991   6.514   3.051   6.906
 8698SOL     OW26992   6.030   5.470   4.351
 8698SOL    HW126993   6.015   5.405   4.425
 8698SOL    HW226994   6.011   5.425   4.263
 8699SOL     OW26995   1.809   2.754   5.687
 8699SOL    HW126996   1.893   2.708   5.715
 8699SOL    HW226997   1.739   2.741   5.757
 8700SOL     OW26998   1.258   0.838   4.535
 8700SOL    HW126999   1.214   0.923   4.562
 8700SOL    HW227000   1.304   0.798   4.614
 8701SOL     OW27001   1.296   0.221   6.778
 8701SOL    HW127002   1.302   0.317   6.806
 8701SOL    HW227003   1.290   0.163   6.860
 8702SOL     OW27004   5.440   4.323   0.560
 8702SOL    HW127005   5.451   4.225   0.574
 8702SOL    HW227006   5.530   4.367   0.565
 8703SOL     OW27007   2.862   5.559   1.264
 8703SOL    HW127008   2.928   5.594   1.331
 8703SOL    HW227009   2.837   5.632   1.201
 8704SOL     OW27010   6.524   3.629   2.963
 8704SOL    HW127011   6.461   3.556   2.935
 8704SOL    HW227012   6.546   3.686   2.883
 8705SOL     OW27013   5.436   0.587   0.669
 8705SOL    HW127014   5.528   0.554   0.691
 8705SOL    HW227015   5.400   0.638   0.747
 8706SOL     OW27016   4.941   1.957   6.230
 8706SOL    HW127017   4.845   1.934   6.215
 8706SOL    HW227018   4.968   1.932   6.323
 8707SOL     OW27019   6.167   2.106   0.027
 8707SOL    HW127020   6.077   2.148   0.040
 8707SOL    HW227021   6.237   2.177   0.031
 8708SOL     OW27022   4.124   1.943   2.240
 8708SOL    HW127023   4.127   2.034   2.197
 8708SOL    HW227024   4.096   1.952   2.335
 8709SOL     OW27025   6.728   6.032   6.626
 8709SOL    HW127026   6.765   5.980   6.549
 8709SOL    HW227027   6.632   6.006   6.641
 8710SOL     OW27028   2.166   3.323   3.637
 8710SOL    HW127029   2.181   3.224   3.640
 8710SOL    HW227030   2.159   3.359   3.730
 8711SOL     OW27031   0.815   5.547   2.953
 8711SOL    HW127032   0.853   5.593   2.872
 8711SOL    HW227033   0.716   5.535   2.941
 8712SOL     OW27034   4.017   1.923   4.504
 8712SOL    HW127035   4.092   1.865   4.472
 8712SOL    HW227036   4.036   1.954   4.596
 8713SOL     OW27037   0.159   3.969   3.816
 8713SOL    HW127038   0.206   3.944   3.900
 8713SOL    HW227039   0.198   4.053   3.779
 8714SOL     OW27040   0.918   1.578   5.953
 8714SOL    HW127041   0.899   1.610   6.045
 8714SOL    HW227042   0.936   1.657   5.894
 8715SOL     OW27043   5.175   0.209   0.793
 8715SOL    HW127044   5.102   0.177   0.732
 8715SOL    HW227045   5.252   0.243   0.738
 8716SOL     OW27046   0.707   0.125   1.025
 8716SOL    HW127047   0.622   0.088   1.062
 8716SOL    HW227048   0.687   0.183   0.946
 8717SOL     OW27049   3.734   3.468   3.156
 8717SOL    HW127050   3.762   3.490   3.249
 8717SOL    HW227051   3.636   3.444   3.155
 8718SOL     OW27052   0.185   3.628   4.750
 8718SOL    HW127053   0.106   3.658   4.803
 8718SOL    HW227054   0.265   3.682   4.776
 8719SOL     OW27055   2.139   0.004   6.335
 8719SOL    HW127056   2.153   0.012   6.433
 8719SOL    HW227057   2.088   0.083   6.301
 8720SOL     OW27058   6.456   4.828   5.206
 8720SOL    HW127059   6.544   4.836   5.254
 8720SOL    HW227060   6.409   4.746   5.236
 8721SOL     OW27061   6.114   2.038   3.484
 8721SOL    HW127062   6.203   2.046   3.527
 8721SOL    HW227063   6.110   2.098   3.404
 8722SOL     OW27064   4.134   0.833   0.140
 8722SOL    HW127065   4.153   0.900   0.212
 8722SOL    HW227066   4.220   0.809   0.094
 8723SOL     OW27067   4.829   5.398   1.108
 8723SOL    HW127068   4.769   5.336   1.159
 8723SOL    HW227069   4.784   5.427   1.024
 8724SOL     OW27070   5.878   6.856   5.585
 8724SOL    HW127071   5.821   6.790   5.536
 8724SOL    HW227072   5.934   6.807   5.653
 8725SOL     OW27073   2.097   0.468   6.451
 8725SOL    HW127074   2.123   0.511   6.537
 8725SOL    HW227075   2.177   0.464   6.390
 8726SOL     OW27076   6.246   0.675   1.771
 8726SOL    HW127077   6.341   0.675   1.803
 8726SOL    HW227078   6.243   0.649   1.675
 8727SOL     OW27079   6.743   6.452   2.030
 8727SOL    HW127080   6.674   6.522   2.049
 8727SOL    HW227081   6.775   6.413   2.117
 8728SOL     OW27082   3.783   0.504   4.326
 8728SOL    HW127083   3.870   0.466   4.356
 8728SOL    HW227084   3.736   0.439   4.267
 8729SOL     OW27085   4.826   5.591   3.491
 8729SOL    HW127086   4.849   5.683   3.460
 8729SOL    HW227087   4.838   5.586   3.591
 8730SOL     OW27088   6.526   4.473   2.573
 8730SOL    HW127089   6.491   4.408   2.641
 8730SOL    HW227090   6.555   4.422   2.491
 8731SOL     OW27091   2.102   2.293   2.283
 8731SOL    HW127092   2.146   2.262   2.367
 8731SOL    HW227093   2.119   2.391   2.271
 8732SOL     OW27094   5.688   4.065   1.583
 8732SOL    HW127095   5.769   4.022   1.624
 8732SOL    HW227096   5.615   3.997   1.577
 8733SOL     OW27097   1.898   5.876   2.574
 8733SOL    HW127098   1.854   5.829   2.651
 8733SOL    HW227099   1.937   5.808   2.512
 8734SOL     OW27100   1.147   4.677   1.888
 8734SOL    HW127101   1.156   4.775   1.901
 8734SOL    HW227102   1.108   4.636   1.970
 8735SOL     OW27103   0.949   1.771   0.109
 8735SOL    HW127104   0.913   1.745   0.020
 8735SOL    HW227105   0.924   1.866   0.128
 8736SOL     OW27106   0.333   6.499   5.722
 8736SOL    HW127107   0.241   6.522   5.755
 8736SOL    HW227108   0.350   6.545   5.635
 8737SOL     OW27109   2.201   0.022   5.897
 8737SOL    HW127110   2.259   0.021   5.816
 8737SOL    HW227111   2.105   0.014   5.869
 8738SOL     OW27112   2.129   5.412   4.474
 8738SOL    HW127113   2.133   5.328   4.528
 8738SOL    HW227114   2.042   5.458   4.490
 8739SOL     OW27115   6.273   5.466   6.203
 8739SOL    HW127116   6.323   5.444   6.119
 8739SOL    HW227117   6.197   5.527   6.181
 8740SOL     OW27118   5.019   0.698   4.955
 8740SOL    HW127119   5.050   0.603   4.952
 8740SOL    HW227120   5.066   0.746   5.029
 8741SOL     OW27121   2.543   0.946   1.747
 8741SOL    HW127122   2.567   1.028   1.800
 8741SOL    HW227123   2.517   0.973   1.654
 8742SOL     OW27124   5.491   6.123   1.760
 8742SOL    HW127125   5.397   6.154   1.768
 8742SOL    HW227126   5.549   6.174   1.823
 8743SOL     OW27127   1.677   0.549   2.246
 8743SOL    HW127128   1.682   0.458   2.204
 8743SOL    HW227129   1.762   0.598   2.231
 8744SOL     OW27130   3.636   2.594   6.062
 8744SOL    HW127131   3.659   2.500   6.088
 8744SOL    HW227132   3.537   2.606   6.065
 8745SOL     OW27133   6.211   2.787   5.848
 8745SOL    HW127134   6.141   2.838   5.798
 8745SOL    HW227135   6.277   2.852   5.888
 8746SOL     OW27136   4.903   3.852   5.104
 8746SOL    HW127137   4.869   3.773   5.052
 8746SOL    HW227138   4.971   3.900   5.050
 8747SOL     OW27139   0.232   2.313   2.937
 8747SOL    HW127140   0.186   2.400   2.917
 8747SOL    HW227141   0.328   2.320   2.913
 8748SOL     OW27142   0.658   1.675   5.681
 8748SOL    HW127143   0.700   1.629   5.603
 8748SOL    HW227144   0.562   1.650   5.687
 8749SOL     OW27145   2.958   0.301   6.557
 8749SOL    HW127146   2.888   0.267   6.620
 8749SOL    HW227147   3.049   0.278   6.593
 8750SOL     OW27148   3.096   3.143   5.508
 8750SOL    HW127149   3.070   3.056   5.465
 8750SOL    HW227150   3.158   3.193   5.448
 8751SOL     OW27151   6.248   0.216   3.012
 8751SOL    HW127152   6.224   0.313   3.003
 8751SOL    HW227153   6.262   0.177   2.921
 8752SOL     OW27154   2.710   4.974   6.765
 8752SOL    HW127155   2.610   4.978   6.776
 8752SOL    HW227156   2.751   4.936   6.847
 8753SOL     OW27157   4.665   1.744   5.107
 8753SOL    HW127158   4.757   1.780   5.118
 8753SOL    HW227159   4.621   1.733   5.196
 8754SOL     OW27160   1.282   2.238   4.913
 8754SOL    HW127161   1.262   2.335   4.928
 8754SOL    HW227162   1.371   2.229   4.868
 8755SOL     OW27163   2.344   1.011   6.415
 8755SOL    HW127164   2.258   1.060   6.429
 8755SOL    HW227165   2.401   1.021   6.496
 8756SOL     OW27166   2.063   3.411   3.232
 8756SOL    HW127167   2.098   3.495   3.273
 8756SOL    HW227168   1.983   3.379   3.284
 8757SOL     OW27169   5.255   6.652   5.713
 8757SOL    HW127170   5.320   6.703   5.657
 8757SOL    HW227171   5.162   6.664   5.676
 8758SOL     OW27172   4.828   6.443   1.778
 8758SOL    HW127173   4.836   6.395   1.865
 8758SOL    HW227174   4.784   6.532   1.793
 8759SOL     OW27175   3.707   2.282   7.015
 8759SOL    HW127176   3.708   2.295   6.916
 8759SOL    HW227177   3.614   2.293   0.026
 8760SOL     OW27178   1.772   1.827   5.079
 8760SOL    HW127179   1.721   1.815   4.993
 8760SOL    HW227180   1.865   1.857   5.059
 8761SOL     OW27181   4.709   1.349   1.908
 8761SOL    HW127182   4.667   1.362   1.818
 8761SOL    HW227183   4.706   1.252   1.932
 8762SOL     OW27184   0.828   4.253   2.510
 8762SOL    HW127185   0.749   4.234   2.453
 8762SOL    HW227186   0.894   4.178   2.502
 8763SOL     OW27187   5.805   5.927   5.860
 8763SOL    HW127188   5.802   5.861   5.935
 8763SOL    HW227189   5.895   5.968   5.854
 8764SOL     OW27190   4.681   0.862   4.372
 8764SOL    HW127191   4.644   0.771   4.389
 8764SOL    HW227192   4.759   0.879   4.433
 8765SOL     OW27193   6.205   6.541   5.049
 8765SOL    HW127194   6.249   6.568   5.135
 8765SOL    HW227195   6.143   6.464   5.066
 8766SOL     OW27196   4.176   5.265   2.827
 8766SOL    HW127197   4.203   5.346   2.777
 8766SOL    HW227198   4.086   5.279   2.868
 8767SOL     OW27199   3.940   0.057   3.009
 8767SOL    HW127200   3.999   0.135   2.987
 8767SOL    HW227201   3.844   0.085   3.000
 8768SOL     OW27202   0.887   3.159   0.617
 8768SOL    HW127203   0.952   3.177   0.691
 8768SOL    HW227204   0.837   3.075   0.636
 8769SOL     OW27205   1.633   6.698   3.877
 8769SOL    HW127206   1.674   6.633   3.813
 8769SOL    HW227207   1.555   6.742   3.833
 8770SOL     OW27208   4.948   3.814   1.977
 8770SOL    HW127209   4.984   3.784   2.065
 8770SOL    HW227210   4.889   3.743   1.939
 8771SOL     OW27211   1.109   0.436   5.911
 8771SOL    HW127212   1.070   0.468   5.824
 8771SOL    HW227213   1.207   0.420   5.900
 8772SOL     OW27214   5.648   6.646   6.810
 8772SOL    HW127215   5.668   6.714   6.740
 8772SOL    HW227216   5.734   6.602   6.839
 8773SOL     OW27217   4.624   2.395   4.062
 8773SOL    HW127218   4.712   2.401   4.109
 8773SOL    HW227219   4.635   2.348   3.975
 8774SOL     OW27220   2.418   1.722   0.543
 8774SOL    HW127221   2.438   1.742   0.447
 8774SOL    HW227222   2.496   1.748   0.599
 8775SOL     OW27223   6.555   0.508   5.678
 8775SOL    HW127224   6.479   0.478   5.620
 8775SOL    HW227225   6.571   0.605   5.665
 8776SOL     OW27226   3.348   4.112   4.399
 8776SOL    HW127227   3.355   4.161   4.486
 8776SOL    HW227228   3.426   4.134   4.342
 8777SOL     OW27229   0.274   4.003   1.540
 8777SOL    HW127230   0.290   3.905   1.528
 8777SOL    HW227231   0.178   4.023   1.518
 8778SOL     OW27232   5.889   2.202   4.727
 8778SOL    HW127233   5.968   2.143   4.708
 8778SOL    HW227234   5.859   2.245   4.642
 8779SOL     OW27235   2.813   5.334   2.065
 8779SOL    HW127236   2.876   5.384   2.123
 8779SOL    HW227237   2.773   5.396   1.998
 8780SOL     OW27238   1.141   5.300   3.700
 8780SOL    HW127239   1.110   5.387   3.736
 8780SOL    HW227240   1.217   5.315   3.636
 8781SOL     OW27241   6.278   1.423   4.185
 8781SOL    HW127242   6.349   1.470   4.238
 8781SOL    HW227243   6.321   1.351   4.130
 8782SOL     OW27244   5.506   0.572   1.914
 8782SOL    HW127245   5.515   0.477   1.887
 8782SOL    HW227246   5.433   0.581   1.982
 8783SOL     OW27247   6.728   4.490   3.911
 8783SOL    HW127248   6.696   4.397   3.895
 8783SOL    HW227249   6.692   4.550   3.840
 8784SOL     OW27250   5.818   3.805   5.800
 8784SOL    HW127251   5.722   3.796   5.773
 8784SOL    HW227252   5.857   3.886   5.757
 8785SOL     OW27253   6.674   3.525   6.709
 8785SOL    HW127254   6.713   3.439   6.676
 8785SOL    HW227255   6.584   3.507   6.749
 8786SOL     OW27256   2.591   6.412   0.444
 8786SOL    HW127257   2.619   6.412   0.540
 8786SOL    HW227258   2.530   6.489   0.427
 8787SOL     OW27259   1.899   3.009   2.422
 8787SOL    HW127260   1.997   3.013   2.402
 8787SOL    HW227261   1.880   3.060   2.506
 8788SOL     OW27262   6.955   2.190   5.554
 8788SOL    HW127263   6.857   2.194   5.533
 8788SOL    HW227264   6.999   2.273   5.519
 8789SOL     OW27265   6.063   6.877   5.399
 8789SOL    HW127266   6.086   6.974   5.407
 8789SOL    HW227267   5.986   6.856   5.459
 8790SOL     OW27268   0.051   1.238   0.067
 8790SOL    HW127269   0.112   1.316   0.082
 8790SOL    HW227270   0.106   1.158   0.041
 8791SOL     OW27271   5.583   6.734   4.753
 8791SOL    HW127272   5.649   6.760   4.823
 8791SOL    HW227273   5.542   6.646   4.777
 8792SOL     OW27274   3.779   6.193   3.733
 8792SOL    HW127275   3.736   6.102   3.736
 8792SOL    HW227276   3.724   6.254   3.676
 8793SOL     OW27277   1.660   5.714   3.866
 8793SOL    HW127278   1.758   5.724   3.848
 8793SOL    HW227279   1.613   5.688   3.782
 8794SOL     OW27280   4.271   6.800   1.541
 8794SOL    HW127281   4.219   6.862   1.599
 8794SOL    HW227282   4.297   6.719   1.593
 8795SOL     OW27283   1.010   6.768   4.799
 8795SOL    HW127284   1.069   6.730   4.728
 8795SOL    HW227285   0.963   6.694   4.847
 8796SOL     OW27286   3.767   0.496   4.782
 8796SOL    HW127287   3.742   0.543   4.697
 8796SOL    HW227288   3.719   0.538   4.859
 8797SOL     OW27289   1.356   0.101   4.910
 8797SOL    HW127290   1.445   0.086   4.953
 8797SOL    HW227291   1.307   0.014   4.905
 8798SOL     OW27292   5.094   5.219   4.764
 8798SOL    HW127293   5.123   5.125   4.744
 8798SOL    HW227294   5.039   5.220   4.848
 8799SOL     OW27295   1.758   4.056   3.447
 8799SOL    HW127296   1.823   3.998   3.496
 8799SOL    HW227297   1.747   4.022   3.354
 8800SOL     OW27298   6.049   4.300   5.409
 8800SOL    HW127299   6.092   4.291   5.499
 8800SOL    HW227300   5.950   4.302   5.419
 8801SOL     OW27301   1.204   1.449   4.267
 8801SOL    HW127302   1.195   1.350   4.276
 8801SOL    HW227303   1.164   1.494   4.347
 8802SOL     OW27304   1.745   0.266   0.265
 8802SOL    HW127305   1.756   0.362   0.237
 8802SOL    HW227306   1.687   0.219   0.198
 8803SOL     OW27307   0.327   5.441   5.750
 8803SOL    HW127308   0.300   5.418   5.657
 8803SOL    HW227309   0.308   5.364   5.811
 8804SOL     OW27310   3.050   0.139   1.751
 8804SOL    HW127311   3.000   0.109   1.833
 8804SOL    HW227312   3.130   0.192   1.779
 8805SOL     OW27313   2.429   0.340   4.153
 8805SOL    HW127314   2.418   0.242   4.143
 8805SOL    HW227315   2.508   0.359   4.212
 8806SOL     OW27316   1.963   4.965   1.744
 8806SOL    HW127317   1.932   4.924   1.830
 8806SOL    HW227318   1.889   4.962   1.677
 8807SOL     OW27319   6.439   6.624   6.374
 8807SOL    HW127320   6.398   6.586   6.291
 8807SOL    HW227321   6.470   6.549   6.433
 8808SOL     OW27322   5.521   2.261   0.924
 8808SOL    HW127323   5.570   2.181   0.959
 8808SOL    HW227324   5.499   2.247   0.828
 8809SOL     OW27325   4.983   4.809   3.017
 8809SOL    HW127326   5.046   4.755   2.961
 8809SOL    HW227327   5.030   4.841   3.100
 8810SOL     OW27328   5.330   1.184   6.289
 8810SOL    HW127329   5.282   1.130   6.220
 8810SOL    HW227330   5.402   1.128   6.331
 8811SOL     OW27331   3.333   1.836   3.443
 8811SOL    HW127332   3.421   1.789   3.430
 8811SOL    HW227333   3.258   1.774   3.418
 8812SOL     OW27334   1.913   0.552   1.137
 8812SOL    HW127335   1.998   0.580   1.180
 8812SOL    HW227336   1.857   0.500   1.203
 8813SOL     OW27337   1.147   4.388   1.504
 8813SOL    HW127338   1.092   4.468   1.478
 8813SOL    HW227339   1.175   4.396   1.599
 8814SOL     OW27340   6.229   0.795   0.540
 8814SOL    HW127341   6.289   0.717   0.561
 8814SOL    HW227342   6.278   0.880   0.555
 8815SOL     OW27343   6.361   6.425   0.578
 8815SOL    HW127344   6.293   6.399   0.646
 8815SOL    HW227345   6.331   6.509   0.531
 8816SOL     OW27346   2.089   0.880   0.593
 8816SOL    HW127347   2.128   0.855   0.504
 8816SOL    HW227348   2.012   0.819   0.613
 8817SOL     OW27349   0.773   6.244   5.478
 8817SOL    HW127350   0.727   6.333   5.482
 8817SOL    HW227351   0.871   6.258   5.460
 8818SOL     OW27352   0.140   2.801   4.238
 8818SOL    HW127353   0.233   2.792   4.204
 8818SOL    HW227354   0.102   2.709   4.253
 8819SOL     OW27355   4.443   5.291   4.483
 8819SOL    HW127356   4.359   5.263   4.436
 8819SOL    HW227357   4.520   5.242   4.443
 8820SOL     OW27358   2.402   1.596   4.561
 8820SOL    HW127359   2.387   1.629   4.654
 8820SOL    HW227360   2.418   1.674   4.500
 8821SOL     OW27361   2.873   6.223   0.154
 8821SOL    HW127362   2.785   6.270   0.145
 8821SOL    HW227363   2.912   6.242   0.244
 8822SOL     OW27364   0.810   0.070   3.853
 8822SOL    HW127365   0.785   0.039   3.945
 8822SOL    HW227366   0.909   0.083   3.848
 8823SOL     OW27367   1.955   0.930   0.894
 8823SOL    HW127368   2.038   0.946   0.841
 8823SOL    HW227369   1.952   0.834   0.922
 8824SOL     OW27370   1.497   3.399   1.344
 8824SOL    HW127371   1.512   3.363   1.252
 8824SOL    HW227372   1.582   3.438   1.378
 8825SOL     OW27373   1.927   0.206   3.283
 8825SOL    HW127374   1.941   0.138   3.354
 8825SOL    HW227375   2.013   0.253   3.264
 8826SOL     OW27376   6.643   2.754   0.362
 8826SOL    HW127377   6.720   2.704   0.323
 8826SOL    HW227378   6.612   2.823   0.296
 8827SOL     OW27379   3.558   1.221   3.026
 8827SOL    HW127380   3.563   1.162   3.107
 8827SOL    HW227381   3.611   1.180   2.952
 8828SOL     OW27382   4.294   5.638   4.955
 8828SOL    HW127383   4.244   5.637   4.869
 8828SOL    HW227384   4.385   5.599   4.942
 8829SOL     OW27385   0.089   2.240   0.341
 8829SOL    HW127386   0.155   2.166   0.329
 8829SOL    HW227387   0.095   2.275   0.435
 8830SOL     OW27388   0.516   1.269   1.438
 8830SOL    HW127389   0.592   1.327   1.467
 8830SOL    HW227390   0.465   1.239   1.519
 8831SOL     OW27391   5.368   0.662   3.501
 8831SOL    HW127392   5.404   0.590   3.442
 8831SOL    HW227393   5.351   0.744   3.447
 8832SOL     OW27394   6.700   5.944   2.933
 8832SOL    HW127395   6.704   5.935   2.833
 8832SOL    HW227396   6.612   5.985   2.958
 8833SOL     OW27397   2.150   6.514   5.733
 8833SOL    HW127398   2.175   6.418   5.720
 8833SOL    HW227399   2.081   6.540   5.666
 8834SOL     OW27400   5.377   3.106   4.394
 8834SOL    HW127401   5.446   3.170   4.358
 8834SOL    HW227402   5.306   3.158   4.442
 8835SOL     OW27403   6.287   1.388   5.934
 8835SOL    HW127404   6.189   1.406   5.928
 8835SOL    HW227405   6.312   1.369   6.029
 8836SOL     OW27406   4.694   1.790   6.585
 8836SOL    HW127407   4.617   1.771   6.524
 8836SOL    HW227408   4.675   1.872   6.638
 8837SOL     OW27409   0.281   6.219   2.914
 8837SOL    HW127410   0.192   6.185   2.946
 8837SOL    HW227411   0.342   6.143   2.897
 8838SOL     OW27412   3.013   4.953   2.850
 8838SOL    HW127413   2.952   5.030   2.832
 8838SOL    HW227414   2.959   4.874   2.882
 8839SOL     OW27415   4.932   5.396   2.075
 8839SOL    HW127416   4.925   5.478   2.019
 8839SOL    HW227417   4.904   5.316   2.020
 8840SOL     OW27418   6.662   1.533   1.816
 8840SOL    HW127419   6.701   1.551   1.906
 8840SOL    HW227420   6.596   1.458   1.823
 8841SOL     OW27421   1.306   0.425   4.813
 8841SOL    HW127422   1.338   0.462   4.726
 8841SOL    HW227423   1.267   0.498   4.869
 8842SOL     OW27424   3.035   3.121   1.847
 8842SOL    HW127425   3.086   3.204   1.874
 8842SOL    HW227426   3.019   3.064   1.928
 8843SOL     OW27427   1.959   3.273   5.248
 8843SOL    HW127428   1.976   3.199   5.183
 8843SOL    HW227429   2.046   3.320   5.267
 8844SOL     OW27430   5.851   1.845   6.897
 8844SOL    HW127431   5.776   1.894   6.942
 8844SOL    HW227432   5.895   1.906   6.831
 8845SOL     OW27433   4.469   3.840   6.668
 8845SOL    HW127434   4.399   3.836   6.739
 8845SOL    HW227435   4.438   3.899   6.594
 8846SOL     OW27436   2.941   5.672   3.430
 8846SOL    HW127437   2.896   5.610   3.495
 8846SOL    HW227438   3.032   5.635   3.407
 8847SOL     OW27439   3.179   1.011   2.509
 8847SOL    HW127440   3.174   0.988   2.606
 8847SOL    HW227441   3.275   1.014   2.481
 8848SOL     OW27442   2.493   0.041   2.029
 8848SOL    HW127443   2.486   0.009   2.123
 8848SOL    HW227444   2.474   0.139   2.026
 8849SOL     OW27445   3.352   5.718   2.810
 8849SOL    HW127446   3.409   5.730   2.891
 8849SOL    HW227447   3.406   5.738   2.728
 8850SOL     OW27448   1.777   2.285   0.174
 8850SOL    HW127449   1.723   2.213   0.131
 8850SOL    HW227450   1.719   2.337   0.237
 8851SOL     OW27451   1.943   4.058   2.522
 8851SOL    HW127452   1.874   4.129   2.538
 8851SOL    HW227453   2.024   4.077   2.578
 8852SOL     OW27454   0.801   2.018   4.641
 8852SOL    HW127455   0.843   2.092   4.693
 8852SOL    HW227456   0.735   1.969   4.698
 8853SOL     OW27457   2.858   0.443   1.416
 8853SOL    HW127458   2.796   0.463   1.340
 8853SOL    HW227459   2.952   0.440   1.381
 8854SOL     OW27460   2.058   3.513   4.848
 8854SOL    HW127461   2.000   3.437   4.819
 8854SOL    HW227462   2.087   3.566   4.768
 8855SOL     OW27463   6.646   5.246   1.270
 8855SOL    HW127464   6.718   5.303   1.310
 8855SOL    HW227465   6.665   5.150   1.289
 8856SOL     OW27466   0.637   6.317   6.645
 8856SOL    HW127467   0.630   6.339   6.548
 8856SOL    HW227468   0.622   6.400   6.699
 8857SOL     OW27469   6.480   1.416   4.618
 8857SOL    HW127470   6.533   1.491   4.578
 8857SOL    HW227471   6.541   1.352   4.664
 8858SOL     OW27472   0.144   4.412   3.963
 8858SOL    HW127473   0.206   4.390   4.038
 8858SOL    HW227474   0.180   4.374   3.877
 8859SOL     OW27475   1.053   1.146   3.921
 8859SOL    HW127476   0.990   1.165   3.996
 8859SOL    HW227477   1.033   1.055   3.883
 8860SOL     OW27478   6.675   2.013   1.616
 8860SOL    HW127479   6.710   1.923   1.642
 8860SOL    HW227480   6.712   2.082   1.678
 8861SOL     OW27481   4.493   1.163   6.605
 8861SOL    HW127482   4.494   1.231   6.678
 8861SOL    HW227483   4.505   1.208   6.516
 8862SOL     OW27484   5.667   6.569   3.804
 8862SOL    HW127485   5.610   6.575   3.886
 8862SOL    HW227486   5.724   6.487   3.808
 8863SOL     OW27487   2.387   4.801   3.330
 8863SOL    HW127488   2.438   4.801   3.416
 8863SOL    HW227489   2.315   4.871   3.333
 8864SOL     OW27490   3.883   4.305   6.253
 8864SOL    HW127491   3.821   4.378   6.224
 8864SOL    HW227492   3.936   4.336   6.332
 8865SOL     OW27493   3.549   0.821   4.811
 8865SOL    HW127494   3.449   0.829   4.814
 8865SOL    HW227495   3.578   0.748   4.874
 8866SOL     OW27496   5.582   6.465   2.907
 8866SOL    HW127497   5.668   6.498   2.868
 8866SOL    HW227498   5.524   6.431   2.833
 8867SOL     OW27499   5.713   4.318   3.433
 8867SOL    HW127500   5.613   4.326   3.435
 8867SOL    HW227501   5.741   4.273   3.349
 8868SOL     OW27502   6.871   3.609   2.212
 8868SOL    HW127503   6.959   3.565   2.193
 8868SOL    HW227504   6.861   3.691   2.156
 8869SOL     OW27505   4.128   5.808   5.411
 8869SOL    HW127506   4.083   5.873   5.350
 8869SOL    HW227507   4.211   5.774   5.366
 8870SOL     OW27508   1.528   6.569   1.674
 8870SOL    HW127509   1.613   6.515   1.669
 8870SOL    HW227510   1.542   6.655   1.626
 8871SOL     OW27511   2.027   0.615   3.529
 8871SOL    HW127512   2.112   0.602   3.580
 8871SOL    HW227513   2.015   0.713   3.509
 8872SOL     OW27514   1.018   4.987   5.797
 8872SOL    HW127515   1.116   5.008   5.804
 8872SOL    HW227516   0.971   5.021   5.878
 8873SOL     OW27517   1.647   6.823   1.993
 8873SOL    HW127518   1.698   6.909   1.987
 8873SOL    HW227519   1.691   6.762   2.060
 8874SOL     OW27520   1.367   5.639   2.408
 8874SOL    HW127521   1.410   5.577   2.474
 8874SOL    HW227522   1.302   5.589   2.351
 8875SOL     OW27523   6.844   3.394   4.548
 8875SOL    HW127524   6.925   3.380   4.606
 8875SOL    HW227525   6.765   3.352   4.591
 8876SOL     OW27526   2.452   0.747   6.361
 8876SOL    HW127527   2.420   0.841   6.348
 8876SOL    HW227528   2.437   0.720   6.456
 8877SOL     OW27529   1.920   2.942   3.068
 8877SOL    HW127530   1.840   2.883   3.062
 8877SOL    HW227531   2.001   2.891   3.039
 8878SOL     OW27532   3.391   5.170   1.015
 8878SOL    HW127533   3.447   5.087   1.022
 8878SOL    HW227534   3.376   5.208   1.106
 8879SOL     OW27535   5.659   4.962   2.437
 8879SOL    HW127536   5.702   4.873   2.455
 8879SOL    HW227537   5.719   5.035   2.470
 8880SOL     OW27538   4.025   6.022   5.213
 8880SOL    HW127539   4.101   6.055   5.156
 8880SOL    HW227540   3.960   5.973   5.155
 8881SOL     OW27541   5.243   5.445   4.370
 8881SOL    HW127542   5.319   5.392   4.406
 8881SOL    HW227543   5.264   5.475   4.277
 8882SOL     OW27544   3.877   1.005   0.745
 8882SOL    HW127545   3.971   1.027   0.719
 8882SOL    HW227546   3.876   0.918   0.794
 8883SOL     OW27547   1.300   6.509   5.866
 8883SOL    HW127548   1.251   6.588   5.829
 8883SOL    HW227549   1.276   6.428   5.813
 8884SOL     OW27550   6.033   3.680   5.625
 8884SOL    HW127551   6.115   3.625   5.634
 8884SOL    HW227552   5.963   3.629   5.575
 8885SOL     OW27553   5.016   4.599   0.953
 8885SOL    HW127554   4.994   4.618   0.858
 8885SOL    HW227555   5.083   4.525   0.957
 8886SOL     OW27556   3.514   5.889   6.236
 8886SOL    HW127557   3.433   5.867   6.182
 8886SOL    HW227558   3.501   5.854   6.329
 8887SOL     OW27559   3.549   1.006   0.965
 8887SOL    HW127560   3.528   1.104   0.962
 8887SOL    HW227561   3.647   0.993   0.952
 8888SOL     OW27562   2.084   2.483   4.555
 8888SOL    HW127563   2.069   2.576   4.589
 8888SOL    HW227564   2.126   2.427   4.626
 8889SOL     OW27565   0.106   6.274   6.313
 8889SOL    HW127566   0.135   6.180   6.297
 8889SOL    HW227567   0.009   6.283   6.289
 8890SOL     OW27568   0.874   6.094   6.199
 8890SOL    HW127569   0.848   6.163   6.131
 8890SOL    HW227570   0.828   6.114   6.286
 8891SOL     OW27571   4.102   4.185   0.204
 8891SOL    HW127572   4.122   4.122   0.279
 8891SOL    HW227573   4.115   4.279   0.235
 8892SOL     OW27574   3.646   4.944   3.441
 8892SOL    HW127575   3.551   4.938   3.409
 8892SOL    HW227576   3.648   4.946   3.540
 8893SOL     OW27577   1.506   5.061   5.036
 8893SOL    HW127578   1.544   5.145   5.074
 8893SOL    HW227579   1.419   5.081   4.991
 8894SOL     OW27580   3.643   1.907   6.824
 8894SOL    HW127581   3.691   1.993   6.804
 8894SOL    HW227582   3.547   1.927   6.843
 8895SOL     OW27583   0.268   2.330   1.077
 8895SOL    HW127584   0.329   2.257   1.108
 8895SOL    HW227585   0.274   2.408   1.140
 8896SOL     OW27586   1.614   3.404   4.595
 8896SOL    HW127587   1.620   3.453   4.508
 8896SOL    HW227588   1.603   3.306   4.577
 8897SOL     OW27589   2.018   2.819   3.467
 8897SOL    HW127590   1.954   2.755   3.427
 8897SOL    HW227591   1.988   2.913   3.450
 8898SOL     OW27592   5.574   3.438   2.119
 8898SOL    HW127593   5.662   3.399   2.147
 8898SOL    HW227594   5.530   3.378   2.053
 8899SOL     OW27595   1.148   4.615   0.297
 8899SOL    HW127596   1.086   4.538   0.284
 8899SOL    HW227597   1.228   4.584   0.349
 8900SOL     OW27598   5.555   2.963   3.383
 8900SOL    HW127599   5.491   2.936   3.311
 8900SOL    HW227600   5.508   3.016   3.453
 8901SOL     OW27601   0.864   1.243   4.099
 8901SOL    HW127602   0.875   1.328   4.151
 8901SOL    HW227603   0.796   1.257   4.027
 8902SOL     OW27604   1.319   5.844   0.114
 8902SOL    HW127605   1.328   5.893   0.027
 8902SOL    HW227606   1.394   5.779   0.123
 8903SOL     OW27607   0.941   2.147   4.368
 8903SOL    HW127608   0.992   2.081   4.424
 8903SOL    HW227609   0.843   2.133   4.382
 8904SOL     OW27610   0.950   1.585   3.948
 8904SOL    HW127611   0.955   1.501   3.892
 8904SOL    HW227612   0.903   1.656   3.896
 8905SOL     OW27613   2.278   2.891   2.636
 8905SOL    HW127614   2.339   2.966   2.657
 8905SOL    HW227615   2.189   2.908   2.678
 8906SOL     OW27616   1.366   5.958   0.973
 8906SOL    HW127617   1.441   5.990   1.029
 8906SOL    HW227618   1.280   5.997   1.005
 8907SOL     OW27619   3.347   2.846   5.408
 8907SOL    HW127620   3.333   2.852   5.507
 8907SOL    HW227621   3.318   2.756   5.376
 8908SOL     OW27622   1.809   5.597   6.963
 8908SOL    HW127623   1.772   5.556   0.024
 8908SOL    HW227624   1.895   5.644   6.984
 8909SOL     OW27625   2.999   1.001   6.415
 8909SOL    HW127626   2.931   0.993   6.488
 8909SOL    HW227627   2.999   0.917   6.360
 8910SOL     OW27628   0.361   2.784   5.561
 8910SOL    HW127629   0.458   2.762   5.571
 8910SOL    HW227630   0.321   2.726   5.491
 8911SOL     OW27631   5.350   3.546   4.689
 8911SOL    HW127632   5.286   3.571   4.762
 8911SOL    HW227633   5.383   3.628   4.643
 8912SOL     OW27634   2.431   3.422   6.173
 8912SOL    HW127635   2.458   3.498   6.115
 8912SOL    HW227636   2.389   3.457   6.257
 8913SOL     OW27637   4.317   5.191   6.695
 8913SOL    HW127638   4.354   5.120   6.755
 8913SOL    HW227639   4.387   5.219   6.629
 8914SOL     OW27640   5.076   6.770   4.382
 8914SOL    HW127641   5.160   6.743   4.430
 8914SOL    HW227642   5.070   6.870   4.379
 8915SOL     OW27643   1.118   2.176   4.114
 8915SOL    HW127644   1.210   2.148   4.141
 8915SOL    HW227645   1.056   2.165   4.192
 8916SOL     OW27646   6.577   2.628   0.026
 8916SOL    HW127647   6.514   2.625   6.972
 8916SOL    HW227648   6.628   2.542   0.030
 8917SOL     OW27649   5.594   2.631   1.257
 8917SOL    HW127650   5.503   2.671   1.272
 8917SOL    HW227651   5.657   2.667   1.327
 8918SOL     OW27652   1.075   5.250   0.537
 8918SOL    HW127653   1.016   5.233   0.616
 8918SOL    HW227654   1.020   5.245   0.453
 8919SOL     OW27655   5.289   4.625   6.687
 8919SOL    HW127656   5.245   4.546   6.731
 8919SOL    HW227657   5.228   4.704   6.691
 8920SOL     OW27658   0.438   2.364   0.302
 8920SOL    HW127659   0.522   2.348   0.249
 8920SOL    HW227660   0.462   2.381   0.397
 8921SOL     OW27661   1.711   3.193   2.125
 8921SOL    HW127662   1.748   3.243   2.203
 8921SOL    HW227663   1.757   3.104   2.119
 8922SOL     OW27664   4.513   5.786   1.956
 8922SOL    HW127665   4.494   5.879   1.987
 8922SOL    HW227666   4.583   5.745   2.016
 8923SOL     OW27667   1.545   1.045   6.146
 8923SOL    HW127668   1.516   0.965   6.199
 8923SOL    HW227669   1.645   1.048   6.143
 8924SOL     OW27670   4.578   5.253   5.181
 8924SOL    HW127671   4.591   5.292   5.272
 8924SOL    HW227672   4.649   5.186   5.162
 8925SOL     OW27673   6.799   0.402   2.889
 8925SOL    HW127674   6.785   0.403   2.790
 8925SOL    HW227675   6.786   0.494   2.926
 8926SOL     OW27676   6.652   3.281   4.709
 8926SOL    HW127677   6.672   3.280   4.807
 8926SOL    HW227678   6.573   3.223   4.690
 8927SOL     OW27679   5.948   1.638   4.751
 8927SOL    HW127680   5.873   1.573   4.741
 8927SOL    HW227681   5.984   1.634   4.844
 8928SOL     OW27682   1.821   0.147   6.062
 8928SOL    HW127683   1.889   0.153   6.135
 8928SOL    HW227684   1.823   0.231   6.007
 8929SOL     OW27685   6.506   1.816   5.407
 8929SOL    HW127686   6.414   1.849   5.431
 8929SOL    HW227687   6.498   1.742   5.340
 8930SOL     OW27688   0.778   2.520   2.832
 8930SOL    HW127689   0.725   2.506   2.915
 8930SOL    HW227690   0.873   2.541   2.856
 8931SOL     OW27691   3.159   3.636   1.530
 8931SOL    HW127692   3.200   3.545   1.534
 8931SOL    HW227693   3.092   3.640   1.456
 8932SOL     OW27694   6.672   1.875   2.594
 8932SOL    HW127695   6.708   1.901   2.505
 8932SOL    HW227696   6.618   1.791   2.584
 8933SOL     OW27697   2.934   2.447   6.343
 8933SOL    HW127698   2.843   2.485   6.326
 8933SOL    HW227699   2.942   2.358   6.297
 8934SOL     OW27700   3.710   4.756   5.317
 8934SOL    HW127701   3.689   4.838   5.264
 8934SOL    HW227702   3.629   4.699   5.325
 8935SOL     OW27703   0.219   3.944   0.516
 8935SOL    HW127704   0.282   3.868   0.532
 8935SOL    HW227705   0.196   3.988   0.603
 8936SOL     OW27706   1.531   4.334   1.420
 8936SOL    HW127707   1.446   4.284   1.433
 8936SOL    HW227708   1.562   4.370   1.509
 8937SOL     OW27709   0.364   0.514   5.282
 8937SOL    HW127710   0.278   0.561   5.303
 8937SOL    HW227711   0.430   0.580   5.247
 8938SOL     OW27712   0.233   5.598   0.778
 8938SOL    HW127713   0.164   5.608   0.850
 8938SOL    HW227714   0.324   5.599   0.818
 8939SOL     OW27715   4.856   2.675   4.072
 8939SOL    HW127716   4.824   2.705   3.983
 8939SOL    HW227717   4.780   2.672   4.137
 8940SOL     OW27718   0.116   1.186   3.253
 8940SOL    HW127719   0.205   1.232   3.254
 8940SOL    HW227720   0.056   1.231   3.187
 8941SOL     OW27721   6.273   2.731   5.221
 8941SOL    HW127722   6.280   2.729   5.121
 8941SOL    HW227723   6.207   2.801   5.248
 8942SOL     OW27724   0.413   4.819   5.177
 8942SOL    HW127725   0.402   4.832   5.276
 8942SOL    HW227726   0.324   4.800   5.136
 8943SOL     OW27727   3.865   4.367   6.709
 8943SOL    HW127728   3.789   4.427   6.685
 8943SOL    HW227729   3.835   4.272   6.706
 8944SOL     OW27730   5.347   4.790   5.021
 8944SOL    HW127731   5.265   4.847   5.030
 8944SOL    HW227732   5.324   4.695   5.041
 8945SOL     OW27733   1.356   0.874   3.582
 8945SOL    HW127734   1.402   0.801   3.633
 8945SOL    HW227735   1.272   0.838   3.541
 8946SOL     OW27736   2.942   1.202   5.049
 8946SOL    HW127737   3.021   1.141   5.059
 8946SOL    HW227738   2.948   1.275   5.118
 8947SOL     OW27739   1.676   3.528   4.937
 8947SOL    HW127740   1.740   3.602   4.918
 8947SOL    HW227741   1.691   3.494   5.030
 8948SOL     OW27742   6.501   6.272   4.339
 8948SOL    HW127743   6.411   6.244   4.306
 8948SOL    HW227744   6.572   6.223   4.288
 8949SOL     OW27745   2.330   0.166   0.768
 8949SOL    HW127746   2.420   0.162   0.722
 8949SOL    HW227747   2.317   0.082   0.821
 8950SOL     OW27748   4.905   3.473   5.946
 8950SOL    HW127749   4.913   3.393   6.006
 8950SOL    HW227750   4.813   3.511   5.953
 8951SOL     OW27751   0.507   1.990   4.841
 8951SOL    HW127752   0.504   1.892   4.822
 8951SOL    HW227753   0.414   2.028   4.834
 8952SOL     OW27754   1.576   6.873   2.363
 8952SOL    HW127755   1.579   6.776   2.342
 8952SOL    HW227756   1.516   6.889   2.441
 8953SOL     OW27757   1.195   3.967   6.492
 8953SOL    HW127758   1.189   4.054   6.541
 8953SOL    HW227759   1.149   3.975   6.404
 8954SOL     OW27760   1.409   6.781   5.990
 8954SOL    HW127761   1.490   6.822   6.031
 8954SOL    HW227762   1.391   6.693   6.032
 8955SOL     OW27763   0.818   4.645   2.299
 8955SOL    HW127764   0.873   4.563   2.311
 8955SOL    HW227765   0.776   4.644   2.208
 8956SOL     OW27766   0.518   1.795   6.903
 8956SOL    HW127767   0.501   1.706   6.945
 8956SOL    HW227768   0.581   1.784   6.826
 8957SOL     OW27769   3.123   4.385   1.671
 8957SOL    HW127770   3.072   4.412   1.753
 8957SOL    HW227771   3.099   4.291   1.647
 8958SOL     OW27772   1.005   0.222   4.327
 8958SOL    HW127773   0.936   0.174   4.381
 8958SOL    HW227774   0.964   0.304   4.287
 8959SOL     OW27775   1.466   4.538   1.713
 8959SOL    HW127776   1.488   4.616   1.771
 8959SOL    HW227777   1.378   4.553   1.669
 8960SOL     OW27778   4.628   5.611   2.944
 8960SOL    HW127779   4.607   5.535   2.883
 8960SOL    HW227780   4.550   5.674   2.948
 8961SOL     OW27781   2.489   2.195   4.441
 8961SOL    HW127782   2.551   2.254   4.493
 8961SOL    HW227783   2.395   2.223   4.458
 8962SOL     OW27784   6.552   6.368   2.644
 8962SOL    HW127785   6.608   6.422   2.582
 8962SOL    HW227786   6.573   6.271   2.632
 8963SOL     OW27787   5.202   6.508   3.940
 8963SOL    HW127788   5.168   6.419   3.970
 8963SOL    HW227789   5.240   6.500   3.848
 8964SOL     OW27790   5.376   3.798   3.165
 8964SOL    HW127791   5.402   3.854   3.243
 8964SOL    HW227792   5.298   3.740   3.189
 8965SOL     OW27793   2.292   4.715   0.537
 8965SOL    HW127794   2.367   4.738   0.599
 8965SOL    HW227795   2.280   4.616   0.534
 8966SOL     OW27796   0.604   4.147   5.704
 8966SOL    HW127797   0.634   4.207   5.630
 8966SOL    HW227798   0.535   4.084   5.670
 8967SOL     OW27799   3.809   6.141   2.123
 8967SOL    HW127800   3.781   6.179   2.211
 8967SOL    HW227801   3.908   6.126   2.124
 8968SOL     OW27802   5.200   4.791   2.827
 8968SOL    HW127803   5.249   4.810   2.742
 8968SOL    HW227804   5.257   4.818   2.905
 8969SOL     OW27805   6.756   0.368   4.120
 8969SOL    HW127806   6.815   0.419   4.058
 8969SOL    HW227807   6.661   0.379   4.093
 8970SOL     OW27808   2.789   3.044   0.310
 8970SOL    HW127809   2.769   3.139   0.330
 8970SOL    HW227810   2.878   3.019   0.350
 8971SOL     OW27811   5.017   5.290   1.722
 8971SOL    HW127812   4.951   5.363   1.705
 8971SOL    HW227813   4.969   5.205   1.743
 8972SOL     OW27814   5.070   4.769   6.445
 8972SOL    HW127815   5.134   4.701   6.411
 8972SOL    HW227816   5.076   4.775   6.544
 8973SOL     OW27817   0.992   3.245   2.011
 8973SOL    HW127818   0.908   3.213   1.968
 8973SOL    HW227819   1.027   3.175   2.073
 8974SOL     OW27820   1.748   4.593   5.610
 8974SOL    HW127821   1.761   4.544   5.696
 8974SOL    HW227822   1.654   4.626   5.605
 8975SOL     OW27823   2.355   0.148   6.874
 8975SOL    HW127824   2.332   0.244   6.890
 8975SOL    HW227825   2.331   0.094   6.955
 8976SOL     OW27826   0.190   4.820   4.790
 8976SOL    HW127827   0.135   4.904   4.789
 8976SOL    HW227828   0.218   4.799   4.883
 8977SOL     OW27829   5.511   1.432   7.018
 8977SOL    HW127830   5.452   1.459   0.071
 8977SOL    HW227831   5.469   1.355   6.970
 8978SOL     OW27832   5.391   0.107   5.917
 8978SOL    HW127833   5.472   0.166   5.911
 8978SOL    HW227834   5.388   0.064   6.007
 8979SOL     OW27835   1.386   3.082   4.764
 8979SOL    HW127836   1.358   2.996   4.721
 8979SOL    HW227837   1.349   3.086   4.857
 8980SOL     OW27838   2.313   3.019   5.369
 8980SOL    HW127839   2.233   2.959   5.373
 8980SOL    HW227840   2.363   3.003   5.283
 8981SOL     OW27841   4.393   1.682   5.335
 8981SOL    HW127842   4.331   1.740   5.389
 8981SOL    HW227843   4.436   1.615   5.394
 8982SOL     OW27844   1.928   1.673   0.552
 8982SOL    HW127845   1.872   1.673   0.634
 8982SOL    HW227846   2.019   1.636   0.573
 8983SOL     OW27847   1.671   5.927   6.569
 8983SOL    HW127848   1.656   5.974   6.655
 8983SOL    HW227849   1.661   5.829   6.582
 8984SOL     OW27850   0.558   6.872   4.249
 8984SOL    HW127851   0.578   6.806   4.176
 8984SOL    HW227852   0.575   6.965   4.216
 8985SOL     OW27853   2.682   3.378   0.588
 8985SOL    HW127854   2.657   3.360   0.493
 8985SOL    HW227855   2.610   3.343   0.648
 8986SOL     OW27856   4.337   5.495   2.437
 8986SOL    HW127857   4.384   5.558   2.499
 8986SOL    HW227858   4.306   5.544   2.355
 8987SOL     OW27859   4.420   6.907   1.829
 8987SOL    HW127860   4.453   6.888   1.737
 8987SOL    HW227861   4.498   6.919   1.891
 8988SOL     OW27862   1.163   4.415   4.995
 8988SOL    HW127863   1.163   4.318   5.022
 8988SOL    HW227864   1.071   4.441   4.967
 8989SOL     OW27865   4.988   3.304   0.390
 8989SOL    HW127866   5.022   3.271   0.302
 8989SOL    HW227867   5.065   3.333   0.447
 8990SOL     OW27868   1.492   5.418   4.897
 8990SOL    HW127869   1.551   5.380   4.968
 8990SOL    HW227870   1.484   5.517   4.910
 8991SOL     OW27871   1.251   2.444   5.636
 8991SOL    HW127872   1.307   2.426   5.555
 8991SOL    HW227873   1.169   2.496   5.610
 8992SOL     OW27874   4.989   0.975   0.118
 8992SOL    HW127875   5.086   0.957   0.139
 8992SOL    HW227876   4.952   0.898   0.066
 8993SOL     OW27877   5.101   2.530   1.659
 8993SOL    HW127878   5.122   2.437   1.627
 8993SOL    HW227879   5.172   2.592   1.626
 8994SOL     OW27880   0.894   3.647   4.662
 8994SOL    HW127881   0.928   3.656   4.756
 8994SOL    HW227882   0.887   3.738   4.621
 8995SOL     OW27883   1.707   2.830   0.271
 8995SOL    HW127884   1.708   2.866   0.178
 8995SOL    HW227885   1.759   2.891   0.331
 8996SOL     OW27886   5.029   4.677   0.125
 8996SOL    HW127887   4.939   4.714   0.104
 8996SOL    HW227888   5.031   4.644   0.219
 8997SOL     OW27889   5.355   1.702   5.996
 8997SOL    HW127890   5.388   1.682   5.904
 8997SOL    HW227891   5.419   1.665   6.063
 8998SOL     OW27892   6.017   3.461   3.455
 8998SOL    HW127893   6.107   3.430   3.423
 8998SOL    HW227894   6.029   3.532   3.524
 8999SOL     OW27895   4.613   6.641   6.283
 8999SOL    HW127896   4.707   6.642   6.247
 8999SOL    HW227897   4.548   6.635   6.207
 9000SOL     OW27898   1.636   3.563   1.753
 9000SOL    HW127899   1.704   3.572   1.826
 9000SOL    HW227900   1.581   3.481   1.769
 9001SOL     OW27901   1.200   5.350   2.293
 9001SOL    HW127902   1.201   5.292   2.374
 9001SOL    HW227903   1.287   5.341   2.244
 9002SOL     OW27904   1.422   5.204   5.374
 9002SOL    HW127905   1.390   5.109   5.379
 9002SOL    HW227906   1.412   5.247   5.463
 9003SOL     OW27907   5.748   3.282   1.521
 9003SOL    HW127908   5.819   3.351   1.512
 9003SOL    HW227909   5.730   3.265   1.618
 9004SOL     OW27910   4.128   5.980   1.011
 9004SOL    HW127911   4.061   6.051   1.036
 9004SOL    HW227912   4.200   5.976   1.080
 9005SOL     OW27913   6.125   2.486   4.612
 9005SOL    HW127914   6.222   2.500   4.631
 9005SOL    HW227915   6.075   2.570   4.632
 9006SOL     OW27916   2.264   5.318   1.151
 9006SOL    HW127917   2.337   5.305   1.083
 9006SOL    HW227918   2.301   5.368   1.229
 9007SOL     OW27919   3.656   0.996   3.439
 9007SOL    HW127920   3.665   0.900   3.411
 9007SOL    HW227921   3.706   1.010   3.524
 9008SOL     OW27922   1.511   5.615   3.646
 9008SOL    HW127923   1.557   5.543   3.595
 9008SOL    HW227924   1.412   5.604   3.638
 9009SOL     OW27925   2.903   6.445   0.614
 9009SOL    HW127926   2.879   6.494   0.698
 9009SOL    HW227927   2.889   6.347   0.627
 9010SOL     OW27928   1.168   6.470   3.964
 9010SOL    HW127929   1.169   6.404   3.889
 9010SOL    HW227930   1.253   6.464   4.015
 9011SOL     OW27931   4.817   1.582   1.622
 9011SOL    HW127932   4.763   1.546   1.698
 9011SOL    HW227933   4.908   1.606   1.655
 9012SOL     OW27934   1.766   4.596   0.339
 9012SOL    HW127935   1.775   4.694   0.353
 9012SOL    HW227936   1.855   4.556   0.317
 9013SOL     OW27937   0.303   6.727   5.536
 9013SOL    HW127938   0.243   6.694   5.463
 9013SOL    HW227939   0.390   6.757   5.497
 9014SOL     OW27940   6.797   2.472   0.734
 9014SOL    HW127941   6.887   2.482   0.777
 9014SOL    HW227942   6.726   2.469   0.805
 9015SOL     OW27943   4.541   2.120   1.569
 9015SOL    HW127944   4.561   2.022   1.563
 9015SOL    HW227945   4.452   2.132   1.614
 9016SOL     OW27946   0.234   6.718   6.284
 9016SOL    HW127947   0.197   6.760   6.201
 9016SOL    HW227948   0.311   6.772   6.317
 9017SOL     OW27949   4.572   1.761   3.833
 9017SOL    HW127950   4.582   1.700   3.755
 9017SOL    HW227951   4.661   1.777   3.875
 9018SOL     OW27952   3.355   2.790   6.528
 9018SOL    HW127953   3.337   2.776   6.430
 9018SOL    HW227954   3.326   2.883   6.554
 9019SOL     OW27955   1.541   5.266   2.378
 9019SOL    HW127956   1.539   5.340   2.444
 9019SOL    HW227957   1.520   5.301   2.287
 9020SOL     OW27958   7.003   4.251   0.915
 9020SOL    HW127959   6.996   4.312   0.993
 9020SOL    HW227960   6.947   4.169   0.930
 9021SOL     OW27961   6.906   0.006   3.803
 9021SOL    HW127962   6.815   6.991   3.788
 9021SOL    HW227963   6.975   6.962   3.774
 9022SOL     OW27964   3.110   1.431   6.621
 9022SOL    HW127965   3.177   1.493   6.580
 9022SOL    HW227966   3.142   1.402   6.711
 9023SOL     OW27967   3.715   2.854   2.498
 9023SOL    HW127968   3.617   2.850   2.478
 9023SOL    HW227969   3.766   2.806   2.427
 9024SOL     OW27970   0.848   4.031   5.088
 9024SOL    HW127971   0.768   4.049   5.145
 9024SOL    HW227972   0.930   4.065   5.134
 9025SOL     OW27973   0.896   5.465   0.940
 9025SOL    HW127974   0.855   5.518   0.866
 9025SOL    HW227975   0.833   5.459   1.017
 9026SOL     OW27976   3.709   2.673   0.739
 9026SOL    HW127977   3.696   2.763   0.782
 9026SOL    HW227978   3.778   2.621   0.790
 9027SOL     OW27979   1.364   2.855   3.185
 9027SOL    HW127980   1.437   2.916   3.152
 9027SOL    HW227981   1.404   2.770   3.218
 9028SOL     OW27982   3.014   3.156   5.194
 9028SOL    HW127983   3.011   3.175   5.096
 9028SOL    HW227984   3.109   3.138   5.221
 9029SOL     OW27985   3.851   6.747   4.737
 9029SOL    HW127986   3.791   6.826   4.726
 9029SOL    HW227987   3.858   6.724   4.834
 9030SOL     OW27988   2.753   1.898   3.214
 9030SOL    HW127989   2.780   1.803   3.231
 9030SOL    HW227990   2.772   1.920   3.118
 9031SOL     OW27991   4.094   5.848   4.543
 9031SOL    HW127992   4.005   5.860   4.498
 9031SOL    HW227993   4.163   5.827   4.473
 9032SOL     OW27994   3.541   3.587   0.757
 9032SOL    HW127995   3.568   3.682   0.774
 9032SOL    HW227996   3.618   3.537   0.718
 9033SOL     OW27997   6.961   4.254   2.995
 9033SOL    HW127998   6.959   4.328   3.063
 9033SOL    HW227999   0.016   4.194   3.013
 9034SOL     OW28000   3.199   6.107   4.501
 9034SOL    HW128001   3.160   6.195   4.472
 9034SOL    HW228002   3.279   6.124   4.559
 9035SOL     OW28003   2.591   4.241   0.183
 9035SOL    HW128004   2.615   4.217   0.089
 9035SOL    HW228005   2.589   4.341   0.192
 9036SOL     OW28006   2.379   2.733   5.424
 9036SOL    HW128007   2.379   2.719   5.325
 9036SOL    HW228008   2.368   2.831   5.443
 9037SOL     OW28009   0.952   3.776   4.914
 9037SOL    HW128010   0.964   3.825   4.828
 9037SOL    HW228011   1.035   3.786   4.969
 9038SOL     OW28012   4.089   0.732   6.427
 9038SOL    HW128013   4.000   0.777   6.416
 9038SOL    HW228014   4.125   0.708   6.337
 9039SOL     OW28015   2.207   5.644   5.866
 9039SOL    HW128016   2.275   5.639   5.939
 9039SOL    HW228017   2.216   5.732   5.818
 9040SOL     OW28018   2.998   2.151   2.547
 9040SOL    HW128019   2.959   2.221   2.488
 9040SOL    HW228020   3.094   2.136   2.521
 9041SOL     OW28021   1.243   1.752   1.795
 9041SOL    HW128022   1.335   1.734   1.831
 9041SOL    HW228023   1.248   1.758   1.695
 9042SOL     OW28024   3.799   6.451   4.722
 9042SOL    HW128025   3.816   6.549   4.728
 9042SOL    HW228026   3.884   6.401   4.741
 9043SOL     OW28027   1.530   0.467   6.815
 9043SOL    HW128028   1.504   0.414   6.896
 9043SOL    HW228029   1.629   0.460   6.801
 9044SOL     OW28030   6.536   0.043   0.667
 9044SOL    HW128031   6.470   0.003   0.604
 9044SOL    HW228032   6.493   0.059   0.756
 9045SOL     OW28033   3.057   1.656   2.764
 9045SOL    HW128034   3.148   1.656   2.722
 9045SOL    HW228035   2.991   1.619   2.699
 9046SOL     OW28036   3.393   4.010   2.795
 9046SOL    HW128037   3.390   3.989   2.698
 9046SOL    HW228038   3.425   3.930   2.845
 9047SOL     OW28039   2.005   3.597   5.348
 9047SOL    HW128040   1.991   3.695   5.333
 9047SOL    HW228041   2.029   3.553   5.262
 9048SOL     OW28042   5.813   3.157   5.766
 9048SOL    HW128043   5.869   3.080   5.737
 9048SOL    HW228044   5.732   3.123   5.815
 9049SOL     OW28045   3.558   6.984   6.022
 9049SOL    HW128046   3.643   6.942   5.991
 9049SOL    HW228047   3.523   0.021   5.951
 9050SOL     OW28048   1.111   3.511   0.686
 9050SOL    HW128049   1.054   3.550   0.758
 9050SOL    HW228050   1.085   3.416   0.671
 9051SOL     OW28051   3.588   6.908   1.114
 9051SOL    HW128052   3.609   6.812   1.134
 9051SOL    HW228053   3.615   6.964   1.192
 9052SOL     OW28054   2.421   2.298   3.434
 9052SOL    HW128055   2.484   2.233   3.478
 9052SOL    HW228056   2.356   2.247   3.377
 9053SOL     OW28057   1.783   1.433   2.703
 9053SOL    HW128058   1.803   1.454   2.607
 9053SOL    HW228059   1.814   1.340   2.724
 9054SOL     OW28060   2.835   5.800   3.897
 9054SOL    HW128061   2.749   5.849   3.886
 9054SOL    HW228062   2.909   5.852   3.856
 9055SOL     OW28063   5.959   3.011   4.608
 9055SOL    HW128064   5.860   3.025   4.614
 9055SOL    HW228065   6.005   3.057   4.684
 9056SOL     OW28066   1.027   2.639   1.844
 9056SOL    HW128067   0.960   2.568   1.866
 9056SOL    HW228068   0.987   2.705   1.781
 9057SOL     OW28069   5.110   3.249   5.848
 9057SOL    HW128070   5.056   3.267   5.766
 9057SOL    HW228071   5.200   3.292   5.839
 9058SOL     OW28072   1.809   0.851   1.692
 9058SOL    HW128073   1.882   0.784   1.705
 9058SOL    HW228074   1.785   0.856   1.595
 9059SOL     OW28075   1.806   1.614   3.380
 9059SOL    HW128076   1.827   1.608   3.283
 9059SOL    HW228077   1.707   1.618   3.393
 9060SOL     OW28078   6.323   2.985   4.409
 9060SOL    HW128079   6.395   2.972   4.340
 9060SOL    HW228080   6.300   2.898   4.451
 9061SOL     OW28081   2.211   5.550   2.024
 9061SOL    HW128082   2.301   5.587   2.003
 9061SOL    HW228083   2.213   5.505   2.114
 9062SOL     OW28084   1.283   6.581   2.204
 9062SOL    HW128085   1.259   6.488   2.233
 9062SOL    HW228086   1.372   6.606   2.243
 9063SOL     OW28087   3.324   0.647   3.806
 9063SOL    HW128088   3.390   0.648   3.881
 9063SOL    HW228089   3.231   0.655   3.842
 9064SOL     OW28090   6.142   2.253   5.937
 9064SOL    HW128091   6.208   2.249   5.862
 9064SOL    HW228092   6.088   2.337   5.930
 9065SOL     OW28093   3.871   1.118   6.881
 9065SOL    HW128094   3.945   1.106   6.946
 9065SOL    HW228095   3.787   1.079   6.918
 9066SOL     OW28096   5.393   6.645   0.463
 9066SOL    HW128097   5.476   6.593   0.442
 9066SOL    HW228098   5.388   6.662   0.561
 9067SOL     OW28099   0.938   0.427   4.149
 9067SOL    HW128100   0.905   0.510   4.104
 9067SOL    HW228101   1.038   0.426   4.149
 9068SOL     OW28102   1.557   6.302   4.088
 9068SOL    HW128103   1.635   6.244   4.067
 9068SOL    HW228104   1.473   6.257   4.058
 9069SOL     OW28105   1.463   3.096   1.733
 9069SOL    HW128106   1.447   3.010   1.780
 9069SOL    HW228107   1.553   3.094   1.690
 9070SOL     OW28108   1.473   3.303   5.236
 9070SOL    HW128109   1.393   3.340   5.188
 9070SOL    HW228110   1.494   3.362   5.315
 9071SOL     OW28111   6.617   0.090   1.919
 9071SOL    HW128112   6.713   0.119   1.922
 9071SOL    HW228113   6.609   0.004   1.870
 9072SOL     OW28114   0.480   2.196   1.159
 9072SOL    HW128115   0.539   2.127   1.200
 9072SOL    HW228116   0.530   2.242   1.085
 9073SOL     OW28117   2.690   6.585   2.488
 9073SOL    HW128118   2.737   6.498   2.478
 9073SOL    HW228119   2.605   6.572   2.540
 9074SOL     OW28120   1.055   0.598   2.465
 9074SOL    HW128121   1.145   0.598   2.510
 9074SOL    HW228122   1.067   0.579   2.368
 9075SOL     OW28123   6.941   0.935   2.045
 9075SOL    HW128124   0.009   0.976   2.057
 9075SOL    HW228125   6.947   0.861   1.978
 9076SOL     OW28126   0.088   1.854   6.122
 9076SOL    HW128127   0.010   1.916   6.119
 9076SOL    HW228128   0.090   1.798   6.039
 9077SOL     OW28129   4.818   0.405   0.998
 9077SOL    HW128130   4.828   0.334   1.068
 9077SOL    HW228131   4.738   0.385   0.942
 9078SOL     OW28132   3.485   3.540   5.096
 9078SOL    HW128133   3.511   3.604   5.023
 9078SOL    HW228134   3.388   3.518   5.088
 9079SOL     OW28135   2.522   0.840   4.643
 9079SOL    HW128136   2.553   0.807   4.554
 9079SOL    HW228137   2.487   0.762   4.696
 9080SOL     OW28138   4.882   2.408   6.573
 9080SOL    HW128139   4.908   2.341   6.503
 9080SOL    HW228140   4.786   2.433   6.561
 9081SOL     OW28141   4.340   6.829   2.286
 9081SOL    HW128142   4.370   6.847   2.380
 9081SOL    HW228143   4.347   6.914   2.233
 9082SOL     OW28144   2.407   0.464   5.420
 9082SOL    HW128145   2.407   0.468   5.320
 9082SOL    HW228146   2.360   0.381   5.450
 9083SOL     OW28147   3.601   5.125   6.303
 9083SOL    HW128148   3.638   5.205   6.351
 9083SOL    HW228149   3.529   5.155   6.240
 9084SOL     OW28150   3.197   3.640   2.950
 9084SOL    HW128151   3.269   3.604   2.891
 9084SOL    HW228152   3.110   3.639   2.901
 9085SOL     OW28153   2.304   0.495   1.112
 9085SOL    HW128154   2.369   0.564   1.082
 9085SOL    HW228155   2.278   0.437   1.035
 9086SOL     OW28156   0.631   4.527   0.323
 9086SOL    HW128157   0.694   4.590   0.277
 9086SOL    HW228158   0.537   4.552   0.302
 9087SOL     OW28159   4.641   2.478   1.311
 9087SOL    HW128160   4.617   2.531   1.229
 9087SOL    HW228161   4.733   2.505   1.341
 9088SOL     OW28162   6.624   6.918   1.206
 9088SOL    HW128163   6.531   6.901   1.174
 9088SOL    HW228164   6.644   6.860   1.285
 9089SOL     OW28165   5.196   6.306   5.769
 9089SOL    HW128166   5.224   6.398   5.742
 9089SOL    HW228167   5.224   6.241   5.697
 9090SOL     OW28168   6.025   1.265   5.304
 9090SOL    HW128169   6.011   1.166   5.304
 9090SOL    HW228170   5.938   1.311   5.289
 9091SOL     OW28171   2.911   4.013   0.046
 9091SOL    HW128172   2.813   3.996   0.058
 9091SOL    HW228173   2.947   4.058   0.128
 9092SOL     OW28174   6.486   1.050   6.764
 9092SOL    HW128175   6.429   1.079   6.841
 9092SOL    HW228176   6.428   1.016   6.690
 9093SOL     OW28177   1.494   6.379   5.053
 9093SOL    HW128178   1.420   6.437   5.019
 9093SOL    HW228179   1.497   6.294   5.001
 9094SOL     OW28180   6.277   4.453   3.012
 9094SOL    HW128181   6.196   4.437   2.956
 9094SOL    HW228182   6.282   4.550   3.036
 9095SOL     OW28183   4.534   4.537   6.363
 9095SOL    HW128184   4.488   4.619   6.397
 9095SOL    HW228185   4.465   4.474   6.326
 9096SOL     OW28186   6.484   5.518   3.018
 9096SOL    HW128187   6.389   5.548   3.020
 9096SOL    HW228188   6.534   5.559   3.094
 9097SOL     OW28189   2.157   2.274   0.493
 9097SOL    HW128190   2.150   2.286   0.592
 9097SOL    HW228191   2.107   2.191   0.467
 9098SOL     OW28192   2.795   1.866   4.932
 9098SOL    HW128193   2.893   1.875   4.916
 9098SOL    HW228194   2.747   1.859   4.845
 9099SOL     OW28195   2.600   3.267   6.298
 9099SOL    HW128196   2.625   3.316   6.382
 9099SOL    HW228197   2.549   3.329   6.238
 9100SOL     OW28198   0.801   3.480   2.971
 9100SOL    HW128199   0.876   3.460   2.908
 9100SOL    HW228200   0.837   3.494   3.063
 9101SOL     OW28201   2.868   1.626   2.264
 9101SOL    HW128202   2.818   1.708   2.293
 9101SOL    HW228203   2.839   1.601   2.172
 9102SOL     OW28204   3.208   6.732   2.209
 9102SOL    HW128205   3.199   6.723   2.110
 9102SOL    HW228206   3.298   6.700   2.238
 9103SOL     OW28207   5.570   1.438   0.534
 9103SOL    HW128208   5.576   1.340   0.552
 9103SOL    HW228209   5.492   1.476   0.584
 9104SOL     OW28210   7.022   6.725   1.523
 9104SOL    HW128211   6.959   6.743   1.599
 9104SOL    HW228212   0.082   6.682   1.558
 9105SOL     OW28213   1.482   0.178   5.225
 9105SOL    HW128214   1.401   0.213   5.270
 9105SOL    HW228215   1.507   0.239   5.149
 9106SOL     OW28216   0.143   2.825   0.789
 9106SOL    HW128217   0.053   2.834   0.747
 9106SOL    HW228218   0.180   2.917   0.807
 9107SOL     OW28219   2.019   0.822   6.929
 9107SOL    HW128220   2.074   0.891   6.975
 9107SOL    HW228221   1.922   0.840   6.945
 9108SOL     OW28222   4.583   4.154   5.555
 9108SOL    HW128223   4.526   4.175   5.475
 9108SOL    HW228224   4.533   4.179   5.638
 9109SOL     OW28225   5.044   3.086   3.363
 9109SOL    HW128226   5.039   3.116   3.268
 9109SOL    HW228227   5.105   3.147   3.414
 9110SOL     OW28228   1.391   5.391   3.968
 9110SOL    HW128229   1.368   5.300   4.004
 9110SOL    HW228230   1.491   5.400   3.963
 9111SOL     OW28231   4.522   2.890   6.877
 9111SOL    HW128232   4.618   2.906   6.899
 9111SOL    HW228233   4.517   2.829   6.797
 9112SOL     OW28234   1.358   5.173   2.772
 9112SOL    HW128235   1.409   5.142   2.692
 9112SOL    HW228236   1.301   5.098   2.807
 9113SOL     OW28237   4.903   2.648   3.650
 9113SOL    HW128238   4.931   2.556   3.623
 9113SOL    HW228239   4.977   2.712   3.630
 9114SOL     OW28240   0.941   5.538   4.107
 9114SOL    HW128241   0.978   5.553   4.199
 9114SOL    HW228242   0.842   5.531   4.112
 9115SOL     OW28243   6.281   5.326   4.572
 9115SOL    HW128244   6.200   5.342   4.629
 9115SOL    HW228245   6.334   5.410   4.565
 9116SOL     OW28246   6.518   0.308   3.200
 9116SOL    HW128247   6.582   0.266   3.135
 9116SOL    HW228248   6.563   0.317   3.289
 9117SOL     OW28249   4.600   2.157   6.535
 9117SOL    HW128250   4.569   2.248   6.505
 9117SOL    HW228251   4.635   2.106   6.456
 9118SOL     OW28252   6.369   3.405   0.072
 9118SOL    HW128253   6.329   3.319   0.104
 9118SOL    HW228254   6.296   3.467   0.043
 9119SOL     OW28255   4.149   0.600   1.636
 9119SOL    HW128256   4.154   0.698   1.618
 9119SOL    HW228257   4.081   0.559   1.575
 9120SOL     OW28258   6.539   2.716   5.716
 9120SOL    HW128259   6.627   2.674   5.738
 9120SOL    HW228260   6.529   2.723   5.617
 9121SOL     OW28261   4.158   6.618   5.416
 9121SOL    HW128262   4.173   6.530   5.371
 9121SOL    HW228263   4.210   6.622   5.501
 9122SOL     OW28264   2.254   4.086   2.040
 9122SOL    HW128265   2.174   4.076   2.100
 9122SOL    HW228266   2.268   4.182   2.019
 9123SOL     OW28267   1.462   0.240   3.887
 9123SOL    HW128268   1.453   0.145   3.915
 9123SOL    HW228269   1.373   0.285   3.888
 9124SOL     OW28270   3.985   5.665   1.763
 9124SOL    HW128271   3.950   5.571   1.752
 9124SOL    HW228272   4.081   5.661   1.789
 9125SOL     OW28273   3.623   4.371   0.972
 9125SOL    HW128274   3.611   4.338   0.879
 9125SOL    HW228275   3.550   4.334   1.030
 9126SOL     OW28276   4.838   3.821   0.853
 9126SOL    HW128277   4.793   3.864   0.931
 9126SOL    HW228278   4.846   3.722   0.869
 9127SOL     OW28279   6.532   2.819   4.761
 9127SOL    HW128280   6.474   2.771   4.696
 9127SOL    HW228281   6.606   2.759   4.792
 9128SOL     OW28282   6.393   2.411   4.730
 9128SOL    HW128283   6.344   2.332   4.765
 9128SOL    HW228284   6.471   2.380   4.676
 9129SOL     OW28285   1.236   2.499   1.037
 9129SOL    HW128286   1.259   2.403   1.019
 9129SOL    HW228287   1.159   2.526   0.979
 9130SOL     OW28288   0.623   4.316   5.911
 9130SOL    HW128289   0.610   4.242   5.845
 9130SOL    HW228290   0.675   4.283   5.990
 9131SOL     OW28291   5.609   2.891   7.009
 9131SOL    HW128292   5.580   2.808   6.961
 9131SOL    HW228293   5.582   2.885   0.082
 9132SOL     OW28294   0.632   4.969   4.157
 9132SOL    HW128295   0.566   4.951   4.084
 9132SOL    HW228296   0.724   4.966   4.120
 9133SOL     OW28297   2.955   1.096   1.244
 9133SOL    HW128298   3.026   1.166   1.240
 9133SOL    HW228299   2.870   1.137   1.279
 9134SOL     OW28300   4.290   5.383   0.777
 9134SOL    HW128301   4.382   5.361   0.743
 9134SOL    HW228302   4.247   5.449   0.716
 9135SOL     OW28303   1.454   6.621   1.337
 9135SOL    HW128304   1.377   6.628   1.401
 9135SOL    HW228305   1.530   6.676   1.370
 9136SOL     OW28306   4.635   5.665   5.522
 9136SOL    HW128307   4.595   5.755   5.542
 9136SOL    HW228308   4.724   5.657   5.565
 9137SOL     OW28309   4.589   6.498   5.614
 9137SOL    HW128310   4.533   6.567   5.568
 9137SOL    HW228311   4.599   6.523   5.711
 9138SOL     OW28312   2.025   3.189   0.691
 9138SOL    HW128313   1.982   3.254   0.628
 9138SOL    HW228314   2.055   3.109   0.639
 9139SOL     OW28315   0.935   1.191   1.535
 9139SOL    HW128316   0.890   1.133   1.467
 9139SOL    HW228317   0.902   1.285   1.526
 9140SOL     OW28318   0.459   4.729   1.877
 9140SOL    HW128319   0.361   4.732   1.856
 9140SOL    HW228320   0.500   4.652   1.830
 9141SOL     OW28321   6.915   5.818   6.829
 9141SOL    HW128322   6.868   5.860   6.751
 9141SOL    HW228323   7.014   5.822   6.815
 9142SOL     OW28324   0.352   2.690   2.691
 9142SOL    HW128325   0.321   2.737   2.774
 9142SOL    HW228326   0.333   2.748   2.611
 9143SOL     OW28327   0.110   3.592   1.321
 9143SOL    HW128328   0.158   3.661   1.374
 9143SOL    HW228329   0.173   3.552   1.254
 9144SOL     OW28330   2.934   4.849   4.788
 9144SOL    HW128331   2.889   4.782   4.848
 9144SOL    HW228332   2.889   4.850   4.699
 9145SOL     OW28333   1.505   0.279   6.542
 9145SOL    HW128334   1.517   0.304   6.638
 9145SOL    HW228335   1.584   0.226   6.511
 9146SOL     OW28336   6.074   2.699   3.702
 9146SOL    HW128337   6.158   2.654   3.734
 9146SOL    HW228338   6.044   2.765   3.771
 9147SOL     OW28339   6.022   0.343   5.249
 9147SOL    HW128340   5.973   0.406   5.309
 9147SOL    HW228341   6.044   0.388   5.163
 9148SOL     OW28342   6.050   0.295   1.916
 9148SOL    HW128343   6.061   0.394   1.925
 9148SOL    HW228344   6.086   0.266   1.828
 9149SOL     OW28345   5.770   2.829   2.034
 9149SOL    HW128346   5.734   2.744   2.071
 9149SOL    HW228347   5.741   2.839   1.939
 9150SOL     OW28348   2.981   4.693   0.256
 9150SOL    HW128349   3.009   4.686   0.160
 9150SOL    HW228350   2.977   4.602   0.296
 9151SOL     OW28351   2.194   4.013   3.969
 9151SOL    HW128352   2.180   3.948   4.044
 9151SOL    HW228353   2.217   4.103   4.006
 9152SOL     OW28354   1.828   4.002   4.301
 9152SOL    HW128355   1.742   4.043   4.331
 9152SOL    HW228356   1.824   3.985   4.202
 9153SOL     OW28357   0.707   2.748   6.410
 9153SOL    HW128358   0.781   2.709   6.465
 9153SOL    HW228359   0.632   2.776   6.470
 9154SOL     OW28360   5.192   5.107   3.118
 9154SOL    HW128361   5.161   5.189   3.166
 9154SOL    HW228362   5.172   5.026   3.173
 9155SOL     OW28363   1.975   4.853   2.139
 9155SOL    HW128364   2.016   4.943   2.124
 9155SOL    HW228365   2.046   4.787   2.159
 9156SOL     OW28366   6.973   2.934   1.312
 9156SOL    HW128367   0.004   2.994   1.371
 9156SOL    HW228368   6.879   2.929   1.347
 9157SOL     OW28369   3.217   4.262   6.242
 9157SOL    HW128370   3.249   4.341   6.294
 9157SOL    HW228371   3.117   4.257   6.248
 9158SOL     OW28372   6.452   4.266   4.000
 9158SOL    HW128373   6.470   4.245   4.097
 9158SOL    HW228374   6.378   4.333   3.994
 9159SOL     OW28375   2.597   6.917   3.251
 9159SOL    HW128376   2.694   6.936   3.265
 9159SOL    HW228377   2.569   6.952   3.161
 9160SOL     OW28378   0.185   5.102   6.663
 9160SOL    HW128379   0.102   5.155   6.680
 9160SOL    HW228380   0.252   5.160   6.617
 9161SOL     OW28381   5.917   4.265   2.128
 9161SOL    HW128382   5.856   4.322   2.183
 9161SOL    HW228383   6.012   4.289   2.147
 9162SOL     OW28384   3.960   1.401   2.421
 9162SOL    HW128385   3.947   1.345   2.503
 9162SOL    HW228386   4.053   1.389   2.387
 9163SOL     OW28387   6.919   2.423   1.925
 9163SOL    HW128388   6.917   2.523   1.916
 9163SOL    HW228389   6.862   2.395   2.002
 9164SOL     OW28390   2.577   0.430   6.845
 9164SOL    HW128391   2.619   0.354   6.894
 9164SOL    HW228392   2.646   0.502   6.830
 9165SOL     OW28393   4.709   2.213   5.569
 9165SOL    HW128394   4.785   2.246   5.513
 9165SOL    HW228395   4.694   2.275   5.646
 9166SOL     OW28396   4.114   5.565   1.417
 9166SOL    HW128397   4.096   5.509   1.498
 9166SOL    HW228398   4.125   5.506   1.337
 9167SOL     OW28399   1.005   1.921   6.391
 9167SOL    HW128400   1.014   1.884   6.483
 9167SOL    HW228401   0.915   1.962   6.380
 9168SOL     OW28402   6.059   4.719   6.227
 9168SOL    HW128403   6.032   4.632   6.185
 9168SOL    HW228404   6.016   4.726   6.317
 9169SOL     OW28405   6.732   6.291   6.446
 9169SOL    HW128406   6.799   6.280   6.519
 9169SOL    HW228407   6.642   6.312   6.485
 9170SOL     OW28408   1.903   1.828   5.841
 9170SOL    HW128409   1.904   1.926   5.820
 9170SOL    HW228410   1.991   1.787   5.816
 9171SOL     OW28411   2.856   5.186   0.974
 9171SOL    HW128412   2.847   5.227   1.065
 9171SOL    HW228413   2.816   5.094   0.976
 9172SOL     OW28414   4.769   1.404   5.048
 9172SOL    HW128415   4.720   1.490   5.058
 9172SOL    HW228416   4.809   1.398   4.956
 9173SOL     OW28417   6.829   2.444   4.068
 9173SOL    HW128418   6.921   2.467   4.038
 9173SOL    HW228419   6.775   2.528   4.078
 9174SOL     OW28420   0.648   6.087   0.374
 9174SOL    HW128421   0.647   6.169   0.431
 9174SOL    HW228422   0.723   6.093   0.308
 9175SOL     OW28423   1.565   6.732   0.567
 9175SOL    HW128424   1.516   6.666   0.510
 9175SOL    HW228425   1.568   6.821   0.522
 9176SOL     OW28426   2.251   1.086   2.889
 9176SOL    HW128427   2.321   1.136   2.940
 9176SOL    HW228428   2.226   1.138   2.807
 9177SOL     OW28429   0.769   3.234   3.642
 9177SOL    HW128430   0.726   3.163   3.588
 9177SOL    HW228431   0.849   3.270   3.594
 9178SOL     OW28432   2.044   6.219   6.631
 9178SOL    HW128433   1.984   6.297   6.612
 9178SOL    HW228434   2.037   6.195   6.727
 9179SOL     OW28435   3.557   6.017   5.313
 9179SOL    HW128436   3.581   5.924   5.285
 9179SOL    HW228437   3.640   6.065   5.339
 9180SOL     OW28438   6.540   2.277   4.560
 9180SOL    HW128439   6.446   2.264   4.529
 9180SOL    HW228440   6.597   2.201   4.528
 9181SOL     OW28441   4.602   2.212   3.751
 9181SOL    HW128442   4.528   2.279   3.742
 9181SOL    HW228443   4.642   2.192   3.662
 9182SOL     OW28444   1.847   1.167   2.783
 9182SOL    HW128445   1.830   1.103   2.858
 9182SOL    HW228446   1.918   1.130   2.724
 9183SOL     OW28447   4.815   2.708   6.763
 9183SOL    HW128448   4.878   2.637   6.732
 9183SOL    HW228449   4.794   2.694   6.860
 9184SOL     OW28450   3.259   2.766   0.849
 9184SOL    HW128451   3.293   2.718   0.769
 9184SOL    HW228452   3.180   2.718   0.886
 9185SOL     OW28453   0.289   0.183   6.220
 9185SOL    HW128454   0.251   0.264   6.266
 9185SOL    HW228455   0.242   0.169   6.133
 9186SOL     OW28456   4.302   0.615   6.267
 9186SOL    HW128457   4.342   0.633   6.357
 9186SOL    HW228458   4.328   0.523   6.237
 9187SOL     OW28459   4.935   2.226   6.771
 9187SOL    HW128460   4.883   2.141   6.760
 9187SOL    HW228461   4.887   2.300   6.725
 9188SOL     OW28462   1.074   0.435   1.010
 9188SOL    HW128463   1.165   0.449   0.970
 9188SOL    HW228464   1.004   0.460   0.943
 9189SOL     OW28465   3.042   1.018   3.301
 9189SOL    HW128466   2.966   1.069   3.262
 9189SOL    HW228467   3.069   0.945   3.238
 9190SOL     OW28468   5.725   3.533   5.149
 9190SOL    HW128469   5.627   3.546   5.133
 9190SOL    HW228470   5.742   3.437   5.172
 9191SOL     OW28471   5.428   6.213   6.921
 9191SOL    HW128472   5.378   6.299   6.909
 9191SOL    HW228473   5.486   6.220   7.002
 9192SOL     OW28474   6.373   3.882   5.382
 9192SOL    HW128475   6.441   3.913   5.316
 9192SOL    HW228476   6.335   3.794   5.353
 9193SOL     OW28477   3.383   3.193   3.973
 9193SOL    HW128478   3.454   3.213   3.906
 9193SOL    HW228479   3.295   3.225   3.939
 9194SOL     OW28480   3.540   6.007   2.217
 9194SOL    HW128481   3.582   6.072   2.154
 9194SOL    HW228482   3.590   5.921   2.216
 9195SOL     OW28483   0.772   2.873   3.330
 9195SOL    HW128484   0.700   2.895   3.264
 9195SOL    HW228485   0.785   2.774   3.334
 9196SOL     OW28486   3.645   0.493   3.614
 9196SOL    HW128487   3.571   0.442   3.658
 9196SOL    HW228488   3.612   0.584   3.588
 9197SOL     OW28489   2.517   3.451   0.124
 9197SOL    HW128490   2.445   3.427   0.059
 9197SOL    HW228491   2.575   3.522   0.085
 9198SOL     OW28492   5.791   4.316   5.966
 9198SOL    HW128493   5.724   4.242   5.963
 9198SOL    HW228494   5.877   4.281   6.002
 9199SOL     OW28495   0.912   3.850   5.825
 9199SOL    HW128496   0.962   3.918   5.879
 9199SOL    HW228497   0.966   3.766   5.818
 9200SOL     OW28498   0.279   6.281   0.847
 9200SOL    HW128499   0.349   6.338   0.890
 9200SOL    HW228500   0.262   6.200   0.903
 9201SOL     OW28501   0.436   4.376   1.903
 9201SOL    HW128502   0.499   4.341   1.972
 9201SOL    HW228503   0.479   4.452   1.854
 9202SOL     OW28504   1.881   4.983   4.337
 9202SOL    HW128505   1.857   5.055   4.402
 9202SOL    HW228506   1.976   4.957   4.350
 9203SOL     OW28507   5.265   1.515   6.681
 9203SOL    HW128508   5.264   1.472   6.591
 9203SOL    HW228509   5.351   1.493   6.727
 9204SOL     OW28510   5.709   4.072   2.772
 9204SOL    HW128511   5.721   4.158   2.821
 9204SOL    HW228512   5.774   4.005   2.807
 9205SOL     OW28513   5.201   3.242   2.558
 9205SOL    HW128514   5.118   3.290   2.585
 9205SOL    HW228515   5.177   3.154   2.517
 9206SOL     OW28516   2.567   6.207   4.860
 9206SOL    HW128517   2.637   6.222   4.790
 9206SOL    HW228518   2.522   6.294   4.881
 9207SOL     OW28519   3.809   6.405   6.073
 9207SOL    HW128520   3.908   6.421   6.070
 9207SOL    HW228521   3.764   6.480   6.122
 9208SOL     OW28522   4.918   3.342   2.384
 9208SOL    HW128523   4.884   3.252   2.359
 9208SOL    HW228524   4.963   3.384   2.305
 9209SOL     OW28525   4.351   0.842   2.515
 9209SOL    HW128526   4.344   0.937   2.546
 9209SOL    HW228527   4.340   0.780   2.592
 9210SOL     OW28528   2.193   6.625   1.590
 9210SOL    HW128529   2.106   6.585   1.560
 9210SOL    HW228530   2.269   6.571   1.553
 9211SOL     OW28531   5.757   1.417   6.146
 9211SOL    HW128532   5.843   1.451   6.109
 9211SOL    HW228533   5.771   1.326   6.186
 9212SOL     OW28534   4.681   4.288   4.698
 9212SOL    HW128535   4.625   4.371   4.710
 9212SOL    HW228536   4.622   4.211   4.676
 9213SOL     OW28537   5.870   0.212   4.604
 9213SOL    HW128538   5.964   0.221   4.571
 9213SOL    HW228539   5.807   0.238   4.531
 9214SOL     OW28540   1.430   2.618   4.808
 9214SOL    HW128541   1.472   2.649   4.893
 9214SOL    HW228542   1.494   2.561   4.757
 9215SOL     OW28543   0.514   4.199   2.601
 9215SOL    HW128544   0.504   4.291   2.562
 9215SOL    HW228545   0.508   4.203   2.700
 9216SOL     OW28546   2.914   5.957   4.943
 9216SOL    HW128547   2.972   5.900   5.001
 9216SOL    HW228548   2.971   6.024   4.894
 9217SOL     OW28549   5.129   0.993   6.197
 9217SOL    HW128550   5.051   1.006   6.258
 9217SOL    HW228551   5.102   0.933   6.122
 9218SOL     OW28552   4.929   0.106   6.850
 9218SOL    HW128553   4.887   0.023   6.812
 9218SOL    HW228554   4.991   0.145   6.782
 9219SOL     OW28555   3.842   3.273   5.362
 9219SOL    HW128556   3.764   3.211   5.361
 9219SOL    HW228557   3.893   3.261   5.447
 9220SOL     OW28558   2.358   6.187   3.055
 9220SOL    HW128559   2.323   6.236   2.975
 9220SOL    HW228560   2.319   6.228   3.138
 9221SOL     OW28561   2.871   0.488   5.886
 9221SOL    HW128562   2.930   0.454   5.959
 9221SOL    HW228563   2.775   0.477   5.913
 9222SOL     OW28564   2.453   4.775   4.089
 9222SOL    HW128565   2.399   4.850   4.052
 9222SOL    HW228566   2.449   4.778   4.189
 9223SOL     OW28567   1.075   3.919   4.325
 9223SOL    HW128568   1.070   4.017   4.346
 9223SOL    HW228569   1.078   3.907   4.225
 9224SOL     OW28570   1.158   4.130   3.854
 9224SOL    HW128571   1.207   4.066   3.914
 9224SOL    HW228572   1.207   4.139   3.768
 9225SOL     OW28573   3.683   6.472   5.789
 9225SOL    HW128574   3.726   6.388   5.755
 9225SOL    HW228575   3.719   6.494   5.879
 9226SOL     OW28576   0.945   7.010   0.936
 9226SOL    HW128577   0.982   6.970   1.020
 9226SOL    HW228578   0.859   0.034   0.957
 9227SOL     OW28579   1.803   5.407   0.954
 9227SOL    HW128580   1.811   5.331   0.889
 9227SOL    HW228581   1.887   5.414   1.007
 9228SOL     OW28582   2.000   2.461   5.785
 9228SOL    HW128583   1.943   2.480   5.866
 9228SOL    HW228584   2.045   2.545   5.755
 9229SOL     OW28585   0.660   4.850   6.797
 9229SOL    HW128586   0.699   4.939   6.820
 9229SOL    HW228587   0.560   4.856   6.799
 9230SOL     OW28588   5.006   2.384   4.543
 9230SOL    HW128589   4.992   2.479   4.515
 9230SOL    HW228590   5.089   2.348   4.501
 9231SOL     OW28591   0.390   4.889   5.460
 9231SOL    HW128592   0.482   4.927   5.463
 9231SOL    HW228593   0.373   4.836   5.543
 9232SOL     OW28594   1.981   5.373   1.983
 9232SOL    HW128595   1.982   5.330   1.893
 9232SOL    HW228596   2.049   5.446   1.986
 9233SOL     OW28597   0.640   6.328   0.487
 9233SOL    HW128598   0.637   6.412   0.433
 9233SOL    HW228599   0.548   6.290   0.496
 9234SOL     OW28600   2.231   5.342   1.531
 9234SOL    HW128601   2.199   5.288   1.453
 9234SOL    HW228602   2.328   5.322   1.547
 9235SOL     OW28603   2.191   2.602   3.249
 9235SOL    HW128604   2.221   2.517   3.206
 9235SOL    HW228605   2.217   2.679   3.191
 9236SOL     OW28606   1.837   3.931   0.186
 9236SOL    HW128607   1.876   3.980   0.107
 9236SOL    HW228608   1.902   3.934   0.262
 9237SOL     OW28609   6.661   5.629   3.209
 9237SOL    HW128610   6.698   5.627   3.302
 9237SOL    HW228611   6.664   5.723   3.173
 9238SOL     OW28612   1.761   3.194   5.461
 9238SOL    HW128613   1.803   3.114   5.504
 9238SOL    HW228614   1.795   3.203   5.367
 9239SOL     OW28615   6.584   4.294   0.116
 9239SOL    HW128616   6.612   4.215   0.170
 9239SOL    HW228617   6.613   4.378   0.162
 9240SOL     OW28618   5.067   3.141   3.098
 9240SOL    HW128619   4.984   3.154   3.043
 9240SOL    HW228620   5.133   3.085   3.047
 9241SOL     OW28621   0.163   5.742   6.874
 9241SOL    HW128622   0.136   5.671   6.939
 9241SOL    HW228623   0.221   5.809   6.920
 9242SOL     OW28624   1.737   2.179   2.003
 9242SOL    HW128625   1.735   2.180   1.904
 9242SOL    HW228626   1.696   2.263   2.039
 9243SOL     OW28627   0.475   6.542   1.765
 9243SOL    HW128628   0.550   6.586   1.813
 9243SOL    HW228629   0.447   6.460   1.815
 9244SOL     OW28630   3.278   6.544   5.603
 9244SOL    HW128631   3.346   6.502   5.543
 9244SOL    HW228632   3.269   6.641   5.581
 9245SOL     OW28633   1.167   4.074   3.584
 9245SOL    HW128634   1.249   4.044   3.534
 9245SOL    HW228635   1.091   4.083   3.521
 9246SOL     OW28636   6.167   0.220   4.522
 9246SOL    HW128637   6.214   0.214   4.610
 9246SOL    HW228638   6.234   0.229   4.449
 9247SOL     OW28639   3.628   5.545   2.855
 9247SOL    HW128640   3.608   5.628   2.906
 9247SOL    HW228641   3.715   5.507   2.886
 9248SOL     OW28642   2.724   1.280   4.900
 9248SOL    HW128643   2.656   1.208   4.889
 9248SOL    HW228644   2.791   1.253   4.970
 9249SOL     OW28645   3.755   4.752   1.695
 9249SOL    HW128646   3.714   4.829   1.646
 9249SOL    HW228647   3.684   4.703   1.745
 9250SOL     OW28648   7.021   4.829   4.029
 9250SOL    HW128649   6.946   4.886   3.995
 9250SOL    HW228650   6.984   4.746   4.069
 9251SOL     OW28651   3.955   2.744   1.371
 9251SOL    HW128652   3.891   2.772   1.301
 9251SOL    HW228653   3.915   2.670   1.425
 9252SOL     OW28654   4.385   0.602   4.980
 9252SOL    HW128655   4.286   0.612   4.974
 9252SOL    HW228656   4.418   0.647   5.063
 9253SOL     OW28657   6.298   4.967   5.880
 9253SOL    HW128658   6.232   4.954   5.954
 9253SOL    HW228659   6.266   4.921   5.797
 9254SOL     OW28660   5.785   4.688   2.512
 9254SOL    HW128661   5.884   4.677   2.513
 9254SOL    HW228662   5.741   4.599   2.524
 9255SOL     OW28663   6.446   3.470   6.832
 9255SOL    HW128664   6.362   3.511   6.797
 9255SOL    HW228665   6.426   3.418   6.915
 9256SOL     OW28666   1.792   0.012   1.957
 9256SOL    HW128667   1.763   0.060   1.875
 9256SOL    HW228668   1.842   0.076   2.017
 9257SOL     OW28669   6.105   5.692   3.327
 9257SOL    HW128670   6.125   5.755   3.252
 9257SOL    HW228671   6.049   5.738   3.396
 9258SOL     OW28672   3.268   3.546   0.199
 9258SOL    HW128673   3.235   3.467   0.252
 9258SOL    HW228674   3.314   3.610   0.260
 9259SOL     OW28675   1.941   1.690   6.847
 9259SOL    HW128676   1.932   1.779   6.892
 9259SOL    HW228677   1.942   1.618   6.916
 9260SOL     OW28678   6.326   3.035   5.656
 9260SOL    HW128679   6.276   3.084   5.728
 9260SOL    HW228680   6.336   3.093   5.576
 9261SOL     OW28681   4.338   1.248   0.509
 9261SOL    HW128682   4.333   1.148   0.511
 9261SOL    HW228683   4.433   1.277   0.522
 9262SOL     OW28684   0.328   6.464   4.515
 9262SOL    HW128685   0.283   6.378   4.492
 9262SOL    HW228686   0.274   6.512   4.584
 9263SOL     OW28687   3.084   5.594   2.801
 9263SOL    HW128688   3.159   5.644   2.758
 9263SOL    HW228689   2.997   5.630   2.769
 9264SOL     OW28690   5.554   3.886   6.425
 9264SOL    HW128691   5.610   3.807   6.400
 9264SOL    HW228692   5.495   3.862   6.502
 9265SOL     OW28693   3.366   2.259   6.595
 9265SOL    HW128694   3.390   2.258   6.692
 9265SOL    HW228695   3.448   2.246   6.539
 9266SOL     OW28696   0.569   5.161   1.756
 9266SOL    HW128697   0.594   5.228   1.826
 9266SOL    HW228698   0.608   5.072   1.779
 9267SOL     OW28699   0.388   1.889   3.882
 9267SOL    HW128700   0.374   1.903   3.784
 9267SOL    HW228701   0.472   1.934   3.910
 9268SOL     OW28702   0.409   6.515   2.133
 9268SOL    HW128703   0.439   6.432   2.086
 9268SOL    HW228704   0.310   6.525   2.123
 9269SOL     OW28705   4.729   0.427   7.020
 9269SOL    HW128706   4.633   0.420   6.996
 9269SOL    HW228707   4.775   0.492   6.959
 9270SOL     OW28708   3.596   1.615   5.983
 9270SOL    HW128709   3.646   1.646   5.902
 9270SOL    HW228710   3.521   1.679   6.001
 9271SOL     OW28711   1.269   0.592   6.973
 9271SOL    HW128712   1.362   0.607   6.939
 9271SOL    HW228713   1.271   0.582   0.049
 9272SOL     OW28714   0.589   6.393   5.826
 9272SOL    HW128715   0.535   6.466   5.785
 9272SOL    HW228716   0.582   6.311   5.769
 9273SOL     OW28717   5.307   5.791   4.026
 9273SOL    HW128718   5.380   5.757   3.967
 9273SOL    HW228719   5.247   5.851   3.974
 9274SOL     OW28720   0.397   3.199   0.469
 9274SOL    HW128721   0.431   3.292   0.456
 9274SOL    HW228722   0.453   3.134   0.417
 9275SOL     OW28723   0.984   6.597   0.929
 9275SOL    HW128724   0.981   6.507   0.972
 9275SOL    HW228725   1.029   6.662   0.991
 9276SOL     OW28726   3.400   4.661   6.470
 9276SOL    HW128727   3.421   4.745   6.420
 9276SOL    HW228728   3.446   4.662   6.558
 9277SOL     OW28729   4.234   5.075   2.246
 9277SOL    HW128730   4.320   5.044   2.205
 9277SOL    HW228731   4.254   5.131   2.327
 9278SOL     OW28732   0.331   0.134   4.400
 9278SOL    HW128733   0.348   0.095   4.490
 9278SOL    HW228734   0.238   0.170   4.395
 9279SOL     OW28735   3.664   6.007   1.491
 9279SOL    HW128736   3.686   5.919   1.533
 9279SOL    HW228737   3.742   6.039   1.438
 9280SOL     OW28738   1.559   1.635   2.428
 9280SOL    HW128739   1.604   1.710   2.477
 9280SOL    HW228740   1.480   1.671   2.379
 9281SOL     OW28741   3.523   3.755   5.978
 9281SOL    HW128742   3.440   3.806   6.003
 9281SOL    HW228743   3.498   3.666   5.941
 9282SOL     OW28744   3.694   0.597   4.556
 9282SOL    HW128745   3.704   0.557   4.465
 9282SOL    HW228746   3.675   0.694   4.548
 9283SOL     OW28747   5.524   0.234   6.382
 9283SOL    HW128748   5.458   0.266   6.314
 9283SOL    HW228749   5.582   0.164   6.340
 9284SOL     OW28750   3.375   3.571   5.332
 9284SOL    HW128751   3.304   3.501   5.343
 9284SOL    HW228752   3.420   3.559   5.243
 9285SOL     OW28753   5.454   3.201   1.947
 9285SOL    HW128754   5.470   3.190   1.849
 9285SOL    HW228755   5.538   3.180   1.997
 9286SOL     OW28756   4.964   6.335   0.285
 9286SOL    HW128757   4.896   6.385   0.338
 9286SOL    HW228758   5.055   6.358   0.320
 9287SOL     OW28759   2.258   4.261   6.001
 9287SOL    HW128760   2.293   4.349   5.968
 9287SOL    HW228761   2.298   4.187   5.947
 9288SOL     OW28762   4.297   2.391   3.805
 9288SOL    HW128763   4.260   2.443   3.883
 9288SOL    HW228764   4.229   2.325   3.775
 9289SOL     OW28765   4.119   6.839   5.899
 9289SOL    HW128766   4.021   6.852   5.912
 9289SOL    HW228767   4.151   6.763   5.957
 9290SOL     OW28768   5.311   0.682   4.427
 9290SOL    HW128769   5.295   0.735   4.511
 9290SOL    HW228770   5.278   0.733   4.348
 9291SOL     OW28771   1.357   6.657   5.561
 9291SOL    HW128772   1.444   6.708   5.558
 9291SOL    HW228773   1.301   6.693   5.636
 9292SOL     OW28774   1.547   1.530   5.834
 9292SOL    HW128775   1.579   1.624   5.832
 9292SOL    HW228776   1.625   1.468   5.832
 9293SOL     OW28777   4.786   2.980   6.280
 9293SOL    HW128778   4.862   3.022   6.230
 9293SOL    HW228779   4.820   2.939   6.364
 9294SOL     OW28780   4.697   0.767   0.512
 9294SOL    HW128781   4.683   0.798   0.418
 9294SOL    HW228782   4.743   0.679   0.511
 9295SOL     OW28783   1.261   0.805   5.124
 9295SOL    HW128784   1.212   0.885   5.089
 9295SOL    HW228785   1.243   0.727   5.064
 9296SOL     OW28786   2.777   3.852   1.267
 9296SOL    HW128787   2.677   3.852   1.266
 9296SOL    HW228788   2.811   3.906   1.190
 9297SOL     OW28789   0.412   5.411   3.089
 9297SOL    HW128790   0.463   5.351   3.150
 9297SOL    HW228791   0.428   5.507   3.115
 9298SOL     OW28792   1.216   0.114   5.835
 9298SOL    HW128793   1.118   0.103   5.825
 9298SOL    HW228794   1.247   0.072   5.920
 9299SOL     OW28795   2.166   1.922   3.914
 9299SOL    HW128796   2.209   1.947   4.000
 9299SOL    HW228797   2.099   1.850   3.930
 9300SOL     OW28798   1.249   6.204   5.158
 9300SOL    HW128799   1.238   6.152   5.242
 9300SOL    HW228800   1.333   6.176   5.112
 9301SOL     OW28801   6.982   3.980   4.598
 9301SOL    HW128802   7.021   3.899   4.554
 9301SOL    HW228803   6.906   4.014   4.544
 9302SOL     OW28804   1.975   3.039   5.098
 9302SOL    HW128805   2.054   2.985   5.126
 9302SOL    HW228806   1.961   3.028   4.999
 9303SOL     OW28807   3.438   4.205   6.618
 9303SOL    HW128808   3.444   4.121   6.672
 9303SOL    HW228809   3.469   4.187   6.524
 9304SOL     OW28810   4.885   5.157   0.379
 9304SOL    HW128811   4.821   5.096   0.332
 9304SOL    HW228812   4.974   5.155   0.333
 9305SOL     OW28813   2.816   1.687   1.120
 9305SOL    HW128814   2.874   1.768   1.112
 9305SOL    HW228815   2.862   1.609   1.077
 9306SOL     OW28816   6.984   4.173   4.109
 9306SOL    HW128817   0.034   4.193   4.174
 9306SOL    HW228818   7.021   4.175   4.016
 9307SOL     OW28819   2.173   3.961   0.829
 9307SOL    HW128820   2.231   3.925   0.756
 9307SOL    HW228821   2.092   4.003   0.790
 9308SOL     OW28822   1.439   4.952   1.731
 9308SOL    HW128823   1.449   4.895   1.649
 9308SOL    HW228824   1.478   5.042   1.714
 9309SOL     OW28825   5.014   6.043   5.993
 9309SOL    HW128826   4.919   6.058   6.021
 9309SOL    HW228827   5.035   6.100   5.914
 9310SOL     OW28828   4.736   5.747   5.816
 9310SOL    HW128829   4.728   5.822   5.882
 9310SOL    HW228830   4.678   5.671   5.845
 9311SOL     OW28831   4.547   3.401   1.379
 9311SOL    HW128832   4.449   3.387   1.392
 9311SOL    HW228833   4.581   3.340   1.308
 9312SOL     OW28834   1.474   2.030   1.020
 9312SOL    HW128835   1.483   1.933   1.046
 9312SOL    HW228836   1.475   2.038   0.920
 9313SOL     OW28837   1.288   0.677   1.992
 9313SOL    HW128838   1.322   0.697   2.084
 9313SOL    HW228839   1.366   0.665   1.929
 9314SOL     OW28840   5.564   2.815   0.535
 9314SOL    HW128841   5.562   2.716   0.554
 9314SOL    HW228842   5.524   2.864   0.613
 9315SOL     OW28843   5.975   0.943   6.402
 9315SOL    HW128844   6.037   0.916   6.329
 9315SOL    HW228845   5.996   0.892   6.485
 9316SOL     OW28846   5.112   0.273   5.415
 9316SOL    HW128847   5.050   0.274   5.494
 9316SOL    HW228848   5.137   0.366   5.390
 9317SOL     OW28849   3.334   5.185   3.304
 9317SOL    HW128850   3.377   5.264   3.261
 9317SOL    HW228851   3.248   5.212   3.346
 9318SOL     OW28852   5.654   5.840   0.237
 9318SOL    HW128853   5.687   5.874   0.149
 9318SOL    HW228854   5.556   5.818   0.230
 9319SOL     OW28855   2.913   3.949   1.043
 9319SOL    HW128856   2.844   3.913   0.980
 9319SOL    HW228857   2.998   3.897   1.032
 9320SOL     OW28858   5.337   0.349   6.219
 9320SOL    HW128859   5.373   0.424   6.164
 9320SOL    HW228860   5.256   0.311   6.176
 9321SOL     OW28861   0.719   2.343   5.544
 9321SOL    HW128862   0.621   2.351   5.563
 9321SOL    HW228863   0.770   2.380   5.622
 9322SOL     OW28864   6.398   4.417   6.007
 9322SOL    HW128865   6.495   4.417   5.983
 9322SOL    HW228866   6.358   4.506   5.987
 9323SOL     OW28867   1.792   3.082   4.147
 9323SOL    HW128868   1.757   2.990   4.132
 9323SOL    HW228869   1.891   3.079   4.160
 9324SOL     OW28870   0.837   3.914   0.491
 9324SOL    HW128871   0.745   3.881   0.469
 9324SOL    HW228872   0.830   3.999   0.544
 9325SOL     OW28873   2.251   5.654   1.722
 9325SOL    HW128874   2.336   5.692   1.686
 9325SOL    HW228875   2.264   5.557   1.742
 9326SOL     OW28876   3.980   4.814   0.583
 9326SOL    HW128877   4.047   4.882   0.614
 9326SOL    HW228878   3.966   4.824   0.484
 9327SOL     OW28879   4.426   0.761   3.289
 9327SOL    HW128880   4.500   0.717   3.239
 9327SOL    HW228881   4.461   0.800   3.374
 9328SOL     OW28882   2.898   6.756   4.714
 9328SOL    HW128883   2.901   6.674   4.772
 9328SOL    HW228884   2.850   6.829   4.762
 9329SOL     OW28885   0.306   5.891   6.455
 9329SOL    HW128886   0.397   5.865   6.424
 9329SOL    HW228887   0.270   5.820   6.516
 9330SOL     OW28888   0.398   6.915   6.407
 9330SOL    HW128889   0.442   6.877   6.488
 9330SOL    HW228890   0.437   7.005   6.386
 9331SOL     OW28891   1.533   2.738   5.069
 9331SOL    HW128892   1.633   2.742   5.074
 9331SOL    HW228893   1.493   2.796   5.139
 9332SOL     OW28894   4.160   5.616   0.686
 9332SOL    HW128895   4.175   5.700   0.634
 9332SOL    HW228896   4.063   5.607   0.707
 9333SOL     OW28897   3.469   5.227   0.696
 9333SOL    HW128898   3.389   5.179   0.733
 9333SOL    HW228899   3.552   5.194   0.742
 9334SOL     OW28900   4.885   6.637   4.177
 9334SOL    HW128901   4.877   6.542   4.206
 9334SOL    HW228902   4.897   6.696   4.258
 9335SOL     OW28903   2.021   2.170   1.041
 9335SOL    HW128904   2.002   2.074   1.059
 9335SOL    HW228905   2.119   2.186   1.046
 9336SOL     OW28906   6.159   0.495   5.040
 9336SOL    HW128907   6.245   0.450   5.016
 9336SOL    HW228908   6.143   0.572   4.978
 9337SOL     OW28909   4.336   0.108   6.831
 9337SOL    HW128910   4.432   0.084   6.843
 9337SOL    HW228911   4.315   0.116   6.734
 9338SOL     OW28912   0.188   6.130   0.128
 9338SOL    HW128913   0.257   6.200   0.112
 9338SOL    HW228914   0.099   6.163   0.094
 9339SOL     OW28915   5.741   5.274   6.674
 9339SOL    HW128916   5.705   5.185   6.645
 9339SOL    HW228917   5.690   5.306   6.754
 9340SOL     OW28918   3.772   6.181   2.842
 9340SOL    HW128919   3.821   6.115   2.785
 9340SOL    HW228920   3.686   6.140   2.874
 9341SOL     OW28921   6.150   4.362   6.450
 9341SOL    HW128922   6.135   4.321   6.541
 9341SOL    HW228923   6.063   4.398   6.415
 9342SOL     OW28924   3.135   0.589   4.627
 9342SOL    HW128925   3.068   0.650   4.584
 9342SOL    HW228926   3.205   0.564   4.559
 9343SOL     OW28927   4.685   3.879   1.801
 9343SOL    HW128928   4.654   3.788   1.774
 9343SOL    HW228929   4.778   3.873   1.837
 9344SOL     OW28930   5.491   5.315   6.205
 9344SOL    HW128931   5.457   5.395   6.155
 9344SOL    HW228932   5.421   5.285   6.271
 9345SOL     OW28933   6.949   5.958   0.068
 9345SOL    HW128934   6.922   5.900   7.014
 9345SOL    HW228935   6.996   6.039   0.034
 9346SOL     OW28936   5.277   6.422   2.808
 9346SOL    HW128937   5.220   6.363   2.865
 9346SOL    HW228938   5.344   6.368   2.758
 9347SOL     OW28939   3.635   5.533   1.065
 9347SOL    HW128940   3.596   5.517   0.975
 9347SOL    HW228941   3.729   5.567   1.055
 9348SOL     OW28942   2.822   6.187   3.319
 9348SOL    HW128943   2.891   6.194   3.247
 9348SOL    HW228944   2.833   6.099   3.366
 9349SOL     OW28945   0.073   5.666   2.417
 9349SOL    HW128946   0.151   5.615   2.379
 9349SOL    HW228947   0.047   5.739   2.354
 9350SOL     OW28948   6.881   1.357   4.581
 9350SOL    HW128949   6.912   1.306   4.501
 9350SOL    HW228950   6.961   1.387   4.633
 9351SOL     OW28951   1.959   0.938   5.466
 9351SOL    HW128952   1.886   0.948   5.533
 9351SOL    HW228953   2.034   0.999   5.488
 9352SOL     OW28954   1.196   2.900   5.753
 9352SOL    HW128955   1.195   2.968   5.826
 9352SOL    HW228956   1.282   2.849   5.756
 9353SOL     OW28957   1.871   4.127   2.005
 9353SOL    HW128958   1.779   4.122   2.043
 9353SOL    HW228959   1.938   4.102   2.075
 9354SOL     OW28960   6.678   2.168   1.380
 9354SOL    HW128961   6.621   2.251   1.377
 9354SOL    HW228962   6.706   2.150   1.474
 9355SOL     OW28963   6.323   0.987   4.397
 9355SOL    HW128964   6.237   1.002   4.447
 9355SOL    HW228965   6.304   0.981   4.299
 9356SOL     OW28966   4.842   5.077   1.783
 9356SOL    HW128967   4.833   5.060   1.881
 9356SOL    HW228968   4.793   5.006   1.732
 9357SOL     OW28969   2.545   4.090   0.426
 9357SOL    HW128970   2.545   4.146   0.344
 9357SOL    HW228971   2.532   3.994   0.401
 9358SOL     OW28972   5.628   3.659   1.905
 9358SOL    HW128973   5.552   3.716   1.936
 9358SOL    HW228974   5.684   3.632   1.983
 9359SOL     OW28975   6.789   3.735   5.837
 9359SOL    HW128976   6.762   3.716   5.743
 9359SOL    HW228977   6.863   3.673   5.864
 9360SOL     OW28978   1.850   7.013   5.806
 9360SOL    HW128979   1.891   6.923   5.819
 9360SOL    HW228980   1.816   0.025   5.893
 9361SOL     OW28981   2.849   6.601   3.184
 9361SOL    HW128982   2.944   6.633   3.175
 9361SOL    HW228983   2.787   6.671   3.149
 9362SOL     OW28984   1.810   1.184   1.645
 9362SOL    HW128985   1.750   1.111   1.613
 9362SOL    HW228986   1.897   1.179   1.597
 9363SOL     OW28987   3.764   5.751   1.592
 9363SOL    HW128988   3.852   5.734   1.635
 9363SOL    HW228989   3.691   5.713   1.648
 9364SOL     OW28990   3.647   3.031   6.159
 9364SOL    HW128991   3.687   3.035   6.251
 9364SOL    HW228992   3.721   3.030   6.091
 9365SOL     OW28993   2.414   2.568   4.783
 9365SOL    HW128994   2.495   2.521   4.817
 9365SOL    HW228995   2.348   2.578   4.857
 9366SOL     OW28996   3.098   1.742   6.934
 9366SOL    HW128997   3.038   1.761   7.012
 9366SOL    HW228998   3.063   1.790   6.853
 9367SOL     OW28999   6.789   5.739   3.710
 9367SOL    HW129000   6.763   5.712   3.617
 9367SOL    HW229001   6.815   5.657   3.762
 9368SOL     OW29002   3.334   1.866   2.820
 9368SOL    HW129003   3.412   1.881   2.760
 9368SOL    HW229004   3.358   1.799   2.890
 9369SOL     OW29005   0.213   1.290   6.067
 9369SOL    HW129006   0.216   1.370   6.127
 9369SOL    HW229007   0.138   1.230   6.095
 9370SOL     OW29008   5.522   0.725   2.676
 9370SOL    HW129009   5.603   0.673   2.704
 9370SOL    HW229010   5.544   0.823   2.678
 9371SOL     OW29011   1.941   5.382   6.864
 9371SOL    HW129012   1.900   5.292   6.874
 9371SOL    HW229013   1.886   5.450   6.913
 9372SOL     OW29014   6.203   6.326   2.933
 9372SOL    HW129015   6.262   6.352   3.009
 9372SOL    HW229016   6.180   6.407   2.880
 9373SOL     OW29017   4.277   2.184   2.698
 9373SOL    HW129018   4.328   2.116   2.645
 9373SOL    HW229019   4.326   2.271   2.696
 9374SOL     OW29020   6.238   2.994   7.005
 9374SOL    HW129021   6.220   3.050   0.063
 9374SOL    HW229022   6.296   2.917   0.008
 9375SOL     OW29023   6.886   1.425   3.345
 9375SOL    HW129024   6.915   1.493   3.412
 9375SOL    HW229025   6.890   1.334   3.386
 9376SOL     OW29026   2.976   3.958   0.646
 9376SOL    HW129027   3.048   3.999   0.702
 9376SOL    HW229028   2.910   3.912   0.706
 9377SOL     OW29029   0.753   5.073   3.478
 9377SOL    HW129030   0.671   5.028   3.444
 9377SOL    HW229031   0.790   5.134   3.407
 9378SOL     OW29032   1.707   0.160   5.608
 9378SOL    HW129033   1.740   0.098   5.679
 9378SOL    HW229034   1.662   0.107   5.537
 9379SOL     OW29035   4.857   4.817   5.015
 9379SOL    HW129036   4.867   4.852   4.922
 9379SOL    HW229037   4.886   4.721   5.018
 9380SOL     OW29038   5.982   5.447   5.047
 9380SOL    HW129039   6.018   5.498   5.125
 9380SOL    HW229040   5.891   5.412   5.069
 9381SOL     OW29041   2.441   3.250   5.938
 9381SOL    HW129042   2.416   3.292   6.025
 9381SOL    HW229043   2.401   3.303   5.863
 9382SOL     OW29044   3.390   1.295   2.821
 9382SOL    HW129045   3.461   1.279   2.890
 9382SOL    HW229046   3.405   1.383   2.776
 9383SOL     OW29047   3.299   6.092   5.025
 9383SOL    HW129048   3.266   6.174   5.073
 9383SOL    HW229049   3.300   6.109   4.927
 9384SOL     OW29050   4.249   6.298   1.469
 9384SOL    HW129051   4.236   6.311   1.567
 9384SOL    HW229052   4.263   6.201   1.451
 9385SOL     OW29053   3.956   1.799   2.058
 9385SOL    HW129054   4.012   1.834   2.133
 9385SOL    HW229055   3.894   1.729   2.093
 9386SOL     OW29056   2.337   6.086   4.979
 9386SOL    HW129057   2.356   6.049   5.070
 9386SOL    HW229058   2.421   6.124   4.940
 9387SOL     OW29059   4.063   0.143   0.297
 9387SOL    HW129060   4.132   0.101   0.238
 9387SOL    HW229061   3.978   0.156   0.246
 9388SOL     OW29062   1.544   5.959   2.654
 9388SOL    HW129063   1.547   6.045   2.704
 9388SOL    HW229064   1.627   5.907   2.671
 9389SOL     OW29065   2.634   0.452   5.597
 9389SOL    HW129066   2.566   0.474   5.528
 9389SOL    HW229067   2.664   0.357   5.586
 9390SOL     OW29068   3.842   6.160   4.195
 9390SOL    HW129069   3.905   6.100   4.145
 9390SOL    HW229070   3.797   6.108   4.268
 9391SOL     OW29071   2.161   1.083   5.565
 9391SOL    HW129072   2.247   1.116   5.525
 9391SOL    HW229073   2.180   1.038   5.652
 9392SOL     OW29074   0.131   0.187   4.918
 9392SOL    HW129075   0.123   0.119   4.991
 9392SOL    HW229076   0.116   0.143   4.830
 9393SOL     OW29077   3.561   1.452   4.722
 9393SOL    HW129078   3.623   1.406   4.786
 9393SOL    HW229079   3.554   1.549   4.746
 9394SOL     OW29080   6.339   1.423   2.983
 9394SOL    HW129081   6.256   1.404   3.034
 9394SOL    HW229082   6.362   1.345   2.925
 9395SOL     OW29083   2.752   2.523   7.010
 9395SOL    HW129084   2.741   2.424   7.018
 9395SOL    HW229085   2.773   2.547   6.915
 9396SOL     OW29086   0.190   5.869   4.407
 9396SOL    HW129087   0.244   5.876   4.491
 9396SOL    HW229088   0.229   5.798   4.348
 9397SOL     OW29089   2.690   0.214   6.989
 9397SOL    HW129090   2.767   0.163   0.004
 9397SOL    HW229091   2.604   0.178   0.003
 9398SOL     OW29092   1.972   0.616   6.079
 9398SOL    HW129093   2.007   0.576   5.994
 9398SOL    HW229094   1.874   0.597   6.088
 9399SOL     OW29095   0.856   1.635   6.911
 9399SOL    HW129096   0.795   1.685   6.849
 9399SOL    HW229097   0.880   1.547   6.871
 9400SOL     OW29098   5.401   3.052   1.280
 9400SOL    HW129099   5.311   3.011   1.261
 9400SOL    HW229100   5.468   3.019   1.214
 9401SOL     OW29101   3.735   6.204   3.204
 9401SOL    HW129102   3.784   6.155   3.276
 9401SOL    HW229103   3.656   6.150   3.174
 9402SOL     OW29104   1.220   4.903   4.706
 9402SOL    HW129105   1.128   4.942   4.698
 9402SOL    HW229106   1.258   4.925   4.796
 9403SOL     OW29107   5.006   2.167   3.039
 9403SOL    HW129108   5.095   2.173   2.995
 9403SOL    HW229109   5.018   2.141   3.135
 9404SOL     OW29110   0.673   4.447   6.451
 9404SOL    HW129111   0.726   4.371   6.413
 9404SOL    HW229112   0.622   4.492   6.378
 9405SOL     OW29113   0.021   6.804   2.781
 9405SOL    HW129114   0.024   6.879   2.847
 9405SOL    HW229115   0.095   6.739   2.801
 9406SOL     OW29116   0.006   2.294   5.964
 9406SOL    HW129117   0.092   2.259   5.926
 9406SOL    HW229118   6.981   2.219   6.009
 9407SOL     OW29119   2.393   5.761   3.248
 9407SOL    HW129120   2.413   5.678   3.301
 9407SOL    HW229121   2.422   5.841   3.300
 9408SOL     OW29122   4.076   1.983   6.202
 9408SOL    HW129123   4.142   2.052   6.170
 9408SOL    HW229124   4.033   2.015   6.287
 9409SOL     OW29125   5.397   4.455   5.553
 9409SOL    HW129126   5.476   4.397   5.532
 9409SOL    HW229127   5.365   4.435   5.646
 9410SOL     OW29128   4.208   5.828   1.548
 9410SOL    HW129129   4.230   5.797   1.640
 9410SOL    HW229130   4.191   5.749   1.489
 9411SOL     OW29131   3.869   4.144   0.833
 9411SOL    HW129132   3.844   4.115   0.925
 9411SOL    HW229133   3.956   4.194   0.836
 9412SOL     OW29134   0.280   3.657   1.787
 9412SOL    HW129135   0.362   3.690   1.740
 9412SOL    HW229136   0.209   3.727   1.783
 9413SOL     OW29137   4.173   5.634   4.715
 9413SOL    HW129138   4.118   5.712   4.685
 9413SOL    HW229139   4.238   5.609   4.643
 9414SOL     OW29140   3.426   1.032   3.614
 9414SOL    HW129141   3.504   1.009   3.555
 9414SOL    HW229142   3.458   1.089   3.690
 9415SOL     OW29143   2.453   6.505   2.552
 9415SOL    HW129144   2.411   6.595   2.562
 9415SOL    HW229145   2.405   6.454   2.480
 9416SOL     OW29146   0.652   1.619   1.683
 9416SOL    HW129147   0.718   1.570   1.625
 9416SOL    HW229148   0.680   1.714   1.693
 9417SOL     OW29149   3.809   0.309   5.878
 9417SOL    HW129150   3.848   0.350   5.796
 9417SOL    HW229151   3.857   0.343   5.959
 9418SOL     OW29152   3.185   6.737   0.833
 9418SOL    HW129153   3.096   6.738   0.879
 9418SOL    HW229154   3.212   6.830   0.810
 9419SOL     OW29155   3.502   4.972   5.900
 9419SOL    HW129156   3.459   4.882   5.899
 9419SOL    HW229157   3.594   4.965   5.860
 9420SOL     OW29158   0.323   2.174   4.174
 9420SOL    HW129159   0.236   2.181   4.124
 9420SOL    HW229160   0.353   2.266   4.200
 9421SOL     OW29161   2.148   6.438   5.169
 9421SOL    HW129162   2.056   6.423   5.204
 9421SOL    HW229163   2.143   6.481   5.078
 9422SOL     OW29164   5.228   6.692   2.882
 9422SOL    HW129165   5.290   6.699   2.960
 9422SOL    HW229166   5.253   6.613   2.826
 9423SOL     OW29167   3.387   0.271   3.505
 9423SOL    HW129168   3.471   0.313   3.470
 9423SOL    HW229169   3.310   0.294   3.446
 9424SOL     OW29170   4.726   0.524   4.942
 9424SOL    HW129171   4.818   0.517   4.982
 9424SOL    HW229172   4.733   0.555   4.848
 9425SOL     OW29173   6.973   3.966   6.175
 9425SOL    HW129174   6.880   3.987   6.207
 9425SOL    HW229175   7.021   4.052   6.155
 9426SOL     OW29176   2.894   1.819   0.062
 9426SOL    HW129177   2.824   1.748   0.064
 9426SOL    HW229178   2.853   1.908   0.082
 9427SOL     OW29179   3.083   5.172   4.944
 9427SOL    HW129180   3.097   5.075   4.965
 9427SOL    HW229181   3.132   5.196   4.861
 9428SOL     OW29182   5.252   1.065   1.399
 9428SOL    HW129183   5.255   1.152   1.448
 9428SOL    HW229184   5.273   0.991   1.463
 9429SOL     OW29185   1.620   4.868   1.925
 9429SOL    HW129186   1.570   4.791   1.965
 9429SOL    HW229187   1.575   4.896   1.840
 9430SOL     OW29188   0.576   5.745   1.995
 9430SOL    HW129189   0.546   5.650   1.983
 9430SOL    HW229190   0.596   5.785   1.905
 9431SOL     OW29191   5.639   4.883   1.180
 9431SOL    HW129192   5.597   4.858   1.093
 9431SOL    HW229193   5.639   4.804   1.241
 9432SOL     OW29194   5.945   0.592   3.270
 9432SOL    HW129195   5.912   0.545   3.352
 9432SOL    HW229196   5.967   0.687   3.293
 9433SOL     OW29197   3.365   5.144   3.808
 9433SOL    HW129198   3.452   5.184   3.780
 9433SOL    HW229199   3.381   5.080   3.884
 9434SOL     OW29200   5.693   4.753   3.249
 9434SOL    HW129201   5.708   4.710   3.338
 9434SOL    HW229202   5.735   4.698   3.178
 9435SOL     OW29203   0.859   1.836   3.764
 9435SOL    HW129204   0.836   1.825   3.667
 9435SOL    HW229205   0.778   1.861   3.816
 9436SOL     OW29206   0.922   4.428   2.713
 9436SOL    HW129207   0.915   4.358   2.641
 9436SOL    HW229208   0.941   4.384   2.801
 9437SOL     OW29209   1.222   6.226   3.800
 9437SOL    HW129210   1.267   6.181   3.878
 9437SOL    HW229211   1.193   6.156   3.734
 9438SOL     OW29212   1.139   6.711   1.103
 9438SOL    HW129213   1.237   6.705   1.086
 9438SOL    HW229214   1.120   6.788   1.164
 9439SOL     OW29215   6.884   2.985   2.431
 9439SOL    HW129216   6.802   3.035   2.404
 9439SOL    HW229217   6.962   3.019   2.378
 9440SOL     OW29218   4.505   6.189   4.151
 9440SOL    HW129219   4.583   6.127   4.136
 9440SOL    HW229220   4.442   6.147   4.216
 9441SOL     OW29221   0.988   4.435   4.651
 9441SOL    HW129222   1.073   4.435   4.600
 9441SOL    HW229223   0.953   4.341   4.658
 9442SOL     OW29224   5.847   3.176   0.418
 9442SOL    HW129225   5.756   3.210   0.395
 9442SOL    HW229226   5.838   3.088   0.466
 9443SOL     OW29227   2.569   5.196   1.326
 9443SOL    HW129228   2.517   5.213   1.410
 9443SOL    HW229229   2.583   5.282   1.277
 9444SOL     OW29230   0.844   4.051   6.342
 9444SOL    HW129231   0.846   3.961   6.299
 9444SOL    HW229232   0.853   4.040   6.442
 9445SOL     OW29233   5.281   3.413   2.372
 9445SOL    HW129234   5.278   3.341   2.441
 9445SOL    HW229235   5.245   3.498   2.411
 9446SOL     OW29236   6.207   6.543   4.116
 9446SOL    HW129237   6.161   6.631   4.124
 9446SOL    HW229238   6.240   6.531   4.023
 9447SOL     OW29239   6.071   3.354   3.126
 9447SOL    HW129240   6.016   3.415   3.184
 9447SOL    HW229241   6.098   3.273   3.179
 9448SOL     OW29242   6.238   6.636   5.938
 9448SOL    HW129243   6.269   6.730   5.955
 9448SOL    HW229244   6.139   6.635   5.924
 9449SOL     OW29245   0.218   6.076   6.641
 9449SOL    HW129246   0.237   6.013   6.566
 9449SOL    HW229247   0.301   6.089   6.695
 9450SOL     OW29248   3.543   4.998   4.380
 9450SOL    HW129249   3.459   4.952   4.410
 9450SOL    HW229250   3.572   5.063   4.450
 9451SOL     OW29251   3.635   6.195   6.128
 9451SOL    HW129252   3.705   6.254   6.087
 9451SOL    HW229253   3.634   6.210   6.227
 9452SOL     OW29254   0.666   3.393   0.589
 9452SOL    HW129255   0.729   3.316   0.599
 9452SOL    HW229256   0.692   3.466   0.651
 9453SOL     OW29257   2.112   4.840   3.605
 9453SOL    HW129258   2.082   4.844   3.700
 9453SOL    HW229259   2.078   4.756   3.563
 9454SOL     OW29260   1.632   3.155   5.942
 9454SOL    HW129261   1.727   3.180   5.960
 9454SOL    HW229262   1.627   3.105   5.855
 9455SOL     OW29263   3.510   1.514   2.509
 9455SOL    HW129264   3.411   1.517   2.524
 9455SOL    HW229265   3.558   1.529   2.595
 9456SOL     OW29266   1.028   3.572   6.943
 9456SOL    HW129267   1.052   3.642   6.876
 9456SOL    HW229268   1.110   3.544   6.993
 9457SOL     OW29269   1.587   3.935   5.943
 9457SOL    HW129270   1.656   3.873   5.981
 9457SOL    HW229271   1.511   3.944   6.007
 9458SOL     OW29272   1.112   3.252   5.754
 9458SOL    HW129273   1.162   3.213   5.831
 9458SOL    HW229274   1.108   3.351   5.764
 9459SOL     OW29275   5.632   4.470   2.583
 9459SOL    HW129276   5.652   4.373   2.571
 9459SOL    HW229277   5.542   4.480   2.626
 9460SOL     OW29278   0.116   1.248   4.114
 9460SOL    HW129279   0.041   1.214   4.057
 9460SOL    HW229280   0.128   1.188   4.193
 9461SOL     OW29281   6.237   1.780   3.338
 9461SOL    HW129282   6.217   1.759   3.242
 9461SOL    HW229283   6.175   1.728   3.397
 9462SOL     OW29284   2.142   3.657   3.295
 9462SOL    HW129285   2.174   3.742   3.255
 9462SOL    HW229286   2.154   3.660   3.394
 9463SOL     OW29287   0.281   0.861   1.539
 9463SOL    HW129288   0.197   0.835   1.492
 9463SOL    HW229289   0.258   0.907   1.626
 9464SOL     OW29290   5.629   6.083   0.344
 9464SOL    HW129291   5.715   6.133   0.346
 9464SOL    HW229292   5.648   5.985   0.335
 9465SOL     OW29293   0.031   6.723   3.254
 9465SOL    HW129294   0.095   6.735   3.329
 9465SOL    HW229295   0.069   6.657   3.188
 9466SOL     OW29296   3.924   3.995   5.356
 9466SOL    HW129297   3.911   3.985   5.454
 9466SOL    HW229298   3.991   4.067   5.338
 9467SOL     OW29299   1.268   2.670   1.984
 9467SOL    HW129300   1.274   2.629   2.076
 9467SOL    HW229301   1.174   2.667   1.953
 9468SOL     OW29302   6.008   2.371   6.407
 9468SOL    HW129303   5.926   2.316   6.424
 9468SOL    HW229304   6.080   2.312   6.369
 9469SOL     OW29305   5.891   5.816   1.197
 9469SOL    HW129306   5.820   5.856   1.254
 9469SOL    HW229307   5.898   5.718   1.216
 9470SOL     OW29308   4.970   3.571   5.518
 9470SOL    HW129309   5.006   3.579   5.611
 9470SOL    HW229310   5.032   3.618   5.454
 9471SOL     OW29311   5.905   2.011   5.192
 9471SOL    HW129312   5.964   2.071   5.137
 9471SOL    HW229313   5.957   1.930   5.221
 9472SOL     OW29314   6.307   3.481   4.373
 9472SOL    HW129315   6.378   3.423   4.412
 9472SOL    HW229316   6.338   3.519   4.286
 9473SOL     OW29317   2.662   5.988   6.265
 9473SOL    HW129318   2.600   5.984   6.187
 9473SOL    HW229319   2.757   5.988   6.232
 9474SOL     OW29320   6.764   3.261   0.225
 9474SOL    HW129321   6.791   3.310   0.142
 9474SOL    HW229322   6.679   3.301   0.260
 9475SOL     OW29323   2.700   3.331   0.309
 9475SOL    HW129324   2.623   3.362   0.252
 9475SOL    HW229325   2.778   3.393   0.296
 9476SOL     OW29326   3.260   3.473   4.966
 9476SOL    HW129327   3.284   3.382   4.932
 9476SOL    HW229328   3.232   3.531   4.890
 9477SOL     OW29329   0.295   3.482   2.320
 9477SOL    HW129330   0.389   3.512   2.306
 9477SOL    HW229331   0.268   3.423   2.244
 9478SOL     OW29332   5.498   3.203   6.476
 9478SOL    HW129333   5.575   3.142   6.455
 9478SOL    HW229334   5.506   3.235   6.570
 9479SOL     OW29335   5.878   6.544   6.540
 9479SOL    HW129336   5.892   6.505   6.449
 9479SOL    HW229337   5.939   6.623   6.553
 9480SOL     OW29338   4.903   4.411   0.104
 9480SOL    HW129339   4.987   4.462   0.086
 9480SOL    HW229340   4.873   4.364   0.021
 9481SOL     OW29341   5.789   3.171   1.267
 9481SOL    HW129342   5.797   3.072   1.277
 9481SOL    HW229343   5.762   3.212   1.354
 9482SOL     OW29344   6.125   1.394   3.143
 9482SOL    HW129345   6.118   1.349   3.232
 9482SOL    HW229346   6.075   1.481   3.146
 9483SOL     OW29347   1.613   2.058   0.586
 9483SOL    HW129348   1.573   2.150   0.585
 9483SOL    HW229349   1.544   1.993   0.617
 9484SOL     OW29350   4.313   1.259   3.015
 9484SOL    HW129351   4.342   1.181   3.070
 9484SOL    HW229352   4.217   1.247   2.987
 9485SOL     OW29353   1.232   6.956   2.005
 9485SOL    HW129354   1.316   6.969   2.058
 9485SOL    HW229355   1.168   6.898   2.056
 9486SOL     OW29356   2.144   4.956   1.558
 9486SOL    HW129357   2.226   5.003   1.589
 9486SOL    HW229358   2.077   4.952   1.633
 9487SOL     OW29359   2.939   3.696   2.638
 9487SOL    HW129360   2.945   3.602   2.673
 9487SOL    HW229361   2.851   3.709   2.594
 9488SOL     OW29362   2.632   6.235   1.053
 9488SOL    HW129363   2.705   6.301   1.061
 9488SOL    HW229364   2.578   6.255   0.970
 9489SOL     OW29365   3.996   4.280   1.444
 9489SOL    HW129366   3.952   4.213   1.384
 9489SOL    HW229367   4.022   4.235   1.530
 9490SOL     OW29368   6.289   6.702   0.146
 9490SOL    HW129369   6.196   6.698   0.183
 9490SOL    HW229370   6.340   6.622   0.177
 9491SOL     OW29371   0.255   4.233   3.723
 9491SOL    HW129372   0.322   4.196   3.658
 9491SOL    HW229373   0.225   4.323   3.692
 9492SOL     OW29374   3.368   3.535   2.774
 9492SOL    HW129375   3.437   3.465   2.756
 9492SOL    HW229376   3.312   3.548   2.692
 9493SOL     OW29377   4.194   5.087   3.948
 9493SOL    HW129378   4.134   5.021   3.994
 9493SOL    HW229379   4.161   5.103   3.855
 9494SOL     OW29380   4.082   4.061   1.067
 9494SOL    HW129381   4.176   4.048   1.098
 9494SOL    HW229382   4.080   4.133   0.997
 9495SOL     OW29383   5.658   1.955   4.362
 9495SOL    HW129384   5.674   1.859   4.337
 9495SOL    HW229385   5.596   1.959   4.440
 9496SOL     OW29386   5.348   4.633   0.885
 9496SOL    HW129387   5.284   4.710   0.882
 9496SOL    HW229388   5.305   4.552   0.846
 9497SOL     OW29389   5.238   4.462   0.171
 9497SOL    HW129390   5.272   4.491   0.261
 9497SOL    HW229391   5.200   4.541   0.123
 9498SOL     OW29392   5.417   0.809   5.992
 9498SOL    HW129393   5.405   0.894   5.941
 9498SOL    HW229394   5.351   0.807   6.067
 9499SOL     OW29395   2.268   3.615   5.814
 9499SOL    HW129396   2.222   3.554   5.879
 9499SOL    HW229397   2.240   3.590   5.721
 9500SOL     OW29398   3.802   6.882   1.485
 9500SOL    HW129399   3.738   6.898   1.560
 9500SOL    HW229400   3.811   6.964   1.429
 9501SOL     OW29401   2.478   1.123   4.681
 9501SOL    HW129402   2.389   1.083   4.663
 9501SOL    HW229403   2.547   1.050   4.684
 9502SOL     OW29404   0.400   1.439   4.293
 9502SOL    HW129405   0.452   1.519   4.265
 9502SOL    HW229406   0.303   1.463   4.301
 9503SOL     OW29407   1.011   1.466   1.744
 9503SOL    HW129408   1.045   1.385   1.790
 9503SOL    HW229409   1.088   1.521   1.712
 9504SOL     OW29410   0.686   1.708   1.239
 9504SOL    HW129411   0.603   1.669   1.199
 9504SOL    HW229412   0.752   1.726   1.166
 9505SOL     OW29413   5.435   4.322   3.424
 9505SOL    HW129414   5.360   4.261   3.449
 9505SOL    HW229415   5.442   4.396   3.491
 9506SOL     OW29416   0.379   3.418   6.702
 9506SOL    HW129417   0.299   3.358   6.716
 9506SOL    HW229418   0.378   3.452   6.608
 9507SOL     OW29419   1.156   1.122   3.429
 9507SOL    HW129420   1.149   1.215   3.464
 9507SOL    HW229421   1.252   1.098   3.417
 9508SOL     OW29422   6.044   2.894   0.782
 9508SOL    HW129423   5.959   2.944   0.767
 9508SOL    HW229424   6.121   2.951   0.753
 9509SOL     OW29425   1.354   0.336   5.708
 9509SOL    HW129426   1.319   0.360   5.617
 9509SOL    HW229427   1.292   0.271   5.752
 9510SOL     OW29428   0.920   4.436   1.676
 9510SOL    HW129429   0.912   4.391   1.587
 9510SOL    HW229430   1.012   4.420   1.714
 9511SOL     OW29431   0.848   1.389   0.357
 9511SOL    HW129432   0.913   1.348   0.421
 9511SOL    HW229433   0.867   1.356   0.264
 9512SOL     OW29434   5.818   1.476   2.557
 9512SOL    HW129435   5.803   1.379   2.541
 9512SOL    HW229436   5.770   1.505   2.640
 9513SOL     OW29437   1.188   3.751   5.033
 9513SOL    HW129438   1.199   3.662   4.990
 9513SOL    HW229439   1.265   3.810   5.008
 9514SOL     OW29440   1.875   3.738   6.792
 9514SOL    HW129441   1.930   3.731   6.875
 9514SOL    HW229442   1.868   3.834   6.764
 9515SOL     OW29443   1.562   5.417   0.243
 9515SOL    HW129444   1.528   5.345   0.183
 9515SOL    HW229445   1.656   5.441   0.218
 9516SOL     OW29446   4.954   3.615   4.499
 9516SOL    HW129447   4.927   3.658   4.586
 9516SOL    HW229448   5.047   3.581   4.507
 9517SOL     OW29449   1.736   4.887   6.986
 9517SOL    HW129450   1.764   4.981   6.971
 9517SOL    HW229451   1.806   4.839   0.017
 9518SOL     OW29452   0.562   2.216   6.489
 9518SOL    HW129453   0.613   2.301   6.472
 9518SOL    HW229454   0.477   2.238   6.537
 9519SOL     OW29455   4.140   3.404   3.727
 9519SOL    HW129456   4.122   3.479   3.790
 9519SOL    HW229457   4.218   3.351   3.760
 9520SOL     OW29458   6.768   1.050   3.091
 9520SOL    HW129459   6.670   1.045   3.073
 9520SOL    HW229460   6.802   1.141   3.068
 9521SOL     OW29461   3.339   4.307   1.355
 9521SOL    HW129462   3.351   4.258   1.441
 9521SOL    HW229463   3.404   4.383   1.350
 9522SOL     OW29464   4.108   6.091   2.670
 9522SOL    HW129465   4.018   6.049   2.659
 9522SOL    HW229466   4.163   6.036   2.733
 9523SOL     OW29467   2.642   5.003   5.131
 9523SOL    HW129468   2.630   4.950   5.047
 9523SOL    HW229469   2.715   4.962   5.186
 9524SOL     OW29470   1.888   2.722   0.705
 9524SOL    HW129471   1.929   2.633   0.724
 9524SOL    HW229472   1.800   2.729   0.753
 9525SOL     OW29473   1.771   2.511   5.124
 9525SOL    HW129474   1.749   2.570   5.046
 9525SOL    HW229475   1.823   2.432   5.092
 9526SOL     OW29476   6.402   4.481   1.532
 9526SOL    HW129477   6.335   4.473   1.458
 9526SOL    HW229478   6.426   4.389   1.565
 9527SOL     OW29479   2.905   0.411   5.233
 9527SOL    HW129480   2.904   0.404   5.333
 9527SOL    HW229481   2.940   0.502   5.207
 9528SOL     OW29482   6.647   1.635   1.012
 9528SOL    HW129483   6.636   1.564   1.082
 9528SOL    HW229484   6.600   1.607   0.928
 9529SOL     OW29485   5.858   3.495   0.012
 9529SOL    HW129486   5.859   3.396   7.019
 9529SOL    HW229487   5.949   3.532   7.018
 9530SOL     OW29488   0.795   3.485   3.752
 9530SOL    HW129489   0.719   3.534   3.795
 9530SOL    HW229490   0.760   3.407   3.701
 9531SOL     OW29491   4.910   4.046   2.101
 9531SOL    HW129492   4.967   4.034   2.183
 9531SOL    HW229493   4.923   3.968   2.040
 9532SOL     OW29494   0.321   5.152   0.765
 9532SOL    HW129495   0.309   5.236   0.712
 9532SOL    HW229496   0.392   5.166   0.834
 9533SOL     OW29497   1.116   5.494   3.892
 9533SOL    HW129498   1.204   5.475   3.937
 9533SOL    HW229499   1.047   5.516   3.961
 9534SOL     OW29500   5.808   4.303   4.931
 9534SOL    HW129501   5.745   4.379   4.942
 9534SOL    HW229502   5.873   4.302   5.008
 9535SOL     OW29503   2.176   0.786   6.195
 9535SOL    HW129504   2.131   0.707   6.154
 9535SOL    HW229505   2.144   0.798   6.289
 9536SOL     OW29506   3.053   3.862   5.206
 9536SOL    HW129507   2.979   3.812   5.251
 9536SOL    HW229508   3.017   3.912   5.127
 9537SOL     OW29509   2.180   0.789   4.255
 9537SOL    HW129510   2.250   0.861   4.260
 9537SOL    HW229511   2.123   0.792   4.337
 9538SOL     OW29512   4.985   0.546   4.506
 9538SOL    HW129513   5.066   0.570   4.453
 9538SOL    HW229514   5.007   0.471   4.569
 9539SOL     OW29515   3.089   4.022   4.358
 9539SOL    HW129516   3.176   4.054   4.397
 9539SOL    HW229517   3.014   4.071   4.402
 9540SOL     OW29518   5.308   4.624   4.291
 9540SOL    HW129519   5.405   4.625   4.317
 9540SOL    HW229520   5.274   4.718   4.291
 9541SOL     OW29521   2.822   0.800   6.093
 9541SOL    HW129522   2.732   0.778   6.129
 9541SOL    HW229523   2.842   0.897   6.108
 9542SOL     OW29524   4.964   4.579   5.113
 9542SOL    HW129525   4.919   4.497   5.078
 9542SOL    HW229526   5.059   4.581   5.084
 9543SOL     OW29527   3.880   0.938   6.403
 9543SOL    HW129528   3.782   0.935   6.423
 9543SOL    HW229529   3.894   0.922   6.305
 9544SOL     OW29530   5.916   2.904   3.858
 9544SOL    HW129531   5.987   2.972   3.839
 9544SOL    HW229532   5.841   2.915   3.794
 9545SOL     OW29533   5.536   5.387   2.625
 9545SOL    HW129534   5.499   5.362   2.536
 9545SOL    HW229535   5.551   5.486   2.630
 9546SOL     OW29536   4.249   1.501   6.231
 9546SOL    HW129537   4.258   1.503   6.131
 9546SOL    HW229538   4.225   1.593   6.264
 9547SOL     OW29539   2.570   5.592   4.099
 9547SOL    HW129540   2.571   5.680   4.052
 9547SOL    HW229541   2.640   5.532   4.060
 9548SOL     OW29542   6.895   4.917   4.974
 9548SOL    HW129543   6.800   4.936   4.998
 9548SOL    HW229544   6.923   4.977   4.899
 9549SOL     OW29545   3.541   1.649   1.790
 9549SOL    HW129546   3.487   1.583   1.843
 9549SOL    HW229547   3.488   1.680   1.711
 9550SOL     OW29548   7.022   1.385   0.313
 9550SOL    HW129549   0.011   1.347   0.404
 9550SOL    HW229550   0.047   1.328   0.246
 9551SOL     OW29551   6.017   3.039   6.008
 9551SOL    HW129552   5.959   2.968   6.047
 9551SOL    HW229553   6.026   3.025   5.909
 9552SOL     OW29554   2.444   5.846   5.394
 9552SOL    HW129555   2.420   5.774   5.328
 9552SOL    HW229556   2.528   5.821   5.441
 9553SOL     OW29557   5.880   2.131   0.044
 9553SOL    HW129558   5.891   2.230   0.034
 9553SOL    HW229559   5.786   2.105   0.025
 9554SOL     OW29560   1.990   6.257   2.889
 9554SOL    HW129561   1.935   6.306   2.821
 9554SOL    HW229562   2.038   6.181   2.846
 9555SOL     OW29563   0.363   1.324   2.653
 9555SOL    HW129564   0.405   1.414   2.661
 9555SOL    HW229565   0.286   1.317   2.718
 9556SOL     OW29566   1.659   4.177   1.815
 9556SOL    HW129567   1.733   4.177   1.882
 9556SOL    HW229568   1.653   4.267   1.772
 9557SOL     OW29569   6.332   6.607   1.227
 9557SOL    HW129570   6.358   6.558   1.311
 9557SOL    HW229571   6.294   6.542   1.161
 9558SOL     OW29572   6.040   6.052   5.836
 9558SOL    HW129573   6.103   6.065   5.913
 9558SOL    HW229574   6.086   6.077   5.751
 9559SOL     OW29575   0.605   5.443   0.495
 9559SOL    HW129576   0.539   5.519   0.495
 9559SOL    HW229577   0.599   5.394   0.408
 9560SOL     OW29578   2.591   1.269   2.546
 9560SOL    HW129579   2.620   1.300   2.637
 9560SOL    HW229580   2.560   1.174   2.553
 9561SOL     OW29581   1.245   0.930   1.504
 9561SOL    HW129582   1.149   0.943   1.481
 9561SOL    HW229583   1.258   0.946   1.602
 9562SOL     OW29584   3.398   0.399   4.932
 9562SOL    HW129585   3.406   0.477   4.993
 9562SOL    HW229586   3.306   0.398   4.892
 9563SOL     OW29587   0.178   6.870   0.626
 9563SOL    HW129588   0.237   6.924   0.566
 9563SOL    HW229589   0.119   6.811   0.570
 9564SOL     OW29590   2.582   1.112   0.420
 9564SOL    HW129591   2.583   1.045   0.494
 9564SOL    HW229592   2.544   1.198   0.453
 9565SOL     OW29593   4.015   0.582   4.717
 9565SOL    HW129594   3.930   0.605   4.766
 9565SOL    HW229595   4.072   0.524   4.775
 9566SOL     OW29596   3.348   5.529   6.821
 9566SOL    HW129597   3.373   5.455   6.883
 9566SOL    HW229598   3.323   5.490   6.732
 9567SOL     OW29599   5.087   4.594   0.392
 9567SOL    HW129600   5.118   4.668   0.452
 9567SOL    HW229601   4.987   4.594   0.389
 9568SOL     OW29602   4.319   2.531   6.424
 9568SOL    HW129603   4.222   2.541   6.404
 9568SOL    HW229604   4.360   2.620   6.439
 9569SOL     OW29605   6.538   0.744   2.594
 9569SOL    HW129606   6.578   0.821   2.544
 9569SOL    HW229607   6.443   0.765   2.616
 9570SOL     OW29608   0.478   3.320   1.423
 9570SOL    HW129609   0.461   3.318   1.324
 9570SOL    HW229610   0.392   3.307   1.472
 9571SOL     OW29611   3.359   3.342   6.238
 9571SOL    HW129612   3.373   3.381   6.329
 9571SOL    HW229613   3.362   3.243   6.243
 9572SOL     OW29614   2.100   5.094   2.054
 9572SOL    HW129615   2.170   5.124   1.989
 9572SOL    HW229616   2.027   5.163   2.059
 9573SOL     OW29617   0.946   2.001   6.803
 9573SOL    HW129618   0.966   2.084   6.750
 9573SOL    HW229619   0.890   2.025   6.882
 9574SOL     OW29620   4.067   3.220   3.257
 9574SOL    HW129621   4.070   3.301   3.198
 9574SOL    HW229622   4.084   3.246   3.352
 9575SOL     OW29623   0.939   0.952   1.676
 9575SOL    HW129624   0.970   0.934   1.770
 9575SOL    HW229625   0.977   1.039   1.645
 9576SOL     OW29626   2.184   1.608   0.643
 9576SOL    HW129627   2.157   1.683   0.704
 9576SOL    HW229628   2.243   1.644   0.571
 9577SOL     OW29629   1.551   0.225   5.978
 9577SOL    HW129630   1.499   0.230   5.893
 9577SOL    HW229631   1.645   0.254   5.962
 9578SOL     OW29632   0.768   3.784   3.170
 9578SOL    HW129633   0.783   3.850   3.243
 9578SOL    HW229634   0.856   3.751   3.136
 9579SOL     OW29635   0.740   4.505   3.326
 9579SOL    HW129636   0.652   4.458   3.327
 9579SOL    HW229637   0.797   4.471   3.400
 9580SOL     OW29638   4.187   3.423   0.854
 9580SOL    HW129639   4.160   3.327   0.853
 9580SOL    HW229640   4.197   3.454   0.949
 9581SOL     OW29641   0.669   6.963   5.657
 9581SOL    HW129642   0.757   7.004   5.678
 9581SOL    HW229643   0.597   0.008   5.669
 9582SOL     OW29644   4.935   4.645   5.415
 9582SOL    HW129645   5.005   4.647   5.343
 9582SOL    HW229646   4.867   4.575   5.394
 9583SOL     OW29647   3.538   3.690   1.462
 9583SOL    HW129648   3.533   3.659   1.366
 9583SOL    HW229649   3.465   3.646   1.514
 9584SOL     OW29650   0.465   4.850   6.474
 9584SOL    HW129651   0.383   4.900   6.445
 9584SOL    HW229652   0.502   4.800   6.396
 9585SOL     OW29653   6.327   6.573   4.367
 9585SOL    HW129654   6.256   6.574   4.297
 9585SOL    HW229655   6.415   6.550   4.325
 9586SOL     OW29656   5.043   4.716   2.235
 9586SOL    HW129657   5.095   4.760   2.161
 9586SOL    HW229658   5.089   4.632   2.263
 9587SOL     OW29659   1.074   0.354   1.279
 9587SOL    HW129660   1.119   0.366   1.190
 9587SOL    HW229661   0.976   0.337   1.265
 9588SOL     OW29662   6.312   0.378   1.626
 9588SOL    HW129663   6.379   0.327   1.571
 9588SOL    HW229664   6.344   0.384   1.720
 9589SOL     OW29665   2.228   4.818   6.645
 9589SOL    HW129666   2.275   4.850   6.727
 9589SOL    HW229667   2.282   4.840   6.564
 9590SOL     OW29668   6.344   2.955   2.214
 9590SOL    HW129669   6.329   2.918   2.306
 9590SOL    HW229670   6.327   2.883   2.147
 9591SOL     OW29671   2.975   5.779   5.661
 9591SOL    HW129672   2.984   5.817   5.754
 9591SOL    HW229673   2.996   5.682   5.663
 9592SOL     OW29674   3.231   4.507   0.033
 9592SOL    HW129675   3.293   4.469   0.101
 9592SOL    HW229676   3.233   4.450   6.974
 9593SOL     OW29677   0.413   0.860   5.782
 9593SOL    HW129678   0.379   0.769   5.760
 9593SOL    HW229679   0.397   0.922   5.706
 9594SOL     OW29680   1.846   5.089   3.318
 9594SOL    HW129681   1.918   5.113   3.384
 9594SOL    HW229682   1.858   4.993   3.292
 9595SOL     OW29683   0.554   3.037   4.914
 9595SOL    HW129684   0.475   3.092   4.886
 9595SOL    HW229685   0.533   2.940   4.900
 9596SOL     OW29686   0.570   5.206   5.965
 9596SOL    HW129687   0.623   5.288   5.988
 9596SOL    HW229688   0.487   5.204   6.020
 9597SOL     OW29689   0.683   4.540   0.900
 9597SOL    HW129690   0.770   4.490   0.906
 9597SOL    HW229691   0.702   4.638   0.887
 9598SOL     OW29692   1.479   4.359   3.749
 9598SOL    HW129693   1.517   4.445   3.782
 9598SOL    HW229694   1.454   4.301   3.827
 9599SOL     OW29695   2.668   0.288   4.594
 9599SOL    HW129696   2.740   0.256   4.655
 9599SOL    HW229697   2.580   0.286   4.642
 9600SOL     OW29698   2.967   6.536   6.654
 9600SOL    HW129699   3.015   6.507   6.571
 9600SOL    HW229700   2.962   6.460   6.719
 9601SOL     OW29701   4.512   3.732   0.670
 9601SOL    HW129702   4.504   3.652   0.611
 9601SOL    HW229703   4.457   3.717   0.753
 9602SOL     OW29704   6.416   4.526   5.665
 9602SOL    HW129705   6.426   4.430   5.639
 9602SOL    HW229706   6.495   4.555   5.719
 9603SOL     OW29707   4.029   1.573   4.615
 9603SOL    HW129708   3.943   1.617   4.639
 9603SOL    HW229709   4.091   1.641   4.574
 9604SOL     OW29710   4.621   0.177   6.900
 9604SOL    HW129711   4.597   0.249   6.834
 9604SOL    HW229712   4.721   0.173   6.910
 9605SOL     OW29713   0.487   5.620   3.896
 9605SOL    HW129714   0.440   5.538   3.861
 9605SOL    HW229715   0.465   5.698   3.838
 9606SOL     OW29716   1.912   5.904   6.828
 9606SOL    HW129717   1.855   5.828   6.797
 9606SOL    HW229718   1.902   5.981   6.766
 9607SOL     OW29719   1.624   1.671   6.984
 9607SOL    HW129720   1.614   1.674   0.061
 9607SOL    HW229721   1.706   1.722   6.958
 9608SOL     OW29722   6.728   5.107   2.826
 9608SOL    HW129723   6.802   5.146   2.771
 9608SOL    HW229724   6.746   5.010   2.842
 9609SOL     OW29725   2.442   3.783   6.863
 9609SOL    HW129726   2.522   3.723   6.863
 9609SOL    HW229727   2.419   3.808   6.769
 9610SOL     OW29728   1.593   4.575   3.841
 9610SOL    HW129729   1.594   4.626   3.927
 9610SOL    HW229730   1.636   4.630   3.769
 9611SOL     OW29731   0.950   6.599   6.756
 9611SOL    HW129732   1.009   6.519   6.764
 9611SOL    HW229733   0.854   6.572   6.766
 9612SOL     OW29734   0.334   4.226   1.386
 9612SOL    HW129735   0.267   4.190   1.451
 9612SOL    HW229736   0.400   4.154   1.364
 9613SOL     OW29737   5.505   0.037   3.247
 9613SOL    HW129738   5.562   0.019   3.167
 9613SOL    HW229739   5.498   0.136   3.261
 9614SOL     OW29740   3.316   2.567   1.056
 9614SOL    HW129741   3.372   2.603   1.131
 9614SOL    HW229742   3.375   2.543   0.979
 9615SOL     OW29743   2.305   6.731   6.678
 9615SOL    HW129744   2.238   6.696   6.613
 9615SOL    HW229745   2.363   6.799   6.633
 9616SOL     OW29746   4.356   4.058   1.133
 9616SOL    HW129747   4.415   3.982   1.107
 9616SOL    HW229748   4.340   4.057   1.232
 9617SOL     OW29749   1.515   3.071   3.125
 9617SOL    HW129750   1.517   3.166   3.095
 9617SOL    HW229751   1.569   3.062   3.209
 9618SOL     OW29752   3.838   6.899   5.952
 9618SOL    HW129753   3.839   6.996   5.976
 9618SOL    HW229754   3.798   6.888   5.861
 9619SOL     OW29755   1.288   6.974   0.237
 9619SOL    HW129756   1.297   6.877   0.217
 9619SOL    HW229757   1.225   6.987   0.313
 9620SOL     OW29758   5.030   1.471   6.388
 9620SOL    HW129759   4.992   1.378   6.389
 9620SOL    HW229760   4.957   1.537   6.406
 9621SOL     OW29761   0.938   1.228   2.057
 9621SOL    HW129762   0.933   1.134   2.091
 9621SOL    HW229763   0.904   1.290   2.128
 9622SOL     OW29764   6.799   1.060   0.235
 9622SOL    HW129765   6.749   1.002   0.171
 9622SOL    HW229766   6.794   1.155   0.204
 9623SOL     OW29767   3.121   4.503   5.661
 9623SOL    HW129768   3.102   4.406   5.670
 9623SOL    HW229769   3.041   4.549   5.621
 9624SOL     OW29770   6.960   4.477   2.781
 9624SOL    HW129771   6.925   4.560   2.738
 9624SOL    HW229772   0.023   4.498   2.827
 9625SOL     OW29773   5.321   5.258   6.958
 9625SOL    HW129774   5.351   5.350   6.985
 9625SOL    HW229775   5.391   5.216   6.900
 9626SOL     OW29776   3.307   5.317   0.161
 9626SOL    HW129777   3.398   5.282   0.138
 9626SOL    HW229778   3.272   5.267   0.241
 9627SOL     OW29779   6.463   6.038   3.998
 9627SOL    HW129780   6.535   6.080   3.943
 9627SOL    HW229781   6.424   5.961   3.947
 9628SOL     OW29782   5.089   4.800   6.725
 9628SOL    HW129783   5.121   4.894   6.714
 9628SOL    HW229784   5.024   4.796   6.801
 9629SOL     OW29785   0.139   0.056   2.479
 9629SOL    HW129786   0.091   0.137   2.446
 9629SOL    HW229787   0.221   0.041   2.424
 9630SOL     OW29788   6.201   6.504   5.589
 9630SOL    HW129789   6.174   6.446   5.512
 9630SOL    HW229790   6.268   6.456   5.645
 9631SOL     OW29791   6.947   6.828   6.852
 9631SOL    HW129792   6.987   6.761   6.789
 9631SOL    HW229793   6.948   6.918   6.809
 9632SOL     OW29794   1.386   6.655   2.661
 9632SOL    HW129795   1.408   6.652   2.759
 9632SOL    HW229796   1.416   6.743   2.623
 9633SOL     OW29797   5.650   5.037   6.552
 9633SOL    HW129798   5.569   5.017   6.496
 9633SOL    HW229799   5.719   4.966   6.537
 9634SOL     OW29800   1.246   5.885   3.843
 9634SOL    HW129801   1.231   5.792   3.809
 9634SOL    HW229802   1.239   5.950   3.768
 9635SOL     OW29803   1.607   4.898   5.715
 9635SOL    HW129804   1.564   4.987   5.730
 9635SOL    HW229805   1.696   4.911   5.672
 9636SOL     OW29806   3.882   1.637   6.308
 9636SOL    HW129807   3.890   1.605   6.402
 9636SOL    HW229808   3.969   1.678   6.280
 9637SOL     OW29809   2.953   2.267   6.115
 9637SOL    HW129810   2.892   2.199   6.074
 9637SOL    HW229811   3.048   2.242   6.096
 9638SOL     OW29812   6.592   3.195   6.446
 9638SOL    HW129813   6.679   3.228   6.410
 9638SOL    HW229814   6.587   3.096   6.437
 9639SOL     OW29815   3.718   1.512   2.103
 9639SOL    HW129816   3.680   1.593   2.057
 9639SOL    HW229817   3.668   1.497   2.189
 9640SOL     OW29818   2.485   2.114   3.177
 9640SOL    HW129819   2.503   2.045   3.106
 9640SOL    HW229820   2.493   2.071   3.267
 9641SOL     OW29821   4.500   6.434   0.561
 9641SOL    HW129822   4.578   6.406   0.617
 9641SOL    HW229823   4.523   6.426   0.464
 9642SOL     OW29824   3.584   6.322   5.118
 9642SOL    HW129825   3.527   6.403   5.109
 9642SOL    HW229826   3.534   6.250   5.166
 9643SOL     OW29827   5.530   5.268   3.971
 9643SOL    HW129828   5.555   5.344   3.912
 9643SOL    HW229829   5.603   5.251   4.037
 9644SOL     OW29830   1.144   4.399   5.598
 9644SOL    HW129831   1.231   4.388   5.550
 9644SOL    HW229832   1.082   4.456   5.543
 9645SOL     OW29833   3.947   5.243   3.047
 9645SOL    HW129834   3.922   5.222   3.141
 9645SOL    HW229835   3.931   5.163   2.989
 9646SOL     OW29836   2.772   4.699   2.236
 9646SOL    HW129837   2.797   4.649   2.153
 9646SOL    HW229838   2.790   4.797   2.223
 9647SOL     OW29839   6.109   5.520   1.478
 9647SOL    HW129840   6.166   5.537   1.397
 9647SOL    HW229841   6.146   5.570   1.556
 9648SOL     OW29842   4.071   2.000   6.767
 9648SOL    HW129843   4.125   2.058   6.707
 9648SOL    HW229844   4.046   1.916   6.719
 9649SOL     OW29845   2.889   6.027   6.820
 9649SOL    HW129846   2.924   6.079   6.742
 9649SOL    HW229847   2.944   6.048   6.901
 9650SOL     OW29848   5.604   4.999   2.774
 9650SOL    HW129849   5.577   4.991   2.870
 9650SOL    HW229850   5.523   5.022   2.719
 9651SOL     OW29851   0.188   0.980   6.296
 9651SOL    HW129852   0.244   0.973   6.214
 9651SOL    HW229853   0.098   1.017   6.272
 9652SOL     OW29854   2.200   4.965   0.652
 9652SOL    HW129855   2.219   4.870   0.627
 9652SOL    HW229856   2.112   4.970   0.700
 9653SOL     OW29857   3.790   5.391   4.754
 9653SOL    HW129858   3.773   5.308   4.807
 9653SOL    HW229859   3.707   5.418   4.706
 9654SOL     OW29860   3.746   3.231   1.263
 9654SOL    HW129861   3.715   3.257   1.172
 9654SOL    HW229862   3.669   3.199   1.318
 9655SOL     OW29863   0.217   1.886   6.880
 9655SOL    HW129864   0.209   1.921   6.974
 9655SOL    HW229865   0.281   1.809   6.879
 9656SOL     OW29866   2.988   2.837   1.160
 9656SOL    HW129867   2.920   2.827   1.087
 9656SOL    HW229868   2.993   2.933   1.187
 9657SOL     OW29869   6.523   0.946   3.916
 9657SOL    HW129870   6.442   0.915   3.866
 9657SOL    HW229871   6.599   0.885   3.897
 9658SOL     OW29872   6.111   2.056   3.010
 9658SOL    HW129873   6.203   2.057   3.049
 9658SOL    HW229874   6.057   1.984   3.055
 9659SOL     OW29875   6.585   4.805   0.136
 9659SOL    HW129876   6.675   4.850   0.139
 9659SOL    HW229877   6.535   4.838   0.056
 9660SOL     OW29878   0.625   5.781   1.505
 9660SOL    HW129879   0.612   5.799   1.408
 9660SOL    HW229880   0.604   5.685   1.525
 9661SOL     OW29881   4.081   6.100   2.251
 9661SOL    HW129882   4.148   6.096   2.177
 9661SOL    HW229883   4.097   6.181   2.307
 9662SOL     OW29884   4.921   2.353   5.249
 9662SOL    HW129885   4.863   2.336   5.170
 9662SOL    HW229886   4.960   2.445   5.242
 9663SOL     OW29887   0.781   5.532   4.509
 9663SOL    HW129888   0.809   5.448   4.463
 9663SOL    HW229889   0.836   5.608   4.476
 9664SOL     OW29890   6.276   6.838   3.751
 9664SOL    HW129891   6.345   6.805   3.688
 9664SOL    HW229892   6.246   6.930   3.723
 9665SOL     OW29893   5.121   5.859   6.193
 9665SOL    HW129894   5.096   5.893   6.103
 9665SOL    HW229895   5.057   5.895   6.261
 9666SOL     OW29896   6.001   4.415   1.668
 9666SOL    HW129897   5.950   4.413   1.582
 9666SOL    HW229898   5.941   4.390   1.744
 9667SOL     OW29899   2.953   3.682   4.029
 9667SOL    HW129900   2.999   3.605   4.072
 9667SOL    HW229901   2.906   3.736   4.098
 9668SOL     OW29902   5.584   1.156   6.882
 9668SOL    HW129903   5.680   1.184   6.880
 9668SOL    HW229904   5.576   1.068   6.930
 9669SOL     OW29905   1.011   0.001   1.786
 9669SOL    HW129906   0.957   0.078   1.819
 9669SOL    HW229907   1.070   6.991   1.859
 9670SOL     OW29908   5.440   4.482   6.400
 9670SOL    HW129909   5.450   4.575   6.365
 9670SOL    HW229910   5.448   4.483   6.500
 9671SOL     OW29911   6.764   5.422   6.580
 9671SOL    HW129912   6.732   5.439   6.673
 9671SOL    HW229913   6.706   5.471   6.515
 9672SOL     OW29914   1.032   5.659   4.727
 9672SOL    HW129915   1.121   5.622   4.700
 9672SOL    HW229916   0.994   5.712   4.651
 9673SOL     OW29917   5.675   4.102   6.877
 9673SOL    HW129918   5.628   4.096   6.965
 9673SOL    HW229919   5.770   4.131   6.892
 9674SOL     OW29920   2.786   6.336   3.696
 9674SOL    HW129921   2.843   6.341   3.614
 9674SOL    HW229922   2.690   6.336   3.669
 9675SOL     OW29923   6.114   2.047   1.152
 9675SOL    HW129924   6.213   2.061   1.162
 9675SOL    HW229925   6.065   2.120   1.199
 9676SOL     OW29926   1.259   3.650   5.375
 9676SOL    HW129927   1.211   3.602   5.302
 9676SOL    HW229928   1.320   3.587   5.422
 9677SOL     OW29929   2.028   5.900   5.547
 9677SOL    HW129930   2.112   5.891   5.600
 9677SOL    HW229931   1.972   5.818   5.559
 9678SOL     OW29932   3.220   3.637   2.560
 9678SOL    HW129933   3.223   3.736   2.551
 9678SOL    HW229934   3.132   3.609   2.598
 9679SOL     OW29935   2.117   1.130   2.624
 9679SOL    HW129936   2.082   1.059   2.563
 9679SOL    HW229937   2.131   1.215   2.573
 9680SOL     OW29938   6.025   0.448   4.066
 9680SOL    HW129939   6.055   0.385   4.137
 9680SOL    HW229940   5.931   0.477   4.085
 9681SOL     OW29941   3.187   1.071   0.498
 9681SOL    HW129942   3.264   1.130   0.522
 9681SOL    HW229943   3.151   1.097   0.408
 9682SOL     OW29944   4.845   5.010   3.829
 9682SOL    HW129945   4.845   5.106   3.857
 9682SOL    HW229946   4.906   4.999   3.750
 9683SOL     OW29947   2.600   5.538   0.955
 9683SOL    HW129948   2.523   5.601   0.961
 9683SOL    HW229949   2.683   5.585   0.986
 9684SOL     OW29950   0.290   2.143   4.925
 9684SOL    HW129951   0.213   2.115   4.982
 9684SOL    HW229952   0.358   2.191   4.982
 9685SOL     OW29953   2.158   3.438   0.700
 9685SOL    HW129954   2.130   3.344   0.678
 9685SOL    HW229955   2.086   3.483   0.752
 9686SOL     OW29956   6.129   2.340   0.989
 9686SOL    HW129957   6.056   2.353   1.056
 9686SOL    HW229958   6.105   2.386   0.904
 9687SOL     OW29959   1.943   1.132   3.883
 9687SOL    HW129960   2.016   1.072   3.852
 9687SOL    HW229961   1.871   1.136   3.813
 9688SOL     OW29962   6.715   2.132   3.337
 9688SOL    HW129963   6.803   2.157   3.296
 9688SOL    HW229964   6.653   2.210   3.335
 9689SOL     OW29965   1.797   6.373   1.072
 9689SOL    HW129966   1.867   6.443   1.055
 9689SOL    HW229967   1.832   6.284   1.042
 9690SOL     OW29968   5.571   5.574   6.356
 9690SOL    HW129969   5.659   5.553   6.398
 9690SOL    HW229970   5.497   5.543   6.416
 9691SOL     OW29971   2.669   4.842   1.610
 9691SOL    HW129972   2.732   4.871   1.682
 9691SOL    HW229973   2.587   4.899   1.611
 9692SOL     OW29974   3.065   5.084   2.355
 9692SOL    HW129975   3.036   5.171   2.395
 9692SOL    HW229976   3.086   5.019   2.429
 9693SOL     OW29977   6.222   5.671   1.235
 9693SOL    HW129978   6.200   5.619   1.152
 9693SOL    HW229979   6.180   5.762   1.228
 9694SOL     OW29980   2.136   1.324   6.167
 9694SOL    HW129981   2.136   1.226   6.146
 9694SOL    HW229982   2.228   1.361   6.152
 9695SOL     OW29983   0.073   3.836   1.786
 9695SOL    HW129984   0.022   3.824   1.701
 9695SOL    HW229985   0.009   3.837   1.863
 9696SOL     OW29986   5.286   2.750   0.804
 9696SOL    HW129987   5.288   2.825   0.871
 9696SOL    HW229988   5.208   2.691   0.822
 9697SOL     OW29989   6.721   5.972   0.221
 9697SOL    HW129990   6.722   5.882   0.264
 9697SOL    HW229991   6.811   5.992   0.182
 9698SOL     OW29992   5.726   1.861   6.245
 9698SOL    HW129993   5.750   1.872   6.342
 9698SOL    HW229994   5.804   1.823   6.196
 9699SOL     OW29995   0.079   4.446   6.994
 9699SOL    HW129996   0.110   4.501   0.049
 9699SOL    HW229997   0.158   4.424   6.936
 9700SOL     OW29998   4.156   5.156   5.105
 9700SOL    HW129999   4.162   5.152   5.006
 9700SOL    HW230000   4.193   5.244   5.137
 9701SOL     OW30001   3.915   4.971   4.838
 9701SOL    HW130002   3.895   4.947   4.933
 9701SOL    HW230003   4.003   5.019   4.834
 9702SOL     OW30004   5.043   0.393   0.401
 9702SOL    HW130005   5.050   0.293   0.402
 9702SOL    HW230006   5.048   0.426   0.306
 9703SOL     OW30007   3.771   5.224   4.012
 9703SOL    HW130008   3.773   5.128   3.986
 9703SOL    HW230009   3.822   5.237   4.096
 9704SOL     OW30010   3.030   1.193   2.365
 9704SOL    HW130011   2.969   1.210   2.442
 9704SOL    HW230012   3.076   1.105   2.379
 9705SOL     OW30013   4.888   5.742   6.861
 9705SOL    HW130014   4.952   5.807   6.821
 9705SOL    HW230015   4.938   5.678   6.920
 9706SOL     OW30016   0.972   2.319   0.657
 9706SOL    HW130017   0.939   2.245   0.599
 9706SOL    HW230018   0.997   2.283   0.747
 9707SOL     OW30019   0.047   4.175   1.555
 9707SOL    HW130020   6.981   4.143   1.586
 9707SOL    HW230021   0.101   4.206   1.633
 9708SOL     OW30022   1.285   2.043   2.825
 9708SOL    HW130023   1.270   1.975   2.897
 9708SOL    HW230024   1.382   2.045   2.801
 9709SOL     OW30025   5.965   5.489   2.504
 9709SOL    HW130026   6.045   5.431   2.521
 9709SOL    HW230027   5.885   5.431   2.486
 9710SOL     OW30028   0.203   1.500   2.391
 9710SOL    HW130029   0.172   1.551   2.311
 9710SOL    HW230030   0.301   1.515   2.405
 9711SOL     OW30031   1.513   3.171   6.215
 9711SOL    HW130032   1.523   3.157   6.116
 9711SOL    HW230033   1.444   3.108   6.250
 9712SOL     OW30034   5.737   4.112   5.679
 9712SOL    HW130035   5.823   4.099   5.728
 9712SOL    HW230036   5.662   4.122   5.746
 9713SOL     OW30037   1.041   4.503   3.491
 9713SOL    HW130038   1.099   4.468   3.564
 9713SOL    HW230039   1.092   4.504   3.405
 9714SOL     OW30040   2.619   1.743   1.857
 9714SOL    HW130041   2.623   1.756   1.758
 9714SOL    HW230042   2.665   1.819   1.903
 9715SOL     OW30043   5.466   4.931   6.054
 9715SOL    HW130044   5.475   4.862   5.982
 9715SOL    HW230045   5.553   4.942   6.101
 9716SOL     OW30046   3.875   2.588   6.547
 9716SOL    HW130047   3.814   2.649   6.496
 9716SOL    HW230048   3.929   2.641   6.612
 9717SOL     OW30049   5.567   5.589   5.614
 9717SOL    HW130050   5.496   5.648   5.650
 9717SOL    HW230051   5.657   5.628   5.633
 9718SOL     OW30052   4.751   2.809   1.756
 9718SOL    HW130053   4.835   2.847   1.717
 9718SOL    HW230054   4.712   2.874   1.821
 9719SOL     OW30055   0.611   2.039   6.977
 9719SOL    HW130056   0.558   2.104   0.008
 9719SOL    HW230057   0.559   1.954   6.967
 9720SOL     OW30058   0.256   5.730   1.432
 9720SOL    HW130059   0.219   5.766   1.517
 9720SOL    HW230060   0.343   5.685   1.450
 9721SOL     OW30061   0.999   2.900   0.988
 9721SOL    HW130062   0.917   2.942   0.951
 9721SOL    HW230063   1.079   2.955   0.965
 9722SOL     OW30064   0.394   0.447   3.464
 9722SOL    HW130065   0.300   0.455   3.429
 9722SOL    HW230066   0.457   0.431   3.388
 9723SOL     OW30067   2.242   6.298   3.749
 9723SOL    HW130068   2.311   6.357   3.792
 9723SOL    HW230069   2.285   6.214   3.717
 9724SOL     OW30070   2.499   3.610   0.386
 9724SOL    HW130071   2.448   3.550   0.447
 9724SOL    HW230072   2.520   3.561   0.301
 9725SOL     OW30073   3.802   4.096   6.702
 9725SOL    HW130074   3.775   4.067   6.610
 9725SOL    HW230075   3.896   4.067   6.720
 9726SOL     OW30076   4.504   6.722   4.065
 9726SOL    HW130077   4.593   6.749   4.103
 9726SOL    HW230078   4.438   6.714   4.140
 9727SOL     OW30079   0.324   3.466   5.226
 9727SOL    HW130080   0.251   3.468   5.157
 9727SOL    HW230081   0.393   3.535   5.204
 9728SOL     OW30082   0.624   0.422   5.981
 9728SOL    HW130083   0.575   0.336   5.969
 9728SOL    HW230084   0.721   0.403   5.996
 9729SOL     OW30085   1.039   4.382   2.965
 9729SOL    HW130086   0.948   4.418   2.984
 9729SOL    HW230087   1.039   4.283   2.979
 9730SOL     OW30088   0.161   3.505   2.572
 9730SOL    HW130089   0.220   3.473   2.498
 9730SOL    HW230090   0.128   3.597   2.551
 9731SOL     OW30091   4.555   3.996   0.825
 9731SOL    HW130092   4.550   3.966   0.920
 9731SOL    HW230093   4.529   4.093   0.819
 9732SOL     OW30094   5.195   5.807   3.180
 9732SOL    HW130095   5.132   5.831   3.106
 9732SOL    HW230096   5.289   5.820   3.149
 9733SOL     OW30097   5.410   4.956   6.411
 9733SOL    HW130098   5.374   4.920   6.497
 9733SOL    HW230099   5.420   4.881   6.345
 9734SOL     OW30100   5.649   2.243   3.616
 9734SOL    HW130101   5.603   2.260   3.529
 9734SOL    HW230102   5.743   2.276   3.611
 9735SOL     OW30103   1.609   4.505   2.664
 9735SOL    HW130104   1.520   4.477   2.628
 9735SOL    HW230105   1.620   4.469   2.757
 9736SOL     OW30106   5.950   1.675   6.475
 9736SOL    HW130107   5.991   1.640   6.391
 9736SOL    HW230108   6.022   1.710   6.536
 9737SOL     OW30109   6.913   3.108   5.077
 9737SOL    HW130110   6.862   3.194   5.069
 9737SOL    HW230111   6.995   3.112   5.020
 9738SOL     OW30112   2.137   0.101   2.927
 9738SOL    HW130113   2.038   0.091   2.942
 9738SOL    HW230114   2.166   0.191   2.961
 9739SOL     OW30115   6.370   5.448   2.056
 9739SOL    HW130116   6.383   5.367   1.999
 9739SOL    HW230117   6.434   5.520   2.028
 9740SOL     OW30118   6.842   2.997   3.992
 9740SOL    HW130119   6.933   3.015   4.028
 9740SOL    HW230120   6.790   3.083   3.990
 9741SOL     OW30121   4.581   1.435   2.504
 9741SOL    HW130122   4.655   1.448   2.439
 9741SOL    HW230123   4.493   1.452   2.459
 9742SOL     OW30124   3.959   0.039   2.153
 9742SOL    HW130125   4.057   0.036   2.132
 9742SOL    HW230126   3.907   0.043   2.068
 9743SOL     OW30127   1.528   1.798   4.701
 9743SOL    HW130128   1.566   1.730   4.764
 9743SOL    HW230129   1.505   1.753   4.615
 9744SOL     OW30130   0.024   0.324   2.995
 9744SOL    HW130131   6.965   0.375   2.969
 9744SOL    HW230132   0.022   0.306   3.093
 9745SOL     OW30133   6.777   3.015   6.154
 9745SOL    HW130134   6.816   3.093   6.105
 9745SOL    HW230135   6.820   3.009   6.244
 9746SOL     OW30136   6.135   0.939   6.169
 9746SOL    HW130137   6.109   0.895   6.083
 9746SOL    HW230138   6.179   1.027   6.148
 9747SOL     OW30139   1.989   0.667   1.687
 9747SOL    HW130140   2.046   0.652   1.606
 9747SOL    HW230141   1.982   0.581   1.738
 9748SOL     OW30142   1.178   1.370   3.525
 9748SOL    HW130143   1.144   1.356   3.618
 9748SOL    HW230144   1.272   1.404   3.530
 9749SOL     OW30145   2.451   2.034   4.880
 9749SOL    HW130146   2.454   1.948   4.931
 9749SOL    HW230147   2.473   2.018   4.784
 9750SOL     OW30148   5.374   4.810   3.364
 9750SOL    HW130149   5.421   4.742   3.308
 9750SOL    HW230150   5.413   4.900   3.345
 9751SOL     OW30151   2.305   1.116   0.750
 9751SOL    HW130152   2.308   1.169   0.665
 9751SOL    HW230153   2.212   1.114   0.785
 9752SOL     OW30154   5.233   0.930   0.212
 9752SOL    HW130155   5.256   1.022   0.244
 9752SOL    HW230156   5.210   0.873   0.290
 9753SOL     OW30157   5.517   5.287   5.223
 9753SOL    HW130158   5.585   5.332   5.164
 9753SOL    HW230159   5.478   5.209   5.174
 9754SOL     OW30160   0.807   1.672   0.302
 9754SOL    HW130161   0.855   1.715   0.225
 9754SOL    HW230162   0.849   1.584   0.322
 9755SOL     OW30163   4.085   3.569   4.997
 9755SOL    HW130164   4.052   3.660   5.023
 9755SOL    HW230165   4.150   3.537   5.066
 9756SOL     OW30166   6.382   3.151   0.456
 9756SOL    HW130167   6.304   3.138   0.395
 9756SOL    HW230168   6.444   3.073   0.447
 9757SOL     OW30169   5.761   3.456   3.193
 9757SOL    HW130170   5.663   3.472   3.183
 9757SOL    HW230171   5.777   3.377   3.252
 9758SOL     OW30172   2.554   0.128   6.682
 9758SOL    HW130173   2.492   0.127   6.761
 9758SOL    HW230174   2.546   0.215   6.634
 9759SOL     OW30175   2.235   0.057   0.128
 9759SOL    HW130176   2.175   7.000   0.132
 9759SOL    HW230177   2.181   0.138   0.106
 9760SOL     OW30178   4.560   3.378   5.316
 9760SOL    HW130179   4.635   3.426   5.271
 9760SOL    HW230180   4.594   3.293   5.356
 9761SOL     OW30181   6.233   6.750   1.820
 9761SOL    HW130182   6.157   6.718   1.764
 9761SOL    HW230183   6.320   6.724   1.778
 9762SOL     OW30184   2.570   2.497   4.313
 9762SOL    HW130185   2.528   2.416   4.270
 9762SOL    HW230186   2.628   2.468   4.389
 9763SOL     OW30187   4.300   2.439   1.315
 9763SOL    HW130188   4.288   2.530   1.276
 9763SOL    HW230189   4.335   2.447   1.408
 9764SOL     OW30190   1.080   2.712   2.665
 9764SOL    HW130191   1.165   2.659   2.669
 9764SOL    HW230192   1.003   2.649   2.655
 9765SOL     OW30193   6.430   1.965   3.417
 9765SOL    HW130194   6.405   2.019   3.497
 9765SOL    HW230195   6.352   1.907   3.391
 9766SOL     OW30196   2.663   0.557   3.129
 9766SOL    HW130197   2.594   0.485   3.129
 9766SOL    HW230198   2.720   0.548   3.210
 9767SOL     OW30199   5.083   2.122   5.321
 9767SOL    HW130200   5.036   2.204   5.287
 9767SOL    HW230201   5.149   2.091   5.253
 9768SOL     OW30202   4.588   1.658   2.058
 9768SOL    HW130203   4.606   1.703   1.971
 9768SOL    HW230204   4.496   1.683   2.090
 9769SOL     OW30205   2.145   1.317   1.919
 9769SOL    HW130206   2.238   1.280   1.925
 9769SOL    HW230207   2.143   1.394   1.855
 9770SOL     OW30208   5.289   0.255   0.027
 9770SOL    HW130209   5.239   0.322   6.995
 9770SOL    HW230210   5.228   0.215   0.095
 9771SOL     OW30211   3.822   5.173   1.495
 9771SOL    HW130212   3.778   5.262   1.504
 9771SOL    HW230213   3.785   5.126   1.415
 9772SOL     OW30214   1.109   6.265   2.495
 9772SOL    HW130215   1.075   6.350   2.455
 9772SOL    HW230216   1.031   6.208   2.522
 9773SOL     OW30217   5.591   6.796   4.110
 9773SOL    HW130218   5.497   6.769   4.129
 9773SOL    HW230219   5.653   6.746   4.171
 9774SOL     OW30220   6.522   4.934   2.223
 9774SOL    HW130221   6.443   4.985   2.190
 9774SOL    HW230222   6.490   4.851   2.270
 9775SOL     OW30223   3.283   1.489   3.618
 9775SOL    HW130224   3.365   1.544   3.633
 9775SOL    HW230225   3.202   1.548   3.624
 9776SOL     OW30226   6.772   5.321   4.340
 9776SOL    HW130227   6.678   5.354   4.353
 9776SOL    HW230228   6.836   5.396   4.353
 9777SOL     OW30229   5.734   5.155   6.270
 9777SOL    HW130230   5.782   5.193   6.349
 9777SOL    HW230231   5.648   5.204   6.257
 9778SOL     OW30232   6.726   0.521   3.769
 9778SOL    HW130233   6.750   0.555   3.860
 9778SOL    HW230234   6.713   0.422   3.772
 9779SOL     OW30235   2.371   1.657   4.829
 9779SOL    HW130236   2.346   1.732   4.891
 9779SOL    HW230237   2.445   1.603   4.869
 9780SOL     OW30238   2.209   1.941   0.982
 9780SOL    HW130239   2.277   1.887   0.932
 9780SOL    HW230240   2.148   1.986   0.918
 9781SOL     OW30241   1.386   3.851   3.610
 9781SOL    HW130242   1.381   3.752   3.598
 9781SOL    HW230243   1.320   3.879   3.680
 9782SOL     OW30244   0.094   0.632   1.295
 9782SOL    HW130245   0.162   0.600   1.361
 9782SOL    HW230246   0.131   0.621   1.202
 9783SOL     OW30247   4.592   1.809   1.827
 9783SOL    HW130248   4.508   1.851   1.861
 9783SOL    HW230249   4.595   1.816   1.728
 9784SOL     OW30250   4.538   1.209   3.765
 9784SOL    HW130251   4.605   1.229   3.693
 9784SOL    HW230252   4.466   1.278   3.763
 9785SOL     OW30253   0.211   4.221   4.710
 9785SOL    HW130254   0.143   4.236   4.782
 9785SOL    HW230255   0.195   4.132   4.668
 9786SOL     OW30256   1.976   4.894   6.593
 9786SOL    HW130257   1.967   4.993   6.609
 9786SOL    HW230258   2.065   4.863   6.625
 9787SOL     OW30259   5.314   3.347   1.025
 9787SOL    HW130260   5.411   3.370   1.015
 9787SOL    HW230261   5.258   3.426   0.999
 9788SOL     OW30262   0.794   0.442   3.826
 9788SOL    HW130263   0.768   0.388   3.906
 9788SOL    HW230264   0.807   0.381   3.747
 9789SOL     OW30265   1.522   5.673   6.557
 9789SOL    HW130266   1.430   5.649   6.588
 9789SOL    HW230267   1.521   5.690   6.459
 9790SOL     OW30268   5.761   3.931   5.452
 9790SOL    HW130269   5.728   4.001   5.515
 9790SOL    HW230270   5.721   3.842   5.476
 9791SOL     OW30271   0.372   0.895   3.077
 9791SOL    HW130272   0.435   0.964   3.113
 9791SOL    HW230273   0.371   0.901   2.977
 9792SOL     OW30274   5.144   4.978   1.202
 9792SOL    HW130275   5.163   5.076   1.200
 9792SOL    HW230276   5.218   4.930   1.249
 9793SOL     OW30277   5.452   5.803   3.451
 9793SOL    HW130278   5.521   5.855   3.501
 9793SOL    HW230279   5.365   5.851   3.456
 9794SOL     OW30280   6.364   3.883   6.377
 9794SOL    HW130281   6.428   3.909   6.305
 9794SOL    HW230282   6.329   3.791   6.359
 9795SOL     OW30283   1.353   2.063   4.138
 9795SOL    HW130284   1.415   2.131   4.177
 9795SOL    HW230285   1.374   2.050   4.041
 9796SOL     OW30286   3.383   3.905   0.544
 9796SOL    HW130287   3.427   3.925   0.631
 9796SOL    HW230288   3.314   3.974   0.524
 9797SOL     OW30289   3.855   3.938   6.409
 9797SOL    HW130290   3.952   3.957   6.396
 9797SOL    HW230291   3.807   3.951   6.322
 9798SOL     OW30292   2.432   0.682   0.580
 9798SOL    HW130293   2.385   0.594   0.571
 9798SOL    HW230294   2.392   0.733   0.656
 9799SOL     OW30295   3.200   3.268   2.932
 9799SOL    HW130296   3.192   3.354   2.881
 9799SOL    HW230297   3.274   3.213   2.893
 9800SOL     OW30298   3.316   6.228   5.572
 9800SOL    HW130299   3.346   6.293   5.642
 9800SOL    HW230300   3.345   6.136   5.597
 9801SOL     OW30301   4.643   4.711   0.331
 9801SOL    HW130302   4.576   4.785   0.338
 9801SOL    HW230303   4.720   4.730   0.392
 9802SOL     OW30304   6.912   2.572   2.444
 9802SOL    HW130305   6.984   2.541   2.507
 9802SOL    HW230306   6.855   2.493   2.419
 9803SOL     OW30307   6.321   1.089   0.282
 9803SOL    HW130308   6.230   1.056   0.305
 9803SOL    HW230309   6.355   1.148   0.355
 9804SOL     OW30310   0.289   5.477   3.510
 9804SOL    HW130311   0.235   5.479   3.594
 9804SOL    HW230312   0.257   5.548   3.447
 9805SOL     OW30313   1.225   5.907   6.549
 9805SOL    HW130314   1.165   5.870   6.478
 9805SOL    HW230315   1.305   5.948   6.507
 9806SOL     OW30316   1.080   1.444   0.983
 9806SOL    HW130317   1.098   1.366   1.043
 9806SOL    HW230318   1.045   1.411   0.895
 9807SOL     OW30319   2.498   2.851   7.020
 9807SOL    HW130320   2.421   2.798   0.033
 9807SOL    HW230321   2.583   2.803   0.016
 9808SOL     OW30322   5.489   0.934   5.541
 9808SOL    HW130323   5.454   0.845   5.573
 9808SOL    HW230324   5.552   0.920   5.465
 9809SOL     OW30325   0.609   1.797   6.046
 9809SOL    HW130326   0.646   1.843   6.126
 9809SOL    HW230327   0.531   1.741   6.073
 9810SOL     OW30328   2.671   2.349   3.172
 9810SOL    HW130329   2.649   2.257   3.204
 9810SOL    HW230330   2.613   2.371   3.093
 9811SOL     OW30331   5.810   5.246   3.694
 9811SOL    HW130332   5.900   5.226   3.733
 9811SOL    HW230333   5.797   5.194   3.610
 9812SOL     OW30334   3.471   2.294   6.246
 9812SOL    HW130335   3.502   2.374   6.297
 9812SOL    HW230336   3.550   2.246   6.208
 9813SOL     OW30337   5.678   6.236   6.715
 9813SOL    HW130338   5.654   6.258   6.809
 9813SOL    HW230339   5.670   6.319   6.659
 9814SOL     OW30340   0.632   0.959   5.890
 9814SOL    HW130341   0.677   1.018   5.823
 9814SOL    HW230342   0.553   0.915   5.849
 9815SOL     OW30343   0.043   1.958   1.999
 9815SOL    HW130344   0.068   1.995   1.909
 9815SOL    HW230345   6.984   1.901   1.989
 9816SOL     OW30346   6.894   1.453   6.829
 9816SOL    HW130347   6.865   1.480   6.737
 9816SOL    HW230348   6.860   1.362   6.850
 9817SOL     OW30349   2.803   5.509   1.838
 9817SOL    HW130350   2.837   5.489   1.746
 9817SOL    HW230351   2.801   5.608   1.852
 9818SOL     OW30352   1.544   1.206   3.358
 9818SOL    HW130353   1.526   1.214   3.456
 9818SOL    HW230354   1.506   1.119   3.325
 9819SOL     OW30355   5.139   3.605   4.857
 9819SOL    HW130356   5.113   3.571   4.948
 9819SOL    HW230357   5.057   3.622   4.803
 9820SOL     OW30358   2.929   2.297   6.890
 9820SOL    HW130359   2.896   2.252   6.808
 9820SOL    HW230360   3.005   2.359   6.866
 9821SOL     OW30361   4.001   1.910   0.844
 9821SOL    HW130362   3.953   1.997   0.833
 9821SOL    HW230363   3.984   1.852   0.764
 9822SOL     OW30364   3.832   5.479   3.858
 9822SOL    HW130365   3.846   5.382   3.878
 9822SOL    HW230366   3.884   5.534   3.922
 9823SOL     OW30367   1.105   0.135   2.401
 9823SOL    HW130368   1.098   0.036   2.383
 9823SOL    HW230369   1.186   0.171   2.356
 9824SOL     OW30370   2.459   5.831   5.868
 9824SOL    HW130371   2.477   5.744   5.823
 9824SOL    HW230372   2.541   5.888   5.862
 9825SOL     OW30373   5.550   5.715   5.126
 9825SOL    HW130374   5.542   5.805   5.084
 9825SOL    HW230375   5.566   5.646   5.055
 9826SOL     OW30376   3.889   6.262   5.122
 9826SOL    HW130377   3.933   6.194   5.180
 9826SOL    HW230378   3.799   6.284   5.158
 9827SOL     OW30379   2.195   4.996   3.278
 9827SOL    HW130380   2.235   5.068   3.222
 9827SOL    HW230381   2.137   5.037   3.349
 9828SOL     OW30382   3.539   2.037   4.902
 9828SOL    HW130383   3.458   2.078   4.859
 9828SOL    HW230384   3.612   2.029   4.835
 9829SOL     OW30385   4.993   6.577   6.342
 9829SOL    HW130386   4.915   6.543   6.395
 9829SOL    HW230387   4.977   6.560   6.245
 9830SOL     OW30388   5.610   1.238   2.116
 9830SOL    HW130389   5.709   1.251   2.114
 9830SOL    HW230390   5.567   1.314   2.166
 9831SOL     OW30391   0.597   4.507   1.738
 9831SOL    HW130392   0.695   4.501   1.754
 9831SOL    HW230393   0.573   4.454   1.657
 9832SOL     OW30394   4.457   5.515   4.169
 9832SOL    HW130395   4.435   5.417   4.169
 9832SOL    HW230396   4.530   5.533   4.235
 9833SOL     OW30397   3.466   3.653   3.193
 9833SOL    HW130398   3.384   3.708   3.179
 9833SOL    HW230399   3.439   3.558   3.211
 9834SOL     OW30400   1.784   4.853   6.197
 9834SOL    HW130401   1.881   4.836   6.180
 9834SOL    HW230402   1.731   4.829   6.116
 9835SOL     OW30403   3.887   3.337   3.975
 9835SOL    HW130404   3.958   3.402   3.948
 9835SOL    HW230405   3.889   3.324   4.074
 9836SOL     OW30406   0.331   4.479   5.050
 9836SOL    HW130407   0.412   4.464   4.995
 9836SOL    HW230408   0.328   4.574   5.081
 9837SOL     OW30409   5.758   1.867   2.270
 9837SOL    HW130410   5.818   1.889   2.347
 9837SOL    HW230411   5.709   1.781   2.289
 9838SOL     OW30412   1.493   6.881   1.095
 9838SOL    HW130413   1.443   6.903   1.178
 9838SOL    HW230414   1.461   6.794   1.058
 9839SOL     OW30415   4.439   0.859   3.544
 9839SOL    HW130416   4.433   0.894   3.637
 9839SOL    HW230417   4.395   0.769   3.539
 9840SOL     OW30418   4.698   1.562   6.771
 9840SOL    HW130419   4.759   1.483   6.773
 9840SOL    HW230420   4.721   1.620   6.693
 9841SOL     OW30421   0.596   4.743   3.558
 9841SOL    HW130422   0.546   4.802   3.622
 9841SOL    HW230423   0.597   4.786   3.467
 9842SOL     OW30424   3.577   3.373   0.049
 9842SOL    HW130425   3.482   3.343   0.041
 9842SOL    HW230426   3.599   3.389   0.145
 9843SOL     OW30427   6.865   0.468   1.917
 9843SOL    HW130428   6.883   0.566   1.933
 9843SOL    HW230429   6.781   0.458   1.863
 9844SOL     OW30430   6.184   0.550   4.665
 9844SOL    HW130431   6.099   0.577   4.619
 9844SOL    HW230432   6.173   0.459   4.704
 9845SOL     OW30433   1.228   2.192   2.530
 9845SOL    HW130434   1.327   2.182   2.533
 9845SOL    HW230435   1.190   2.133   2.459
 9846SOL     OW30436   4.976   1.459   0.714
 9846SOL    HW130437   4.899   1.396   0.713
 9846SOL    HW230438   5.017   1.460   0.805
 9847SOL     OW30439   4.186   3.356   2.061
 9847SOL    HW130440   4.105   3.324   2.111
 9847SOL    HW230441   4.263   3.296   2.083
 9848SOL     OW30442   3.370   4.323   5.576
 9848SOL    HW130443   3.322   4.254   5.630
 9848SOL    HW230444   3.430   4.376   5.636
 9849SOL     OW30445   0.759   6.778   6.463
 9849SOL    HW130446   0.718   6.797   6.373
 9849SOL    HW230447   0.708   6.705   6.508
 9850SOL     OW30448   0.292   0.351   3.942
 9850SOL    HW130449   0.307   0.445   3.973
 9850SOL    HW230450   0.202   0.320   3.972
 9851SOL     OW30451   2.975   5.709   5.029
 9851SOL    HW130452   2.910   5.656   4.974
 9851SOL    HW230453   2.994   5.660   5.114
 9852SOL     OW30454   1.400   1.909   4.943
 9852SOL    HW130455   1.458   1.960   5.006
 9852SOL    HW230456   1.445   1.905   4.853
 9853SOL     OW30457   6.927   3.542   5.148
 9853SOL    HW130458   6.860   3.552   5.074
 9853SOL    HW230459   7.007   3.494   5.115
 9854SOL     OW30460   0.885   5.666   5.268
 9854SOL    HW130461   0.797   5.698   5.304
 9854SOL    HW230462   0.906   5.716   5.184
 9855SOL     OW30463   1.043   3.488   1.107
 9855SOL    HW130464   1.053   3.430   1.188
 9855SOL    HW230465   0.968   3.454   1.051
 9856SOL     OW30466   5.592   4.606   4.345
 9856SOL    HW130467   5.622   4.671   4.415
 9856SOL    HW230468   5.640   4.625   4.259
 9857SOL     OW30469   5.524   2.823   2.919
 9857SOL    HW130470   5.551   2.861   3.008
 9857SOL    HW230471   5.537   2.892   2.848
 9858SOL     OW30472   0.688   6.667   1.925
 9858SOL    HW130473   0.764   6.708   1.874
 9858SOL    HW230474   0.725   6.611   1.999
 9859SOL     OW30475   6.572   4.761   4.937
 9859SOL    HW130476   6.549   4.823   5.011
 9859SOL    HW230477   6.632   4.689   4.970
 9860SOL     OW30478   1.995   2.241   4.738
 9860SOL    HW130479   2.090   2.210   4.742
 9860SOL    HW230480   1.941   2.176   4.685
 9861SOL     OW30481   3.476   1.157   3.853
 9861SOL    HW130482   3.574   1.137   3.861
 9861SOL    HW230483   3.462   1.256   3.852
 9862SOL     OW30484   2.621   4.283   1.119
 9862SOL    HW130485   2.694   4.261   1.054
 9862SOL    HW230486   2.643   4.368   1.167
 9863SOL     OW30487   3.293   5.903   0.928
 9863SOL    HW130488   3.328   5.853   0.849
 9863SOL    HW230489   3.203   5.867   0.952
 9864SOL     OW30490   2.800   7.021   5.261
 9864SOL    HW130491   2.767   7.004   5.168
 9864SOL    HW230492   2.809   6.934   5.310
 9865SOL     OW30493   0.300   6.918   5.081
 9865SOL    HW130494   0.396   6.948   5.078
 9865SOL    HW230495   0.282   6.874   5.169
 9866SOL     OW30496   6.213   4.216   5.222
 9866SOL    HW130497   6.156   4.147   5.177
 9866SOL    HW230498   6.165   4.253   5.301
 9867SOL     OW30499   4.679   2.415   2.915
 9867SOL    HW130500   4.614   2.473   2.866
 9867SOL    HW230501   4.762   2.467   2.935
 9868SOL     OW30502   0.505   3.700   3.606
 9868SOL    HW130503   0.570   3.769   3.638
 9868SOL    HW230504   0.522   3.682   3.509
 9869SOL     OW30505   0.545   2.474   1.382
 9869SOL    HW130506   0.597   2.552   1.417
 9869SOL    HW230507   0.588   2.389   1.413
 9870SOL     OW30508   4.269   0.976   1.834
 9870SOL    HW130509   4.273   1.076   1.841
 9870SOL    HW230510   4.303   0.936   1.919
 9871SOL     OW30511   6.671   2.447   5.895
 9871SOL    HW130512   6.763   2.481   5.878
 9871SOL    HW230513   6.641   2.391   5.819
 9872SOL     OW30514   2.041   5.435   5.515
 9872SOL    HW130515   2.064   5.368   5.444
 9872SOL    HW230516   2.101   5.514   5.507
 9873SOL     OW30517   1.993   2.151   5.323
 9873SOL    HW130518   1.937   2.186   5.399
 9873SOL    HW230519   2.064   2.090   5.359
 9874SOL     OW30520   0.735   2.982   4.720
 9874SOL    HW130521   0.679   2.962   4.640
 9874SOL    HW230522   0.676   2.996   4.799
 9875SOL     OW30523   0.189   6.193   1.571
 9875SOL    HW130524   0.189   6.236   1.661
 9875SOL    HW230525   0.274   6.214   1.524
 9876SOL     OW30526   3.676   7.017   3.791
 9876SOL    HW130527   3.732   6.997   3.710
 9876SOL    HW230528   3.687   6.944   3.858
 9877SOL     OW30529   6.910   4.017   3.816
 9877SOL    HW130530   6.995   3.978   3.781
 9877SOL    HW230531   6.873   4.082   3.750
 9878SOL     OW30532   1.530   3.122   6.943
 9878SOL    HW130533   1.566   3.048   6.886
 9878SOL    HW230534   1.571   3.116   0.011
 9879SOL     OW30535   0.883   4.453   5.892
 9879SOL    HW130536   0.890   4.528   5.827
 9879SOL    HW230537   0.802   4.398   5.870
 9880SOL     OW30538   2.774   0.844   6.485
 9880SOL    HW130539   2.696   0.784   6.506
 9880SOL    HW230540   2.760   0.932   6.531
 9881SOL     OW30541   5.707   0.332   4.380
 9881SOL    HW130542   5.724   0.431   4.374
 9881SOL    HW230543   5.768   0.284   4.318
 9882SOL     OW30544   3.490   3.445   4.326
 9882SOL    HW130545   3.518   3.521   4.268
 9882SOL    HW230546   3.488   3.361   4.273
 9883SOL     OW30547   1.805   5.836   2.183
 9883SOL    HW130548   1.885   5.776   2.177
 9883SOL    HW230549   1.834   5.931   2.190
 9884SOL     OW30550   2.127   3.097   6.954
 9884SOL    HW130551   2.198   3.117   6.885
 9884SOL    HW230552   2.093   3.182   6.992
 9885SOL     OW30553   0.402   3.060   3.910
 9885SOL    HW130554   0.349   3.027   3.832
 9885SOL    HW230555   0.371   3.151   3.936
 9886SOL     OW30556   6.394   6.413   1.737
 9886SOL    HW130557   6.310   6.382   1.783
 9886SOL    HW230558   6.471   6.357   1.769
 9887SOL     OW30559   4.013   6.796   0.657
 9887SOL    HW130560   4.079   6.764   0.589
 9887SOL    HW230561   3.984   6.889   0.633
 9888SOL     OW30562   5.916   5.784   2.898
 9888SOL    HW130563   5.973   5.702   2.894
 9888SOL    HW230564   5.946   5.841   2.974
 9889SOL     OW30565   0.413   4.602   3.336
 9889SOL    HW130566   0.425   4.661   3.416
 9889SOL    HW230567   0.494   4.545   3.324
 9890SOL     OW30568   6.530   2.974   0.773
 9890SOL    HW130569   6.556   2.883   0.805
 9890SOL    HW230570   6.512   3.034   0.851
 9891SOL     OW30571   5.365   4.798   1.285
 9891SOL    HW130572   5.317   4.740   1.219
 9891SOL    HW230573   5.446   4.751   1.318
 9892SOL     OW30574   1.995   4.839   3.851
 9892SOL    HW130575   2.019   4.803   3.940
 9892SOL    HW230576   1.898   4.864   3.849
 9893SOL     OW30577   6.359   5.873   3.075
 9893SOL    HW130578   6.424   5.935   3.031
 9893SOL    HW230579   6.391   5.850   3.167
 9894SOL     OW30580   3.235   2.242   6.115
 9894SOL    HW130581   3.224   2.298   6.032
 9894SOL    HW230582   3.309   2.279   6.170
 9895SOL     OW30583   5.782   2.225   6.481
 9895SOL    HW130584   5.714   2.162   6.444
 9895SOL    HW230585   5.760   2.246   6.576
 9896SOL     OW30586   3.991   3.166   0.756
 9896SOL    HW130587   3.948   3.201   0.672
 9896SOL    HW230588   4.066   3.105   0.731
 9897SOL     OW30589   5.177   1.468   2.921
 9897SOL    HW130590   5.099   1.529   2.908
 9897SOL    HW230591   5.262   1.518   2.903
 9898SOL     OW30592   1.143   4.770   5.477
 9898SOL    HW130593   1.199   4.813   5.406
 9898SOL    HW230594   1.046   4.791   5.460
 9899SOL     OW30595   5.661   4.424   2.188
 9899SOL    HW130596   5.694   4.495   2.125
 9899SOL    HW230597   5.723   4.418   2.266
 9900SOL     OW30598   1.321   1.946   3.139
 9900SOL    HW130599   1.226   1.917   3.154
 9900SOL    HW230600   1.325   2.046   3.138
 9901SOL     OW30601   1.585   1.872   6.315
 9901SOL    HW130602   1.496   1.842   6.282
 9901SOL    HW230603   1.655   1.807   6.285
 9902SOL     OW30604   3.841   3.263   0.571
 9902SOL    HW130605   3.860   3.172   0.533
 9902SOL    HW230606   3.770   3.307   0.517
 9903SOL     OW30607   4.898   0.817   2.466
 9903SOL    HW130608   4.964   0.742   2.466
 9903SOL    HW230609   4.806   0.781   2.451
 9904SOL     OW30610   6.991   3.612   6.575
 9904SOL    HW130611   7.017   3.517   6.591
 9904SOL    HW230612   6.992   3.631   6.477
 9905SOL     OW30613   1.525   6.455   0.091
 9905SOL    HW130614   1.584   6.517   0.143
 9905SOL    HW230615   1.563   6.442   7.022
 9906SOL     OW30616   1.613   3.187   6.486
 9906SOL    HW130617   1.572   3.235   6.408
 9906SOL    HW230618   1.548   3.187   6.562
 9907SOL     OW30619   2.813   6.182   3.921
 9907SOL    HW130620   2.830   6.232   3.836
 9907SOL    HW230621   2.716   6.191   3.946
 9908SOL     OW30622   0.783   3.045   6.551
 9908SOL    HW130623   0.862   3.106   6.549
 9908SOL    HW230624   0.756   3.028   6.645
 9909SOL     OW30625   3.055   0.812   3.106
 9909SOL    HW130626   2.961   0.846   3.106
 9909SOL    HW230627   3.067   0.744   3.035
 9910SOL     OW30628   0.564   5.065   1.078
 9910SOL    HW130629   0.489   5.014   1.035
 9910SOL    HW230630   0.576   5.152   1.031
 9911SOL     OW30631   5.137   4.969   2.516
 9911SOL    HW130632   5.174   4.904   2.448
 9911SOL    HW230633   5.057   4.928   2.560
 9912SOL     OW30634   3.744   0.790   2.771
 9912SOL    HW130635   3.723   0.799   2.673
 9912SOL    HW230636   3.805   0.713   2.785
 9913SOL     OW30637   5.695   2.616   2.598
 9913SOL    HW130638   5.615   2.562   2.625
 9913SOL    HW230639   5.683   2.647   2.504
 9914SOL     OW30640   1.654   0.777   5.703
 9914SOL    HW130641   1.740   0.791   5.752
 9914SOL    HW230642   1.652   0.834   5.621
 9915SOL     OW30643   5.698   3.739   3.984
 9915SOL    HW130644   5.626   3.676   4.014
 9915SOL    HW230645   5.661   3.832   3.980
 9916SOL     OW30646   2.336   2.743   3.030
 9916SOL    HW130647   2.388   2.826   3.009
 9916SOL    HW230648   2.397   2.664   3.026
 9917SOL     OW30649   3.539   3.747   4.888
 9917SOL    HW130650   3.450   3.761   4.846
 9917SOL    HW230651   3.595   3.829   4.877
 9918SOL     OW30652   1.889   1.507   6.519
 9918SOL    HW130653   1.902   1.606   6.522
 9918SOL    HW230654   1.792   1.486   6.509
 9919SOL     OW30655   1.887   5.509   2.722
 9919SOL    HW130656   1.979   5.503   2.682
 9919SOL    HW230657   1.827   5.560   2.660
 9920SOL     OW30658   3.631   6.805   2.084
 9920SOL    HW130659   3.710   6.763   2.129
 9920SOL    HW230660   3.616   6.761   1.995
 9921SOL     OW30661   6.060   6.511   3.598
 9921SOL    HW130662   6.130   6.449   3.632
 9921SOL    HW230663   6.102   6.596   3.565
 9922SOL     OW30664   4.697   4.282   0.805
 9922SOL    HW130665   4.716   4.281   0.903
 9922SOL    HW230666   4.758   4.218   0.758
 9923SOL     OW30667   6.733   2.523   6.498
 9923SOL    HW130668   6.812   2.472   6.462
 9923SOL    HW230669   6.711   2.597   6.435
 9924SOL     OW30670   5.712   1.378   1.822
 9924SOL    HW130671   5.711   1.425   1.910
 9924SOL    HW230672   5.655   1.296   1.827
 9925SOL     OW30673   1.766   3.715   5.624
 9925SOL    HW130674   1.737   3.785   5.559
 9925SOL    HW230675   1.793   3.632   5.575
 9926SOL     OW30676   2.460   2.041   1.072
 9926SOL    HW130677   2.467   2.110   1.144
 9926SOL    HW230678   2.367   2.042   1.034
 9927SOL     OW30679   0.999   2.088   1.974
 9927SOL    HW130680   1.070   2.043   2.029
 9927SOL    HW230681   1.028   2.181   1.951
 9928SOL     OW30682   6.937   4.779   1.970
 9928SOL    HW130683   6.932   4.822   1.880
 9928SOL    HW230684   6.953   4.681   1.960
 9929SOL     OW30685   3.118   4.380   5.340
 9929SOL    HW130686   3.097   4.288   5.373
 9929SOL    HW230687   3.207   4.378   5.293
 9930SOL     OW30688   0.131   0.851   5.589
 9930SOL    HW130689   0.164   0.773   5.536
 9930SOL    HW230690   0.072   0.908   5.532
 9931SOL     OW30691   0.652   6.159   4.524
 9931SOL    HW130692   0.564   6.112   4.517
 9931SOL    HW230693   0.698   6.133   4.609
 9932SOL     OW30694   1.834   1.969   0.776
 9932SOL    HW130695   1.803   1.877   0.802
 9932SOL    HW230696   1.823   1.980   0.677
 9933SOL     OW30697   2.568   0.758   3.591
 9933SOL    HW130698   2.596   0.666   3.564
 9933SOL    HW230699   2.487   0.784   3.539
 9934SOL     OW30700   5.721   1.846   0.278
 9934SOL    HW130701   5.627   1.880   0.286
 9934SOL    HW230702   5.722   1.763   0.222
 9935SOL     OW30703   2.816   2.493   0.985
 9935SOL    HW130704   2.849   2.453   1.070
 9935SOL    HW230705   2.812   2.592   0.994
 9936SOL     OW30706   5.191   4.895   6.120
 9936SOL    HW130707   5.282   4.932   6.141
 9936SOL    HW230708   5.190   4.798   6.140
 9937SOL     OW30709   6.915   0.397   3.269
 9937SOL    HW130710   6.831   0.363   3.310
 9937SOL    HW230711   6.902   0.491   3.239
 9938SOL     OW30712   5.862   0.817   4.609
 9938SOL    HW130713   5.889   0.721   4.614
 9938SOL    HW230714   5.813   0.833   4.523
 9939SOL     OW30715   1.330   3.677   0.700
 9939SOL    HW130716   1.254   3.613   0.712
 9939SOL    HW230717   1.411   3.641   0.745
 9940SOL     OW30718   6.951   6.956   3.512
 9940SOL    HW130719   6.969   6.874   3.565
 9940SOL    HW230720   6.890   6.934   3.436
 9941SOL     OW30721   3.732   5.005   5.749
 9941SOL    HW130722   3.717   4.938   5.676
 9941SOL    HW230723   3.756   5.093   5.708
 9942SOL     OW30724   4.837   5.120   2.321
 9942SOL    HW130725   4.855   5.022   2.332
 9942SOL    HW230726   4.922   5.171   2.335
 9943SOL     OW30727   1.400   3.946   6.141
 9943SOL    HW130728   1.440   3.869   6.191
 9943SOL    HW230729   1.308   3.922   6.111
 9944SOL     OW30730   0.835   5.103   6.310
 9944SOL    HW130731   0.845   5.019   6.364
 9944SOL    HW230732   0.753   5.152   6.341
 9945SOL     OW30733   6.427   3.828   6.667
 9945SOL    HW130734   6.525   3.839   6.681
 9945SOL    HW230735   6.403   3.855   6.574
 9946SOL     OW30736   5.913   0.098   3.081
 9946SOL    HW130737   5.957   0.176   3.036
 9946SOL    HW230738   5.820   0.087   3.045
 9947SOL     OW30739   1.311   1.796   4.206
 9947SOL    HW130740   1.339   1.889   4.180
 9947SOL    HW230741   1.286   1.745   4.124
 9948SOL     OW30742   6.609   6.439   4.795
 9948SOL    HW130743   6.527   6.477   4.752
 9948SOL    HW230744   6.649   6.369   4.735
 9949SOL     OW30745   6.926   4.617   4.344
 9949SOL    HW130746   6.886   4.707   4.361
 9949SOL    HW230747   6.932   4.602   4.245
 9950SOL     OW30748   6.381   4.578   6.413
 9950SOL    HW130749   6.347   4.484   6.414
 9950SOL    HW230750   6.307   4.640   6.437
 9951SOL     OW30751   1.291   2.928   2.706
 9951SOL    HW130752   1.370   2.876   2.673
 9951SOL    HW230753   1.226   2.865   2.748
 9952SOL     OW30754   0.982   3.786   1.734
 9952SOL    HW130755   0.911   3.716   1.744
 9952SOL    HW230756   1.059   3.762   1.793
 9953SOL     OW30757   6.399   2.925   3.877
 9953SOL    HW130758   6.464   2.993   3.843
 9953SOL    HW230759   6.426   2.834   3.848
 9954SOL     OW30760   2.545   1.864   5.094
 9954SOL    HW130761   2.546   1.849   5.193
 9954SOL    HW230762   2.632   1.905   5.066
 9955SOL     OW30763   4.306   3.274   6.904
 9955SOL    HW130764   4.207   3.287   6.916
 9955SOL    HW230765   4.322   3.196   6.843
 9956SOL     OW30766   0.633   4.402   2.108
 9956SOL    HW130767   0.556   4.399   2.172
 9956SOL    HW230768   0.704   4.339   2.140
 9957SOL     OW30769   5.743   6.824   1.424
 9957SOL    HW130770   5.738   6.873   1.337
 9957SOL    HW230771   5.675   6.862   1.487
 9958SOL     OW30772   3.405   5.227   6.605
 9958SOL    HW130773   3.432   5.133   6.581
 9958SOL    HW230774   3.360   5.227   6.694
 9959SOL     OW30775   4.354   3.495   1.648
 9959SOL    HW130776   4.320   3.499   1.554
 9959SOL    HW230777   4.324   3.410   1.691
 9960SOL     OW30778   6.404   6.482   1.454
 9960SOL    HW130779   6.471   6.488   1.528
 9960SOL    HW230780   6.336   6.413   1.476
 9961SOL     OW30781   1.436   4.673   1.960
 9961SOL    HW130782   1.456   4.591   2.013
 9961SOL    HW230783   1.343   4.666   1.922
 9962SOL     OW30784   3.539   0.126   1.843
 9962SOL    HW130785   3.556   0.083   1.932
 9962SOL    HW230786   3.603   0.203   1.831
 9963SOL     OW30787   2.990   2.281   0.654
 9963SOL    HW130788   3.025   2.192   0.627
 9963SOL    HW230789   3.035   2.310   0.739
 9964SOL     OW30790   3.998   4.939   5.869
 9964SOL    HW130791   3.919   4.995   5.844
 9964SOL    HW230792   4.045   4.908   5.786
 9965SOL     OW30793   3.622   5.578   5.076
 9965SOL    HW130794   3.557   5.524   5.022
 9965SOL    HW230795   3.690   5.619   5.015
 9966SOL     OW30796   2.878   4.962   2.182
 9966SOL    HW130797   2.940   4.999   2.251
 9966SOL    HW230798   2.801   5.025   2.170
 9967SOL     OW30799   6.466   6.083   2.929
 9967SOL    HW130800   6.417   6.163   2.965
 9967SOL    HW230801   6.447   6.074   2.831
 9968SOL     OW30802   4.338   5.772   0.204
 9968SOL    HW130803   4.424   5.738   0.165
 9968SOL    HW230804   4.261   5.723   0.162
 9969SOL     OW30805   1.051   4.205   4.364
 9969SOL    HW130806   1.127   4.252   4.409
 9969SOL    HW230807   0.964   4.242   4.399
 9970SOL     OW30808   5.878   5.002   1.654
 9970SOL    HW130809   5.938   4.938   1.607
 9970SOL    HW230810   5.924   5.091   1.661
 9971SOL     OW30811   1.179   2.709   1.534
 9971SOL    HW130812   1.183   2.806   1.556
 9971SOL    HW230813   1.091   2.687   1.492
 9972SOL     OW30814   3.225   4.319   0.955
 9972SOL    HW130815   3.128   4.339   0.965
 9972SOL    HW230816   3.271   4.397   0.911
 9973SOL     OW30817   4.635   2.595   5.201
 9973SOL    HW130818   4.552   2.622   5.250
 9973SOL    HW230819   4.712   2.593   5.265
 9974SOL     OW30820   6.770   1.892   3.163
 9974SOL    HW130821   6.785   1.875   3.066
 9974SOL    HW230822   6.722   1.978   3.175
 9975SOL     OW30823   0.621   5.076   6.562
 9975SOL    HW130824   0.569   4.993   6.541
 9975SOL    HW230825   0.558   5.154   6.570
 9976SOL     OW30826   1.109   5.090   5.552
 9976SOL    HW130827   1.143   5.179   5.582
 9976SOL    HW230828   1.070   5.042   5.630
 9977SOL     OW30829   5.103   4.867   5.830
 9977SOL    HW130830   5.017   4.857   5.781
 9977SOL    HW230831   5.085   4.881   5.927
 9978SOL     OW30832   0.150   2.011   5.796
 9978SOL    HW130833   0.109   1.951   5.727
 9978SOL    HW230834   0.079   2.041   5.861
 9979SOL     OW30835   5.270   4.098   5.918
 9979SOL    HW130836   5.181   4.124   5.958
 9979SOL    HW230837   5.280   3.999   5.922
 9980SOL     OW30838   2.064   0.505   0.699
 9980SOL    HW130839   1.984   0.446   0.712
 9980SOL    HW230840   2.094   0.501   0.604
 9981SOL     OW30841   1.695   2.179   1.188
 9981SOL    HW130842   1.603   2.151   1.216
 9981SOL    HW230843   1.702   2.279   1.192
 9982SOL     OW30844   2.053   0.842   4.514
 9982SOL    HW130845   2.084   0.778   4.584
 9982SOL    HW230846   1.953   0.844   4.513
 9983SOL     OW30847   6.724   2.330   2.402
 9983SOL    HW130848   6.772   2.304   2.486
 9983SOL    HW230849   6.629   2.351   2.423
 9984SOL     OW30850   0.004   5.882   0.549
 9984SOL    HW130851   7.017   5.901   0.647
 9984SOL    HW230852   0.092   5.839   0.532
 9985SOL     OW30853   2.982   5.321   1.198
 9985SOL    HW130854   3.070   5.361   1.175
 9985SOL    HW230855   2.920   5.392   1.231
 9986SOL     OW30856   6.344   4.727   0.835
 9986SOL    HW130857   6.427   4.672   0.834
 9986SOL    HW230858   6.307   4.734   0.742
 9987SOL     OW30859   4.988   2.915   1.687
 9987SOL    HW130860   5.064   2.851   1.695
 9987SOL    HW230861   4.991   2.980   1.762
 9988SOL     OW30862   0.135   5.248   4.429
 9988SOL    HW130863   0.076   5.249   4.510
 9988SOL    HW230864   0.100   5.182   4.363
 9989SOL     OW30865   6.053   3.827   2.167
 9989SOL    HW130866   6.089   3.863   2.081
 9989SOL    HW230867   6.035   3.903   2.230
 9990SOL     OW30868   1.138   6.301   3.167
 9990SOL    HW130869   1.192   6.252   3.236
 9990SOL    HW230870   1.134   6.398   3.190
 9991SOL     OW30871   2.170   3.346   4.188
 9991SOL    HW130872   2.107   3.422   4.207
 9991SOL    HW230873   2.186   3.295   4.273
 9992SOL     OW30874   3.177   3.623   0.902
 9992SOL    HW130875   3.088   3.578   0.914
 9992SOL    HW230876   3.247   3.554   0.883
 9993SOL     OW30877   3.287   6.225   3.998
 9993SOL    HW130878   3.303   6.287   4.075
 9993SOL    HW230879   3.196   6.185   4.005
 9994SOL     OW30880   6.914   3.890   3.402
 9994SOL    HW130881   6.864   3.815   3.360
 9994SOL    HW230882   6.903   3.973   3.349
 9995SOL     OW30883   3.462   0.931   3.059
 9995SOL    HW130884   3.560   0.923   3.041
 9995SOL    HW230885   3.418   0.982   2.985
 9996SOL     OW30886   3.160   3.886   0.989
 9996SOL    HW130887   3.152   3.805   0.931
 9996SOL    HW230888   3.253   3.894   1.023
 9997SOL     OW30889   5.050   1.567   3.336
 9997SOL    HW130890   5.026   1.657   3.372
 9997SOL    HW230891   5.147   1.565   3.313
 9998SOL     OW30892   4.994   3.920   2.421
 9998SOL    HW130893   4.963   4.015   2.409
 9998SOL    HW230894   5.094   3.918   2.417
 9999SOL     OW30895   0.179   6.476   4.064
 9999SOL    HW130896   0.179   6.574   4.045
 9999SOL    HW230897   0.270   6.438   4.044
10000SOL     OW30898   5.845   1.749   1.482
10000SOL    HW130899   5.871   1.706   1.569
10000SOL    HW230900   5.889   1.701   1.407
10001SOL     OW30901   3.474   6.511   2.057
10001SOL    HW130902   3.400   6.538   1.996
10001SOL    HW230903   3.555   6.567   2.036
10002SOL     OW30904   2.365   1.446   0.808
10002SOL    HW130905   2.410   1.505   0.876
10002SOL    HW230906   2.267   1.464   0.808
10003SOL     OW30907   3.246   1.545   2.550
10003SOL    HW130908   3.265   1.643   2.539
10003SOL    HW230909   3.149   1.528   2.529
10004SOL     OW30910   5.195   3.870   4.926
10004SOL    HW130911   5.199   3.772   4.905
10004SOL    HW230912   5.283   3.899   4.964
10005SOL     OW30913   3.499   5.396   2.634
10005SOL    HW130914   3.542   5.446   2.708
10005SOL    HW230915   3.451   5.460   2.573
10006SOL     OW30916   5.260   0.044   5.357
10006SOL    HW130917   5.254   0.143   5.372
10006SOL    HW230918   5.265   0.026   5.259
10007SOL     OW30919   1.064   3.416   4.736
10007SOL    HW130920   1.057   3.322   4.768
10007SOL    HW230921   0.973   3.452   4.716
10008SOL     OW30922   5.215   2.184   3.686
10008SOL    HW130923   5.219   2.088   3.715
10008SOL    HW230924   5.296   2.232   3.719
10009SOL     OW30925   1.837   4.607   1.555
10009SOL    HW130926   1.870   4.661   1.632
10009SOL    HW230927   1.900   4.530   1.539
10010SOL     OW30928   3.077   5.811   0.153
10010SOL    HW130929   3.145   5.777   0.089
10010SOL    HW230930   3.114   5.810   0.246
10011SOL     OW30931   0.192   4.228   6.817
10011SOL    HW130932   0.217   4.131   6.807
10011SOL    HW230933   0.135   4.255   6.740
10012SOL     OW30934   5.098   0.161   2.380
10012SOL    HW130935   5.148   0.074   2.378
10012SOL    HW230936   5.064   0.178   2.473
10013SOL     OW30937   1.020   3.440   3.883
10013SOL    HW130938   0.950   3.476   3.820
10013SOL    HW230939   1.080   3.515   3.911
10014SOL     OW30940   0.863   6.778   1.749
10014SOL    HW130941   0.908   6.732   1.672
10014SOL    HW230942   0.907   6.866   1.765
10015SOL     OW30943   4.025   5.151   0.332
10015SOL    HW130944   4.112   5.196   0.355
10015SOL    HW230945   3.953   5.186   0.391
10016SOL     OW30946   2.407   1.183   4.965
10016SOL    HW130947   2.435   1.177   4.869
10016SOL    HW230948   2.313   1.216   4.970
10017SOL     OW30949   1.548   1.409   2.825
10017SOL    HW130950   1.487   1.371   2.756
10017SOL    HW230951   1.639   1.423   2.786
10018SOL     OW30952   6.251   4.080   5.539
10018SOL    HW130953   6.344   4.106   5.565
10018SOL    HW230954   6.255   4.008   5.470
10019SOL     OW30955   0.148   1.609   3.148
10019SOL    HW130956   0.062   1.586   3.103
10019SOL    HW230957   0.224   1.568   3.097
10020SOL     OW30958   0.304   0.876   1.983
10020SOL    HW130959   0.394   0.874   1.939
10020SOL    HW230960   0.274   0.783   2.004
10021SOL     OW30961   0.658   3.113   2.372
10021SOL    HW130962   0.647   3.015   2.392
10021SOL    HW230963   0.748   3.143   2.403
10022SOL     OW30964   3.208   5.846   0.380
10022SOL    HW130965   3.143   5.892   0.442
10022SOL    HW230966   3.269   5.788   0.434
10023SOL     OW30967   2.213   5.390   4.974
10023SOL    HW130968   2.231   5.456   4.901
10023SOL    HW230969   2.275   5.407   5.051
10024SOL     OW30970   1.047   5.091   3.051
10024SOL    HW130971   1.112   5.166   3.048
10024SOL    HW230972   1.089   5.012   3.097
10025SOL     OW30973   1.461   3.280   2.080
10025SOL    HW130974   1.451   3.322   1.990
10025SOL    HW230975   1.557   3.256   2.095
10026SOL     OW30976   4.910   6.855   3.585
10026SOL    HW130977   4.948   6.770   3.622
10026SOL    HW230978   4.952   6.933   3.632
10027SOL     OW30979   0.757   2.029   5.052
10027SOL    HW130980   0.683   2.030   5.119
10027SOL    HW230981   0.777   1.934   5.026
10028SOL     OW30982   2.245   1.581   1.411
10028SOL    HW130983   2.327   1.525   1.396
10028SOL    HW230984   2.235   1.645   1.335
10029SOL     OW30985   1.448   3.272   3.446
10029SOL    HW130986   1.363   3.295   3.493
10029SOL    HW230987   1.484   3.353   3.401
10030SOL     OW30988   3.375   0.613   5.146
10030SOL    HW130989   3.325   0.657   5.071
10030SOL    HW230990   3.394   0.680   5.218
10031SOL     OW30991   5.175   5.166   4.452
10031SOL    HW130992   5.246   5.098   4.472
10031SOL    HW230993   5.211   5.258   4.470
10032SOL     OW30994   4.220   0.225   5.794
10032SOL    HW130995   4.134   0.276   5.781
10032SOL    HW230996   4.210   0.162   5.871
10033SOL     OW30997   4.376   2.203   4.579
10033SOL    HW130998   4.306   2.251   4.632
10033SOL    HW230999   4.463   2.253   4.586
10034SOL     OW31000   2.637   0.844   3.828
10034SOL    HW131001   2.623   0.825   3.730
10034SOL    HW231002   2.734   0.842   3.848
10035SOL     OW31003   6.181   4.151   0.732
10035SOL    HW131004   6.244   4.225   0.754
10035SOL    HW231005   6.214   4.101   0.652
10036SOL     OW31006   0.187   0.578   0.302
10036SOL    HW131007   0.149   0.547   0.389
10036SOL    HW231008   0.192   0.502   0.238
10037SOL     OW31009   6.048   0.229   6.902
10037SOL    HW131010   5.988   0.170   6.848
10037SOL    HW231011   6.055   0.318   6.857
10038SOL     OW31012   4.328   7.021   6.280
10038SOL    HW131013   4.423   0.001   6.250
10038SOL    HW231014   4.306   6.928   6.311
10039SOL     OW31015   5.389   6.920   5.576
10039SOL    HW131016   5.484   6.952   5.570
10039SOL    HW231017   5.331   6.977   5.516
10040SOL     OW31018   4.401   6.039   5.880
10040SOL    HW131019   4.340   6.117   5.887
10040SOL    HW231020   4.385   5.991   5.793
10041SOL     OW31021   5.315   5.568   6.521
10041SOL    HW131022   5.265   5.506   6.581
10041SOL    HW231023   5.268   5.576   6.433
10042SOL     OW31024   0.737   1.109   5.459
10042SOL    HW131025   0.693   1.022   5.482
10042SOL    HW231026   0.732   1.123   5.360
10043SOL     OW31027   0.652   1.265   3.915
10043SOL    HW131028   0.591   1.340   3.892
10043SOL    HW231029   0.634   1.188   3.853
10044SOL     OW31030   2.627   2.135   3.557
10044SOL    HW131031   2.586   2.111   3.644
10044SOL    HW231032   2.707   2.078   3.539
10045SOL     OW31033   4.980   0.094   3.676
10045SOL    HW131034   4.936   0.184   3.679
10045SOL    HW231035   4.976   0.052   3.767
10046SOL     OW31036   1.620   2.721   1.164
10046SOL    HW131037   1.624   2.796   1.231
10046SOL    HW231038   1.605   2.759   1.073
10047SOL     OW31039   5.420   3.494   5.128
10047SOL    HW131040   5.438   3.455   5.038
10047SOL    HW231041   5.322   3.507   5.140
10048SOL     OW31042   3.747   1.846   2.352
10048SOL    HW131043   3.791   1.935   2.340
10048SOL    HW231044   3.648   1.857   2.352
10049SOL     OW31045   0.371   0.339   6.557
10049SOL    HW131046   0.397   0.244   6.544
10049SOL    HW231047   0.453   0.397   6.554
10050SOL     OW31048   6.506   2.485   5.026
10050SOL    HW131049   6.440   2.518   4.959
10050SOL    HW231050   6.466   2.487   5.118
10051SOL     OW31051   6.122   1.821   5.164
10051SOL    HW131052   6.168   1.829   5.252
10051SOL    HW231053   6.152   1.895   5.104
10052SOL     OW31054   2.438   2.039   2.841
10052SOL    HW131055   2.520   2.081   2.879
10052SOL    HW231056   2.425   2.071   2.747
10053SOL     OW31057   3.574   5.483   1.664
10053SOL    HW131058   3.488   5.519   1.627
10053SOL    HW231059   3.560   5.389   1.694
10054SOL     OW31060   4.230   5.621   5.838
10054SOL    HW131061   4.232   5.713   5.800
10054SOL    HW231062   4.174   5.619   5.920
10055SOL     OW31063   5.677   2.370   5.514
10055SOL    HW131064   5.742   2.359   5.440
10055SOL    HW231065   5.592   2.410   5.479
10056SOL     OW31066   6.675   4.984   1.361
10056SOL    HW131067   6.610   4.949   1.294
10056SOL    HW231068   6.646   4.958   1.453
10057SOL     OW31069   3.769   1.853   4.372
10057SOL    HW131070   3.757   1.771   4.315
10057SOL    HW231071   3.865   1.860   4.399
10058SOL     OW31072   0.103   3.729   4.461
10058SOL    HW131073   0.043   3.694   4.533
10058SOL    HW231074   0.194   3.688   4.470
10059SOL     OW31075   5.344   6.245   0.616
10059SOL    HW131076   5.368   6.159   0.571
10059SOL    HW231077   5.414   6.269   0.683
10060SOL     OW31078   2.095   1.842   2.057
10060SOL    HW131079   2.052   1.763   2.102
10060SOL    HW231080   2.027   1.914   2.045
10061SOL     OW31081   5.299   0.884   4.620
10061SOL    HW131082   5.319   0.973   4.579
10061SOL    HW231083   5.221   0.893   4.682
10062SOL     OW31084   6.247   7.010   4.856
10062SOL    HW131085   6.221   6.980   4.948
10062SOL    HW231086   6.341   6.983   4.837
10063SOL     OW31087   1.529   1.627   3.900
10063SOL    HW131088   1.437   1.606   3.933
10063SOL    HW231089   1.525   1.642   3.801
10064SOL     OW31090   5.360   6.167   6.632
10064SOL    HW131091   5.425   6.226   6.679
10064SOL    HW231092   5.290   6.222   6.588
10065SOL     OW31093   2.267   0.595   2.450
10065SOL    HW131094   2.172   0.583   2.423
10065SOL    HW231095   2.291   0.691   2.445
10066SOL     OW31096   1.476   1.192   3.638
10066SOL    HW131097   1.427   1.184   3.724
10066SOL    HW231098   1.523   1.106   3.618
10067SOL     OW31099   6.232   3.875   5.017
10067SOL    HW131100   6.307   3.921   4.968
10067SOL    HW231101   6.166   3.944   5.048
10068SOL     OW31102   6.238   3.121   3.522
10068SOL    HW131103   6.307   3.184   3.487
10068SOL    HW231104   6.153   3.134   3.471
10069SOL     OW31105   1.952   5.235   3.913
10069SOL    HW131106   1.995   5.229   4.003
10069SOL    HW231107   1.933   5.143   3.878
10070SOL     OW31108   6.800   0.101   4.898
10070SOL    HW131109   6.776   0.188   4.855
10070SOL    HW231110   6.777   0.103   4.995
10071SOL     OW31111   5.643   5.434   3.790
10071SOL    HW131112   5.584   5.465   3.716
10071SOL    HW231113   5.702   5.360   3.757
10072SOL     OW31114   0.158   5.794   3.682
10072SOL    HW131115   0.107   5.858   3.740
10072SOL    HW231116   0.155   5.703   3.722
10073SOL     OW31117   5.903   4.942   4.700
10073SOL    HW131118   5.984   4.924   4.756
10073SOL    HW231119   5.860   4.855   4.674
10074SOL     OW31120   1.565   1.304   5.089
10074SOL    HW131121   1.493   1.336   5.027
10074SOL    HW231122   1.542   1.329   5.183
10075SOL     OW31123   1.319   2.568   2.764
10075SOL    HW131124   1.294   2.486   2.814
10075SOL    HW231125   1.377   2.626   2.821
10076SOL     OW31126   6.378   0.278   3.813
10076SOL    HW131127   6.300   0.339   3.822
10076SOL    HW231128   6.349   0.191   3.774
10077SOL     OW31129   3.470   3.225   6.012
10077SOL    HW131130   3.436   3.266   6.097
10077SOL    HW231131   3.561   3.260   5.993
10078SOL     OW31132   0.142   5.547   3.739
10078SOL    HW131133   0.057   5.523   3.785
10078SOL    HW231134   0.214   5.482   3.764
10079SOL     OW31135   0.536   3.781   2.539
10079SOL    HW131136   0.472   3.804   2.466
10079SOL    HW231137   0.626   3.820   2.518
10080SOL     OW31138   3.514   1.497   5.510
10080SOL    HW131139   3.423   1.465   5.535
10080SOL    HW231140   3.513   1.596   5.499
10081SOL     OW31141   0.536   0.861   7.003
10081SOL    HW131142   0.624   0.852   6.956
10081SOL    HW231143   0.513   0.773   0.023
10082SOL     OW31144   0.034   4.879   2.182
10082SOL    HW131145   0.131   4.866   2.166
10082SOL    HW231146   7.005   4.842   2.106
10083SOL     OW31147   4.939   0.511   3.007
10083SOL    HW131148   4.929   0.465   3.095
10083SOL    HW231149   4.922   0.609   3.017
10084SOL     OW31150   3.165   1.292   5.947
10084SOL    HW131151   3.077   1.301   5.900
10084SOL    HW231152   3.187   1.379   5.992
10085SOL     OW31153   0.989   6.470   2.347
10085SOL    HW131154   0.999   6.426   2.257
10085SOL    HW231155   1.044   6.553   2.349
10086SOL     OW31156   5.876   5.139   2.003
10086SOL    HW131157   5.806   5.127   1.933
10086SOL    HW231158   5.966   5.133   1.961
10087SOL     OW31159   6.934   6.707   3.633
10087SOL    HW131160   6.849   6.705   3.580
10087SOL    HW231161   6.969   6.614   3.646
10088SOL     OW31162   6.917   0.637   0.096
10088SOL    HW131163   6.965   0.551   0.081
10088SOL    HW231164   6.984   0.709   0.117
10089SOL     OW31165   2.737   2.135   2.895
10089SOL    HW131166   2.824   2.165   2.856
10089SOL    HW231167   2.737   2.035   2.904
10090SOL     OW31168   0.876   5.207   0.766
10090SOL    HW131169   0.866   5.288   0.824
10090SOL    HW231170   0.789   5.186   0.722
10091SOL     OW31171   1.352   3.357   5.619
10091SOL    HW131172   1.276   3.421   5.613
10091SOL    HW231173   1.316   3.264   5.627
10092SOL     OW31174   1.724   3.442   5.197
10092SOL    HW131175   1.644   3.383   5.211
10092SOL    HW231176   1.806   3.385   5.189
10093SOL     OW31177   0.196   3.945   5.029
10093SOL    HW131178   0.162   3.875   5.091
10093SOL    HW231179   0.120   3.986   4.980
10094SOL     OW31180   1.673   6.277   2.128
10094SOL    HW131181   1.685   6.231   2.040
10094SOL    HW231182   1.692   6.375   2.118
10095SOL     OW31183   5.985   1.638   5.025
10095SOL    HW131184   5.933   1.582   5.090
10095SOL    HW231185   6.025   1.716   5.074
10096SOL     OW31186   5.459   5.136   2.378
10096SOL    HW131187   5.522   5.072   2.423
10096SOL    HW231188   5.465   5.124   2.279
10097SOL     OW31189   1.139   0.936   6.877
10097SOL    HW131190   1.236   0.921   6.858
10097SOL    HW231191   1.086   0.855   6.849
10098SOL     OW31192   2.697   0.723   5.496
10098SOL    HW131193   2.715   0.626   5.509
10098SOL    HW231194   2.602   0.743   5.521
10099SOL     OW31195   6.886   4.752   0.583
10099SOL    HW131196   6.830   4.831   0.609
10099SOL    HW231197   6.971   4.785   0.541
10100SOL     OW31198   4.968   0.001   4.417
10100SOL    HW131199   4.885   0.043   4.379
10100SOL    HW231200   4.973   0.020   4.515
10101SOL     OW31201   6.232   3.741   1.295
10101SOL    HW131202   6.262   3.765   1.203
10101SOL    HW231203   6.156   3.800   1.322
10102SOL     OW31204   1.565   0.612   2.489
10102SOL    HW131205   1.590   0.567   2.404
10102SOL    HW231206   1.529   0.703   2.470
10103SOL     OW31207   2.509   1.830   6.222
10103SOL    HW131208   2.540   1.739   6.251
10103SOL    HW231209   2.510   1.892   6.300
10104SOL     OW31210   1.145   2.781   4.257
10104SOL    HW131211   1.234   2.814   4.228
10104SOL    HW231212   1.091   2.756   4.177
10105SOL     OW31213   0.937   0.750   0.147
10105SOL    HW131214   0.915   0.842   0.179
10105SOL    HW231215   0.944   0.750   0.047
10106SOL     OW31216   4.466   6.627   0.839
10106SOL    HW131217   4.480   6.605   0.743
10106SOL    HW231218   4.484   6.547   0.895
10107SOL     OW31219   0.492   1.207   6.459
10107SOL    HW131220   0.438   1.163   6.388
10107SOL    HW231221   0.450   1.295   6.484
10108SOL     OW31222   6.708   6.652   0.286
10108SOL    HW131223   6.658   6.618   0.365
10108SOL    HW231224   6.723   6.577   0.221
10109SOL     OW31225   4.425   0.321   0.990
10109SOL    HW131226   4.365   0.259   0.939
10109SOL    HW231227   4.373   0.367   1.061
10110SOL     OW31228   4.532   6.015   4.770
10110SOL    HW131229   4.533   5.938   4.707
10110SOL    HW231230   4.440   6.025   4.809
10111SOL     OW31231   5.289   3.941   3.733
10111SOL    HW131232   5.335   3.872   3.789
10111SOL    HW231233   5.200   3.908   3.704
10112SOL     OW31234   5.780   4.067   3.782
10112SOL    HW131235   5.725   4.133   3.833
10112SOL    HW231236   5.726   4.033   3.704
10113SOL     OW31237   4.524   0.042   5.421
10113SOL    HW131238   4.454   0.091   5.472
10113SOL    HW231239   4.612   0.090   5.432
10114SOL     OW31240   5.922   1.208   0.973
10114SOL    HW131241   5.996   1.199   1.038
10114SOL    HW231242   5.889   1.117   0.946
10115SOL     OW31243   3.360   1.501   4.094
10115SOL    HW131244   3.455   1.472   4.084
10115SOL    HW231245   3.351   1.561   4.174
10116SOL     OW31246   7.007   6.153   0.456
10116SOL    HW131247   6.977   6.160   0.361
10116SOL    HW231248   0.007   6.057   0.476
10117SOL     OW31249   0.351   6.479   4.911
10117SOL    HW131250   0.320   6.574   4.921
10117SOL    HW231251   0.292   6.431   4.846
10118SOL     OW31252   1.639   5.201   3.078
10118SOL    HW131253   1.575   5.124   3.070
10118SOL    HW231254   1.717   5.173   3.134
10119SOL     OW31255   0.412   5.977   4.533
10119SOL    HW131256   0.452   5.889   4.510
10119SOL    HW231257   0.399   5.983   4.632
10120SOL     OW31258   1.788   3.996   5.038
10120SOL    HW131259   1.887   4.005   5.046
10120SOL    HW231260   1.758   3.912   5.084
10121SOL     OW31261   6.367   4.171   6.387
10121SOL    HW131262   6.372   4.072   6.376
10121SOL    HW231263   6.272   4.201   6.380
10122SOL     OW31264   6.342   2.713   1.347
10122SOL    HW131265   6.276   2.658   1.295
10122SOL    HW231266   6.410   2.751   1.285
10123SOL     OW31267   6.116   6.956   0.185
10123SOL    HW131268   6.124   0.013   0.246
10123SOL    HW231269   6.134   6.873   0.238
10124SOL     OW31270   1.710   3.542   6.785
10124SOL    HW131271   1.718   3.486   6.867
10124SOL    HW231272   1.784   3.610   6.783
10125SOL     OW31273   1.990   0.989   2.419
10125SOL    HW131274   1.901   0.990   2.465
10125SOL    HW231275   2.038   0.904   2.443
10126SOL     OW31276   0.628   6.714   5.778
10126SOL    HW131277   0.662   6.806   5.759
10126SOL    HW231278   0.548   6.719   5.838
10127SOL     OW31279   2.535   4.713   6.515
10127SOL    HW131280   2.527   4.644   6.587
10127SOL    HW231281   2.629   4.746   6.510
10128SOL     OW31282   2.020   0.975   1.246
10128SOL    HW131283   2.054   1.059   1.290
10128SOL    HW231284   2.081   0.950   1.171
10129SOL     OW31285   5.692   2.485   3.208
10129SOL    HW131286   5.702   2.561   3.272
10129SOL    HW231287   5.689   2.521   3.114
10130SOL     OW31288   1.421   3.885   2.059
10130SOL    HW131289   1.423   3.843   1.968
10130SOL    HW231290   1.434   3.814   2.128
10131SOL     OW31291   0.773   0.242   3.634
10131SOL    HW131292   0.761   0.193   3.548
10131SOL    HW231293   0.764   0.179   3.710
10132SOL     OW31294   3.314   6.885   4.945
10132SOL    HW131295   3.373   6.955   4.983
10132SOL    HW231296   3.339   6.868   4.849
10133SOL     OW31297   4.795   6.457   1.241
10133SOL    HW131298   4.813   6.453   1.339
10133SOL    HW231299   4.859   6.521   1.197
10134SOL     OW31300   0.086   5.982   3.967
10134SOL    HW131301   0.145   5.901   3.964
10134SOL    HW231302   0.038   5.991   3.880
10135SOL     OW31303   4.872   3.366   3.656
10135SOL    HW131304   4.865   3.378   3.755
10135SOL    HW231305   4.826   3.282   3.629
10136SOL     OW31306   4.869   0.424   3.238
10136SOL    HW131307   4.887   0.499   3.302
10136SOL    HW231308   4.841   0.343   3.289
10137SOL     OW31309   5.816   4.394   3.692
10137SOL    HW131310   5.863   4.306   3.688
10137SOL    HW231311   5.779   4.416   3.601
10138SOL     OW31312   5.239   2.766   0.512
10138SOL    HW131313   5.220   2.770   0.610
10138SOL    HW231314   5.240   2.670   0.482
10139SOL     OW31315   3.899   3.967   3.360
10139SOL    HW131316   3.811   3.922   3.348
10139SOL    HW231317   3.887   4.050   3.416
10140SOL     OW31318   6.077   6.270   6.449
10140SOL    HW131319   6.020   6.305   6.524
10140SOL    HW231320   6.086   6.339   6.378
10141SOL     OW31321   4.167   1.853   4.868
10141SOL    HW131322   4.207   1.765   4.840
10141SOL    HW231323   4.219   1.928   4.827
10142SOL     OW31324   6.431   6.813   5.186
10142SOL    HW131325   6.378   6.758   5.250
10142SOL    HW231326   6.373   6.885   5.147
10143SOL     OW31327   4.604   0.925   6.664
10143SOL    HW131328   4.566   0.866   6.736
10143SOL    HW231329   4.550   1.009   6.658
10144SOL     OW31330   3.677   0.305   6.420
10144SOL    HW131331   3.656   0.230   6.358
10144SOL    HW231332   3.712   0.268   6.506
10145SOL     OW31333   3.098   5.400   5.094
10145SOL    HW131334   3.088   5.321   5.034
10145SOL    HW231335   3.177   5.386   5.154
10146SOL     OW31336   4.150   5.136   4.822
10146SOL    HW131337   4.134   5.218   4.767
10146SOL    HW231338   4.229   5.087   4.785
10147SOL     OW31339   5.237   3.955   5.227
10147SOL    HW131340   5.321   3.942   5.176
10147SOL    HW231341   5.253   4.019   5.302
10148SOL     OW31342   4.572   5.473   6.955
10148SOL    HW131343   4.565   5.539   6.880
10148SOL    HW231344   4.666   5.439   6.962
10149SOL     OW31345   6.280   2.936   0.649
10149SOL    HW131346   6.359   2.980   0.692
10149SOL    HW231347   6.261   2.980   0.561
10150SOL     OW31348   3.918   3.797   0.375
10150SOL    HW131349   3.932   3.871   0.440
10150SOL    HW231350   3.844   3.821   0.312
10151SOL     OW31351   0.555   6.890   6.630
10151SOL    HW131352   0.651   6.886   6.659
10151SOL    HW231353   0.496   6.866   6.706
10152SOL     OW31354   6.662   6.043   4.477
10152SOL    HW131355   6.741   5.993   4.441
10152SOL    HW231356   6.592   6.050   4.406
10153SOL     OW31357   5.047   6.247   3.934
10153SOL    HW131358   5.024   6.263   3.838
10153SOL    HW231359   4.962   6.245   3.988
10154SOL     OW31360   5.199   6.712   5.344
10154SOL    HW131361   5.270   6.772   5.382
10154SOL    HW231362   5.118   6.766   5.322
10155SOL     OW31363   3.655   2.747   5.610
10155SOL    HW131364   3.652   2.792   5.699
10155SOL    HW231365   3.746   2.711   5.594
10156SOL     OW31366   5.889   0.793   2.993
10156SOL    HW131367   5.837   0.877   2.984
10156SOL    HW231368   5.901   0.771   3.090
10157SOL     OW31369   6.917   2.858   0.201
10157SOL    HW131370   6.865   2.914   0.136
10157SOL    HW231371   7.003   2.829   0.160
10158SOL     OW31372   5.898   4.149   0.787
10158SOL    HW131373   5.988   4.162   0.746
10158SOL    HW231374   5.908   4.106   0.876
10159SOL     OW31375   2.680   3.630   7.018
10159SOL    HW131376   2.759   3.639   0.056
10159SOL    HW231377   2.706   3.578   6.937
10160SOL     OW31378   1.810   2.897   2.157
10160SOL    HW131379   1.782   2.812   2.202
10160SOL    HW231380   1.847   2.960   2.225
10161SOL     OW31381   3.074   2.981   6.456
10161SOL    HW131382   3.120   2.901   6.418
10161SOL    HW231383   3.001   3.011   6.394
10162SOL     OW31384   3.487   4.735   0.546
10162SOL    HW131385   3.512   4.742   0.450
10162SOL    HW231386   3.564   4.764   0.603
10163SOL     OW31387   5.791   4.697   6.447
10163SOL    HW131388   5.769   4.754   6.368
10163SOL    HW231389   5.787   4.601   6.422
10164SOL     OW31390   5.809   3.939   4.776
10164SOL    HW131391   5.832   3.844   4.799
10164SOL    HW231392   5.864   3.968   4.698
10165SOL     OW31393   0.191   1.906   3.074
10165SOL    HW131394   0.217   1.838   3.143
10165SOL    HW231395   0.177   1.860   2.986
10166SOL     OW31396   3.285   2.120   1.870
10166SOL    HW131397   3.231   2.157   1.945
10166SOL    HW231398   3.314   2.195   1.810
10167SOL     OW31399   2.310   3.539   6.930
10167SOL    HW131400   2.224   3.527   6.881
10167SOL    HW231401   2.352   3.626   6.903
10168SOL     OW31402   5.715   3.667   6.381
10168SOL    HW131403   5.807   3.646   6.349
10168SOL    HW231404   5.684   3.595   6.444
10169SOL     OW31405   6.663   4.227   3.848
10169SOL    HW131406   6.729   4.174   3.902
10169SOL    HW231407   6.574   4.227   3.894
10170SOL     OW31408   0.482   5.176   5.328
10170SOL    HW131409   0.481   5.247   5.398
10170SOL    HW231410   0.552   5.197   5.260
10171SOL     OW31411   6.882   2.197   4.736
10171SOL    HW131412   6.974   2.161   4.720
10171SOL    HW231413   6.871   2.283   4.685
10172SOL     OW31414   0.072   6.373   4.851
10172SOL    HW131415   0.062   6.374   4.950
10172SOL    HW231416   0.107   6.462   4.821
10173SOL     OW31417   1.250   3.457   1.456
10173SOL    HW131418   1.259   3.555   1.473
10173SOL    HW231419   1.340   3.419   1.434
10174SOL     OW31420   5.357   5.233   2.905
10174SOL    HW131421   5.283   5.199   2.963
10174SOL    HW231422   5.351   5.188   2.815
10175SOL     OW31423   5.299   1.350   3.682
10175SOL    HW131424   5.202   1.371   3.673
10175SOL    HW231425   5.315   1.255   3.656
10176SOL     OW31426   0.760   3.825   5.424
10176SOL    HW131427   0.789   3.890   5.494
10176SOL    HW231428   0.662   3.837   5.407
10177SOL     OW31429   2.527   0.644   1.029
10177SOL    HW131430   2.504   0.741   1.038
10177SOL    HW231431   2.561   0.627   0.937
10178SOL     OW31432   0.817   0.721   5.947
10178SOL    HW131433   0.748   0.651   5.966
10178SOL    HW231434   0.772   0.811   5.944
10179SOL     OW31435   0.851   2.023   0.072
10179SOL    HW131436   0.761   2.034   0.029
10179SOL    HW231437   0.889   2.113   0.093
10180SOL     OW31438   4.588   0.728   5.648
10180SOL    HW131439   4.580   0.734   5.747
10180SOL    HW231440   4.548   0.642   5.616
10181SOL     OW31441   6.600   3.585   1.557
10181SOL    HW131442   6.580   3.647   1.481
10181SOL    HW231443   6.541   3.504   1.551
10182SOL     OW31444   4.441   0.884   1.461
10182SOL    HW131445   4.403   0.882   1.368
10182SOL    HW231446   4.437   0.793   1.501
10183SOL     OW31447   6.741   2.233   6.747
10183SOL    HW131448   6.751   2.227   6.847
10183SOL    HW231449   6.690   2.315   6.724
10184SOL     OW31450   4.836   1.014   6.095
10184SOL    HW131451   4.901   0.974   6.030
10184SOL    HW231452   4.748   1.029   6.051
10185SOL     OW31453   5.948   6.104   2.418
10185SOL    HW131454   5.948   6.026   2.481
10185SOL    HW231455   6.040   6.142   2.412
10186SOL     OW31456   5.776   3.355   3.588
10186SOL    HW131457   5.809   3.373   3.680
10186SOL    HW231458   5.846   3.380   3.522
10187SOL     OW31459   1.004   3.350   0.455
10187SOL    HW131460   0.941   3.410   0.405
10187SOL    HW231461   0.952   3.295   0.521
10188SOL     OW31462   3.884   5.546   0.789
10188SOL    HW131463   3.916   5.459   0.826
10188SOL    HW231464   3.870   5.611   0.864
10189SOL     OW31465   1.438   1.477   6.100
10189SOL    HW131466   1.478   1.511   6.185
10189SOL    HW231467   1.487   1.517   6.022
10190SOL     OW31468   4.964   3.091   1.905
10190SOL    HW131469   4.897   3.053   1.969
10190SOL    HW231470   4.929   3.175   1.864
10191SOL     OW31471   5.379   5.532   6.071
10191SOL    HW131472   5.341   5.501   5.984
10191SOL    HW231473   5.440   5.610   6.055
10192SOL     OW31474   4.326   1.295   5.395
10192SOL    HW131475   4.301   1.336   5.483
10192SOL    HW231476   4.423   1.268   5.398
10193SOL     OW31477   3.904   3.718   1.835
10193SOL    HW131478   3.846   3.637   1.852
10193SOL    HW231479   4.000   3.693   1.847
10194SOL     OW31480   5.588   5.877   5.662
10194SOL    HW131481   5.672   5.921   5.691
10194SOL    HW231482   5.512   5.907   5.719
10195SOL     OW31483   5.815   5.773   0.818
10195SOL    HW131484   5.887   5.782   0.749
10195SOL    HW231485   5.825   5.846   0.885
10196SOL     OW31486   5.025   1.395   3.674
10196SOL    HW131487   5.010   1.493   3.659
10196SOL    HW231488   4.970   1.343   3.609
10197SOL     OW31489   5.912   1.620   5.333
10197SOL    HW131490   5.827   1.673   5.333
10197SOL    HW231491   5.897   1.531   5.290
10198SOL     OW31492   2.446   6.932   2.270
10198SOL    HW131493   2.374   6.951   2.337
10198SOL    HW231494   2.525   6.893   2.317
10199SOL     OW31495   2.201   3.498   0.157
10199SOL    HW131496   2.242   3.494   0.066
10199SOL    HW231497   2.259   3.554   0.217
10200SOL     OW31498   5.208   2.320   6.817
10200SOL    HW131499   5.124   2.266   6.812
10200SOL    HW231500   5.263   2.305   6.736
10201SOL     OW31501   1.302   4.849   0.881
10201SOL    HW131502   1.219   4.831   0.935
10201SOL    HW231503   1.377   4.793   0.917
10202SOL     OW31504   3.594   4.332   0.687
10202SOL    HW131505   3.548   4.315   0.600
10202SOL    HW231506   3.692   4.346   0.671
10203SOL     OW31507   6.221   2.949   2.985
10203SOL    HW131508   6.132   2.912   2.958
10203SOL    HW231509   6.294   2.895   2.943
10204SOL     OW31510   4.968   6.476   0.013
10204SOL    HW131511   4.917   6.502   0.095
10204SOL    HW231512   5.029   6.400   0.035
10205SOL     OW31513   1.542   0.047   1.419
10205SOL    HW131514   1.504   0.137   1.401
10205SOL    HW231515   1.604   0.021   1.345
10206SOL     OW31516   6.666   0.644   7.004
10206SOL    HW131517   6.605   0.610   0.053
10206SOL    HW231518   6.760   0.640   0.012
10207SOL     OW31519   1.247   1.924   0.418
10207SOL    HW131520   1.290   1.921   0.508
10207SOL    HW231521   1.292   1.992   0.361
10208SOL     OW31522   6.161   4.418   3.838
10208SOL    HW131523   6.122   4.327   3.824
10208SOL    HW231524   6.107   4.467   3.907
10209SOL     OW31525   0.490   6.990   0.667
10209SOL    HW131526   0.483   6.890   0.674
10209SOL    HW231527   0.543   7.014   0.586
10210SOL     OW31528   4.929   6.753   1.495
10210SOL    HW131529   4.837   6.753   1.456
10210SOL    HW231530   4.928   6.803   1.582
10211SOL     OW31531   4.103   6.096   4.686
10211SOL    HW131532   4.043   6.096   4.766
10211SOL    HW231533   4.090   6.011   4.635
10212SOL     OW31534   1.030   0.541   5.173
10212SOL    HW131535   1.028   0.613   5.243
10212SOL    HW231536   0.948   0.485   5.182
10213SOL     OW31537   5.966   2.867   1.713
10213SOL    HW131538   5.982   2.910   1.802
10213SOL    HW231539   6.053   2.860   1.663
10214SOL     OW31540   1.363   1.382   2.349
10214SOL    HW131541   1.277   1.423   2.318
10214SOL    HW231542   1.434   1.400   2.280
10215SOL     OW31543   3.928   3.089   3.612
10215SOL    HW131544   3.964   3.165   3.558
10215SOL    HW231545   3.927   3.006   3.556
10216SOL     OW31546   0.176   1.159   1.516
10216SOL    HW131547   0.154   1.076   1.466
10216SOL    HW231548   0.132   1.157   1.605
10217SOL     OW31549   3.258   1.594   3.137
10217SOL    HW131550   3.297   1.681   3.107
10217SOL    HW231551   3.224   1.602   3.230
10218SOL     OW31552   1.937   1.484   1.584
10218SOL    HW131553   1.901   1.478   1.677
10218SOL    HW231554   1.992   1.403   1.564
10219SOL     OW31555   0.483   1.805   2.981
10219SOL    HW131556   0.424   1.760   2.913
10219SOL    HW231557   0.546   1.867   2.934
10220SOL     OW31558   5.247   1.994   0.811
10220SOL    HW131559   5.223   2.044   0.895
10220SOL    HW231560   5.275   1.901   0.834
10221SOL     OW31561   0.958   4.908   3.541
10221SOL    HW131562   0.885   4.976   3.533
10221SOL    HW231563   0.920   4.824   3.580
10222SOL     OW31564   3.092   4.107   5.395
10222SOL    HW131565   3.159   4.037   5.370
10222SOL    HW231566   3.017   4.065   5.446
10223SOL     OW31567   1.516   5.165   1.419
10223SOL    HW131568   1.539   5.211   1.334
10223SOL    HW231569   1.438   5.104   1.405
10224SOL     OW31570   6.474   2.907   5.068
10224SOL    HW131571   6.490   2.818   5.024
10224SOL    HW231572   6.439   2.971   5.000
10225SOL     OW31573   0.976   5.330   5.888
10225SOL    HW131574   1.041   5.373   5.950
10225SOL    HW231575   0.941   5.246   5.929
10226SOL     OW31576   2.714   1.091   6.088
10226SOL    HW131577   2.619   1.094   6.119
10226SOL    HW231578   2.721   1.133   5.998
10227SOL     OW31579   5.354   4.960   0.957
10227SOL    HW131580   5.357   5.039   1.017
10227SOL    HW231581   5.445   4.920   0.949
10228SOL     OW31582   0.281   6.968   2.018
10228SOL    HW131583   0.211   6.901   1.993
10228SOL    HW231584   0.368   6.920   2.035
10229SOL     OW31585   1.124   3.098   4.526
10229SOL    HW131586   1.175   3.015   4.546
10229SOL    HW231587   1.187   3.176   4.526
10230SOL     OW31588   5.761   6.062   3.250
10230SOL    HW131589   5.690   6.098   3.310
10230SOL    HW231590   5.744   5.965   3.231
10231SOL     OW31591   6.690   5.415   5.695
10231SOL    HW131592   6.670   5.465   5.779
10231SOL    HW231593   6.788   5.395   5.691
10232SOL     OW31594   3.162   1.184   3.496
10232SOL    HW131595   3.260   1.183   3.476
10232SOL    HW231596   3.117   1.110   3.445
10233SOL     OW31597   3.949   3.983   4.954
10233SOL    HW131598   3.863   3.941   4.926
10233SOL    HW231599   3.967   4.063   4.898
10234SOL     OW31600   6.340   1.114   1.459
10234SOL    HW131601   6.271   1.174   1.419
10234SOL    HW231602   6.400   1.080   1.386
10235SOL     OW31603   2.429   2.742   1.670
10235SOL    HW131604   2.378   2.814   1.717
10235SOL    HW231605   2.366   2.674   1.634
10236SOL     OW31606   3.067   0.694   0.055
10236SOL    HW131607   3.095   0.763   7.011
10236SOL    HW231608   3.146   0.639   0.082
10237SOL     OW31609   0.365   3.643   6.858
10237SOL    HW131610   0.295   3.594   6.911
10237SOL    HW231611   0.423   3.576   6.811
10238SOL     OW31612   3.611   4.399   1.705
10238SOL    HW131613   3.565   4.473   1.755
10238SOL    HW231614   3.647   4.333   1.770
10239SOL     OW31615   1.299   3.065   5.022
10239SOL    HW131616   1.271   3.159   5.042
10239SOL    HW231617   1.334   3.022   5.105
10240SOL     OW31618   2.222   5.222   2.476
10240SOL    HW131619   2.144   5.172   2.437
10240SOL    HW231620   2.225   5.314   2.436
10241SOL     OW31621   6.297   7.002   2.208
10241SOL    HW131622   6.298   6.918   2.155
10241SOL    HW231623   6.290   6.980   2.306
10242SOL     OW31624   0.474   1.618   1.022
10242SOL    HW131625   0.424   1.635   1.107
10242SOL    HW231626   0.494   1.706   0.978
10243SOL     OW31627   2.253   4.497   2.358
10243SOL    HW131628   2.286   4.494   2.263
10243SOL    HW231629   2.172   4.439   2.367
10244SOL     OW31630   1.990   4.466   0.683
10244SOL    HW131631   2.051   4.540   0.711
10244SOL    HW231632   2.040   4.400   0.629
10245SOL     OW31633   3.500   3.880   0.994
10245SOL    HW131634   3.496   3.913   0.900
10245SOL    HW231635   3.572   3.927   1.044
10246SOL     OW31636   3.538   3.869   4.195
10246SOL    HW131637   3.504   3.943   4.136
10246SOL    HW231638   3.466   3.801   4.207
10247SOL     OW31639   6.388   3.745   5.691
10247SOL    HW131640   6.485   3.720   5.689
10247SOL    HW231641   6.366   3.785   5.780
10248SOL     OW31642   1.787   6.311   2.699
10248SOL    HW131643   1.794   6.226   2.646
10248SOL    HW231644   1.692   6.343   2.697
10249SOL     OW31645   3.401   5.856   6.609
10249SOL    HW131646   3.348   5.820   6.532
10249SOL    HW231647   3.339   5.883   6.682
10250SOL     OW31648   6.895   3.513   1.740
10250SOL    HW131649   6.847   3.436   1.697
10250SOL    HW231650   6.838   3.595   1.735
10251SOL     OW31651   2.005   1.784   4.840
10251SOL    HW131652   2.068   1.799   4.764
10251SOL    HW231653   2.009   1.863   4.902
10252SOL     OW31654   4.300   4.407   6.348
10252SOL    HW131655   4.303   4.488   6.289
10252SOL    HW231656   4.219   4.411   6.406
10253SOL     OW31657   2.970   5.484   0.519
10253SOL    HW131658   3.009   5.517   0.433
10253SOL    HW231659   2.883   5.439   0.502
10254SOL     OW31660   5.156   1.124   5.503
10254SOL    HW131661   5.093   1.202   5.506
10254SOL    HW231662   5.171   1.097   5.409
10255SOL     OW31663   2.401   6.511   1.430
10255SOL    HW131664   2.377   6.565   1.350
10255SOL    HW231665   2.415   6.416   1.404
10256SOL     OW31666   4.399   1.970   1.948
10256SOL    HW131667   4.311   1.989   1.904
10256SOL    HW231668   4.432   2.053   1.993
10257SOL     OW31669   2.088   5.166   4.137
10257SOL    HW131670   2.076   5.090   4.200
10257SOL    HW231671   2.040   5.246   4.172
10258SOL     OW31672   3.866   1.920   3.506
10258SOL    HW131673   3.966   1.923   3.509
10258SOL    HW231674   3.829   1.979   3.578
10259SOL     OW31675   0.373   3.879   2.927
10259SOL    HW131676   0.419   3.829   3.001
10259SOL    HW231677   0.340   3.813   2.859
10260SOL     OW31678   1.130   1.374   3.215
10260SOL    HW131679   1.084   1.359   3.302
10260SOL    HW231680   1.220   1.415   3.231
10261SOL     OW31681   6.523   5.283   1.557
10261SOL    HW131682   6.466   5.262   1.478
10261SOL    HW231683   6.550   5.198   1.603
10262SOL     OW31684   2.920   0.437   5.528
10262SOL    HW131685   2.982   0.366   5.563
10262SOL    HW231686   2.860   0.468   5.602
10263SOL     OW31687   5.797   0.002   0.830
10263SOL    HW131688   5.745   0.053   0.760
10263SOL    HW231689   5.762   0.026   0.921
10264SOL     OW31690   6.636   6.596   6.682
10264SOL    HW131691   6.553   6.633   6.725
10264SOL    HW231692   6.675   6.666   6.621
10265SOL     OW31693   3.199   2.865   1.579
10265SOL    HW131694   3.128   2.816   1.530
10265SOL    HW231695   3.157   2.932   1.641
10266SOL     OW31696   3.404   2.907   3.976
10266SOL    HW131697   3.500   2.881   3.991
10266SOL    HW231698   3.392   3.004   3.996
10267SOL     OW31699   5.433   2.219   0.304
10267SOL    HW131700   5.363   2.281   0.338
10267SOL    HW231701   5.412   2.194   0.209
10268SOL     OW31702   6.494   6.548   2.091
10268SOL    HW131703   6.426   6.620   2.104
10268SOL    HW231704   6.452   6.459   2.104
10269SOL     OW31705   0.541   4.179   6.675
10269SOL    HW131706   0.484   4.169   6.593
10269SOL    HW231707   0.553   4.277   6.694
10270SOL     OW31708   3.350   4.899   2.383
10270SOL    HW131709   3.288   4.851   2.445
10270SOL    HW231710   3.310   4.902   2.292
10271SOL     OW31711   3.485   2.506   6.957
10271SOL    HW131712   3.502   2.500   0.032
10271SOL    HW231713   3.569   2.528   6.909
10272SOL     OW31714   1.326   0.866   5.594
10272SOL    HW131715   1.299   0.812   5.674
10272SOL    HW231716   1.420   0.841   5.568
10273SOL     OW31717   2.824   5.643   2.688
10273SOL    HW131718   2.802   5.671   2.782
10273SOL    HW231719   2.766   5.693   2.624
10274SOL     OW31720   0.449   4.644   6.085
10274SOL    HW131721   0.429   4.564   6.028
10274SOL    HW231722   0.369   4.666   6.141
10275SOL     OW31723   0.426   6.272   1.993
10275SOL    HW131724   0.425   6.179   2.029
10275SOL    HW231725   0.510   6.288   1.942
10276SOL     OW31726   5.601   6.138   5.162
10276SOL    HW131727   5.622   6.081   5.241
10276SOL    HW231728   5.576   6.079   5.085
10277SOL     OW31729   1.918   6.040   5.140
10277SOL    HW131730   2.002   6.080   5.105
10277SOL    HW231731   1.901   6.072   5.233
10278SOL     OW31732   1.514   1.586   3.408
10278SOL    HW131733   1.482   1.521   3.477
10278SOL    HW231734   1.481   1.558   3.318
10279SOL     OW31735   1.225   4.664   4.193
10279SOL    HW131736   1.311   4.613   4.188
10279SOL    HW231737   1.148   4.601   4.183
10280SOL     OW31738   0.174   2.672   6.664
10280SOL    HW131739   0.121   2.661   6.748
10280SOL    HW231740   0.126   2.630   6.587
10281SOL     OW31741   5.596   1.623   3.423
10281SOL    HW131742   5.575   1.557   3.496
10281SOL    HW231743   5.627   1.574   3.342
10282SOL     OW31744   5.206   3.516   4.474
10282SOL    HW131745   5.278   3.512   4.543
10282SOL    HW231746   5.246   3.542   4.386
10283SOL     OW31747   2.124   3.022   1.125
10283SOL    HW131748   2.102   2.952   1.056
10283SOL    HW231749   2.215   3.004   1.163
10284SOL     OW31750   4.944   2.375   5.517
10284SOL    HW131751   4.910   2.416   5.432
10284SOL    HW231752   5.037   2.342   5.504
10285SOL     OW31753   5.433   6.199   3.093
10285SOL    HW131754   5.467   6.173   3.184
10285SOL    HW231755   5.460   6.293   3.073
10286SOL     OW31756   3.447   1.799   4.225
10286SOL    HW131757   3.465   1.892   4.255
10286SOL    HW231758   3.535   1.751   4.213
10287SOL     OW31759   3.243   5.518   1.748
10287SOL    HW131760   3.290   5.580   1.811
10287SOL    HW231761   3.220   5.433   1.796
10288SOL     OW31762   4.835   5.816   2.897
10288SOL    HW131763   4.840   5.865   2.810
10288SOL    HW231764   4.810   5.721   2.881
10289SOL     OW31765   2.987   6.135   6.573
10289SOL    HW131766   3.054   6.096   6.511
10289SOL    HW231767   2.895   6.111   6.541
10290SOL     OW31768   2.934   3.775   2.932
10290SOL    HW131769   2.934   3.763   3.032
10290SOL    HW231770   2.991   3.853   2.908
10291SOL     OW31771   3.572   1.770   2.017
10291SOL    HW131772   3.572   1.737   1.923
10291SOL    HW231773   3.554   1.868   2.018
10292SOL     OW31774   1.524   2.359   5.173
10292SOL    HW131775   1.607   2.412   5.160
10292SOL    HW231776   1.506   2.305   5.090
10293SOL     OW31777   1.370   3.724   2.280
10293SOL    HW131778   1.433   3.760   2.348
10293SOL    HW231779   1.370   3.624   2.284
10294SOL     OW31780   4.847   2.435   3.371
10294SOL    HW131781   4.925   2.445   3.433
10294SOL    HW231782   4.825   2.523   3.329
10295SOL     OW31783   0.493   3.363   6.219
10295SOL    HW131784   0.520   3.432   6.153
10295SOL    HW231785   0.434   3.404   6.289
10296SOL     OW31786   5.216   1.224   6.941
10296SOL    HW131787   5.220   1.252   6.846
10296SOL    HW231788   5.278   1.147   6.956
10297SOL     OW31789   1.863   0.909   6.106
10297SOL    HW131790   1.892   0.815   6.125
10297SOL    HW231791   1.939   0.972   6.120
10298SOL     OW31792   2.862   4.470   1.154
10298SOL    HW131793   2.832   4.470   1.250
10298SOL    HW231794   2.935   4.404   1.142
10299SOL     OW31795   4.121   4.778   2.882
10299SOL    HW131796   4.075   4.751   2.797
10299SOL    HW231797   4.171   4.863   2.868
10300SOL     OW31798   1.648   4.370   2.355
10300SOL    HW131799   1.707   4.304   2.402
10300SOL    HW231800   1.556   4.368   2.396
10301SOL     OW31801   4.895   2.021   5.096
10301SOL    HW131802   4.855   2.076   5.023
10301SOL    HW231803   4.972   2.071   5.137
10302SOL     OW31804   1.862   6.332   4.978
10302SOL    HW131805   1.820   6.276   4.907
10302SOL    HW231806   1.961   6.313   4.982
10303SOL     OW31807   2.027   5.857   2.968
10303SOL    HW131808   2.093   5.824   2.901
10303SOL    HW231809   2.075   5.888   3.050
10304SOL     OW31810   5.530   6.951   1.546
10304SOL    HW131811   5.510   0.015   1.591
10304SOL    HW231812   5.446   6.897   1.540
10305SOL     OW31813   0.965   4.490   6.178
10305SOL    HW131814   0.938   4.458   6.087
10305SOL    HW231815   0.935   4.424   6.247
10306SOL     OW31816   5.175   5.667   6.909
10306SOL    HW131817   5.262   5.638   6.871
10306SOL    HW231818   5.146   5.753   6.866
10307SOL     OW31819   3.023   2.314   5.356
10307SOL    HW131820   3.096   2.322   5.288
10307SOL    HW231821   2.944   2.368   5.328
10308SOL     OW31822   1.850   3.752   3.131
10308SOL    HW131823   1.881   3.845   3.155
10308SOL    HW231824   1.857   3.693   3.212
10309SOL     OW31825   6.678   2.342   0.063
10309SOL    HW131826   6.654   2.245   0.074
10309SOL    HW231827   6.745   2.367   0.133
10310SOL     OW31828   3.077   4.119   0.840
10310SOL    HW131829   3.100   4.039   0.895
10310SOL    HW231830   3.161   4.169   0.816
10311SOL     OW31831   6.412   5.877   0.364
10311SOL    HW131832   6.403   5.857   0.267
10311SOL    HW231833   6.360   5.960   0.386
10312SOL     OW31834   3.944   5.875   2.339
10312SOL    HW131835   3.851   5.858   2.305
10312SOL    HW231836   3.991   5.938   2.277
10313SOL     OW31837   4.498   6.271   1.758
10313SOL    HW131838   4.518   6.222   1.673
10313SOL    HW231839   4.404   6.304   1.757
10314SOL     OW31840   6.656   0.361   1.750
10314SOL    HW131841   6.649   0.381   1.653
10314SOL    HW231842   6.564   0.363   1.791
10315SOL     OW31843   5.168   5.611   5.170
10315SOL    HW131844   5.262   5.587   5.192
10315SOL    HW231845   5.111   5.529   5.173
10316SOL     OW31846   6.178   1.648   5.385
10316SOL    HW131847   6.080   1.649   5.366
10316SOL    HW231848   6.200   1.569   5.442
10317SOL     OW31849   4.672   6.031   5.900
10317SOL    HW131850   4.733   6.111   5.897
10317SOL    HW231851   4.577   6.061   5.887
10318SOL     OW31852   5.085   7.009   6.615
10318SOL    HW131853   5.155   6.938   6.619
10318SOL    HW231854   5.113   0.057   6.551
10319SOL     OW31855   0.611   2.711   5.706
10319SOL    HW131856   0.529   2.692   5.760
10319SOL    HW231857   0.691   2.710   5.766
10320SOL     OW31858   0.826   0.050   2.347
10320SOL    HW131859   0.845   0.089   2.257
10320SOL    HW231860   0.908   0.001   2.380
10321SOL     OW31861   4.151   1.990   1.835
10321SOL    HW131862   4.064   2.024   1.871
10321SOL    HW231863   4.138   1.899   1.797
10322SOL     OW31864   6.064   5.610   5.255
10322SOL    HW131865   6.072   5.518   5.293
10322SOL    HW231866   6.029   5.672   5.325
10323SOL     OW31867   5.787   3.263   5.171
10323SOL    HW131868   5.886   3.260   5.158
10323SOL    HW231869   5.742   3.279   5.083
10324SOL     OW31870   3.240   3.079   2.120
10324SOL    HW131871   3.271   3.018   2.046
10324SOL    HW231872   3.181   3.150   2.082
10325SOL     OW31873   6.549   4.370   2.329
10325SOL    HW131874   6.620   4.428   2.289
10325SOL    HW231875   6.570   4.274   2.310
10326SOL     OW31876   3.589   5.013   0.415
10326SOL    HW131877   3.588   4.938   0.349
10326SOL    HW231878   3.609   5.099   0.367
10327SOL     OW31879   2.378   1.773   0.832
10327SOL    HW131880   2.474   1.750   0.848
10327SOL    HW231881   2.340   1.711   0.764
10328SOL     OW31882   6.896   2.639   1.424
10328SOL    HW131883   6.974   2.643   1.361
10328SOL    HW231884   6.828   2.707   1.397
10329SOL     OW31885   3.218   1.034   4.011
10329SOL    HW131886   3.290   1.085   3.965
10329SOL    HW231887   3.133   1.042   3.959
10330SOL     OW31888   4.577   0.886   2.294
10330SOL    HW131889   4.557   0.912   2.388
10330SOL    HW231890   4.627   0.959   2.249
10331SOL     OW31891   6.399   0.581   6.104
10331SOL    HW131892   6.424   0.504   6.162
10331SOL    HW231893   6.313   0.621   6.136
10332SOL     OW31894   6.664   0.388   1.172
10332SOL    HW131895   6.600   0.460   1.146
10332SOL    HW231896   6.625   0.299   1.147
10333SOL     OW31897   0.148   4.754   5.098
10333SOL    HW131898   0.122   4.829   5.160
10333SOL    HW231899   0.066   4.702   5.074
10334SOL     OW31900   3.146   0.089   3.317
10334SOL    HW131901   3.047   0.097   3.328
10334SOL    HW231902   3.184   0.176   3.287
10335SOL     OW31903   2.591   4.130   6.508
10335SOL    HW131904   2.638   4.213   6.478
10335SOL    HW231905   2.604   4.118   6.606
10336SOL     OW31906   6.622   0.300   2.090
10336SOL    HW131907   6.628   0.214   2.039
10336SOL    HW231908   6.571   0.367   2.036
10337SOL     OW31909   0.057   6.539   5.749
10337SOL    HW131910   7.009   6.470   5.763
10337SOL    HW231911   0.032   6.596   5.671
10338SOL     OW31912   1.758   6.058   2.377
10338SOL    HW131913   1.830   6.019   2.434
10338SOL    HW231914   1.704   5.984   2.336
10339SOL     OW31915   4.121   3.836   6.558
10339SOL    HW131916   4.081   3.923   6.532
10339SOL    HW231917   4.148   3.838   6.654
10340SOL     OW31918   1.603   4.185   1.216
10340SOL    HW131919   1.528   4.202   1.153
10340SOL    HW231920   1.589   4.236   1.301
10341SOL     OW31921   2.028   3.352   2.698
10341SOL    HW131922   2.049   3.365   2.795
10341SOL    HW231923   2.043   3.438   2.649
10342SOL     OW31924   1.812   0.139   4.720
10342SOL    HW131925   1.800   0.182   4.809
10342SOL    HW231926   1.743   0.068   4.708
10343SOL     OW31927   3.585   5.726   0.092
10343SOL    HW131928   3.592   5.780   0.008
10343SOL    HW231929   3.490   5.697   0.105
10344SOL     OW31930   4.378   3.700   1.309
10344SOL    HW131931   4.460   3.756   1.302
10344SOL    HW231932   4.397   3.620   1.367
10345SOL     OW31933   1.634   1.509   6.436
10345SOL    HW131934   1.572   1.578   6.474
10345SOL    HW231935   1.580   1.436   6.394
10346SOL     OW31936   6.957   5.498   1.594
10346SOL    HW131937   6.993   5.467   1.682
10346SOL    HW231938   7.007   5.453   1.520
10347SOL     OW31939   4.213   1.833   3.880
10347SOL    HW131940   4.174   1.807   3.792
10347SOL    HW231941   4.278   1.908   3.867
10348SOL     OW31942   6.452   2.428   0.551
10348SOL    HW131943   6.404   2.511   0.579
10348SOL    HW231944   6.386   2.362   0.516
10349SOL     OW31945   0.984   0.960   0.698
10349SOL    HW131946   1.073   0.929   0.732
10349SOL    HW231947   0.991   0.982   0.601
10350SOL     OW31948   2.232   6.754   5.012
10350SOL    HW131949   2.207   6.843   4.973
10350SOL    HW231950   2.198   6.681   4.953
10351SOL     OW31951   4.338   4.603   6.119
10351SOL    HW131952   4.270   4.642   6.058
10351SOL    HW231953   4.411   4.670   6.135
10352SOL     OW31954   3.917   1.871   5.879
10352SOL    HW131955   3.999   1.827   5.918
10352SOL    HW231956   3.858   1.901   5.953
10353SOL     OW31957   6.761   2.462   5.092
10353SOL    HW131958   6.668   2.493   5.070
10353SOL    HW231959   6.759   2.365   5.115
10354SOL     OW31960   5.715   2.659   2.265
10354SOL    HW131961   5.753   2.571   2.237
10354SOL    HW231962   5.616   2.653   2.270
10355SOL     OW31963   1.464   7.003   2.132
10355SOL    HW131964   1.530   6.997   2.058
10355SOL    HW231965   1.473   6.924   2.192
10356SOL     OW31966   1.081   4.496   5.334
10356SOL    HW131967   1.032   4.580   5.357
10356SOL    HW231968   1.173   4.499   5.373
10357SOL     OW31969   1.829   3.346   6.485
10357SOL    HW131970   1.811   3.423   6.425
10357SOL    HW231971   1.742   3.302   6.509
10358SOL     OW31972   6.169   3.106   3.218
10358SOL    HW131973   6.183   3.064   3.128
10358SOL    HW231974   6.096   3.058   3.266
10359SOL     OW31975   0.478   1.549   2.043
10359SOL    HW131976   0.561   1.549   2.098
10359SOL    HW231977   0.495   1.498   1.959
10360SOL     OW31978   4.859   5.396   3.325
10360SOL    HW131979   4.792   5.322   3.336
10360SOL    HW231980   4.836   5.471   3.388
10361SOL     OW31981   3.100   6.731   3.550
10361SOL    HW131982   3.103   6.759   3.454
10361SOL    HW231983   3.010   6.753   3.588
10362SOL     OW31984   0.633   4.960   4.875
10362SOL    HW131985   0.633   5.057   4.853
10362SOL    HW231986   0.569   4.912   4.816
10363SOL     OW31987   5.056   1.669   1.714
10363SOL    HW131988   5.128   1.607   1.743
10363SOL    HW231989   5.019   1.718   1.793
10364SOL     OW31990   2.980   3.449   1.217
10364SOL    HW131991   2.894   3.401   1.237
10364SOL    HW231992   2.979   3.538   1.263
10365SOL     OW31993   4.686   4.592   6.150
10365SOL    HW131994   4.607   4.572   6.208
10365SOL    HW231995   4.655   4.621   6.060
10366SOL     OW31996   3.521   1.084   4.170
10366SOL    HW131997   3.514   1.041   4.080
10366SOL    HW231998   3.555   1.017   4.236
10367SOL     OW31999   6.382   1.631   2.770
10367SOL    HW132000   6.318   1.668   2.702
10367SOL    HW232001   6.347   1.545   2.805
10368SOL     OW32002   2.054   1.236   1.555
10368SOL    HW132003   2.067   1.220   1.457
10368SOL    HW232004   2.138   1.216   1.604
10369SOL     OW32005   4.098   0.765   5.062
10369SOL    HW132006   4.130   0.773   5.157
10369SOL    HW232007   4.165   0.808   5.001
10370SOL     OW32008   5.475   1.367   5.172
10370SOL    HW132009   5.440   1.290   5.225
10370SOL    HW232010   5.461   1.452   5.222
10371SOL     OW32011   2.979   6.177   5.235
10371SOL    HW132012   2.948   6.082   5.232
10371SOL    HW232013   3.020   6.196   5.324
10372SOL     OW32014   1.052   1.807   6.642
10372SOL    HW132015   1.080   1.732   6.702
10372SOL    HW232016   1.006   1.877   6.697
10373SOL     OW32017   2.200   5.837   4.881
10373SOL    HW132018   2.101   5.840   4.863
10373SOL    HW232019   2.240   5.926   4.860
10374SOL     OW32020   3.982   1.164   2.725
10374SOL    HW132021   3.971   1.098   2.651
10374SOL    HW232022   4.078   1.190   2.733
10375SOL     OW32023   3.377   1.759   6.043
10375SOL    HW132024   3.365   1.729   5.948
10375SOL    HW232025   3.378   1.858   6.047
10376SOL     OW32026   0.973   6.234   3.604
10376SOL    HW132027   0.974   6.152   3.547
10376SOL    HW232028   1.019   6.308   3.555
10377SOL     OW32029   0.333   0.621   4.106
10377SOL    HW132030   0.422   0.596   4.144
10377SOL    HW232031   0.347   0.683   4.028
10378SOL     OW32032   6.726   0.402   6.086
10378SOL    HW132033   6.735   0.478   6.022
10378SOL    HW232034   6.634   0.402   6.125
10379SOL     OW32035   3.445   6.595   5.084
10379SOL    HW132036   3.388   6.653   5.143
10379SOL    HW232037   3.442   6.630   4.990
10380SOL     OW32038   0.427   1.049   3.923
10380SOL    HW132039   0.438   1.139   3.965
10380SOL    HW232040   0.411   1.059   3.825
10381SOL     OW32041   4.055   5.537   6.318
10381SOL    HW132042   4.079   5.441   6.334
10381SOL    HW232043   4.061   5.588   6.404
10382SOL     OW32044   2.273   4.482   6.931
10382SOL    HW132045   2.201   4.518   6.871
10382SOL    HW232046   2.258   4.385   6.947
10383SOL     OW32047   0.580   3.512   1.034
10383SOL    HW132048   0.665   3.563   1.043
10383SOL    HW232049   0.508   3.572   0.998
10384SOL     OW32050   0.730   0.255   0.767
10384SOL    HW132051   0.670   0.260   0.687
10384SOL    HW232052   0.786   0.338   0.771
10385SOL     OW32053   4.210   0.366   6.660
10385SOL    HW132054   4.251   0.310   6.587
10385SOL    HW232055   4.117   0.391   6.634
10386SOL     OW32056   5.659   3.051   5.343
10386SOL    HW132057   5.580   3.097   5.384
10386SOL    HW232058   5.697   3.108   5.271
10387SOL     OW32059   3.830   2.102   2.274
10387SOL    HW132060   3.753   2.148   2.230
10387SOL    HW232061   3.905   2.092   2.209
10388SOL     OW32062   1.265   5.897   3.306
10388SOL    HW132063   1.324   5.817   3.296
10388SOL    HW232064   1.319   5.980   3.299
10389SOL     OW32065   0.226   6.550   1.603
10389SOL    HW132066   0.268   6.555   1.513
10389SOL    HW232067   0.294   6.523   1.671
10390SOL     OW32068   1.619   3.931   1.359
10390SOL    HW132069   1.638   3.938   1.457
10390SOL    HW232070   1.635   4.019   1.315
10391SOL     OW32071   0.951   5.802   4.999
10391SOL    HW132072   1.049   5.824   4.992
10391SOL    HW232073   0.931   5.721   4.943
10392SOL     OW32074   6.435   3.781   0.159
10392SOL    HW132075   6.487   3.769   0.075
10392SOL    HW232076   6.453   3.872   0.197
10393SOL     OW32077   2.055   2.025   2.752
10393SOL    HW132078   2.049   1.984   2.661
10393SOL    HW232079   2.027   1.958   2.821
10394SOL     OW32080   2.573   6.553   6.114
10394SOL    HW132081   2.516   6.482   6.074
10394SOL    HW232082   2.522   6.601   6.186
10395SOL     OW32083   6.237   0.714   4.170
10395SOL    HW132084   6.261   0.657   4.249
10395SOL    HW232085   6.159   0.674   4.123
10396SOL     OW32086   1.835   0.058   4.298
10396SOL    HW132087   1.888   0.090   4.220
10396SOL    HW232088   1.764   0.126   4.320
10397SOL     OW32089   3.576   1.715   3.320
10397SOL    HW132090   3.675   1.730   3.326
10397SOL    HW232091   3.558   1.619   3.300
10398SOL     OW32092   6.212   2.779   0.376
10398SOL    HW132093   6.166   2.710   0.430
10398SOL    HW232094   6.280   2.736   0.316
10399SOL     OW32095   4.532   1.183   4.895
10399SOL    HW132096   4.454   1.221   4.946
10399SOL    HW232097   4.600   1.149   4.959
10400SOL     OW32098   3.640   5.853   1.850
10400SOL    HW132099   3.706   5.836   1.923
10400SOL    HW232100   3.638   5.951   1.829
10401SOL     OW32101   6.914   0.355   2.191
10401SOL    HW132102   6.831   0.317   2.232
10401SOL    HW232103   6.896   0.382   2.097
10402SOL     OW32104   0.425   2.305   5.621
10402SOL    HW132105   0.415   2.212   5.588
10402SOL    HW232106   0.449   2.304   5.718
10403SOL     OW32107   5.364   1.347   2.269
10403SOL    HW132108   5.276   1.374   2.230
10403SOL    HW232109   5.381   1.401   2.352
10404SOL     OW32110   0.608   6.332   3.447
10404SOL    HW132111   0.517   6.368   3.469
10404SOL    HW232112   0.598   6.250   3.390
10405SOL     OW32113   1.618   5.328   5.145
10405SOL    HW132114   1.584   5.286   5.229
10405SOL    HW232115   1.715   5.307   5.134
10406SOL     OW32116   2.059   3.889   5.083
10406SOL    HW132117   2.147   3.936   5.083
10406SOL    HW232118   2.052   3.832   5.166
10407SOL     OW32119   1.796   1.173   6.775
10407SOL    HW132120   1.771   1.101   6.840
10407SOL    HW232121   1.816   1.133   6.686
10408SOL     OW32122   4.587   5.896   2.705
10408SOL    HW132123   4.671   5.949   2.709
10408SOL    HW232124   4.509   5.958   2.715
10409SOL     OW32125   0.794   4.925   1.034
10409SOL    HW132126   0.756   4.908   0.943
10409SOL    HW232127   0.726   4.971   1.091
10410SOL     OW32128   5.269   1.549   1.339
10410SOL    HW132129   5.304   1.493   1.264
10410SOL    HW232130   5.219   1.627   1.302
10411SOL     OW32131   2.998   5.216   4.154
10411SOL    HW132132   3.087   5.201   4.197
10411SOL    HW232133   2.960   5.302   4.188
10412SOL     OW32134   0.557   1.398   0.874
10412SOL    HW132135   0.506   1.472   0.918
10412SOL    HW232136   0.587   1.333   0.944
10413SOL     OW32137   0.720   2.021   0.956
10413SOL    HW132138   0.748   2.043   0.862
10413SOL    HW232139   0.741   2.099   1.016
10414SOL     OW32140   4.646   6.334   6.331
10414SOL    HW132141   4.619   6.426   6.302
10414SOL    HW232142   4.564   6.282   6.357
10415SOL     OW32143   2.162   4.973   4.448
10415SOL    HW132144   2.155   5.067   4.482
10415SOL    HW232145   2.214   4.918   4.514
10416SOL     OW32146   6.798   1.845   5.963
10416SOL    HW132147   6.876   1.795   5.924
10416SOL    HW232148   6.737   1.874   5.890
10417SOL     OW32149   4.315   4.711   3.242
10417SOL    HW132150   4.343   4.745   3.153
10417SOL    HW232151   4.383   4.646   3.277
10418SOL     OW32152   6.634   4.135   5.301
10418SOL    HW132153   6.726   4.164   5.275
10418SOL    HW232154   6.606   4.057   5.245
10419SOL     OW32155   2.952   0.958   4.786
10419SOL    HW132156   2.942   1.057   4.794
10419SOL    HW232157   2.923   0.929   4.695
10420SOL     OW32158   6.672   4.112   2.347
10420SOL    HW132159   6.683   4.083   2.442
10420SOL    HW232160   6.647   4.033   2.291
10421SOL     OW32161   1.179   3.645   3.896
10421SOL    HW132162   1.139   3.736   3.889
10421SOL    HW232163   1.249   3.633   3.825
10422SOL     OW32164   6.519   3.471   5.242
10422SOL    HW132165   6.606   3.442   5.284
10422SOL    HW232166   6.446   3.464   5.309
10423SOL     OW32167   3.929   4.929   4.533
10423SOL    HW132168   3.960   5.023   4.517
10423SOL    HW232169   3.890   4.922   4.625
10424SOL     OW32170   4.959   1.865   0.301
10424SOL    HW132171   5.001   1.951   0.330
10424SOL    HW232172   4.880   1.845   0.359
10425SOL     OW32173   0.636   6.298   1.851
10425SOL    HW132174   0.715   6.290   1.912
10425SOL    HW232175   0.649   6.239   1.772
10426SOL     OW32176   4.701   3.433   5.671
10426SOL    HW132177   4.798   3.416   5.656
10426SOL    HW232178   4.663   3.485   5.594
10427SOL     OW32179   5.268   5.436   5.842
10427SOL    HW132180   5.313   5.366   5.786
10427SOL    HW232181   5.171   5.414   5.850
10428SOL     OW32182   1.133   1.854   3.716
10428SOL    HW132183   1.035   1.852   3.734
10428SOL    HW232184   1.166   1.949   3.721
10429SOL     OW32185   1.377   3.958   3.131
10429SOL    HW132186   1.314   3.929   3.058
10429SOL    HW232187   1.454   4.007   3.090
10430SOL     OW32188   3.594   5.674   4.268
10430SOL    HW132189   3.503   5.642   4.241
10430SOL    HW232190   3.663   5.610   4.234
10431SOL     OW32191   2.560   1.115   4.203
10431SOL    HW132192   2.620   1.193   4.220
10431SOL    HW232193   2.613   1.042   4.158
10432SOL     OW32194   0.985   1.034   5.346
10432SOL    HW132195   0.937   1.085   5.417
10432SOL    HW232196   1.084   1.041   5.361
10433SOL     OW32197   0.946   6.152   1.622
10433SOL    HW132198   0.967   6.102   1.538
10433SOL    HW232199   0.954   6.250   1.605
10434SOL     OW32200   5.117   6.276   4.679
10434SOL    HW132201   5.066   6.292   4.763
10434SOL    HW232202   5.103   6.182   4.649
10435SOL     OW32203   1.311   2.267   6.362
10435SOL    HW132204   1.375   2.326   6.412
10435SOL    HW232205   1.236   2.242   6.423
10436SOL     OW32206   6.182   3.598   4.629
10436SOL    HW132207   6.199   3.559   4.539
10436SOL    HW232208   6.203   3.530   4.700
10437SOL     OW32209   5.092   5.155   5.371
10437SOL    HW132210   5.120   5.070   5.327
10437SOL    HW232211   5.094   5.144   5.470
10438SOL     OW32212   6.742   6.368   5.035
10438SOL    HW132213   6.695   6.381   4.947
10438SOL    HW232214   6.698   6.426   5.104
10439SOL     OW32215   6.358   0.687   4.839
10439SOL    HW132216   6.454   0.706   4.860
10439SOL    HW232217   6.352   0.630   4.757
10440SOL     OW32218   6.914   0.894   6.904
10440SOL    HW132219   6.884   0.988   6.919
10440SOL    HW232220   7.012   0.888   6.919
10441SOL     OW32221   3.209   1.778   0.958
10441SOL    HW132222   3.282   1.844   0.940
10441SOL    HW232223   3.127   1.805   0.908
10442SOL     OW32224   3.391   0.957   5.207
10442SOL    HW132225   3.343   0.953   5.295
10442SOL    HW232226   3.488   0.940   5.221
10443SOL     OW32227   6.871   2.189   2.819
10443SOL    HW132228   6.935   2.189   2.895
10443SOL    HW232229   6.910   2.138   2.742
10444SOL     OW32230   3.367   4.922   3.352
10444SOL    HW132231   3.342   4.918   3.449
10444SOL    HW232232   3.371   5.017   3.323
10445SOL     OW32233   0.518   3.628   2.186
10445SOL    HW132234   0.592   3.570   2.219
10445SOL    HW232235   0.481   3.591   2.101
10446SOL     OW32236   1.690   4.151   5.609
10446SOL    HW132237   1.738   4.118   5.691
10446SOL    HW232238   1.738   4.231   5.573
10447SOL     OW32239   6.292   1.655   2.055
10447SOL    HW132240   6.324   1.637   2.148
10447SOL    HW232241   6.203   1.612   2.041
10448SOL     OW32242   3.265   0.805   3.569
10448SOL    HW132243   3.298   0.763   3.653
10448SOL    HW232244   3.322   0.884   3.546
10449SOL     OW32245   3.562   5.361   0.022
10449SOL    HW132246   3.615   5.431   6.998
10449SOL    HW232247   3.511   5.307   6.977
10450SOL     OW32248   6.253   0.756   6.307
10450SOL    HW132249   6.208   0.831   6.257
10450SOL    HW232250   6.348   0.780   6.323
10451SOL     OW32251   2.951   0.588   3.612
10451SOL    HW132252   3.006   0.630   3.684
10451SOL    HW232253   2.923   0.657   3.546
10452SOL     OW32254   0.107   2.543   2.900
10452SOL    HW132255   0.009   2.563   2.897
10452SOL    HW232256   0.157   2.625   2.928
10453SOL     OW32257   4.840   5.999   2.664
10453SOL    HW132258   4.821   5.966   2.571
10453SOL    HW232259   4.867   6.095   2.661
10454SOL     OW32260   6.382   1.267   0.031
10454SOL    HW132261   6.341   1.220   0.109
10454SOL    HW232262   6.375   1.366   0.044
10455SOL     OW32263   6.209   6.091   4.374
10455SOL    HW132264   6.160   6.130   4.296
10455SOL    HW232265   6.198   6.150   4.454
10456SOL     OW32266   0.020   5.554   0.009
10456SOL    HW132267   6.975   5.620   0.039
10456SOL    HW232268   6.999   5.465   7.019
10457SOL     OW32269   4.564   3.584   6.680
10457SOL    HW132270   4.645   3.594   6.737
10457SOL    HW232271   4.529   3.674   6.656
10458SOL     OW32272   6.802   0.594   5.833
10458SOL    HW132273   6.865   0.671   5.826
10458SOL    HW232274   6.711   0.622   5.802
10459SOL     OW32275   6.454   5.063   0.829
10459SOL    HW132276   6.475   4.965   0.826
10459SOL    HW232277   6.420   5.087   0.919
10460SOL     OW32278   6.894   4.240   1.957
10460SOL    HW132279   6.975   4.182   1.951
10460SOL    HW232280   6.814   4.190   1.927
10461SOL     OW32281   6.579   4.444   5.332
10461SOL    HW132282   6.611   4.490   5.414
10461SOL    HW232283   6.578   4.345   5.348
10462SOL     OW32284   4.885   1.506   2.031
10462SOL    HW132285   4.829   1.433   1.991
10462SOL    HW232286   4.854   1.594   1.994
10463SOL     OW32287   4.766   1.678   6.071
10463SOL    HW132288   4.856   1.699   6.032
10463SOL    HW232289   4.723   1.763   6.101
10464SOL     OW32290   5.653   5.718   2.173
10464SOL    HW132291   5.627   5.637   2.120
10464SOL    HW232292   5.683   5.689   2.264
10465SOL     OW32293   5.121   4.626   2.543
10465SOL    HW132294   5.044   4.683   2.573
10465SOL    HW232295   5.094   4.573   2.463
10466SOL     OW32296   4.918   4.299   6.412
10466SOL    HW132297   4.922   4.204   6.444
10466SOL    HW232298   4.867   4.354   6.478
10467SOL     OW32299   1.499   2.578   6.961
10467SOL    HW132300   1.594   2.608   6.954
10467SOL    HW232301   1.492   2.483   6.932
10468SOL     OW32302   3.764   5.379   3.386
10468SOL    HW132303   3.691   5.355   3.450
10468SOL    HW232304   3.809   5.295   3.355
10469SOL     OW32305   4.834   4.022   5.911
10469SOL    HW132306   4.812   4.078   5.831
10469SOL    HW232307   4.911   4.063   5.960
10470SOL     OW32308   2.444   1.923   3.402
10470SOL    HW132309   2.376   1.981   3.447
10470SOL    HW232310   2.531   1.928   3.451
10471SOL     OW32311   3.042   0.344   6.898
10471SOL    HW132312   3.057   0.328   6.995
10471SOL    HW232313   3.114   0.403   6.862
10472SOL     OW32314   2.389   5.702   1.097
10472SOL    HW132315   2.332   5.658   1.166
10472SOL    HW232316   2.331   5.743   1.027
10473SOL     OW32317   5.625   6.243   5.611
10473SOL    HW132318   5.609   6.196   5.698
10473SOL    HW232319   5.723   6.264   5.602
10474SOL     OW32320   4.936   1.057   3.936
10474SOL    HW132321   4.879   1.034   3.857
10474SOL    HW232322   4.909   1.000   4.014
10475SOL     OW32323   2.292   6.523   1.828
10475SOL    HW132324   2.229   6.557   1.759
10475SOL    HW232325   2.380   6.571   1.819
10476SOL     OW32326   4.987   6.400   6.023
10476SOL    HW132327   4.956   6.345   5.946
10476SOL    HW232328   5.084   6.383   6.041
10477SOL     OW32329   0.123   0.318   4.341
10477SOL    HW132330   0.096   0.327   4.437
10477SOL    HW232331   0.048   0.279   4.288
10478SOL     OW32332   0.008   6.719   0.421
10478SOL    HW132333   6.964   6.774   0.371
10478SOL    HW232334   0.023   6.633   0.373
10479SOL     OW32335   6.818   1.519   2.050
10479SOL    HW132336   6.905   1.542   2.006
10479SOL    HW232337   6.817   1.557   2.143
10480SOL     OW32338   1.226   0.233   1.842
10480SOL    HW132339   1.180   0.302   1.898
10480SOL    HW232340   1.170   0.212   1.762
10481SOL     OW32341   1.154   6.081   2.996
10481SOL    HW132342   1.148   6.173   3.035
10481SOL    HW232343   1.117   6.015   3.060
10482SOL     OW32344   6.269   4.974   5.055
10482SOL    HW132345   6.211   5.015   5.126
10482SOL    HW232346   6.342   4.921   5.098
10483SOL     OW32347   5.182   6.040   0.282
10483SOL    HW132348   5.191   6.007   0.376
10483SOL    HW232349   5.088   6.028   0.251
10484SOL     OW32350   4.701   1.479   1.124
10484SOL    HW132351   4.699   1.381   1.143
10484SOL    HW232352   4.777   1.521   1.174
10485SOL     OW32353   3.441   4.445   6.793
10485SOL    HW132354   3.355   4.492   6.772
10485SOL    HW232355   3.431   4.347   6.774
10486SOL     OW32356   6.766   1.297   0.980
10486SOL    HW132357   6.853   1.280   1.026
10486SOL    HW232358   6.733   1.211   0.940
10487SOL     OW32359   5.248   6.952   2.429
10487SOL    HW132360   5.238   6.965   2.527
10487SOL    HW232361   5.334   6.991   2.398
10488SOL     OW32362   2.694   2.581   6.237
10488SOL    HW132363   2.688   2.502   6.176
10488SOL    HW232364   2.672   2.664   6.187
10489SOL     OW32365   0.547   6.836   5.458
10489SOL    HW132366   0.511   6.915   5.408
10489SOL    HW232367   0.598   6.867   5.538
10490SOL     OW32368   6.331   1.611   1.787
10490SOL    HW132369   6.337   1.694   1.730
10490SOL    HW232370   6.357   1.633   1.881
10491SOL     OW32371   1.701   3.593   0.364
10491SOL    HW132372   1.688   3.648   0.447
10491SOL    HW232373   1.675   3.647   0.284
10492SOL     OW32374   5.850   3.418   5.760
10492SOL    HW132375   5.930   3.421   5.820
10492SOL    HW232376   5.798   3.334   5.778
10493SOL     OW32377   3.365   0.989   1.893
10493SOL    HW132378   3.363   1.072   1.949
10493SOL    HW232379   3.286   0.990   1.830
10494SOL     OW32380   4.842   2.860   5.492
10494SOL    HW132381   4.830   2.909   5.405
10494SOL    HW232382   4.847   2.927   5.566
10495SOL     OW32383   2.084   6.837   0.104
10495SOL    HW132384   2.052   6.747   0.135
10495SOL    HW232385   2.160   6.825   0.041
10496SOL     OW32386   0.652   6.125   0.724
10496SOL    HW132387   0.562   6.095   0.695
10496SOL    HW232388   0.671   6.216   0.687
10497SOL     OW32389   2.035   6.495   1.970
10497SOL    HW132390   2.127   6.487   1.932
10497SOL    HW232391   2.012   6.592   1.982
10498SOL     OW32392   2.909   6.563   1.474
10498SOL    HW132393   2.919   6.472   1.434
10498SOL    HW232394   2.812   6.589   1.473
10499SOL     OW32395   3.350   6.272   2.089
10499SOL    HW132396   3.388   6.364   2.087
10499SOL    HW232397   3.265   6.270   2.035
10500SOL     OW32398   0.494   1.100   6.106
10500SOL    HW132399   0.544   1.058   6.030
10500SOL    HW232400   0.465   1.192   6.079
10501SOL     OW32401   2.057   5.391   3.119
10501SOL    HW132402   1.980   5.430   3.069
10501SOL    HW232403   2.081   5.452   3.195
10502SOL     OW32404   3.021   0.711   0.947
10502SOL    HW132405   3.061   0.797   0.978
10502SOL    HW232406   3.072   0.676   0.868
10503SOL     OW32407   4.314   2.798   0.012
10503SOL    HW132408   4.393   2.836   6.986
10503SOL    HW232409   4.345   2.744   0.090
10504SOL     OW32410   2.235   2.016   0.065
10504SOL    HW132411   2.186   2.097   0.097
10504SOL    HW232412   2.189   1.978   7.008
10505SOL     OW32413   6.079   5.591   1.021
10505SOL    HW132414   6.001   5.601   1.084
10505SOL    HW232415   6.077   5.499   0.981
10506SOL     OW32416   0.269   5.248   5.955
10506SOL    HW132417   0.296   5.159   5.991
10506SOL    HW232418   0.255   5.312   6.032
10507SOL     OW32419   2.708   6.640   6.731
10507SOL    HW132420   2.797   6.635   6.686
10507SOL    HW232421   2.637   6.610   6.667
10508SOL     OW32422   5.700   5.838   4.789
10508SOL    HW132423   5.665   5.866   4.700
10508SOL    HW232424   5.798   5.856   4.793
10509SOL     OW32425   1.049   6.350   5.468
10509SOL    HW132426   1.086   6.421   5.408
10509SOL    HW232427   1.028   6.389   5.557
10510SOL     OW32428   5.167   5.599   6.291
10510SOL    HW132429   5.139   5.689   6.257
10510SOL    HW232430   5.213   5.548   6.219
10511SOL     OW32431   5.065   2.663   1.176
10511SOL    HW132432   5.099   2.586   1.230
10511SOL    HW232433   4.977   2.640   1.135
10512SOL     OW32434   3.685   0.657   5.817
10512SOL    HW132435   3.643   0.570   5.790
10512SOL    HW232436   3.673   0.670   5.916
10513SOL     OW32437   0.353   2.714   5.258
10513SOL    HW132438   0.440   2.731   5.213
10513SOL    HW232439   0.361   2.633   5.317
10514SOL     OW32440   0.225   4.126   0.056
10514SOL    HW132441   0.229   4.199   0.124
10514SOL    HW232442   0.182   4.160   6.996
10515SOL     OW32443   6.442   2.275   3.005
10515SOL    HW132444   6.532   2.312   2.980
10515SOL    HW232445   6.448   2.176   3.014
10516SOL     OW32446   4.538   0.901   6.369
10516SOL    HW132447   4.633   0.881   6.345
10516SOL    HW232448   4.535   0.948   6.457
10517SOL     OW32449   0.046   2.128   2.985
10517SOL    HW132450   0.117   2.194   2.958
10517SOL    HW232451   0.090   2.044   3.018
10518SOL     OW32452   0.849   4.687   6.914
10518SOL    HW132453   0.938   4.719   6.882
10518SOL    HW232454   0.778   4.721   6.854
10519SOL     OW32455   2.391   2.523   6.430
10519SOL    HW132456   2.409   2.507   6.333
10519SOL    HW232457   2.344   2.611   6.441
10520SOL     OW32458   2.038   2.272   6.517
10520SOL    HW132459   1.974   2.199   6.493
10520SOL    HW232460   2.039   2.284   6.617
10521SOL     OW32461   6.267   5.251   1.621
10521SOL    HW132462   6.207   5.298   1.557
10521SOL    HW232463   6.354   5.299   1.627
10522SOL     OW32464   6.107   0.690   0.050
10522SOL    HW132465   6.046   0.766   0.069
10522SOL    HW232466   6.181   0.690   0.118
10523SOL     OW32467   0.395   5.940   4.819
10523SOL    HW132468   0.420   5.871   4.887
10523SOL    HW232469   0.432   6.029   4.846
10524SOL     OW32470   2.148   1.240   4.925
10524SOL    HW132471   2.141   1.276   4.832
10524SOL    HW232472   2.057   1.234   4.965
10525SOL     OW32473   3.264   0.146   5.594
10525SOL    HW132474   3.340   0.135   5.659
10525SOL    HW232475   3.185   0.185   5.641
10526SOL     OW32476   0.626   6.825   2.640
10526SOL    HW132477   0.622   6.855   2.544
10526SOL    HW232478   0.690   6.883   2.690
10527SOL     OW32479   6.946   2.838   4.861
10527SOL    HW132480   6.954   2.836   4.961
10527SOL    HW232481   6.902   2.753   4.830
10528SOL     OW32482   0.390   3.846   5.995
10528SOL    HW132483   0.407   3.751   5.968
10528SOL    HW232484   0.448   3.907   5.941
10529SOL     OW32485   2.415   6.415   4.225
10529SOL    HW132486   2.366   6.329   4.236
10529SOL    HW232487   2.505   6.397   4.185
10530SOL     OW32488   1.879   1.375   6.027
10530SOL    HW132489   1.919   1.412   5.943
10530SOL    HW232490   1.949   1.371   6.099
10531SOL     OW32491   0.949   3.088   4.305
10531SOL    HW132492   1.023   3.070   4.370
10531SOL    HW232493   0.958   3.027   4.226
10532SOL     OW32494   2.259   4.068   0.489
10532SOL    HW132495   2.351   4.096   0.515
10532SOL    HW232496   2.219   4.136   0.427
10533SOL     OW32497   3.387   1.874   4.551
10533SOL    HW132498   3.297   1.867   4.595
10533SOL    HW232499   3.395   1.805   4.480
10534SOL     OW32500   6.257   5.641   1.655
10534SOL    HW132501   6.250   5.709   1.728
10534SOL    HW232502   6.347   5.647   1.612
10535SOL     OW32503   0.293   1.992   1.194
10535SOL    HW132504   0.362   2.064   1.192
10535SOL    HW232505   0.215   2.022   1.249
10536SOL     OW32506   3.741   0.906   3.012
10536SOL    HW132507   3.817   0.971   3.022
10536SOL    HW232508   3.752   0.854   2.927
10537SOL     OW32509   3.606   5.515   3.605
10537SOL    HW132510   3.645   5.429   3.635
10537SOL    HW232511   3.563   5.561   3.683
10538SOL     OW32512   4.728   3.191   0.075
10538SOL    HW132513   4.665   3.215   0.149
10538SOL    HW232514   4.709   3.099   0.043
10539SOL     OW32515   0.437   4.451   6.942
10539SOL    HW132516   0.397   4.364   6.969
10539SOL    HW232517   0.507   4.435   6.871
10540SOL     OW32518   1.716   2.070   5.238
10540SOL    HW132519   1.790   2.128   5.203
10540SOL    HW232520   1.726   1.978   5.201
10541SOL     OW32521   3.715   3.516   1.860
10541SOL    HW132522   3.728   3.427   1.905
10541SOL    HW232523   3.637   3.563   1.901
10542SOL     OW32524   6.751   1.903   0.231
10542SOL    HW132525   6.780   1.969   0.300
10542SOL    HW232526   6.788   1.813   0.253
10543SOL     OW32527   0.055   1.549   5.049
10543SOL    HW132528   0.072   1.637   5.093
10543SOL    HW232529   0.142   1.503   5.029
10544SOL     OW32530   1.380   6.902   2.540
10544SOL    HW132531   1.296   6.856   2.512
10544SOL    HW232532   1.358   6.976   2.602
10545SOL     OW32533   5.540   1.423   2.863
10545SOL    HW132534   5.589   1.501   2.826
10545SOL    HW232535   5.606   1.355   2.897
10546SOL     OW32536   0.811   1.117   6.097
10546SOL    HW132537   0.754   1.061   6.036
10546SOL    HW232538   0.831   1.204   6.052
10547SOL     OW32539   4.487   1.847   1.526
10547SOL    HW132540   4.511   1.775   1.461
10547SOL    HW232541   4.391   1.836   1.553
10548SOL     OW32542   5.118   4.014   4.685
10548SOL    HW132543   5.182   4.084   4.652
10548SOL    HW232544   5.159   3.965   4.762
10549SOL     OW32545   6.489   0.498   2.287
10549SOL    HW132546   6.514   0.473   2.381
10549SOL    HW232547   6.567   0.541   2.242
10550SOL     OW32548   4.734   6.385   4.561
10550SOL    HW132549   4.769   6.300   4.600
10550SOL    HW232550   4.777   6.463   4.606
10551SOL     OW32551   1.792   2.444   5.587
10551SOL    HW132552   1.789   2.356   5.539
10551SOL    HW232553   1.857   2.439   5.662
10552SOL     OW32554   3.904   2.370   5.753
10552SOL    HW132555   3.932   2.336   5.663
10552SOL    HW232556   3.976   2.350   5.819
10553SOL     OW32557   1.233   4.939   1.906
10553SOL    HW132558   1.202   5.034   1.901
10553SOL    HW232559   1.292   4.919   1.828
10554SOL     OW32560   4.997   5.178   6.683
10554SOL    HW132561   5.075   5.231   6.717
10554SOL    HW232562   5.022   5.134   6.597
10555SOL     OW32563   2.719   3.272   1.016
10555SOL    HW132564   2.694   3.323   1.098
10555SOL    HW232565   2.818   3.275   1.004
10556SOL     OW32566   2.038   2.835   5.355
10556SOL    HW132567   1.990   2.751   5.379
10556SOL    HW232568   2.086   2.822   5.268
10557SOL     OW32569   1.443   2.624   3.326
10557SOL    HW132570   1.539   2.607   3.304
10557SOL    HW232571   1.405   2.544   3.373
10558SOL     OW32572   4.151   0.129   4.110
10558SOL    HW132573   4.069   0.079   4.083
10558SOL    HW232574   4.151   0.220   4.068
10559SOL     OW32575   3.965   0.486   1.043
10559SOL    HW132576   3.968   0.571   0.990
10559SOL    HW232577   4.048   0.478   1.099
10560SOL     OW32578   2.804   6.546   4.273
10560SOL    HW132579   2.833   6.592   4.357
10560SOL    HW232580   2.846   6.456   4.267
10561SOL     OW32581   2.506   4.986   0.496
10561SOL    HW132582   2.474   4.938   0.577
10561SOL    HW232583   2.455   4.954   0.416
10562SOL     OW32584   5.207   6.398   0.425
10562SOL    HW132585   5.214   6.498   0.428
10562SOL    HW232586   5.284   6.358   0.475
10563SOL     OW32587   1.221   0.445   4.189
10563SOL    HW132588   1.265   0.524   4.231
10563SOL    HW232589   1.242   0.363   4.243
10564SOL     OW32590   5.897   6.383   2.166
10564SOL    HW132591   5.813   6.413   2.121
10564SOL    HW232592   5.895   6.283   2.175
10565SOL     OW32593   0.562   0.674   5.167
10565SOL    HW132594   0.649   0.718   5.188
10565SOL    HW232595   0.511   0.732   5.103
10566SOL     OW32596   3.850   3.080   6.995
10566SOL    HW132597   3.785   3.004   7.005
10566SOL    HW232598   3.922   3.071   0.041
10567SOL     OW32599   2.466   2.083   4.203
10567SOL    HW132600   2.479   2.163   4.145
10567SOL    HW232601   2.471   2.111   4.299
10568SOL     OW32602   5.669   1.008   1.399
10568SOL    HW132603   5.638   1.096   1.363
10568SOL    HW232604   5.641   0.999   1.495
10569SOL     OW32605   6.699   2.541   1.663
10569SOL    HW132606   6.779   2.546   1.603
10569SOL    HW232607   6.697   2.620   1.724
10570SOL     OW32608   1.850   4.825   3.226
10570SOL    HW132609   1.783   4.838   3.152
10570SOL    HW232610   1.806   4.778   3.302
10571SOL     OW32611   0.050   4.913   4.511
10571SOL    HW132612   0.141   4.951   4.529
10571SOL    HW232613   0.053   4.814   4.523
10572SOL     OW32614   6.744   3.739   3.255
10572SOL    HW132615   6.658   3.740   3.304
10572SOL    HW232616   6.759   3.648   3.215
10573SOL     OW32617   4.857   6.007   4.448
10573SOL    HW132618   4.947   6.042   4.420
10573SOL    HW232619   4.839   6.036   4.542
10574SOL     OW32620   1.704   1.595   4.331
10574SOL    HW132621   1.701   1.630   4.237
10574SOL    HW232622   1.799   1.590   4.361
10575SOL     OW32623   6.985   0.943   3.250
10575SOL    HW132624   0.006   1.027   3.281
10575SOL    HW232625   6.898   0.966   3.206
10576SOL     OW32626   6.928   6.614   5.445
10576SOL    HW132627   6.992   6.645   5.375
10576SOL    HW232628   6.872   6.692   5.475
10577SOL     OW32629   1.309   2.334   6.644
10577SOL    HW132630   1.274   2.241   6.635
10577SOL    HW232631   1.404   2.337   6.613
10578SOL     OW32632   6.219   0.497   3.881
10578SOL    HW132633   6.201   0.567   3.811
10578SOL    HW232634   6.136   0.483   3.935
10579SOL     OW32635   3.689   1.651   0.551
10579SOL    HW132636   3.611   1.649   0.614
10579SOL    HW232637   3.762   1.592   0.586
10580SOL     OW32638   0.082   0.408   0.106
10580SOL    HW132639   0.072   0.374   0.013
10580SOL    HW232640   0.026   0.353   0.168
10581SOL     OW32641   5.916   6.845   2.758
10581SOL    HW132642   5.899   6.782   2.834
10581SOL    HW232643   5.951   6.794   2.680
10582SOL     OW32644   4.257   4.710   7.011
10582SOL    HW132645   4.242   4.677   0.081
10582SOL    HW232646   4.277   4.633   6.950
10583SOL     OW32647   4.202   1.055   5.457
10583SOL    HW132648   4.111   1.077   5.494
10583SOL    HW232649   4.244   1.137   5.421
10584SOL     OW32650   6.378   6.863   1.139
10584SOL    HW132651   6.283   6.895   1.149
10584SOL    HW232652   6.381   6.764   1.156
10585SOL     OW32653   1.500   3.508   5.463
10585SOL    HW132654   1.590   3.544   5.485
10585SOL    HW232655   1.469   3.448   5.537
10586SOL     OW32656   1.462   5.905   5.187
10586SOL    HW132657   1.516   5.959   5.252
10586SOL    HW232658   1.515   5.890   5.104
10587SOL     OW32659   6.303   4.531   0.229
10587SOL    HW132660   6.397   4.511   0.203
10587SOL    HW232661   6.263   4.594   0.163
10588SOL     OW32662   0.980   4.395   2.322
10588SOL    HW132663   0.935   4.358   2.403
10588SOL    HW232664   0.978   4.326   2.249
10589SOL     OW32665   5.841   1.655   4.476
10589SOL    HW132666   5.839   1.634   4.574
10589SOL    HW232667   5.936   1.674   4.448
10590SOL     OW32668   0.885   0.231   1.903
10590SOL    HW132669   0.914   0.270   1.990
10590SOL    HW232670   0.946   0.262   1.830
10591SOL     OW32671   1.134   1.441   6.235
10591SOL    HW132672   1.123   1.343   6.255
10591SOL    HW232673   1.187   1.452   6.151
10592SOL     OW32674   5.586   2.536   0.132
10592SOL    HW132675   5.590   2.500   0.226
10592SOL    HW232676   5.548   2.629   0.134
10593SOL     OW32677   2.546   5.258   0.561
10593SOL    HW132678   2.642   5.261   0.587
10593SOL    HW232679   2.523   5.167   0.526
10594SOL     OW32680   5.605   0.993   3.159
10594SOL    HW132681   5.653   1.010   3.073
10594SOL    HW232682   5.669   0.954   3.225
10595SOL     OW32683   3.481   0.514   6.050
10595SOL    HW132684   3.401   0.561   6.013
10595SOL    HW232685   3.476   0.417   6.027
10596SOL     OW32686   4.595   0.191   1.157
10596SOL    HW132687   4.535   0.228   1.086
10596SOL    HW232688   4.685   0.173   1.118
10597SOL     OW32689   3.228   0.947   4.763
10597SOL    HW132690   3.129   0.961   4.773
10597SOL    HW232691   3.260   0.992   4.680
10598SOL     OW32692   2.750   2.770   0.099
10598SOL    HW132693   2.768   2.762   0.197
10598SOL    HW232694   2.775   2.685   0.053
10599SOL     OW32695   5.273   2.238   0.075
10599SOL    HW132696   5.319   2.151   0.063
10599SOL    HW232697   5.212   2.255   7.020
10600SOL     OW32698   1.882   3.404   0.473
10600SOL    HW132699   1.961   3.465   0.479
10600SOL    HW232700   1.803   3.455   0.441
10601SOL     OW32701   1.795   4.729   6.465
10601SOL    HW132702   1.767   4.787   6.389
10601SOL    HW232703   1.843   4.783   6.534
10602SOL     OW32704   5.076   1.817   3.480
10602SOL    HW132705   5.125   1.865   3.552
10602SOL    HW232706   5.129   1.821   3.395
10603SOL     OW32707   2.154   5.854   3.676
10603SOL    HW132708   2.220   5.782   3.700
10603SOL    HW232709   2.064   5.830   3.713
10604SOL     OW32710   6.028   4.066   5.079
10604SOL    HW132711   5.964   4.058   5.155
10604SOL    HW232712   5.978   4.051   4.993
10605SOL     OW32713   1.749   4.671   0.773
10605SOL    HW132714   1.711   4.736   0.707
10605SOL    HW232715   1.834   4.632   0.736
10606SOL     OW32716   5.928   7.021   2.165
10606SOL    HW132717   5.882   6.996   2.250
10606SOL    HW232718   6.018   6.977   2.161
10607SOL     OW32719   4.407   3.605   5.713
10607SOL    HW132720   4.388   3.633   5.807
10607SOL    HW232721   4.449   3.681   5.664
10608SOL     OW32722   5.579   2.121   5.261
10608SOL    HW132723   5.652   2.098   5.197
10608SOL    HW232724   5.494   2.075   5.234
10609SOL     OW32725   3.454   6.710   1.652
10609SOL    HW132726   3.542   6.664   1.639
10609SOL    HW232727   3.406   6.670   1.730
10610SOL     OW32728   0.116   3.894   6.494
10610SOL    HW132729   0.063   3.960   6.546
10610SOL    HW232730   0.054   3.834   6.442
10611SOL     OW32731   4.593   3.300   6.270
10611SOL    HW132732   4.515   3.247   6.235
10611SOL    HW232733   4.562   3.391   6.295
10612SOL     OW32734   2.884   0.008   5.670
10612SOL    HW132735   2.889   6.946   5.618
10612SOL    HW232736   2.802   0.008   5.727
10613SOL     OW32737   0.088   0.045   5.227
10613SOL    HW132738   0.035   0.003   5.301
10613SOL    HW232739   0.144   6.998   5.182
10614SOL     OW32740   6.769   1.898   3.990
10614SOL    HW132741   6.756   1.906   4.089
10614SOL    HW232742   6.840   1.961   3.961
10615SOL     OW32743   3.700   5.488   5.918
10615SOL    HW132744   3.721   5.475   6.015
10615SOL    HW232745   3.603   5.470   5.902
10616SOL     OW32746   3.302   6.333   0.758
10616SOL    HW132747   3.317   6.431   0.746
10616SOL    HW232748   3.243   6.298   0.686
10617SOL     OW32749   2.608   3.058   0.647
10617SOL    HW132750   2.540   3.128   0.670
10617SOL    HW232751   2.571   2.997   0.577
10618SOL     OW32752   5.719   3.600   6.806
10618SOL    HW132753   5.804   3.589   6.858
10618SOL    HW232754   5.712   3.695   6.774
10619SOL     OW32755   0.559   3.760   1.772
10619SOL    HW132756   0.628   3.738   1.703
10619SOL    HW232757   0.573   3.854   1.805
10620SOL     OW32758   1.338   5.982   5.706
10620SOL    HW132759   1.396   5.951   5.781
10620SOL    HW232760   1.243   5.986   5.737
10621SOL     OW32761   1.441   5.705   0.878
10621SOL    HW132762   1.409   5.800   0.880
10621SOL    HW232763   1.530   5.699   0.924
10622SOL     OW32764   4.998   1.415   1.248
10622SOL    HW132765   4.925   1.469   1.289
10622SOL    HW232766   5.022   1.339   1.310
10623SOL     OW32767   6.380   3.811   3.618
10623SOL    HW132768   6.417   3.887   3.566
10623SOL    HW232769   6.451   3.741   3.630
10624SOL     OW32770   1.016   1.381   4.745
10624SOL    HW132771   0.920   1.357   4.740
10624SOL    HW232772   1.046   1.419   4.658
10625SOL     OW32773   0.856   4.629   0.167
10625SOL    HW132774   0.894   4.703   0.222
10625SOL    HW232775   0.855   4.655   0.071
10626SOL     OW32776   1.223   2.712   1.231
10626SOL    HW132777   1.216   2.636   1.166
10626SOL    HW232778   1.151   2.704   1.300
10627SOL     OW32779   5.241   6.075   2.226
10627SOL    HW132780   5.310   6.056   2.296
10627SOL    HW232781   5.257   6.166   2.188
10628SOL     OW32782   5.741   5.458   6.154
10628SOL    HW132783   5.777   5.378   6.202
10628SOL    HW232784   5.667   5.498   6.209
10629SOL     OW32785   2.570   4.632   5.029
10629SOL    HW132786   2.662   4.599   5.052
10629SOL    HW232787   2.573   4.683   4.944
10630SOL     OW32788   6.049   1.099   3.752
10630SOL    HW132789   6.080   1.194   3.758
10630SOL    HW232790   5.968   1.087   3.810
10631SOL     OW32791   1.868   4.928   5.034
10631SOL    HW132792   1.782   4.907   4.986
10631SOL    HW232793   1.856   4.911   5.132
10632SOL     OW32794   5.648   2.145   4.151
10632SOL    HW132795   5.741   2.172   4.127
10632SOL    HW232796   5.651   2.078   4.226
10633SOL     OW32797   2.842   4.438   1.437
10633SOL    HW132798   2.829   4.503   1.513
10633SOL    HW232799   2.939   4.434   1.414
10634SOL     OW32800   3.258   5.339   0.858
10634SOL    HW132801   3.333   5.293   0.905
10634SOL    HW232802   3.194   5.271   0.822
10635SOL     OW32803   3.232   1.219   1.264
10635SOL    HW132804   3.319   1.171   1.249
10635SOL    HW232805   3.220   1.237   1.362
10636SOL     OW32806   1.467   1.984   1.980
10636SOL    HW132807   1.496   1.992   1.884
10636SOL    HW232808   1.545   2.004   2.040
10637SOL     OW32809   3.586   4.582   5.729
10637SOL    HW132810   3.564   4.504   5.788
10637SOL    HW232811   3.502   4.629   5.703
10638SOL     OW32812   0.236   5.610   2.639
10638SOL    HW132813   0.332   5.586   2.624
10638SOL    HW232814   0.188   5.612   2.551
10639SOL     OW32815   0.513   2.164   2.966
10639SOL    HW132816   0.424   2.150   2.923
10639SOL    HW232817   0.583   2.116   2.913
10640SOL     OW32818   4.069   6.999   6.604
10640SOL    HW132819   4.016   0.031   6.539
10640SOL    HW232820   4.165   6.997   6.575
10641SOL     OW32821   3.125   1.800   0.305
10641SOL    HW132822   3.193   1.779   0.234
10641SOL    HW232823   3.167   1.788   0.395
10642SOL     OW32824   0.717   2.411   1.874
10642SOL    HW132825   0.791   2.362   1.828
10642SOL    HW232826   0.726   2.398   1.973
10643SOL     OW32827   2.086   4.998   5.830
10643SOL    HW132828   2.001   4.969   5.787
10643SOL    HW232829   2.128   5.070   5.776
10644SOL     OW32830   5.255   2.160   3.435
10644SOL    HW132831   5.225   2.143   3.528
10644SOL    HW232832   5.340   2.213   3.437
10645SOL     OW32833   0.794   1.025   4.293
10645SOL    HW132834   0.805   1.086   4.372
10645SOL    HW232835   0.826   1.072   4.211
10646SOL     OW32836   0.469   1.744   5.115
10646SOL    HW132837   0.503   1.732   5.022
10646SOL    HW232838   0.539   1.713   5.180
10647SOL     OW32839   4.896   6.190   6.890
10647SOL    HW132840   4.847   6.173   6.975
10647SOL    HW232841   4.986   6.228   6.910
10648SOL     OW32842   5.180   3.194   6.379
10648SOL    HW132843   5.275   3.181   6.408
10648SOL    HW232844   5.176   3.198   6.280
10649SOL     OW32845   0.501   4.509   3.635
10649SOL    HW132846   0.556   4.587   3.605
10649SOL    HW232847   0.404   4.530   3.626
10650SOL     OW32848   1.427   5.976   3.012
10650SOL    HW132849   1.328   5.987   2.997
10650SOL    HW232850   1.457   6.039   3.084
10651SOL     OW32851   4.779   0.459   5.831
10651SOL    HW132852   4.732   0.464   5.919
10651SOL    HW232853   4.712   0.444   5.758
10652SOL     OW32854   3.474   0.358   0.105
10652SOL    HW132855   3.441   0.268   0.077
10652SOL    HW232856   3.466   0.421   0.028
10653SOL     OW32857   4.855   4.922   4.267
10653SOL    HW132858   4.936   4.945   4.214
10653SOL    HW232859   4.782   4.987   4.247
10654SOL     OW32860   4.710   0.955   0.816
10654SOL    HW132861   4.653   0.903   0.879
10654SOL    HW232862   4.708   0.913   0.725
10655SOL     OW32863   3.322   5.547   1.491
10655SOL    HW132864   3.345   5.642   1.470
10655SOL    HW232865   3.289   5.541   1.585
10656SOL     OW32866   6.152   2.273   0.663
10656SOL    HW132867   6.165   2.214   0.584
10656SOL    HW232868   6.190   2.229   0.744
10657SOL     OW32869   6.506   6.760   0.013
10657SOL    HW132870   6.523   6.851   6.999
10657SOL    HW232871   6.422   6.761   0.067
10658SOL     OW32872   6.996   4.027   4.915
10658SOL    HW132873   6.905   4.048   4.950
10658SOL    HW232874   7.005   4.061   4.821
10659SOL     OW32875   6.966   6.150   0.843
10659SOL    HW132876   6.917   6.212   0.904
10659SOL    HW232877   0.038   6.180   0.836
10660SOL     OW32878   5.141   4.483   6.385
10660SOL    HW132879   5.224   4.438   6.415
10660SOL    HW232880   5.067   4.416   6.376
10661SOL     OW32881   6.945   6.454   2.692
10661SOL    HW132882   0.009   6.503   2.691
10661SOL    HW232883   6.874   6.511   2.649
10662SOL     OW32884   5.945   0.871   2.614
10662SOL    HW132885   5.995   0.825   2.687
10662SOL    HW232886   5.999   0.867   2.529
10663SOL     OW32887   0.467   6.669   1.364
10663SOL    HW132888   0.514   6.594   1.318
10663SOL    HW232889   0.522   6.700   1.442
10664SOL     OW32890   2.108   4.401   6.466
10664SOL    HW132891   2.040   4.449   6.411
10664SOL    HW232892   2.158   4.337   6.408
10665SOL     OW32893   1.474   0.805   0.048
10665SOL    HW132894   1.492   0.707   0.040
10665SOL    HW232895   1.517   0.840   0.131
10666SOL     OW32896   3.981   4.535   0.036
10666SOL    HW132897   3.994   4.465   0.107
10666SOL    HW232898   4.040   4.514   6.981
10667SOL     OW32899   3.970   2.263   5.513
10667SOL    HW132900   3.988   2.165   5.501
10667SOL    HW232901   3.918   2.297   5.435
10668SOL     OW32902   1.262   1.658   4.860
10668SOL    HW132903   1.166   1.672   4.835
10668SOL    HW232904   1.300   1.745   4.892
10669SOL     OW32905   6.764   6.948   0.745
10669SOL    HW132906   6.825   7.018   0.781
10669SOL    HW232907   6.700   6.989   0.681
10670SOL     OW32908   4.912   4.782   5.665
10670SOL    HW132909   4.825   4.803   5.709
10670SOL    HW232910   4.895   4.735   5.578
10671SOL     OW32911   2.174   3.234   3.077
10671SOL    HW132912   2.271   3.245   3.056
10671SOL    HW232913   2.149   3.294   3.153
10672SOL     OW32914   6.923   2.879   0.702
10672SOL    HW132915   6.858   2.841   0.768
10672SOL    HW232916   6.929   2.978   0.716
10673SOL     OW32917   2.332   2.325   5.477
10673SOL    HW132918   2.331   2.347   5.380
10673SOL    HW232919   2.368   2.232   5.490
10674SOL     OW32920   4.096   3.608   0.050
10674SOL    HW132921   4.044   3.575   0.129
10674SOL    HW232922   4.087   3.707   0.044
10675SOL     OW32923   1.889   1.065   6.521
10675SOL    HW132924   1.954   1.113   6.462
10675SOL    HW232925   1.796   1.095   6.500
10676SOL     OW32926   5.975   0.172   6.393
10676SOL    HW132927   5.965   0.091   6.452
10676SOL    HW232928   5.888   0.190   6.347
10677SOL     OW32929   0.897   0.959   2.142
10677SOL    HW132930   0.967   0.930   2.208
10677SOL    HW232931   0.812   0.979   2.191
10678SOL     OW32932   3.502   5.283   2.926
10678SOL    HW132933   3.430   5.269   2.859
10678SOL    HW232934   3.555   5.364   2.902
10679SOL     OW32935   5.470   5.141   5.859
10679SOL    HW132936   5.473   5.102   5.951
10679SOL    HW232937   5.533   5.219   5.854
10680SOL     OW32938   1.728   3.024   3.623
10680SOL    HW132939   1.689   3.112   3.652
10680SOL    HW232940   1.793   2.992   3.691
10681SOL     OW32941   0.284   3.892   6.730
10681SOL    HW132942   0.306   3.802   6.769
10681SOL    HW232943   0.234   3.879   6.645
10682SOL     OW32944   1.807   1.935   3.370
10682SOL    HW132945   1.781   1.879   3.291
10682SOL    HW232946   1.902   1.914   3.395
10683SOL     OW32947   2.905   2.281   3.770
10683SOL    HW132948   2.820   2.326   3.743
10683SOL    HW232949   2.983   2.338   3.746
10684SOL     OW32950   4.505   4.114   7.008
10684SOL    HW132951   4.438   4.067   0.043
10684SOL    HW232952   4.456   4.166   6.938
10685SOL     OW32953   0.134   4.047   2.926
10685SOL    HW132954   0.225   4.007   2.917
10685SOL    HW232955   0.065   3.977   2.912
10686SOL     OW32956   4.023   5.769   6.508
10686SOL    HW132957   3.945   5.795   6.452
10686SOL    HW232958   4.105   5.818   6.478
10687SOL     OW32959   0.297   5.211   1.948
10687SOL    HW132960   0.270   5.128   1.899
10687SOL    HW232961   0.220   5.245   2.001
10688SOL     OW32962   6.228   4.264   2.153
10688SOL    HW132963   6.230   4.342   2.091
10688SOL    HW232964   6.290   4.193   2.119
10689SOL     OW32965   6.894   0.082   3.212
10689SOL    HW132966   6.866   0.025   3.289
10689SOL    HW232967   6.978   0.130   3.235
10690SOL     OW32968   5.227   5.611   3.361
10690SOL    HW132969   5.255   5.675   3.289
10690SOL    HW232970   5.259   5.645   3.450
10691SOL     OW32971   0.044   1.601   1.994
10691SOL    HW132972   0.081   1.508   1.987
10691SOL    HW232973   0.094   1.651   2.064
10692SOL     OW32974   2.958   5.596   4.009
10692SOL    HW132975   2.912   5.679   3.981
10692SOL    HW232976   3.013   5.561   3.933
10693SOL     OW32977   1.798   1.084   1.118
10693SOL    HW132978   1.867   1.070   1.189
10693SOL    HW232979   1.811   1.017   1.045
10694SOL     OW32980   3.566   6.486   0.966
10694SOL    HW132981   3.541   6.408   1.023
10694SOL    HW232982   3.487   6.515   0.912
10695SOL     OW32983   6.537   2.267   3.602
10695SOL    HW132984   6.585   2.343   3.558
10695SOL    HW232985   6.597   2.188   3.606
10696SOL     OW32986   6.988   4.819   1.306
10696SOL    HW132987   6.906   4.855   1.260
10696SOL    HW232988   0.034   4.796   1.237
10697SOL     OW32989   0.267   6.170   3.805
10697SOL    HW132990   0.350   6.156   3.753
10697SOL    HW232991   0.262   6.102   3.879
10698SOL     OW32992   3.102   6.902   3.875
10698SOL    HW132993   3.180   6.960   3.853
10698SOL    HW232994   3.089   6.901   3.974
10699SOL     OW32995   4.442   1.576   2.715
10699SOL    HW132996   4.466   1.515   2.640
10699SOL    HW232997   4.437   1.524   2.800
10700SOL     OW32998   0.712   0.279   0.485
10700SOL    HW132999   0.687   0.253   0.392
10700SOL    HW233000   0.726   0.377   0.489
10701SOL     OW33001   4.415   6.267   6.756
10701SOL    HW133002   4.487   6.318   6.709
10701SOL    HW233003   4.349   6.330   6.796
10702SOL     OW33004   5.727   2.332   1.645
10702SOL    HW133005   5.678   2.414   1.674
10702SOL    HW233006   5.731   2.267   1.721
10703SOL     OW33007   3.723   3.675   3.585
10703SOL    HW133008   3.656   3.686   3.512
10703SOL    HW233009   3.676   3.653   3.671
10704SOL     OW33010   4.768   6.646   2.411
10704SOL    HW133011   4.784   6.742   2.387
10704SOL    HW233012   4.701   6.641   2.485
10705SOL     OW33013   1.428   3.759   0.194
10705SOL    HW133014   1.432   3.859   0.195
10705SOL    HW233015   1.381   3.727   0.276
10706SOL     OW33016   4.689   0.550   2.077
10706SOL    HW133017   4.618   0.621   2.080
10706SOL    HW233018   4.652   0.464   2.112
10707SOL     OW33019   6.952   6.833   5.738
10707SOL    HW133020   6.956   6.887   5.821
10707SOL    HW233021   6.887   6.757   5.750
10708SOL     OW33022   4.983   1.169   1.390
10708SOL    HW133023   5.040   1.212   1.461
10708SOL    HW233024   4.978   1.071   1.406
10709SOL     OW33025   5.793   0.463   5.853
10709SOL    HW133026   5.735   0.530   5.807
10709SOL    HW233027   5.843   0.507   5.928
10710SOL     OW33028   6.902   6.226   4.309
10710SOL    HW133029   6.935   6.319   4.321
10710SOL    HW233030   6.978   6.167   4.279
10711SOL     OW33031   2.306   6.910   3.939
10711SOL    HW133032   2.216   6.869   3.957
10711SOL    HW233033   2.377   6.849   3.972
10712SOL     OW33034   3.995   1.394   4.349
10712SOL    HW133035   4.061   1.469   4.344
10712SOL    HW233036   3.915   1.425   4.400
10713SOL     OW33037   2.064   5.757   2.117
10713SOL    HW133038   2.105   5.694   2.052
10713SOL    HW233039   2.089   5.851   2.094
10714SOL     OW33040   0.182   4.660   4.575
10714SOL    HW133041   0.229   4.573   4.591
10714SOL    HW233042   0.179   4.712   4.660
10715SOL     OW33043   5.448   1.089   4.137
10715SOL    HW133044   5.472   1.068   4.041
10715SOL    HW233045   5.355   1.125   4.141
10716SOL     OW33046   6.651   1.175   3.550
10716SOL    HW133047   6.659   1.083   3.589
10716SOL    HW233048   6.561   1.212   3.571
10717SOL     OW33049   0.506   1.237   1.185
10717SOL    HW133050   0.498   1.257   1.283
10717SOL    HW233051   0.416   1.213   1.149
10718SOL     OW33052   6.708   5.543   0.574
10718SOL    HW133053   6.619   5.582   0.549
10718SOL    HW233054   6.695   5.458   0.624
10719SOL     OW33055   4.968   0.051   2.716
10719SOL    HW133056   4.990   6.979   2.740
10719SOL    HW233057   5.010   0.112   2.783
10720SOL     OW33058   6.926   3.254   6.049
10720SOL    HW133059   6.898   3.238   5.954
10720SOL    HW233060   0.000   3.237   6.059
10721SOL     OW33061   6.283   2.183   4.485
10721SOL    HW133062   6.185   2.180   4.467
10721SOL    HW233063   6.329   2.109   4.436
10722SOL     OW33064   6.881   3.603   6.995
10722SOL    HW133065   6.916   3.660   6.920
10722SOL    HW233066   6.878   3.657   0.056
10723SOL     OW33067   5.196   3.943   7.020
10723SOL    HW133068   5.107   3.941   0.043
10723SOL    HW233069   5.221   3.850   6.992
10724SOL     OW33070   4.178   6.688   6.110
10724SOL    HW133071   4.277   6.687   6.097
10724SOL    HW233072   4.156   6.735   6.195
10725SOL     OW33073   0.345   5.552   4.494
10725SOL    HW133074   0.390   5.463   4.504
10725SOL    HW233075   0.406   5.624   4.526
10726SOL     OW33076   5.335   0.605   5.139
10726SOL    HW133077   5.402   0.531   5.141
10726SOL    HW233078   5.321   0.635   5.045
10727SOL     OW33079   2.041   4.680   5.000
10727SOL    HW133080   2.004   4.771   4.984
10727SOL    HW233081   2.069   4.672   5.096
10728SOL     OW33082   5.261   6.850   3.136
10728SOL    HW133083   5.239   6.777   3.201
10728SOL    HW233084   5.178   6.878   3.088
10729SOL     OW33085   6.434   1.878   2.912
10729SOL    HW133086   6.521   1.920   2.887
10729SOL    HW233087   6.425   1.789   2.866
10730SOL     OW33088   2.299   5.724   2.336
10730SOL    HW133089   2.264   5.816   2.355
10730SOL    HW233090   2.364   5.728   2.260
10731SOL     OW33091   3.099   5.504   0.282
10731SOL    HW133092   3.151   5.424   0.311
10731SOL    HW233093   3.162   5.579   0.261
10732SOL     OW33094   5.957   6.526   3.031
10732SOL    HW133095   5.966   6.447   3.092
10732SOL    HW233096   6.006   6.508   2.946
10733SOL     OW33097   5.895   1.502   0.325
10733SOL    HW133098   5.875   1.536   0.417
10733SOL    HW233099   5.851   1.560   0.257
10734SOL     OW33100   0.812   0.186   6.267
10734SOL    HW133101   0.755   0.111   6.234
10734SOL    HW233102   0.898   0.188   6.215
10735SOL     OW33103   0.972   5.599   2.520
10735SOL    HW133104   0.986   5.687   2.474
10735SOL    HW233105   1.051   5.539   2.503
10736SOL     OW33106   0.668   0.690   3.784
10736SOL    HW133107   0.692   0.594   3.798
10736SOL    HW233108   0.634   0.730   3.869
10737SOL     OW33109   0.625   2.014   1.279
10737SOL    HW133110   0.632   1.990   1.376
10737SOL    HW233111   0.615   1.930   1.225
10738SOL     OW33112   2.293   0.877   2.438
10738SOL    HW133113   2.391   0.873   2.459
10738SOL    HW233114   2.273   0.961   2.388
10739SOL     OW33115   6.050   1.788   2.253
10739SOL    HW133116   6.087   1.706   2.297
10739SOL    HW233117   6.005   1.762   2.168
10740SOL     OW33118   1.517   6.396   5.490
10740SOL    HW133119   1.440   6.441   5.535
10740SOL    HW233120   1.486   6.309   5.452
10741SOL     OW33121   1.685   2.780   3.776
10741SOL    HW133122   1.622   2.711   3.742
10741SOL    HW233123   1.737   2.819   3.700
10742SOL     OW33124   5.881   5.967   1.832
10742SOL    HW133125   5.784   5.956   1.851
10742SOL    HW233126   5.934   5.913   1.898
10743SOL     OW33127   3.696   1.157   5.315
10743SOL    HW133128   3.662   1.068   5.284
10743SOL    HW233129   3.791   1.147   5.345
10744SOL     OW33130   3.154   0.603   1.747
10744SOL    HW133131   3.209   0.626   1.666
10744SOL    HW233132   3.063   0.575   1.717
10745SOL     OW33133   2.511   4.965   0.959
10745SOL    HW133134   2.610   4.967   0.970
10745SOL    HW233135   2.484   5.032   0.889
10746SOL     OW33136   2.796   6.015   0.984
10746SOL    HW133137   2.742   6.077   1.041
10746SOL    HW233138   2.850   6.067   0.919
10747SOL     OW33139   5.912   2.234   4.140
10747SOL    HW133140   5.940   2.287   4.220
10747SOL    HW233141   5.994   2.199   4.094
10748SOL     OW33142   5.128   5.516   1.056
10748SOL    HW133143   5.083   5.482   1.139
10748SOL    HW233144   5.197   5.585   1.082
10749SOL     OW33145   6.033   4.558   3.532
10749SOL    HW133146   6.038   4.519   3.624
10749SOL    HW233147   5.939   4.554   3.500
10750SOL     OW33148   4.674   4.245   4.118
10750SOL    HW133149   4.611   4.308   4.072
10750SOL    HW233150   4.745   4.298   4.164
10751SOL     OW33151   1.235   3.317   5.070
10751SOL    HW133152   1.182   3.379   5.127
10751SOL    HW233153   1.262   3.365   4.986
10752SOL     OW33154   6.064   4.776   0.127
10752SOL    HW133155   6.126   4.750   0.053
10752SOL    HW233156   6.107   4.848   0.182
10753SOL     OW33157   4.543   0.119   4.453
10753SOL    HW133158   4.479   0.091   4.382
10753SOL    HW233159   4.521   0.212   4.484
10754SOL     OW33160   0.548   3.286   1.857
10754SOL    HW133161   0.460   3.240   1.861
10754SOL    HW233162   0.604   3.244   1.786
10755SOL     OW33163   0.375   1.858   1.714
10755SOL    HW133164   0.415   1.835   1.803
10755SOL    HW233165   0.377   1.778   1.654
10756SOL     OW33166   6.323   2.378   0.174
10756SOL    HW133167   6.376   2.459   0.198
10756SOL    HW233168   6.278   2.394   0.086
10757SOL     OW33169   0.127   4.051   0.723
10757SOL    HW133170   0.108   3.968   0.776
10757SOL    HW233171   0.065   4.124   0.753
10758SOL     OW33172   0.884   5.787   6.573
10758SOL    HW133173   0.832   5.843   6.508
10758SOL    HW233174   0.823   5.757   6.647
10759SOL     OW33175   1.367   2.681   5.988
10759SOL    HW133176   1.338   2.751   6.054
10759SOL    HW233177   1.354   2.590   6.028
10760SOL     OW33178   1.286   6.174   0.505
10760SOL    HW133179   1.235   6.255   0.534
10760SOL    HW233180   1.223   6.109   0.461
10761SOL     OW33181   0.937   2.572   6.525
10761SOL    HW133182   1.036   2.574   6.510
10761SOL    HW233183   0.902   2.480   6.505
10762SOL     OW33184   3.952   0.626   5.946
10762SOL    HW133185   3.856   0.627   5.917
10762SOL    HW233186   4.011   0.633   5.866
10763SOL     OW33187   5.381   0.476   2.692
10763SOL    HW133188   5.426   0.564   2.709
10763SOL    HW233189   5.395   0.449   2.596
10764SOL     OW33190   4.826   1.063   5.487
10764SOL    HW133191   4.809   0.999   5.562
10764SOL    HW233192   4.829   1.013   5.400
10765SOL     OW33193   5.644   1.606   2.371
10765SOL    HW133194   5.547   1.602   2.396
10765SOL    HW233195   5.698   1.552   2.436
10766SOL     OW33196   1.941   4.881   0.229
10766SOL    HW133197   2.022   4.939   0.217
10766SOL    HW233198   1.965   4.804   0.289
10767SOL     OW33199   2.009   6.371   0.609
10767SOL    HW133200   1.911   6.378   0.628
10767SOL    HW233201   2.027   6.287   0.559
10768SOL     OW33202   5.216   5.401   0.347
10768SOL    HW133203   5.205   5.489   0.300
10768SOL    HW233204   5.172   5.405   0.436
10769SOL     OW33205   2.793   4.368   5.436
10769SOL    HW133206   2.798   4.408   5.345
10769SOL    HW233207   2.777   4.269   5.429
10770SOL     OW33208   5.612   0.030   4.400
10770SOL    HW133209   5.595   0.086   4.481
10770SOL    HW233210   5.634   6.960   4.427
10771SOL     OW33211   4.327   0.206   5.552
10771SOL    HW133212   4.262   0.257   5.496
10771SOL    HW233213   4.298   0.209   5.648
10772SOL     OW33214   6.136   6.872   4.652
10772SOL    HW133215   6.165   6.945   4.714
10772SOL    HW233216   6.176   6.785   4.682
10773SOL     OW33217   6.610   4.317   6.736
10773SOL    HW133218   6.615   4.416   6.738
10773SOL    HW233219   6.633   4.280   6.826
10774SOL     OW33220   1.251   2.199   1.006
10774SOL    HW133221   1.187   2.176   1.079
10774SOL    HW233222   1.340   2.158   1.024
10775SOL     OW33223   1.679   4.394   1.641
10775SOL    HW133224   1.604   4.455   1.670
10775SOL    HW233225   1.745   4.447   1.588
10776SOL     OW33226   6.235   0.667   3.179
10776SOL    HW133227   6.152   0.617   3.203
10776SOL    HW233228   6.301   0.605   3.139
10777SOL     OW33229   3.485   0.884   3.959
10777SOL    HW133230   3.410   0.897   3.895
10777SOL    HW233231   3.470   0.801   4.012
10778SOL     OW33232   6.123   6.117   4.862
10778SOL    HW133233   6.185   6.038   4.861
10778SOL    HW233234   6.172   6.198   4.832
10779SOL     OW33235   5.828   4.681   2.979
10779SOL    HW133236   5.798   4.760   2.926
10779SOL    HW233237   5.811   4.598   2.927
10780SOL     OW33238   6.983   5.479   4.389
10780SOL    HW133239   0.019   5.540   4.442
10780SOL    HW233240   0.016   5.412   4.340
10781SOL     OW33241   5.863   0.988   4.809
10781SOL    HW133242   5.935   0.969   4.876
10781SOL    HW233243   5.871   0.925   4.732
10782SOL     OW33244   6.367   3.004   5.318
10782SOL    HW133245   6.367   2.949   5.235
10782SOL    HW233246   6.420   2.958   5.389
10783SOL     OW33247   1.996   2.630   2.532
10783SOL    HW133248   2.040   2.565   2.594
10783SOL    HW233249   2.001   2.722   2.572
10784SOL     OW33250   2.835   6.057   1.936
10784SOL    HW133251   2.842   5.960   1.915
10784SOL    HW233252   2.802   6.106   1.856
10785SOL     OW33253   1.564   5.191   1.699
10785SOL    HW133254   1.534   5.209   1.606
10785SOL    HW233255   1.645   5.246   1.719
10786SOL     OW33256   4.036   2.093   2.485
10786SOL    HW133257   3.957   2.110   2.427
10786SOL    HW233258   4.104   2.166   2.470
10787SOL     OW33259   3.057   1.326   4.301
10787SOL    HW133260   3.046   1.307   4.204
10787SOL    HW233261   3.154   1.320   4.326
10788SOL     OW33262   1.308   4.369   0.110
10788SOL    HW133263   1.275   4.448   0.059
10788SOL    HW233264   1.237   4.299   0.115
10789SOL     OW33265   6.074   0.993   0.368
10789SOL    HW133266   6.129   0.945   0.437
10789SOL    HW233267   5.989   1.025   0.410
10790SOL     OW33268   0.210   1.492   5.354
10790SOL    HW133269   0.208   1.592   5.359
10790SOL    HW233270   0.118   1.456   5.366
10791SOL     OW33271   1.945   1.649   2.169
10791SOL    HW133272   1.875   1.588   2.134
10791SOL    HW233273   1.903   1.717   2.230
10792SOL     OW33274   3.507   2.568   1.267
10792SOL    HW133275   3.458   2.574   1.354
10792SOL    HW233276   3.599   2.531   1.283
10793SOL     OW33277   5.265   1.778   4.563
10793SOL    HW133278   5.323   1.803   4.640
10793SOL    HW233279   5.230   1.685   4.576
10794SOL     OW33280   4.003   3.422   1.617
10794SOL    HW133281   3.914   3.467   1.623
10794SOL    HW233282   4.075   3.491   1.627
10795SOL     OW33283   6.951   4.146   2.610
10795SOL    HW133284   0.014   4.134   2.659
10795SOL    HW233285   6.878   4.171   2.675
10796SOL     OW33286   5.497   0.012   6.624
10796SOL    HW133287   5.527   0.094   6.576
10796SOL    HW233288   5.448   0.038   6.707
10797SOL     OW33289   3.713   2.589   6.835
10797SOL    HW133290   3.775   2.662   6.865
10797SOL    HW233291   3.692   2.602   6.738
10798SOL     OW33292   2.539   6.945   6.080
10798SOL    HW133293   2.552   7.015   6.010
10798SOL    HW233294   2.441   6.935   6.099
10799SOL     OW33295   2.882   1.900   2.595
10799SOL    HW133296   2.884   1.999   2.585
10799SOL    HW233297   2.923   1.874   2.682
10800SOL     OW33298   1.973   0.005   0.729
10800SOL    HW133299   1.997   0.050   0.815
10800SOL    HW233300   1.880   6.993   0.735
10801SOL     OW33301   1.930   6.280   5.584
10801SOL    HW133302   2.015   6.229   5.598
10801SOL    HW233303   1.863   6.252   5.653
10802SOL     OW33304   1.566   3.135   4.017
10802SOL    HW133305   1.661   3.111   4.039
10802SOL    HW233306   1.529   3.067   3.954
10803SOL     OW33307   5.218   4.251   5.708
10803SOL    HW133308   5.150   4.323   5.722
10803SOL    HW233309   5.217   4.189   5.786
10804SOL     OW33310   6.310   4.065   1.326
10804SOL    HW133311   6.274   4.137   1.267
10804SOL    HW233312   6.357   3.996   1.270
10805SOL     OW33313   3.834   6.838   0.054
10805SOL    HW133314   3.849   6.749   0.096
10805SOL    HW233315   3.923   6.882   0.037
10806SOL     OW33316   5.559   3.553   0.290
10806SOL    HW133317   5.593   3.613   0.218
10806SOL    HW233318   5.477   3.506   0.259
10807SOL     OW33319   3.308   6.001   3.619
10807SOL    HW133320   3.382   6.006   3.552
10807SOL    HW233321   3.334   6.054   3.701
10808SOL     OW33322   1.010   4.066   6.897
10808SOL    HW133323   1.086   4.001   6.887
10808SOL    HW233324   0.941   4.047   6.827
10809SOL     OW33325   2.878   1.535   4.351
10809SOL    HW133326   2.931   1.606   4.397
10809SOL    HW233327   2.934   1.453   4.339
10810SOL     OW33328   0.505   1.407   5.758
10810SOL    HW133329   0.464   1.482   5.706
10810SOL    HW233330   0.533   1.440   5.848
10811SOL     OW33331   3.992   4.780   5.566
10811SOL    HW133332   3.954   4.741   5.650
10811SOL    HW233333   3.923   4.834   5.519
10812SOL     OW33334   6.745   2.769   2.547
10812SOL    HW133335   6.791   2.844   2.499
10812SOL    HW233336   6.798   2.685   2.535
10813SOL     OW33337   2.756   6.188   1.729
10813SOL    HW133338   2.755   6.287   1.744
10813SOL    HW233339   2.664   6.158   1.704
10814SOL     OW33340   2.130   0.235   5.243
10814SOL    HW133341   2.198   0.262   5.175
10814SOL    HW233342   2.167   0.162   5.300
10815SOL     OW33343   5.074   4.035   2.992
10815SOL    HW133344   5.171   4.008   2.997
10815SOL    HW233345   5.058   4.081   2.906
10816SOL     OW33346   1.710   1.229   2.292
10816SOL    HW133347   1.748   1.311   2.334
10816SOL    HW233348   1.774   1.193   2.224
10817SOL     OW33349   5.545   0.142   2.845
10817SOL    HW133350   5.565   0.150   2.747
10817SOL    HW233351   5.516   0.231   2.880
10818SOL     OW33352   5.665   2.754   6.584
10818SOL    HW133353   5.586   2.813   6.568
10818SOL    HW233354   5.635   2.661   6.601
10819SOL     OW33355   0.347   4.174   6.439
10819SOL    HW133356   0.382   4.080   6.430
10819SOL    HW233357   0.251   4.171   6.466
10820SOL     OW33358   0.411   6.767   3.835
10820SOL    HW133359   0.327   6.817   3.852
10820SOL    HW233360   0.458   6.749   3.921
10821SOL     OW33361   6.852   6.790   1.983
10821SOL    HW133362   6.890   6.882   1.992
10821SOL    HW233363   6.909   6.726   2.036
10822SOL     OW33364   1.233   3.244   2.464
10822SOL    HW133365   1.290   3.164   2.482
10822SOL    HW233366   1.225   3.299   2.547
10823SOL     OW33367   2.591   5.689   1.722
10823SOL    HW133368   2.632   5.600   1.701
10823SOL    HW233369   2.637   5.761   1.669
10824SOL     OW33370   5.165   0.134   3.493
10824SOL    HW133371   5.236   0.188   3.539
10824SOL    HW233372   5.083   0.133   3.549
10825SOL     OW33373   2.525   1.585   0.999
10825SOL    HW133374   2.487   1.626   1.081
10825SOL    HW233375   2.623   1.601   0.995
10826SOL     OW33376   0.058   4.097   2.169
10826SOL    HW133377   0.108   4.028   2.220
10826SOL    HW233378   7.013   4.140   2.228
10827SOL     OW33379   6.157   3.856   4.275
10827SOL    HW133380   6.198   3.860   4.366
10827SOL    HW233381   6.067   3.814   4.282
10828SOL     OW33382   1.225   5.793   1.252
10828SOL    HW133383   1.298   5.777   1.186
10828SOL    HW233384   1.178   5.707   1.271
10829SOL     OW33385   2.919   3.666   1.404
10829SOL    HW133386   2.880   3.674   1.496
10829SOL    HW233387   2.861   3.716   1.340
10830SOL     OW33388   6.121   3.163   4.460
10830SOL    HW133389   6.060   3.109   4.518
10830SOL    HW233390   6.189   3.103   4.419
10831SOL     OW33391   5.180   0.840   2.588
10831SOL    HW133392   5.143   0.789   2.665
10831SOL    HW233393   5.115   0.910   2.560
10832SOL     OW33394   0.851   2.001   0.725
10832SOL    HW133395   0.828   2.071   0.657
10832SOL    HW233396   0.860   1.913   0.679
10833SOL     OW33397   2.373   0.755   3.856
10833SOL    HW133398   2.340   0.817   3.927
10833SOL    HW233399   2.469   0.775   3.836
10834SOL     OW33400   0.449   1.171   4.784
10834SOL    HW133401   0.362   1.126   4.806
10834SOL    HW233402   0.478   1.228   4.860
10835SOL     OW33403   6.821   1.633   2.312
10835SOL    HW133404   6.777   1.610   2.398
10835SOL    HW233405   6.901   1.690   2.329
10836SOL     OW33406   0.505   1.226   5.065
10836SOL    HW133407   0.591   1.259   5.104
10836SOL    HW233408   0.496   1.128   5.084
10837SOL     OW33409   6.610   4.542   0.266
10837SOL    HW133410   6.636   4.560   0.361
10837SOL    HW233411   6.602   4.628   0.217
10838SOL     OW33412   5.965   0.565   6.457
10838SOL    HW133413   5.924   0.559   6.366
10838SOL    HW233414   6.051   0.513   6.458
10839SOL     OW33415   2.743   2.068   0.180
10839SOL    HW133416   2.841   2.077   0.202
10839SOL    HW233417   2.712   2.150   0.133
10840SOL     OW33418   3.299   6.157   1.364
10840SOL    HW133419   3.242   6.087   1.322
10840SOL    HW233420   3.336   6.124   1.451
10841SOL     OW33421   3.838   6.074   5.948
10841SOL    HW133422   3.786   6.092   6.031
10841SOL    HW233423   3.936   6.074   5.969
10842SOL     OW33424   6.867   3.229   0.941
10842SOL    HW133425   6.890   3.220   0.844
10842SOL    HW233426   6.903   3.151   0.991
10843SOL     OW33427   1.094   1.530   2.286
10843SOL    HW133428   1.046   1.445   2.308
10843SOL    HW233429   1.050   1.573   2.206
10844SOL     OW33430   6.400   6.059   4.565
10844SOL    HW133431   6.500   6.056   4.556
10844SOL    HW233432   6.358   6.007   4.491
10845SOL     OW33433   1.149   1.215   1.894
10845SOL    HW133434   1.067   1.222   1.951
10845SOL    HW233435   1.230   1.215   1.952
10846SOL     OW33436   4.366   2.072   0.956
10846SOL    HW133437   4.358   2.156   1.009
10846SOL    HW233438   4.370   2.094   0.859
10847SOL     OW33439   2.752   1.453   5.866
10847SOL    HW133440   2.779   1.359   5.848
10847SOL    HW233441   2.676   1.478   5.807
10848SOL     OW33442   2.680   1.607   0.059
10848SOL    HW133443   2.729   1.542   0.116
10848SOL    HW233444   2.611   1.654   0.113
10849SOL     OW33445   3.093   4.850   3.776
10849SOL    HW133446   3.101   4.754   3.752
10849SOL    HW233447   3.000   4.869   3.808
10850SOL     OW33448   4.007   6.334   6.806
10850SOL    HW133449   4.003   6.236   6.820
10850SOL    HW233450   3.941   6.380   6.865
10851SOL     OW33451   2.852   3.078   6.279
10851SOL    HW133452   2.786   3.150   6.303
10851SOL    HW233453   2.805   3.006   6.228
10852SOL     OW33454   0.282   1.541   5.929
10852SOL    HW133455   0.258   1.446   5.948
10852SOL    HW233456   0.321   1.582   6.011
10853SOL     OW33457   2.972   1.948   4.096
10853SOL    HW133458   2.893   1.965   4.036
10853SOL    HW233459   3.053   1.994   4.059
10854SOL     OW33460   5.181   0.428   6.857
10854SOL    HW133461   5.265   0.431   6.803
10854SOL    HW233462   5.102   0.422   6.796
10855SOL     OW33463   2.051   6.210   2.568
10855SOL    HW133464   2.104   6.136   2.609
10855SOL    HW233465   2.096   6.297   2.586
10856SOL     OW33466   6.073   6.724   0.321
10856SOL    HW133467   6.125   6.723   0.406
10856SOL    HW233468   5.975   6.733   0.341
10857SOL     OW33469   6.355   2.441   3.207
10857SOL    HW133470   6.377   2.376   3.134
10857SOL    HW233471   6.439   2.463   3.258
10858SOL     OW33472   1.846   3.853   0.538
10858SOL    HW133473   1.881   3.947   0.545
10858SOL    HW233474   1.788   3.834   0.617
10859SOL     OW33475   0.934   3.541   3.305
10859SOL    HW133476   0.956   3.614   3.241
10859SOL    HW233477   0.839   3.550   3.335
10860SOL     OW33478   6.832   1.028   0.651
10860SOL    HW133479   6.885   1.083   0.586
10860SOL    HW233480   6.893   0.977   0.711
10861SOL     OW33481   3.571   2.766   1.705
10861SOL    HW133482   3.516   2.792   1.784
10861SOL    HW233483   3.654   2.822   1.703
10862SOL     OW33484   2.656   2.393   6.009
10862SOL    HW133485   2.751   2.365   5.994
10862SOL    HW233486   2.608   2.396   5.921
10863SOL     OW33487   2.451   0.006   2.987
10863SOL    HW133488   2.465   0.051   2.899
10863SOL    HW233489   2.358   0.026   3.020
10864SOL     OW33490   2.974   4.700   1.391
10864SOL    HW133491   2.899   4.674   1.452
10864SOL    HW233492   3.035   4.621   1.380
10865SOL     OW33493   5.501   3.046   3.687
10865SOL    HW133494   5.457   3.055   3.776
10865SOL    HW233495   5.482   3.126   3.632
10866SOL     OW33496   6.794   2.769   0.920
10866SOL    HW133497   6.853   2.697   0.956
10866SOL    HW233498   6.698   2.744   0.934
10867SOL     OW33499   2.783   2.753   0.425
10867SOL    HW133500   2.728   2.837   0.421
10867SOL    HW233501   2.728   2.679   0.464
10868SOL     OW33502   0.671   2.103   3.197
10868SOL    HW133503   0.742   2.040   3.167
10868SOL    HW233504   0.592   2.097   3.136
10869NA      NA33505   0.655   1.895   5.821
10870NA      NA33506   4.483   4.591   5.173
10871NA      NA33507   2.020   4.969   2.827
10872NA      NA33508   5.119   4.339   3.878
10873NA      NA33509   4.238   2.326   5.241
10874NA      NA33510   3.014   5.123   1.316
10875NA      NA33511   1.308   5.181   0.542
10876NA      NA33512   3.697   4.392   1.480
10877NA      NA33513   4.700   3.872   0.684
10878NA      NA33514   3.675   1.393   6.038
10879NA      NA33515   5.011   5.979   2.205
10880NA      NA33516   1.765   0.376   5.507
10881NA      NA33517   4.969   4.733   1.550
10882NA      NA33518   3.138   3.550   7.010
   7.02306   7.02306   7.02306
