Generated by trjconv : CNT in water t=  24.00000
33518
    1C        C    1   2.847   2.767   4.748
    1C        C    2   2.898   2.714   4.868
    1C        C    3   2.844   2.772   4.984
    1C        C    4   2.854   2.776   4.260
    1C        C    5   2.904   2.727   4.383
    1C        C    6   2.847   2.769   4.505
    1C        C    7   3.016   2.640   4.625
    1C        C    8   2.897   2.716   4.626
    1C        C    9   3.083   2.607   4.745
    1C        C   10   3.015   2.634   4.865
    1C        C   11   3.180   2.490   4.975
    1C        C   12   3.058   2.558   4.975
    1C        C   13   2.853   2.772   3.772
    1C        C   14   2.902   2.721   3.894
    1C        C   15   2.852   2.774   4.016
    1C        C   16   3.019   2.644   4.138
    1C        C   17   2.905   2.727   4.138
    1C        C   18   3.081   2.609   4.260
    1C        C   19   3.017   2.641   4.382
    1C        C   20   3.211   2.556   4.502
    1C        C   21   3.076   2.600   4.503
    1C        C   22   3.279   2.534   4.623
    1C        C   23   3.210   2.544   4.746
    1C        C   24   3.414   2.478   4.868
    1C        C   25   3.273   2.501   4.866
    1C        C   26   3.491   2.472   4.985
    1C        C   27   2.850   2.768   3.283
    1C        C   28   2.906   2.724   3.405
    1C        C   29   2.854   2.772   3.528
    1C        C   30   3.018   2.638   3.651
    1C        C   31   2.906   2.724   3.650
    1C        C   32   3.075   2.598   3.774
    1C        C   33   3.014   2.635   3.896
    1C        C   34   3.208   2.544   4.016
    1C        C   35   3.080   2.605   4.017
    1C        C   36   3.276   2.526   4.138
    1C        C   37   3.209   2.550   4.260
    1C        C   38   3.418   2.505   4.381
    1C        C   39   3.279   2.531   4.381
    1C        C   40   3.488   2.493   4.504
    1C        C   41   3.417   2.502   4.625
    1C        C   42   3.630   2.484   4.743
    1C        C   43   3.487   2.488   4.747
    1C        C   44   3.705   2.488   4.863
    1C        C   45   3.630   2.480   4.980
    1C        C   46   2.839   2.756   2.794
    1C        C   47   2.901   2.715   2.914
    1C        C   48   2.851   2.764   3.036
    1C        C   49   3.016   2.637   3.164
    1C        C   50   2.902   2.720   3.160
    1C        C   51   3.081   2.604   3.285
    1C        C   52   3.020   2.641   3.406
    1C        C   53   3.208   2.545   3.530
    1C        C   54   3.079   2.602   3.528
    1C        C   55   3.278   2.524   3.651
    1C        C   56   3.205   2.543   3.770
    1C        C   57   3.415   2.511   3.895
    1C        C   58   3.275   2.529   3.892
    1C        C   59   3.486   2.501   4.016
    1C        C   60   3.415   2.503   4.139
    1C        C   61   3.630   2.506   4.259
    1C        C   62   3.489   2.503   4.259
    1C        C   63   3.702   2.508   4.381
    1C        C   64   3.629   2.491   4.501
    1C        C   65   3.833   2.547   4.620
    1C        C   66   3.700   2.499   4.622
    1C        C   67   3.904   2.563   4.742
    1C        C   68   3.841   2.525   4.862
    1C        C   69   4.051   2.581   4.972
    1C        C   70   3.922   2.528   4.977
    1C        C   71   2.825   2.734   2.311
    1C        C   72   2.885   2.691   2.431
    1C        C   73   2.834   2.745   2.551
    1C        C   74   3.010   2.626   2.676
    1C        C   75   2.891   2.703   2.673
    1C        C   76   3.075   2.590   2.796
    1C        C   77   3.015   2.631   2.917
    1C        C   78   3.206   2.545   3.036
    1C        C   79   3.076   2.603   3.041
    1C        C   80   3.275   2.524   3.158
    1C        C   81   3.211   2.547   3.282
    1C        C   82   3.411   2.495   3.401
    1C        C   83   3.272   2.522   3.406
    1C        C   84   3.484   2.494   3.522
    1C        C   85   3.419   2.507   3.647
    1C        C   86   3.625   2.498   3.769
    1C        C   87   3.484   2.501   3.772
    1C        C   88   3.696   2.506   3.891
    1C        C   89   3.627   2.501   4.014
    1C        C   90   3.836   2.543   4.133
    1C        C   91   3.699   2.508   4.136
    1C        C   92   3.905   2.566   4.255
    1C        C   93   3.839   2.539   4.377
    1C        C   94   4.030   2.630   4.499
    1C        C   95   3.903   2.569   4.500
    1C        C   96   4.092   2.668   4.621
    1C        C   97   4.032   2.625   4.741
    1C        C   98   4.195   2.765   4.862
    1C        C   99   4.102   2.656   4.860
    1C        C  100   4.209   2.846   4.976
    1C        C  101   2.825   2.731   2.073
    1C        C  102   2.994   2.594   2.186
    1C        C  103   2.881   2.681   2.192
    1C        C  104   3.063   2.572   2.309
    1C        C  105   3.007   2.619   2.430
    1C        C  106   3.202   2.540   2.549
    1C        C  107   3.071   2.591   2.553
    1C        C  108   3.272   2.517   2.669
    1C        C  109   3.208   2.541   2.793
    1C        C  110   3.413   2.493   2.915
    1C        C  111   3.275   2.520   2.916
    1C        C  112   3.482   2.484   3.038
    1C        C  113   3.413   2.496   3.160
    1C        C  114   3.627   2.492   3.280
    1C        C  115   3.485   2.487   3.281
    1C        C  116   3.696   2.508   3.403
    1C        C  117   3.625   2.499   3.524
    1C        C  118   3.832   2.544   3.644
    1C        C  119   3.695   2.508   3.647
    1C        C  120   3.897   2.570   3.767
    1C        C  121   3.831   2.549   3.890
    1C        C  122   4.026   2.636   4.012
    1C        C  123   3.900   2.573   4.011
    1C        C  124   4.088   2.673   4.134
    1C        C  125   4.029   2.634   4.256
    1C        C  126   4.196   2.763   4.377
    1C        C  127   4.090   2.669   4.378
    1C        C  128   4.245   2.817   4.498
    1C        C  129   4.197   2.763   4.619
    1C        C  130   4.319   2.939   4.739
    1C        C  131   4.242   2.820   4.740
    1C        C  132   4.349   3.009   4.858
    1C        C  133   4.285   2.963   4.974
    1C        C  134   3.174   2.460   2.080
    1C        C  135   3.044   2.512   2.080
    1C        C  136   3.260   2.473   2.191
    1C        C  137   3.193   2.516   2.308
    1C        C  138   3.404   2.475   2.427
    1C        C  139   3.266   2.501   2.428
    1C        C  140   3.480   2.479   2.546
    1C        C  141   3.410   2.489   2.669
    1C        C  142   3.622   2.487   2.790
    1C        C  143   3.481   2.482   2.791
    1C        C  144   3.693   2.500   2.912
    1C        C  145   3.623   2.492   3.034
    1C        C  146   3.830   2.536   3.154
    1C        C  147   3.694   2.499   3.156
    1C        C  148   3.898   2.566   3.274
    1C        C  149   3.833   2.543   3.397
    1C        C  150   4.025   2.627   3.520
    1C        C  151   3.897   2.568   3.521
    1C        C  152   4.080   2.671   3.643
    1C        C  153   4.020   2.638   3.766
    1C        C  154   4.190   2.766   3.888
    1C        C  155   4.079   2.679   3.888
    1C        C  156   4.242   2.815   4.010
    1C        C  157   4.195   2.766   4.134
    1C        C  158   4.333   2.927   4.253
    1C        C  159   4.247   2.815   4.256
    1C        C  160   4.371   2.986   4.375
    1C        C  161   4.331   2.929   4.498
    1C        C  162   4.438   3.116   4.616
    1C        C  163   4.368   2.994   4.618
    1C        C  164   4.464   3.186   4.736
    1C        C  165   4.430   3.125   4.859
    1C        C  166   4.519   3.321   4.971
    1C        C  167   4.481   3.188   4.973
    1C        C  168   3.472   2.431   2.072
    1C        C  169   3.398   2.444   2.191
    1C        C  170   3.619   2.464   2.311
    1C        C  171   3.477   2.460   2.307
    1C        C  172   3.695   2.481   2.429
    1C        C  173   3.621   2.483   2.549
    1C        C  174   3.830   2.537   2.668
    1C        C  175   3.693   2.502   2.669
    1C        C  176   3.893   2.565   2.791
    1C        C  177   3.829   2.538   2.914
    1C        C  178   4.026   2.624   3.031
    1C        C  179   3.902   2.557   3.034
    1C        C  180   4.088   2.657   3.154
    1C        C  181   4.026   2.626   3.277
    1C        C  182   4.196   2.753   3.397
    1C        C  183   4.088   2.661   3.399
    1C        C  184   4.244   2.806   3.519
    1C        C  185   4.190   2.760   3.641
    1C        C  186   4.333   2.915   3.763
    1C        C  187   4.241   2.808   3.763
    1C        C  188   4.375   2.976   3.884
    1C        C  189   4.335   2.921   4.008
    1C        C  190   4.439   3.107   4.129
    1C        C  191   4.376   2.981   4.129
    1C        C  192   4.465   3.174   4.251
    1C        C  193   4.440   3.110   4.374
    1C        C  194   4.503   3.317   4.491
    1C        C  195   4.466   3.181   4.494
    1C        C  196   4.521   3.390   4.611
    1C        C  197   4.508   3.321   4.734
    1C        C  198   4.550   3.537   4.850
    1C        C  199   4.529   3.396   4.853
    1C        C  200   4.582   3.622   4.961
    1C        C  201   3.612   2.418   2.075
    1C        C  202   3.823   2.510   2.183
    1C        C  203   3.689   2.461   2.187
    1C        C  204   3.894   2.543   2.301
    1C        C  205   3.832   2.516   2.425
    1C        C  206   4.022   2.617   2.540
    1C        C  207   3.898   2.550   2.545
    1C        C  208   4.080   2.659   2.662
    1C        C  209   4.019   2.628   2.786
    1C        C  210   4.195   2.748   2.905
    1C        C  211   4.082   2.663   2.907
    1C        C  212   4.247   2.796   3.027
    1C        C  213   4.201   2.742   3.149
    1C        C  214   4.330   2.910   3.272
    1C        C  215   4.244   2.797   3.271
    1C        C  216   4.369   2.970   3.393
    1C        C  217   4.333   2.915   3.519
    1C        C  218   4.435   3.101   3.639
    1C        C  219   4.371   2.976   3.641
    1C        C  220   4.465   3.167   3.760
    1C        C  221   4.437   3.102   3.883
    1C        C  222   4.504   3.305   4.003
    1C        C  223   4.467   3.168   4.004
    1C        C  224   4.515   3.379   4.122
    1C        C  225   4.505   3.309   4.245
    1C        C  226   4.526   3.522   4.363
    1C        C  227   4.518   3.381   4.366
    1C        C  228   4.520   3.597   4.482
    1C        C  229   4.527   3.531   4.607
    1C        C  230   4.513   3.746   4.724
    1C        C  231   4.537   3.606   4.726
    1C        C  232   4.498   3.820   4.843
    1C        C  233   4.548   3.758   4.958
    1C        C  234   4.019   2.605   2.063
    1C        C  235   3.895   2.543   2.067
    1C        C  236   4.086   2.647   2.178
    1C        C  237   4.020   2.609   2.297
    1C        C  238   4.195   2.737   2.418
    1C        C  239   4.083   2.649   2.417
    1C        C  240   4.249   2.788   2.539
    1C        C  241   4.196   2.740   2.660
    1C        C  242   4.333   2.905   2.784
    1C        C  243   4.247   2.793   2.781
    1C        C  244   4.375   2.962   2.905
    1C        C  245   4.336   2.906   3.029
    1C        C  246   4.435   3.095   3.148
    1C        C  247   4.373   2.968   3.151
    1C        C  248   4.458   3.160   3.272
    1C        C  249   4.430   3.097   3.395
    1C        C  250   4.498   3.302   3.515
    1C        C  251   4.456   3.167   3.516
    1C        C  252   4.517   3.371   3.637
    1C        C  253   4.506   3.303   3.760
    1C        C  254   4.519   3.516   3.876
    1C        C  255   4.518   3.375   3.881
    1C        C  256   4.515   3.590   3.996
    1C        C  257   4.518   3.520   4.119
    1C        C  258   4.496   3.732   4.241
    1C        C  259   4.519   3.593   4.241
    1C        C  260   4.477   3.805   4.360
    1C        C  261   4.493   3.735   4.482
    1C        C  262   4.428   3.940   4.603
    1C        C  263   4.486   3.811   4.601
    1C        C  264   4.395   4.008   4.722
    1C        C  265   4.431   3.944   4.842
    1C        C  266   4.315   4.130   4.957
    1C        C  267   4.390   4.013   4.957
    1C        C  268   4.261   2.779   2.062
    1C        C  269   4.198   2.734   2.179
    1C        C  270   4.345   2.893   2.299
    1C        C  271   4.251   2.786   2.299
    1C        C  272   4.378   2.957   2.420
    1C        C  273   4.342   2.894   2.541
    1C        C  274   4.447   3.082   2.663
    1C        C  275   4.381   2.957   2.662
    1C        C  276   4.471   3.155   2.782
    1C        C  277   4.439   3.088   2.902
    1C        C  278   4.500   3.291   3.025
    1C        C  279   4.466   3.154   3.024
    1C        C  280   4.507   3.365   3.146
    1C        C  281   4.495   3.296   3.269
    1C        C  282   4.519   3.508   3.390
    1C        C  283   4.510   3.367   3.390
    1C        C  284   4.522   3.581   3.510
    1C        C  285   4.522   3.512   3.634
    1C        C  286   4.493   3.725   3.751
    1C        C  287   4.518   3.586   3.753
    1C        C  288   4.473   3.794   3.873
    1C        C  289   4.490   3.729   3.997
    1C        C  290   4.425   3.931   4.115
    1C        C  291   4.476   3.800   4.118
    1C        C  292   4.396   3.997   4.237
    1C        C  293   4.429   3.938   4.360
    1C        C  294   4.326   4.126   4.478
    1C        C  295   4.399   4.005   4.481
    1C        C  296   4.285   4.189   4.598
    1C        C  297   4.331   4.136   4.720
    1C        C  298   4.200   4.313   4.839
    1C        C  299   4.286   4.199   4.839
    1C        C  300   4.173   4.403   4.947
    1C        C  301   4.354   2.883   2.060
    1C        C  302   4.479   3.062   2.181
    1C        C  303   4.400   2.943   2.178
    1C        C  304   4.483   3.141   2.299
    1C        C  305   4.443   3.083   2.421
    1C        C  306   4.513   3.285   2.537
    1C        C  307   4.474   3.149   2.542
    1C        C  308   4.517   3.359   2.657
    1C        C  309   4.498   3.294   2.781
    1C        C  310   4.519   3.502   2.897
    1C        C  311   4.516   3.361   2.903
    1C        C  312   4.519   3.572   3.020
    1C        C  313   4.520   3.505   3.144
    1C        C  314   4.484   3.715   3.264
    1C        C  315   4.512   3.576   3.266
    1C        C  316   4.477   3.787   3.386
    1C        C  317   4.494   3.720   3.509
    1C        C  318   4.424   3.925   3.628
    1C        C  319   4.472   3.792   3.628
    1C        C  320   4.398   3.991   3.750
    1C        C  321   4.426   3.927   3.873
    1C        C  322   4.308   4.108   3.989
    1C        C  323   4.389   3.992   3.993
    1C        C  324   4.269   4.166   4.112
    1C        C  325   4.318   4.115   4.234
    1C        C  326   4.183   4.281   4.352
    1C        C  327   4.279   4.178   4.355
    1C        C  328   4.133   4.333   4.473
    1C        C  329   4.189   4.292   4.596
    1C        C  330   4.021   4.429   4.714
    1C        C  331   4.138   4.348   4.715
    1C        C  332   3.968   4.486   4.832
    1C        C  333   4.054   4.477   4.942
    1C        C  334   4.545   3.269   2.061
    1C        C  335   4.535   3.130   2.068
    1C        C  336   4.540   3.349   2.176
    1C        C  337   4.508   3.281   2.295
    1C        C  338   4.525   3.495   2.411
    1C        C  339   4.524   3.354   2.414
    1C        C  340   4.520   3.571   2.531
    1C        C  341   4.524   3.500   2.653
    1C        C  342   4.502   3.713   2.775
    1C        C  343   4.517   3.573   2.774
    1C        C  344   4.486   3.783   2.897
    1C        C  345   4.499   3.712   3.018
    1C        C  346   4.421   3.911   3.137
    1C        C  347   4.473   3.780   3.139
    1C        C  348   4.393   3.978   3.258
    1C        C  349   4.428   3.919   3.382
    1C        C  350   4.312   4.099   3.501
    1C        C  351   4.396   3.985   3.503
    1C        C  352   4.268   4.160   3.621
    1C        C  353   4.319   4.108   3.742
    1C        C  354   4.176   4.266   3.866
    1C        C  355   4.271   4.162   3.864
    1C        C  356   4.122   4.317   3.987
    1C        C  357   4.174   4.270   4.110
    1C        C  358   4.014   4.412   4.229
    1C        C  359   4.125   4.325   4.231
    1C        C  360   3.955   4.451   4.351
    1C        C  361   4.021   4.420   4.472
    1C        C  362   3.828   4.516   4.592
    1C        C  363   3.958   4.462   4.592
    1C        C  364   3.760   4.543   4.713
    1C        C  365   3.836   4.536   4.831
    1C        C  366   3.627   4.600   4.949
    1C        C  367   3.765   4.579   4.944
    1C        C  368   4.505   3.563   2.055
    1C        C  369   4.527   3.490   2.172
    1C        C  370   4.505   3.707   2.286
    1C        C  371   4.526   3.568   2.290
    1C        C  372   4.486   3.778   2.407
    1C        C  373   4.499   3.710   2.531
    1C        C  374   4.428   3.910   2.647
    1C        C  375   4.482   3.780   2.652
    1C        C  376   4.392   3.972   2.769
    1C        C  377   4.428   3.912   2.892
    1C        C  378   4.315   4.092   3.010
    1C        C  379   4.392   3.973   3.014
    1C        C  380   4.272   4.150   3.131
    1C        C  381   4.317   4.097   3.255
    1C        C  382   4.170   4.251   3.373
    1C        C  383   4.271   4.151   3.377
    1C        C  384   4.121   4.306   3.494
    1C        C  385   4.173   4.264   3.618
    1C        C  386   4.008   4.392   3.741
    1C        C  387   4.123   4.310   3.742
    1C        C  388   3.943   4.424   3.862
    1C        C  389   4.004   4.393   3.986
    1C        C  390   3.815   4.490   4.106
    1C        C  391   3.946   4.437   4.107
    1C        C  392   3.750   4.508   4.230
    1C        C  393   3.823   4.500   4.350
    1C        C  394   3.617   4.554   4.475
    1C        C  395   3.756   4.530   4.471
    1C        C  396   3.544   4.566   4.595
    1C        C  397   3.620   4.559   4.714
    1C        C  398   3.410   4.552   4.839
    1C        C  399   3.549   4.578   4.835
    1C        C  400   3.338   4.522   4.956
    1C        C  401   4.503   3.702   2.047
    1C        C  402   4.453   3.913   2.166
    1C        C  403   4.499   3.779   2.164
    1C        C  404   4.411   3.976   2.285
    1C        C  405   4.431   3.908   2.407
    1C        C  406   4.321   4.094   2.524
    1C        C  407   4.400   3.977   2.526
    1C        C  408   4.275   4.152   2.644
    1C        C  409   4.316   4.091   2.764
    1C        C  410   4.176   4.249   2.887
    1C        C  411   4.273   4.147   2.887
    1C        C  412   4.121   4.297   3.009
    1C        C  413   4.171   4.249   3.132
    1C        C  414   4.002   4.382   3.253
    1C        C  415   4.113   4.295   3.252
    1C        C  416   3.941   4.422   3.375
    1C        C  417   4.005   4.386   3.496
    1C        C  418   3.815   4.477   3.618
    1C        C  419   3.947   4.427   3.618
    1C        C  420   3.749   4.500   3.740
    1C        C  421   3.813   4.478   3.865
    1C        C  422   3.605   4.533   3.987
    1C        C  423   3.744   4.505   3.985
    1C        C  424   3.539   4.541   4.112
    1C        C  425   3.611   4.536   4.233
    1C        C  426   3.401   4.548   4.356
    1C        C  427   3.542   4.551   4.355
    1C        C  428   3.332   4.540   4.479
    1C        C  429   3.403   4.558   4.600
    1C        C  430   3.192   4.524   4.721
    1C        C  431   3.332   4.551   4.722
    1C        C  432   3.122   4.499   4.843
    1C        C  433   3.201   4.497   4.958
    1C        C  434   4.382   4.121   2.047
    1C        C  435   4.446   3.997   2.054
    1C        C  436   4.302   4.160   2.159
    1C        C  437   4.334   4.096   2.282
    1C        C  438   4.179   4.248   2.399
    1C        C  439   4.281   4.150   2.400
    1C        C  440   4.125   4.298   2.520
    1C        C  441   4.177   4.254   2.644
    1C        C  442   4.001   4.372   2.764
    1C        C  443   4.122   4.299   2.766
    1C        C  444   3.941   4.406   2.887
    1C        C  445   4.003   4.375   3.010
    1C        C  446   3.810   4.470   3.128
    1C        C  447   3.940   4.414   3.130
    1C        C  448   3.746   4.493   3.252
    1C        C  449   3.811   4.476   3.376
    1C        C  450   3.604   4.523   3.496
    1C        C  451   3.744   4.500   3.498
    1C        C  452   3.538   4.532   3.621
    1C        C  453   3.611   4.529   3.742
    1C        C  454   3.397   4.538   3.865
    1C        C  455   3.539   4.540   3.863
    1C        C  456   3.329   4.528   3.988
    1C        C  457   3.398   4.536   4.111
    1C        C  458   3.192   4.502   4.234
    1C        C  459   3.329   4.534   4.235
    1C        C  460   3.126   4.485   4.358
    1C        C  461   3.194   4.509   4.479
    1C        C  462   3.000   4.426   4.604
    1C        C  463   3.126   4.490   4.601
    1C        C  464   2.931   4.402   4.724
    1C        C  465   2.987   4.451   4.845
    1C        C  466   2.796   4.348   4.953
    1C        C  467   2.904   4.436   4.961
    1C        C  468   4.115   4.277   2.041
    1C        C  469   4.187   4.245   2.157
    1C        C  470   4.003   4.365   2.276
    1C        C  471   4.123   4.289   2.276
    1C        C  472   3.940   4.401   2.397
    1C        C  473   4.004   4.370   2.519
    1C        C  474   3.809   4.457   2.643
    1C        C  475   3.940   4.403   2.640
    1C        C  476   3.744   4.490   2.764
    1C        C  477   3.813   4.467   2.885
    1C        C  478   3.606   4.521   3.009
    1C        C  479   3.744   4.490   3.005
    1C        C  480   3.535   4.525   3.132
    1C        C  481   3.607   4.518   3.254
    1C        C  482   3.392   4.533   3.376
    1C        C  483   3.533   4.530   3.374
    1C        C  484   3.325   4.530   3.501
    1C        C  485   3.397   4.540   3.622
    1C        C  486   3.187   4.511   3.744
    1C        C  487   3.326   4.537   3.743
    1C        C  488   3.122   4.485   3.867
    1C        C  489   3.189   4.504   3.990
    1C        C  490   3.000   4.413   4.114
    1C        C  491   3.124   4.480   4.113
    1C        C  492   2.943   4.378   4.239
    1C        C  493   2.999   4.421   4.361
    1C        C  494   2.824   4.303   4.483
    1C        C  495   2.937   4.388   4.483
    1C        C  496   2.773   4.252   4.605
    1C        C  497   2.819   4.314   4.724
    1C        C  498   2.659   4.169   4.846
    1C        C  499   2.752   4.275   4.842
    1C        C  500   2.595   4.116   4.959
    1C        C  501   4.000   4.354   2.034
    1C        C  502   3.814   4.457   2.152
    1C        C  503   3.944   4.403   2.153
    1C        C  504   3.743   4.475   2.272
    1C        C  505   3.807   4.450   2.396
    1C        C  506   3.605   4.504   2.520
    1C        C  507   3.744   4.475   2.519
    1C        C  508   3.533   4.515   2.641
    1C        C  509   3.605   4.515   2.763
    1C        C  510   3.396   4.530   2.886
    1C        C  511   3.537   4.525   2.886
    1C        C  512   3.322   4.529   3.006
    1C        C  513   3.394   4.528   3.128
    1C        C  514   3.187   4.497   3.254
    1C        C  515   3.326   4.523   3.252
    1C        C  516   3.122   4.469   3.376
    1C        C  517   3.190   4.490   3.498
    1C        C  518   3.000   4.410   3.625
    1C        C  519   3.124   4.478   3.622
    1C        C  520   2.943   4.369   3.748
    1C        C  521   3.000   4.414   3.869
    1C        C  522   2.835   4.282   3.997
    1C        C  523   2.940   4.377   3.991
    1C        C  524   2.780   4.240   4.120
    1C        C  525   2.834   4.289   4.241
    1C        C  526   2.697   4.128   4.365
    1C        C  527   2.783   4.240   4.363
    1C        C  528   2.651   4.074   4.487
    1C        C  529   2.688   4.140   4.606
    1C        C  530   2.578   3.963   4.730
    1C        C  531   2.635   4.093   4.729
    1C        C  532   2.539   3.899   4.851
    1C        C  533   2.528   3.993   4.958
    1C        C  534   3.616   4.559   2.040
    1C        C  535   3.751   4.520   2.043
    1C        C  536   3.537   4.533   2.156
    1C        C  537   3.606   4.511   2.279
    1C        C  538   3.391   4.519   2.398
    1C        C  539   3.532   4.514   2.400
    1C        C  540   3.322   4.515   2.521
    1C        C  541   3.392   4.517   2.643
    1C        C  542   3.184   4.484   2.765
    1C        C  543   3.322   4.513   2.766
    1C        C  544   3.118   4.463   2.888
    1C        C  545   3.186   4.491   3.009
    1C        C  546   2.995   4.405   3.134
    1C        C  547   3.120   4.471   3.132
    1C        C  548   2.936   4.367   3.257
    1C        C  549   2.994   4.409   3.379
    1C        C  550   2.833   4.279   3.505
    1C        C  551   2.938   4.373   3.504
    1C        C  552   2.786   4.228   3.628
    1C        C  553   2.835   4.277   3.751
    1C        C  554   2.704   4.115   3.875
    1C        C  555   2.790   4.227   3.875
    1C        C  556   2.665   4.058   3.998
    1C        C  557   2.699   4.124   4.118
    1C        C  558   2.602   3.940   4.247
    1C        C  559   2.662   4.067   4.243
    1C        C  560   2.570   3.875   4.369
    1C        C  561   2.590   3.946   4.489
    1C        C  562   2.529   3.748   4.613
    1C        C  563   2.562   3.885   4.613
    1C        C  564   2.513   3.679   4.736
    1C        C  565   2.516   3.758   4.854
    1C        C  566   2.526   3.544   4.978
    1C        C  567   2.526   3.683   4.973
    1C        C  568   3.328   4.470   2.043
    1C        C  569   3.396   4.514   2.157
    1C        C  570   3.183   4.472   2.282
    1C        C  571   3.320   4.510   2.277
    1C        C  572   3.113   4.457   2.404
    1C        C  573   3.183   4.487   2.523
    1C        C  574   2.988   4.400   2.648
    1C        C  575   3.113   4.465   2.644
    1C        C  576   2.927   4.361   2.770
    1C        C  577   2.995   4.395   2.889
    1C        C  578   2.826   4.272   3.016
    1C        C  579   2.935   4.363   3.013
    1C        C  580   2.783   4.219   3.139
    1C        C  581   2.832   4.271   3.261
    1C        C  582   2.695   4.114   3.384
    1C        C  583   2.780   4.226   3.385
    1C        C  584   2.662   4.053   3.507
    1C        C  585   2.704   4.113   3.628
    1C        C  586   2.601   3.932   3.756
    1C        C  587   2.667   4.057   3.752
    1C        C  588   2.572   3.870   3.879
    1C        C  589   2.596   3.934   4.003
    1C        C  590   2.532   3.736   4.127
    1C        C  591   2.571   3.872   4.127
    1C        C  592   2.520   3.668   4.250
    1C        C  593   2.533   3.738   4.371
    1C        C  594   2.513   3.530   4.497
    1C        C  595   2.522   3.671   4.495
    1C        C  596   2.516   3.462   4.620
    1C        C  597   2.517   3.537   4.740
    1C        C  598   2.531   3.326   4.864
    1C        C  599   2.522   3.466   4.862
    1C        C  600   2.530   3.246   4.980
    1C        C  601   3.193   4.440   2.044
    1C        C  602   2.981   4.394   2.160
    1C        C  603   3.115   4.443   2.161
    1C        C  604   2.923   4.356   2.284
    1C        C  605   2.987   4.394   2.405
    1C        C  606   2.818   4.268   2.528
    1C        C  607   2.929   4.356   2.528
    1C        C  608   2.768   4.220   2.651
    1C        C  609   2.818   4.272   2.773
    1C        C  610   2.685   4.109   2.896
    1C        C  611   2.772   4.220   2.896
    1C        C  612   2.654   4.049   3.020
    1C        C  613   2.694   4.109   3.142
    1C        C  614   2.591   3.926   3.267
    1C        C  615   2.650   4.054   3.264
    1C        C  616   2.561   3.866   3.391
    1C        C  617   2.592   3.930   3.513
    1C        C  618   2.530   3.728   3.638
    1C        C  619   2.566   3.865   3.636
    1C        C  620   2.519   3.663   3.762
    1C        C  621   2.531   3.735   3.883
    1C        C  622   2.506   3.524   4.009
    1C        C  623   2.518   3.665   4.005
    1C        C  624   2.510   3.453   4.131
    1C        C  625   2.512   3.527   4.252
    1C        C  626   2.540   3.319   4.381
    1C        C  627   2.515   3.458   4.375
    1C        C  628   2.556   3.247   4.502
    1C        C  629   2.541   3.323   4.621
    1C        C  630   2.591   3.118   4.741
    1C        C  631   2.552   3.255   4.744
    1C        C  632   2.613   3.048   4.863
    1C        C  633   2.554   3.108   4.979
    1C        C  634   2.783   4.305   2.056
    1C        C  635   2.896   4.387   2.045
    1C        C  636   2.741   4.232   2.168
    1C        C  637   2.811   4.269   2.285
    1C        C  638   2.670   4.113   2.411
    1C        C  639   2.761   4.221   2.408
    1C        C  640   2.639   4.048   2.532
    1C        C  641   2.684   4.107   2.652
    1C        C  642   2.583   3.922   2.777
    1C        C  643   2.642   4.050   2.775
    1C        C  644   2.563   3.857   2.901
    1C        C  645   2.593   3.922   3.023
    1C        C  646   2.525   3.722   3.149
    1C        C  647   2.566   3.857   3.145
    1C        C  648   2.515   3.655   3.273
    1C        C  649   2.525   3.729   3.392
    1C        C  650   2.508   3.519   3.518
    1C        C  651   2.516   3.660   3.515
    1C        C  652   2.507   3.451   3.641
    1C        C  653   2.508   3.522   3.764
    1C        C  654   2.534   3.314   3.890
    1C        C  655   2.510   3.453   3.887
    1C        C  656   2.551   3.246   4.013
    1C        C  657   2.539   3.315   4.136
    1C        C  658   2.610   3.119   4.256
    1C        C  659   2.557   3.250   4.259
    1C        C  660   2.638   3.054   4.379
    1C        C  661   2.605   3.115   4.502
    1C        C  662   2.712   2.934   4.626
    1C        C  663   2.630   3.049   4.624
    1C        C  664   2.755   2.875   4.747
    1C        C  665   2.697   2.932   4.864
    1C        C  666   2.750   2.874   4.980
    1C        C  667   2.678   4.023   2.056
    1C        C  668   2.674   4.108   2.168
    1C        C  669   2.590   3.913   2.291
    1C        C  670   2.638   4.047   2.290
    1C        C  671   2.564   3.848   2.414
    1C        C  672   2.587   3.917   2.535
    1C        C  673   2.528   3.714   2.658
    1C        C  674   2.555   3.853   2.657
    1C        C  675   2.509   3.648   2.782
    1C        C  676   2.523   3.721   2.902
    1C        C  677   2.509   3.513   3.029
    1C        C  678   2.510   3.654   3.026
    1C        C  679   2.510   3.441   3.151
    1C        C  680   2.507   3.514   3.272
    1C        C  681   2.525   3.306   3.402
    1C        C  682   2.508   3.446   3.396
    1C        C  683   2.548   3.241   3.526
    1C        C  684   2.532   3.312   3.647
    1C        C  685   2.605   3.112   3.770
    1C        C  686   2.551   3.242   3.769
    1C        C  687   2.639   3.052   3.894
    1C        C  688   2.602   3.115   4.015
    1C        C  689   2.717   2.933   4.139
    1C        C  690   2.640   3.052   4.136
    1C        C  691   2.752   2.873   4.261
    1C        C  692   2.711   2.933   4.383
    1C        C  693   2.754   2.876   4.504
    1C        C  694   2.632   3.891   2.057
    1C        C  695   2.528   3.702   2.175
    1C        C  696   2.581   3.833   2.175
    1C        C  697   2.505   3.638   2.298
    1C        C  698   2.526   3.712   2.416
    1C        C  699   2.493   3.502   2.542
    1C        C  700   2.511   3.642   2.538
    1C        C  701   2.498   3.433   2.665
    1C        C  702   2.496   3.507   2.785
    1C        C  703   2.528   3.300   2.912
    1C        C  704   2.504   3.440   2.909
    1C        C  705   2.549   3.233   3.034
    1C        C  706   2.531   3.302   3.156
    1C        C  707   2.596   3.105   3.279
    1C        C  708   2.545   3.237   3.281
    1C        C  709   2.635   3.047   3.401
    1C        C  710   2.604   3.111   3.524
    1C        C  711   2.716   2.934   3.647
    1C        C  712   2.634   3.049   3.647
    1C        C  713   2.760   2.878   3.769
    1C        C  714   2.716   2.934   3.892
    1C        C  715   2.764   2.885   4.015
    1C        C  716   2.450   3.496   2.062
    1C        C  717   2.489   3.630   2.061
    1C        C  718   2.467   3.421   2.183
    1C        C  719   2.478   3.498   2.302
    1C        C  720   2.511   3.287   2.424
    1C        C  721   2.484   3.426   2.424
    1C        C  722   2.537   3.223   2.546
    1C        C  723   2.522   3.294   2.668
    1C        C  724   2.592   3.096   2.790
    1C        C  725   2.545   3.229   2.791
    1C        C  726   2.623   3.034   2.913
    1C        C  727   2.602   3.102   3.036
    1C        C  728   2.706   2.919   3.157
    1C        C  729   2.630   3.038   3.159
    1C        C  730   2.754   2.872   3.281
    1C        C  731   2.713   2.929   3.403
    1C        C  732   2.758   2.876   3.525
    1C        C  733   2.490   3.194   2.072
    1C        C  734   2.487   3.279   2.183
    1C        C  735   2.584   3.085   2.305
    1C        C  736   2.524   3.214   2.304
    1C        C  737   2.614   3.020   2.427
    1C        C  738   2.589   3.092   2.546
    1C        C  739   2.697   2.910   2.669
    1C        C  740   2.621   3.029   2.668
    1C        C  741   2.744   2.860   2.792
    1C        C  742   2.698   2.915   2.914
    1C        C  743   2.750   2.863   3.035
    1C        C  744   2.542   3.065   2.072
    1C        C  745   2.687   2.898   2.184
    1C        C  746   2.607   3.014   2.185
    1C        C  747   2.731   2.841   2.305
    1C        C  748   2.694   2.903   2.426
    1C        C  749   2.742   2.852   2.548
    1C        C  750   2.738   2.839   2.068
    1C        C  751   3.666   2.306   1.994
    1C        O  752   3.716   2.200   2.040
    1C        O  753   3.710   2.336   1.865
    1C        C  754   4.629   3.073   1.968
    1C        O  755   4.578   3.016   1.868
    1C        O  756   4.747   3.004   2.000
    1C        C  757   4.467   4.226   1.986
    1C        O  758   4.572   4.265   2.044
    1C        O  759   4.469   4.255   1.849
    1C        C  760   3.581   4.672   1.952
    1C        O  761   3.625   4.790   1.950
    1C        O  762   3.536   4.653   1.821
    1C        C  763   2.874   4.501   1.954
    1C        O  764   2.893   4.475   1.832
    1C        O  765   2.770   4.591   1.979
    1C        C  766   2.354   3.463   1.954
    1C        O  767   2.382   3.411   1.843
    1C        O  768   2.219   3.469   1.990
    1C        C  769   4.707   3.600   5.038
    1C        O  770   4.708   3.576   5.161
    1C        O  771   4.827   3.622   4.970
    1C        C  772   4.269   4.442   5.053
    1C        O  773   4.233   4.427   5.172
    1C        O  774   4.382   4.521   5.026
    1C        C  775   4.151   2.502   5.047
    1C        O  776   4.194   2.391   5.006
    1C        O  777   4.193   2.530   5.178
    1C        C  778   2.904   4.537   5.069
    1C        O  779   2.888   4.661   5.053
    1C        O  780   2.921   4.492   5.200
    1C        C  781   2.457   3.043   5.069
    1C        O  782   2.346   3.002   5.025
    1C        O  783   2.502   2.978   5.184
    1C        C  784   2.404   3.997   5.038
    1C        O  785   2.312   4.070   4.993
    1C        O  786   2.401   3.989   5.178
    1C        C  787   2.953   2.418   2.009
    1C        O  788   2.960   2.412   1.884
    1C        O  789   2.938   2.290   2.061
    1C        C  790   3.170   2.355   5.036
    1C        O  791   3.192   2.250   4.971
    1C        O  792   3.125   2.328   5.166
    1C        H  793   4.272   3.036   5.051
    1C        H  794   4.115   2.861   5.024
    1C        H  795   4.507   3.135   5.063
    1C        H  796   4.547   3.361   5.066
    1C        H  797   4.572   3.816   5.045
    1C        H  798   4.365   3.952   5.041
    1C        H  799   4.297   4.180   5.050
    1C        H  800   4.013   4.494   5.040
    1C        H  801   3.823   4.598   5.032
    1C        H  802   3.584   4.659   5.027
    1C        H  803   3.396   4.472   5.030
    1C        H  804   3.158   4.464   5.051
    1C        H  805   3.890   2.480   5.068
    1C        H  806   3.678   2.443   5.069
    1C        H  807   3.005   2.567   5.068
    1C        H  808   3.453   2.409   5.063
    1C        H  809   2.842   2.710   5.071
    1C        H  810   2.676   2.867   5.057
    1C        H  811   2.569   3.290   5.069
    1C        H  812   2.532   3.494   5.073
    1C        H  813   2.566   3.728   5.061
    1C        H  814   2.598   4.170   5.051
    1C        H  815   2.724   4.367   5.031
    1C        H  816   2.721   2.883   1.972
    1C        H  817   2.793   2.651   2.009
    1C        H  818   3.215   2.421   1.989
    1C        H  819   3.437   2.488   1.988
    1C        H  820   3.860   2.503   1.973
    1C        H  821   4.080   2.568   1.983
    1C        H  822   4.256   2.716   1.976
    1C        H  823   4.403   2.901   1.967
    1C        H  824   4.593   3.309   1.974
    1C        H  825   4.502   3.508   1.963
    1C        H  826   4.536   3.742   1.954
    1C        H  827   3.817   4.580   1.985
    1C        H  828   3.937   4.349   1.948
    1C        H  829   4.132   4.217   1.954
    1C        H  830   4.499   3.963   1.967
    1C        H  831   2.682   3.821   1.993
    1C        H  832   2.704   4.061   1.960
    1C        H  833   2.713   4.306   1.975
    1C        H  834   3.378   4.438   1.954
    1C        H  835   3.145   4.403   1.956
    1C        H  836   2.504   2.995   1.999
    1C        H  837   2.404   3.195   2.008
    1C        H  838   2.476   3.683   1.968
    2V3OU   H29  839   2.806   3.550   0.793
    2V3OU   C27  840   2.784   3.510   0.895
    2V3OU   H27  841   2.726   3.571   0.968
    2V3OU   H28  842   2.730   3.412   0.887
    2V3OU   O11  843   2.907   3.476   0.961
    2V3OU   C15  844   2.919   3.392   1.070
    2V3OU   C13  845   3.047   3.372   1.124
    2V3OU   C14  846   3.071   3.269   1.215
    2V3OU   C16  847   2.965   3.186   1.249
    2V3OU    H6  848   2.988   3.101   1.316
    2V3OU   C12  849   3.210   3.231   1.249
    2V3OU    O2  850   3.240   3.127   1.311
    2V3OU   C10  851   3.324   3.308   1.196
    2V3OU    C8  852   3.458   3.270   1.203
    2V3OU   O10  853   3.488   3.149   1.259
    2V3OU   H26  854   3.407   3.122   1.304
    2V3OU    C6  855   3.566   3.349   1.154
    2V3OU    C5  856   3.536   3.469   1.091
    2V3OU    C4  857   3.704   3.293   1.157
    2V3OU    H4  858   3.723   3.223   1.243
    2V3OU    H5  859   3.714   3.225   1.067
    2V3OU    C2  860   3.817   3.396   1.146
    2V3OU    O6  861   3.807   3.476   1.264
    2V3OU   H21  862   3.761   3.560   1.247
    2V3OU    C3  863   3.783   3.496   1.036
    2V3OU    H2  864   3.864   3.573   1.035
    2V3OU    H3  865   3.779   3.439   0.939
    2V3OU   C25  866   3.952   3.327   1.125
    2V3OU    O7  867   4.002   3.302   1.015
    2V3OU   C26  868   4.030   3.294   1.251
    2V3OU   H22  869   4.064   3.386   1.306
    2V3OU   H23  870   4.114   3.224   1.228
    2V3OU    O8  871   3.959   3.210   1.338
    2V3OU   H24  872   3.924   3.268   1.408
    2V3OU    C1  873   3.648   3.563   1.056
    2V3OU    H1  874   3.622   3.620   0.962
    2V3OU    O3  875   3.660   3.650   1.169
    2V3OU   C19  876   3.621   3.787   1.157
    2V3OU    H9  877   3.522   3.812   1.107
    2V3OU    O4  878   3.716   3.845   1.070
    2V3OU   C20  879   3.846   3.875   1.121
    2V3OU   H10  880   3.893   3.773   1.125
    2V3OU   C24  881   3.612   3.850   1.296
    2V3OU   H16  882   3.548   3.788   1.363
    2V3OU   H17  883   3.563   3.950   1.284
    2V3OU   C23  884   3.753   3.875   1.352
    2V3OU   H15  885   3.799   3.774   1.375
    2V3OU    N1  886   3.735   3.955   1.471
    2V3OU   H19  887   3.808   3.923   1.532
    2V3OU   H20  888   3.650   3.929   1.516
    2V3OU   C21  889   3.851   3.949   1.255
    2V3OU   H11  890   3.952   3.933   1.303
    2V3OU    O5  891   3.834   4.090   1.249
    2V3OU   H18  892   3.782   4.106   1.329
    2V3OU   C22  893   3.916   3.951   1.009
    2V3OU   H12  894   3.860   4.047   0.994
    2V3OU   H13  895   3.913   3.892   0.914
    2V3OU   H14  896   4.024   3.965   1.034
    2V3OU   C11  897   3.158   3.468   1.109
    2V3OU    O1  898   3.133   3.582   1.063
    2V3OU    C9  899   3.299   3.429   1.125
    2V3OU    C7  900   3.400   3.507   1.070
    2V3OU    O9  901   3.380   3.613   0.984
    2V3OU   H25  902   3.286   3.632   0.994
    2V3OU   C17  903   2.811   3.312   1.113
    2V3OU    H7  904   2.712   3.347   1.084
    2V3OU   C18  905   2.838   3.204   1.196
    2V3OU    H8  906   2.752   3.143   1.226
    3SOL     OW  907   0.666   4.438   0.741
    3SOL    HW1  908   0.641   4.368   0.809
    3SOL    HW2  909   0.594   4.444   0.671
    4SOL     OW  910   5.765   0.869   2.263
    4SOL    HW1  911   5.769   0.845   2.166
    4SOL    HW2  912   5.763   0.785   2.317
    5SOL     OW  913   3.828   2.992   1.199
    5SOL    HW1  914   3.891   3.043   1.257
    5SOL    HW2  915   3.774   2.929   1.255
    6SOL     OW  916   3.118   2.588   0.259
    6SOL    HW1  917   3.149   2.552   0.171
    6SOL    HW2  918   3.076   2.514   0.312
    7SOL     OW  919   5.657   0.857   2.009
    7SOL    HW1  920   5.670   0.956   2.011
    7SOL    HW2  921   5.650   0.826   1.914
    8SOL     OW  922   3.274   2.112   3.493
    8SOL    HW1  923   3.340   2.055   3.445
    8SOL    HW2  924   3.217   2.161   3.427
    9SOL     OW  925   6.349   4.171   5.946
    9SOL    HW1  926   6.449   4.174   5.951
    9SOL    HW2  927   6.310   4.206   6.032
   10SOL     OW  928   6.961   4.713   1.042
   10SOL    HW1  929   6.908   4.649   1.099
   10SOL    HW2  930   6.941   4.695   0.946
   11SOL     OW  931   4.042   6.861   6.779
   11SOL    HW1  932   4.003   6.769   6.773
   11SOL    HW2  933   3.979   6.927   6.737
   12SOL     OW  934   5.350   6.860   2.417
   12SOL    HW1  935   5.428   6.831   2.473
   12SOL    HW2  936   5.353   6.813   2.329
   13SOL     OW  937   2.215   0.171   2.783
   13SOL    HW1  938   2.206   0.182   2.684
   13SOL    HW2  939   2.127   0.144   2.822
   14SOL     OW  940   2.965   0.099   3.369
   14SOL    HW1  941   3.008   0.173   3.421
   14SOL    HW2  942   2.976   0.116   3.271
   15SOL     OW  943   2.252   6.311   6.198
   15SOL    HW1  944   2.343   6.293   6.163
   15SOL    HW2  945   2.212   6.389   6.150
   16SOL     OW  946   6.524   2.259   6.902
   16SOL    HW1  947   6.424   2.253   6.903
   16SOL    HW2  948   6.555   2.297   6.989
   17SOL     OW  949   4.238   5.872   2.932
   17SOL    HW1  950   4.177   5.945   2.963
   17SOL    HW2  951   4.187   5.805   2.879
   18SOL     OW  952   1.463   0.838   6.795
   18SOL    HW1  953   1.381   0.869   6.747
   18SOL    HW2  954   1.442   0.755   6.847
   19SOL     OW  955   1.181   6.852   1.220
   19SOL    HW1  956   1.247   6.824   1.289
   19SOL    HW2  957   1.100   6.889   1.264
   20SOL     OW  958   3.482   0.728   4.360
   20SOL    HW1  959   3.424   0.666   4.413
   20SOL    HW2  960   3.503   0.686   4.272
   21SOL     OW  961   3.000   3.147   1.666
   21SOL    HW1  962   3.014   3.071   1.603
   21SOL    HW2  963   2.953   3.222   1.618
   22SOL     OW  964   0.984   1.425   5.529
   22SOL    HW1  965   0.958   1.437   5.625
   22SOL    HW2  966   1.058   1.489   5.507
   23SOL     OW  967   2.756   6.425   5.020
   23SOL    HW1  968   2.685   6.495   5.017
   23SOL    HW2  969   2.770   6.396   5.115
   24SOL     OW  970   4.158   1.651   5.333
   24SOL    HW1  971   4.163   1.751   5.322
   24SOL    HW2  972   4.069   1.619   5.300
   25SOL     OW  973   2.274   5.613   0.712
   25SOL    HW1  974   2.207   5.575   0.776
   25SOL    HW2  975   2.226   5.648   0.631
   26SOL     OW  976   5.419   1.204   2.926
   26SOL    HW1  977   5.377   1.229   3.013
   26SOL    HW2  978   5.404   1.276   2.859
   27SOL     OW  979   5.842   0.280   2.569
   27SOL    HW1  980   5.835   0.181   2.585
   27SOL    HW2  981   5.831   0.329   2.655
   28SOL     OW  982   2.737   0.910   0.242
   28SOL    HW1  983   2.805   0.983   0.242
   28SOL    HW2  984   2.659   0.936   0.185
   29SOL     OW  985   4.769   2.932   1.636
   29SOL    HW1  986   4.679   2.927   1.679
   29SOL    HW2  987   4.836   2.886   1.694
   30SOL     OW  988   4.137   1.561   5.770
   30SOL    HW1  989   4.117   1.657   5.752
   30SOL    HW2  990   4.145   1.511   5.684
   31SOL     OW  991   0.600   1.684   5.389
   31SOL    HW1  992   0.688   1.722   5.359
   31SOL    HW2  993   0.525   1.737   5.350
   32SOL     OW  994   6.868   2.145   2.075
   32SOL    HW1  995   6.912   2.175   2.160
   32SOL    HW2  996   6.820   2.059   2.091
   33SOL     OW  997   1.418   1.470   5.365
   33SOL    HW1  998   1.456   1.438   5.279
   33SOL    HW2  999   1.464   1.423   5.441
   34SOL     OW 1000   0.432   1.234   5.220
   34SOL    HW1 1001   0.461   1.312   5.277
   34SOL    HW2 1002   0.462   1.249   5.126
   35SOL     OW 1003   4.253   2.042   6.370
   35SOL    HW1 1004   4.176   2.058   6.432
   35SOL    HW2 1005   4.314   1.973   6.410
   36SOL     OW 1006   1.043   1.861   5.908
   36SOL    HW1 1007   0.990   1.942   5.933
   36SOL    HW2 1008   0.981   1.783   5.896
   37SOL     OW 1009   2.877   6.582   1.712
   37SOL    HW1 1010   2.873   6.613   1.617
   37SOL    HW2 1011   2.968   6.601   1.749
   38SOL     OW 1012   0.008   5.919   1.931
   38SOL    HW1 1013   0.099   5.883   1.953
   38SOL    HW2 1014   6.965   5.843   1.927
   39SOL     OW 1015   6.847   2.584   6.431
   39SOL    HW1 1016   6.843   2.625   6.522
   39SOL    HW2 1017   6.764   2.530   6.414
   40SOL     OW 1018   6.983   1.599   1.620
   40SOL    HW1 1019   6.987   1.612   1.521
   40SOL    HW2 1020   6.909   1.535   1.642
   41SOL     OW 1021   1.248   0.718   6.099
   41SOL    HW1 1022   1.270   0.652   6.028
   41SOL    HW2 1023   1.286   0.808   6.074
   42SOL     OW 1024   3.834   0.020   0.514
   42SOL    HW1 1025   3.812   6.961   0.461
   42SOL    HW2 1026   3.919   0.004   0.565
   43SOL     OW 1027   4.575   5.781   5.394
   43SOL    HW1 1028   4.490   5.729   5.386
   43SOL    HW2 1029   4.646   5.723   5.434
   44SOL     OW 1030   1.055   4.022   6.856
   44SOL    HW1 1031   1.118   3.979   6.792
   44SOL    HW2 1032   1.078   3.993   6.949
   45SOL     OW 1033   2.274   0.410   1.518
   45SOL    HW1 1034   2.323   0.496   1.500
   45SOL    HW2 1035   2.260   0.400   1.617
   46SOL     OW 1036   0.927   5.498   3.863
   46SOL    HW1 1037   0.834   5.460   3.863
   46SOL    HW2 1038   0.940   5.554   3.946
   47SOL     OW 1039   5.875   4.325   3.192
   47SOL    HW1 1040   5.810   4.295   3.123
   47SOL    HW2 1041   5.832   4.390   3.254
   48SOL     OW 1042   0.497   1.370   5.725
   48SOL    HW1 1043   0.568   1.340   5.661
   48SOL    HW2 1044   0.472   1.294   5.784
   49SOL     OW 1045   6.082   3.230   0.203
   49SOL    HW1 1046   6.119   3.247   0.295
   49SOL    HW2 1047   6.012   3.298   0.182
   50SOL     OW 1048   0.631   3.935   4.508
   50SOL    HW1 1049   0.651   3.993   4.587
   50SOL    HW2 1050   0.701   3.949   4.438
   51SOL     OW 1051   3.674   5.620   2.225
   51SOL    HW1 1052   3.701   5.548   2.162
   51SOL    HW2 1053   3.667   5.583   2.317
   52SOL     OW 1054   0.757   2.227   1.955
   52SOL    HW1 1055   0.771   2.128   1.960
   52SOL    HW2 1056   0.839   2.274   1.987
   53SOL     OW 1057   4.610   6.454   4.027
   53SOL    HW1 1058   4.677   6.447   3.953
   53SOL    HW2 1059   4.613   6.545   4.067
   54SOL     OW 1060   5.358   4.613   5.325
   54SOL    HW1 1061   5.279   4.644   5.378
   54SOL    HW2 1062   5.398   4.532   5.368
   55SOL     OW 1063   3.755   2.224   0.967
   55SOL    HW1 1064   3.828   2.292   0.967
   55SOL    HW2 1065   3.770   2.158   1.040
   56SOL     OW 1066   0.649   0.198   1.949
   56SOL    HW1 1067   0.601   0.139   1.885
   56SOL    HW2 1068   0.717   0.144   2.000
   57SOL     OW 1069   5.672   0.762   1.095
   57SOL    HW1 1070   5.725   0.843   1.070
   57SOL    HW2 1071   5.578   0.789   1.116
   58SOL     OW 1072   6.544   0.102   6.920
   58SOL    HW1 1073   6.513   0.027   6.861
   58SOL    HW2 1074   6.639   0.124   6.900
   59SOL     OW 1075   0.641   0.099   5.339
   59SOL    HW1 1076   0.698   0.137   5.411
   59SOL    HW2 1077   0.642   7.022   5.344
   60SOL     OW 1078   5.002   0.040   4.894
   60SOL    HW1 1079   5.045   0.095   4.965
   60SOL    HW2 1080   4.938   0.097   4.842
   61SOL     OW 1081   3.890   6.891   5.546
   61SOL    HW1 1082   3.944   6.974   5.555
   61SOL    HW2 1083   3.795   6.916   5.526
   62SOL     OW 1084   2.818   0.472   5.046
   62SOL    HW1 1085   2.873   0.393   5.073
   62SOL    HW2 1086   2.878   0.550   5.026
   63SOL     OW 1087   6.982   3.045   3.419
   63SOL    HW1 1088   6.986   3.056   3.518
   63SOL    HW2 1089   0.053   3.036   3.383
   64SOL     OW 1090   0.297   2.454   5.556
   64SOL    HW1 1091   0.317   2.442   5.459
   64SOL    HW2 1092   0.270   2.366   5.596
   65SOL     OW 1093   0.985   3.889   6.249
   65SOL    HW1 1094   0.891   3.922   6.262
   65SOL    HW2 1095   1.043   3.965   6.218
   66SOL     OW 1096   2.462   0.973   1.316
   66SOL    HW1 1097   2.394   0.912   1.278
   66SOL    HW2 1098   2.542   0.920   1.345
   67SOL     OW 1099   4.980   5.179   4.491
   67SOL    HW1 1100   4.974   5.246   4.417
   67SOL    HW2 1101   4.928   5.097   4.467
   68SOL     OW 1102   5.643   2.855   6.945
   68SOL    HW1 1103   5.632   2.866   0.021
   68SOL    HW2 1104   5.558   2.819   6.906
   69SOL     OW 1105   2.655   2.786   5.900
   69SOL    HW1 1106   2.728   2.835   5.853
   69SOL    HW2 1107   2.574   2.782   5.841
   70SOL     OW 1108   5.910   0.028   2.345
   70SOL    HW1 1109   5.894   0.103   2.281
   70SOL    HW2 1110   5.953   6.974   2.297
   71SOL     OW 1111   1.916   4.234   2.417
   71SOL    HW1 1112   1.890   4.138   2.408
   71SOL    HW2 1113   1.845   4.292   2.375
   72SOL     OW 1114   3.581   5.232   3.258
   72SOL    HW1 1115   3.616   5.325   3.248
   72SOL    HW2 1116   3.584   5.185   3.169
   73SOL     OW 1117   3.687   2.967   6.577
   73SOL    HW1 1118   3.695   3.048   6.635
   73SOL    HW2 1119   3.704   2.885   6.632
   74SOL     OW 1120   5.180   6.782   6.090
   74SOL    HW1 1121   5.247   6.803   6.161
   74SOL    HW2 1122   5.212   6.816   6.002
   75SOL     OW 1123   3.537   4.938   4.871
   75SOL    HW1 1124   3.583   4.935   4.960
   75SOL    HW2 1125   3.601   4.973   4.802
   76SOL     OW 1126   2.610   3.160   0.922
   76SOL    HW1 1127   2.537   3.201   0.867
   76SOL    HW2 1128   2.569   3.114   1.002
   77SOL     OW 1129   6.015   4.165   6.469
   77SOL    HW1 1130   5.969   4.247   6.503
   77SOL    HW2 1131   6.102   4.153   6.518
   78SOL     OW 1132   6.068   6.620   6.008
   78SOL    HW1 1133   6.149   6.665   6.046
   78SOL    HW2 1134   5.998   6.689   5.990
   79SOL     OW 1135   3.104   0.014   0.681
   79SOL    HW1 1136   3.154   0.087   0.636
   79SOL    HW2 1137   3.087   6.962   0.616
   80SOL     OW 1138   0.390   1.176   4.427
   80SOL    HW1 1139   0.344   1.265   4.419
   80SOL    HW2 1140   0.458   1.167   4.355
   81SOL     OW 1141   2.117   0.236   3.273
   81SOL    HW1 1142   2.057   0.182   3.214
   81SOL    HW2 1143   2.142   0.183   3.353
   82SOL     OW 1144   6.564   4.525   5.855
   82SOL    HW1 1145   6.467   4.543   5.869
   82SOL    HW2 1146   6.608   4.606   5.816
   83SOL     OW 1147   6.489   6.530   5.730
   83SOL    HW1 1148   6.477   6.431   5.739
   83SOL    HW2 1149   6.401   6.575   5.746
   84SOL     OW 1150   6.847   4.021   1.494
   84SOL    HW1 1151   6.913   4.096   1.488
   84SOL    HW2 1152   6.801   4.025   1.583
   85SOL     OW 1153   0.423   0.673   5.022
   85SOL    HW1 1154   0.438   0.772   5.026
   85SOL    HW2 1155   0.508   0.628   4.993
   86SOL     OW 1156   2.057   1.040   4.719
   86SOL    HW1 1157   2.031   1.136   4.733
   86SOL    HW2 1158   2.072   0.997   4.808
   87SOL     OW 1159   4.603   6.867   1.654
   87SOL    HW1 1160   4.633   6.828   1.567
   87SOL    HW2 1161   4.513   6.908   1.643
   88SOL     OW 1162   6.052   1.026   1.551
   88SOL    HW1 1163   6.031   0.994   1.459
   88SOL    HW2 1164   5.972   1.075   1.588
   89SOL     OW 1165   1.615   1.954   5.469
   89SOL    HW1 1166   1.622   2.049   5.498
   89SOL    HW2 1167   1.630   1.949   5.370
   90SOL     OW 1168   6.611   5.815   3.753
   90SOL    HW1 1169   6.648   5.725   3.730
   90SOL    HW2 1170   6.512   5.806   3.770
   91SOL     OW 1171   4.403   4.984   4.674
   91SOL    HW1 1172   4.358   5.063   4.632
   91SOL    HW2 1173   4.471   5.015   4.740
   92SOL     OW 1174   3.468   5.832   1.301
   92SOL    HW1 1175   3.472   5.774   1.382
   92SOL    HW2 1176   3.388   5.809   1.247
   93SOL     OW 1177   3.063   4.812   6.192
   93SOL    HW1 1178   2.980   4.863   6.169
   93SOL    HW2 1179   3.108   4.853   6.271
   94SOL     OW 1180   2.031   6.549   1.805
   94SOL    HW1 1181   2.017   6.628   1.746
   94SOL    HW2 1182   2.125   6.548   1.839
   95SOL     OW 1183   6.658   0.011   5.100
   95SOL    HW1 1184   6.628   0.047   5.188
   95SOL    HW2 1185   6.757   0.018   5.092
   96SOL     OW 1186   1.878   6.888   5.338
   96SOL    HW1 1187   1.914   6.980   5.320
   96SOL    HW2 1188   1.930   6.846   5.412
   97SOL     OW 1189   6.144   2.737   4.398
   97SOL    HW1 1190   6.200   2.686   4.463
   97SOL    HW2 1191   6.107   2.818   4.444
   98SOL     OW 1192   4.917   1.130   5.765
   98SOL    HW1 1193   4.905   1.046   5.713
   98SOL    HW2 1194   4.987   1.117   5.835
   99SOL     OW 1195   4.999   1.639   0.907
   99SOL    HW1 1196   4.957   1.581   0.977
   99SOL    HW2 1197   4.996   1.735   0.937
  100SOL     OW 1198   6.158   5.606   6.401
  100SOL    HW1 1199   6.202   5.527   6.358
  100SOL    HW2 1200   6.226   5.677   6.418
  101SOL     OW 1201   1.306   0.041   4.090
  101SOL    HW1 1202   1.321   0.009   4.183
  101SOL    HW2 1203   1.385   0.019   4.033
  102SOL     OW 1204   4.327   0.290   3.017
  102SOL    HW1 1205   4.230   0.311   3.013
  102SOL    HW2 1206   4.379   0.375   3.027
  103SOL     OW 1207   3.753   1.809   1.688
  103SOL    HW1 1208   3.655   1.787   1.686
  103SOL    HW2 1209   3.764   1.908   1.691
  104SOL     OW 1210   6.571   6.202   2.344
  104SOL    HW1 1211   6.593   6.213   2.247
  104SOL    HW2 1212   6.592   6.287   2.392
  105SOL     OW 1213   5.254   0.759   6.245
  105SOL    HW1 1214   5.318   0.814   6.192
  105SOL    HW2 1215   5.218   0.685   6.189
  106SOL     OW 1216   3.293   6.653   1.501
  106SOL    HW1 1217   3.339   6.727   1.550
  106SOL    HW2 1218   3.358   6.606   1.442
  107SOL     OW 1219   2.543   3.714   0.149
  107SOL    HW1 1220   2.557   3.637   0.212
  107SOL    HW2 1221   2.626   3.726   0.094
  108SOL     OW 1222   4.803   4.119   4.939
  108SOL    HW1 1223   4.856   4.202   4.920
  108SOL    HW2 1224   4.825   4.086   5.030
  109SOL     OW 1225   5.934   0.842   1.784
  109SOL    HW1 1226   5.936   0.932   1.742
  109SOL    HW2 1227   5.986   0.843   1.869
  110SOL     OW 1228   3.410   6.256   4.452
  110SOL    HW1 1229   3.498   6.243   4.406
  110SOL    HW2 1230   3.368   6.167   4.468
  111SOL     OW 1231   3.223   1.197   3.353
  111SOL    HW1 1232   3.213   1.104   3.389
  111SOL    HW2 1233   3.148   1.254   3.387
  112SOL     OW 1234   6.755   1.208   6.534
  112SOL    HW1 1235   6.668   1.257   6.519
  112SOL    HW2 1236   6.828   1.255   6.484
  113SOL     OW 1237   6.838   6.525   3.644
  113SOL    HW1 1238   6.746   6.487   3.632
  113SOL    HW2 1239   6.901   6.479   3.581
  114SOL     OW 1240   1.139   6.633   0.492
  114SOL    HW1 1241   1.088   6.581   0.562
  114SOL    HW2 1242   1.187   6.569   0.432
  115SOL     OW 1243   5.224   0.657   5.387
  115SOL    HW1 1244   5.317   0.663   5.352
  115SOL    HW2 1245   5.204   0.737   5.443
  116SOL     OW 1246   6.277   4.233   3.043
  116SOL    HW1 1247   6.239   4.148   3.008
  116SOL    HW2 1248   6.377   4.226   3.048
  117SOL     OW 1249   1.143   6.817   6.586
  117SOL    HW1 1250   1.242   6.801   6.585
  117SOL    HW2 1251   1.107   6.799   6.678
  118SOL     OW 1252   2.239   0.976   2.936
  118SOL    HW1 1253   2.330   1.015   2.923
  118SOL    HW2 1254   2.212   0.926   2.854
  119SOL     OW 1255   6.727   2.511   5.856
  119SOL    HW1 1256   6.820   2.525   5.821
  119SOL    HW2 1257   6.714   2.565   5.938
  120SOL     OW 1258   4.874   6.185   1.787
  120SOL    HW1 1259   4.779   6.162   1.807
  120SOL    HW2 1260   4.895   6.277   1.821
  121SOL     OW 1261   2.935   2.928   5.527
  121SOL    HW1 1262   2.997   2.871   5.473
  121SOL    HW2 1263   2.841   2.898   5.513
  122SOL     OW 1264   0.940   3.242   4.874
  122SOL    HW1 1265   0.872   3.251   4.801
  122SOL    HW2 1266   0.974   3.333   4.900
  123SOL     OW 1267   0.118   2.083   1.661
  123SOL    HW1 1268   0.189   2.089   1.731
  123SOL    HW2 1269   0.149   2.022   1.588
  124SOL     OW 1270   4.850   3.660   1.388
  124SOL    HW1 1271   4.815   3.622   1.473
  124SOL    HW2 1272   4.950   3.668   1.394
  125SOL     OW 1273   2.365   3.585   1.635
  125SOL    HW1 1274   2.374   3.670   1.687
  125SOL    HW2 1275   2.364   3.507   1.698
  126SOL     OW 1276   4.208   4.346   0.827
  126SOL    HW1 1277   4.200   4.266   0.767
  126SOL    HW2 1278   4.121   4.359   0.875
  127SOL     OW 1279   0.694   5.457   5.630
  127SOL    HW1 1280   0.773   5.493   5.678
  127SOL    HW2 1281   0.711   5.456   5.532
  128SOL     OW 1282   4.660   2.538   0.616
  128SOL    HW1 1283   4.594   2.463   0.621
  128SOL    HW2 1284   4.747   2.503   0.579
  129SOL     OW 1285   2.781   3.779   0.019
  129SOL    HW1 1286   2.813   3.872   0.001
  129SOL    HW2 1287   2.833   3.740   0.095
  130SOL     OW 1288   1.687   2.397   4.635
  130SOL    HW1 1289   1.659   2.440   4.721
  130SOL    HW2 1290   1.777   2.433   4.607
  131SOL     OW 1291   5.750   1.551   2.058
  131SOL    HW1 1292   5.823   1.484   2.051
  131SOL    HW2 1293   5.665   1.506   2.085
  132SOL     OW 1294   0.492   2.260   1.895
  132SOL    HW1 1295   0.589   2.237   1.910
  132SOL    HW2 1296   0.435   2.189   1.936
  133SOL     OW 1297   6.706   5.942   2.987
  133SOL    HW1 1298   6.662   5.872   2.931
  133SOL    HW2 1299   6.643   5.974   3.058
  134SOL     OW 1300   1.352   3.460   2.688
  134SOL    HW1 1301   1.332   3.364   2.708
  134SOL    HW2 1302   1.404   3.499   2.764
  135SOL     OW 1303   4.512   1.117   4.116
  135SOL    HW1 1304   4.572   1.111   4.196
  135SOL    HW2 1305   4.465   1.205   4.117
  136SOL     OW 1306   4.918   4.792   5.983
  136SOL    HW1 1307   4.958   4.703   5.959
  136SOL    HW2 1308   4.920   4.803   6.083
  137SOL     OW 1309   3.892   0.782   5.526
  137SOL    HW1 1310   3.826   0.717   5.564
  137SOL    HW2 1311   3.875   0.794   5.428
  138SOL     OW 1312   5.869   4.377   5.529
  138SOL    HW1 1313   5.827   4.466   5.548
  138SOL    HW2 1314   5.838   4.310   5.596
  139SOL     OW 1315   3.317   5.574   5.905
  139SOL    HW1 1316   3.365   5.641   5.962
  139SOL    HW2 1317   3.351   5.581   5.811
  140SOL     OW 1318   6.432   3.790   4.836
  140SOL    HW1 1319   6.384   3.848   4.902
  140SOL    HW2 1320   6.503   3.738   4.884
  141SOL     OW 1321   1.187   1.888   2.293
  141SOL    HW1 1322   1.170   1.800   2.339
  141SOL    HW2 1323   1.250   1.942   2.349
  142SOL     OW 1324   1.803   5.061   1.122
  142SOL    HW1 1325   1.887   5.014   1.096
  142SOL    HW2 1326   1.790   5.142   1.063
  143SOL     OW 1327   5.062   4.132   2.293
  143SOL    HW1 1328   5.069   4.182   2.379
  143SOL    HW2 1329   4.967   4.131   2.263
  144SOL     OW 1330   2.585   6.642   0.970
  144SOL    HW1 1331   2.533   6.599   1.043
  144SOL    HW2 1332   2.682   6.646   0.995
  145SOL     OW 1333   6.634   5.537   0.874
  145SOL    HW1 1334   6.610   5.448   0.835
  145SOL    HW2 1335   6.719   5.570   0.832
  146SOL     OW 1336   6.566   4.706   0.681
  146SOL    HW1 1337   6.473   4.687   0.712
  146SOL    HW2 1338   6.564   4.779   0.613
  147SOL     OW 1339   6.255   2.499   1.081
  147SOL    HW1 1340   6.162   2.487   1.113
  147SOL    HW2 1341   6.299   2.573   1.133
  148SOL     OW 1342   0.957   5.414   5.410
  148SOL    HW1 1343   0.955   5.314   5.412
  148SOL    HW2 1344   0.865   5.449   5.394
  149SOL     OW 1345   3.213   1.295   6.154
  149SOL    HW1 1346   3.220   1.206   6.198
  149SOL    HW2 1347   3.303   1.324   6.122
  150SOL     OW 1348   7.014   6.042   5.068
  150SOL    HW1 1349   6.953   5.969   5.099
  150SOL    HW2 1350   6.959   6.123   5.044
  151SOL     OW 1351   4.316   0.849   2.201
  151SOL    HW1 1352   4.339   0.772   2.142
  151SOL    HW2 1353   4.336   0.826   2.296
  152SOL     OW 1354   2.643   0.907   4.665
  152SOL    HW1 1355   2.737   0.879   4.645
  152SOL    HW2 1356   2.605   0.847   4.735
  153SOL     OW 1357   1.137   0.580   2.967
  153SOL    HW1 1358   1.142   0.480   2.956
  153SOL    HW2 1359   1.053   0.604   3.015
  154SOL     OW 1360   0.478   2.179   3.128
  154SOL    HW1 1361   0.516   2.103   3.076
  154SOL    HW2 1362   0.553   2.238   3.160
  155SOL     OW 1363   0.448   1.141   2.771
  155SOL    HW1 1364   0.401   1.052   2.769
  155SOL    HW2 1365   0.509   1.148   2.692
  156SOL     OW 1366   0.242   2.487   1.427
  156SOL    HW1 1367   0.218   2.550   1.353
  156SOL    HW2 1368   0.181   2.408   1.425
  157SOL     OW 1369   6.759   2.671   2.882
  157SOL    HW1 1370   6.828   2.661   2.954
  157SOL    HW2 1371   6.705   2.753   2.898
  158SOL     OW 1372   1.703   1.966   3.903
  158SOL    HW1 1373   1.663   2.056   3.890
  158SOL    HW2 1374   1.779   1.972   3.968
  159SOL     OW 1375   5.119   3.101   2.133
  159SOL    HW1 1376   5.106   3.014   2.182
  159SOL    HW2 1377   5.169   3.084   2.048
  160SOL     OW 1378   6.197   4.314   6.146
  160SOL    HW1 1379   6.213   4.245   6.217
  160SOL    HW2 1380   6.211   4.405   6.185
  161SOL     OW 1381   3.040   4.705   5.336
  161SOL    HW1 1382   3.002   4.621   5.299
  161SOL    HW2 1383   3.093   4.752   5.265
  162SOL     OW 1384   4.625   6.133   2.370
  162SOL    HW1 1385   4.669   6.186   2.443
  162SOL    HW2 1386   4.691   6.115   2.297
  163SOL     OW 1387   6.144   0.697   1.641
  163SOL    HW1 1388   6.069   0.741   1.691
  163SOL    HW2 1389   6.107   0.645   1.564
  164SOL     OW 1390   6.504   2.959   1.110
  164SOL    HW1 1391   6.585   2.927   1.063
  164SOL    HW2 1392   6.445   2.882   1.132
  165SOL     OW 1393   6.426   3.533   0.154
  165SOL    HW1 1394   6.386   3.579   0.075
  165SOL    HW2 1395   6.402   3.582   0.238
  166SOL     OW 1396   1.498   0.356   0.926
  166SOL    HW1 1397   1.548   0.410   0.995
  166SOL    HW2 1398   1.484   0.411   0.844
  167SOL     OW 1399   6.377   2.249   1.164
  167SOL    HW1 1400   6.337   2.318   1.104
  167SOL    HW2 1401   6.314   2.229   1.239
  168SOL     OW 1402   2.478   5.474   1.353
  168SOL    HW1 1403   2.441   5.469   1.445
  168SOL    HW2 1404   2.484   5.382   1.314
  169SOL     OW 1405   0.931   6.984   1.305
  169SOL    HW1 1406   0.893   0.027   1.241
  169SOL    HW2 1407   0.862   6.958   1.372
  170SOL     OW 1408   0.447   1.496   3.314
  170SOL    HW1 1409   0.541   1.519   3.288
  170SOL    HW2 1410   0.396   1.468   3.233
  171SOL     OW 1411   3.532   3.959   0.360
  171SOL    HW1 1412   3.616   4.010   0.376
  171SOL    HW2 1413   3.459   3.995   0.418
  172SOL     OW 1414   0.053   2.991   1.906
  172SOL    HW1 1415   0.144   3.015   1.871
  172SOL    HW2 1416   0.040   3.034   1.995
  173SOL     OW 1417   0.391   6.325   5.833
  173SOL    HW1 1418   0.488   6.301   5.828
  173SOL    HW2 1419   0.351   6.323   5.742
  174SOL     OW 1420   2.862   5.958   3.996
  174SOL    HW1 1421   2.833   5.868   3.961
  174SOL    HW2 1422   2.817   5.976   4.083
  175SOL     OW 1423   0.425   5.189   3.414
  175SOL    HW1 1424   0.513   5.194   3.461
  175SOL    HW2 1425   0.415   5.269   3.354
  176SOL     OW 1426   2.528   5.219   6.882
  176SOL    HW1 1427   2.611   5.235   6.936
  176SOL    HW2 1428   2.478   5.305   6.873
  177SOL     OW 1429   4.442   1.877   2.858
  177SOL    HW1 1430   4.536   1.868   2.826
  177SOL    HW2 1431   4.399   1.955   2.813
  178SOL     OW 1432   5.172   4.090   6.033
  178SOL    HW1 1433   5.073   4.076   6.040
  178SOL    HW2 1434   5.213   4.014   5.983
  179SOL     OW 1435   3.006   6.487   0.780
  179SOL    HW1 1436   3.046   6.433   0.854
  179SOL    HW2 1437   2.907   6.494   0.793
  180SOL     OW 1438   1.260   2.002   0.020
  180SOL    HW1 1439   1.259   2.036   0.114
  180SOL    HW2 1440   1.324   1.925   0.013
  181SOL     OW 1441   2.897   3.443   4.249
  181SOL    HW1 1442   2.914   3.492   4.334
  181SOL    HW2 1443   2.936   3.351   4.255
  182SOL     OW 1444   4.963   2.643   4.599
  182SOL    HW1 1445   5.051   2.604   4.573
  182SOL    HW2 1446   4.974   2.703   4.677
  183SOL     OW 1447   5.821   1.751   2.330
  183SOL    HW1 1448   5.782   1.708   2.412
  183SOL    HW2 1449   5.893   1.692   2.293
  184SOL     OW 1450   0.409   4.848   2.914
  184SOL    HW1 1451   0.418   4.942   2.948
  184SOL    HW2 1452   0.485   4.828   2.851
  185SOL     OW 1453   2.849   3.605   6.344
  185SOL    HW1 1454   2.814   3.511   6.336
  185SOL    HW2 1455   2.930   3.615   6.287
  186SOL     OW 1456   6.124   6.427   3.457
  186SOL    HW1 1457   6.108   6.525   3.475
  186SOL    HW2 1458   6.041   6.376   3.480
  187SOL     OW 1459   5.258   0.101   3.942
  187SOL    HW1 1460   5.167   0.087   3.981
  187SOL    HW2 1461   5.319   0.138   4.012
  188SOL     OW 1462   6.144   2.124   4.914
  188SOL    HW1 1463   6.171   2.028   4.923
  188SOL    HW2 1464   6.056   2.139   4.960
  189SOL     OW 1465   1.453   4.566   3.390
  189SOL    HW1 1466   1.471   4.653   3.344
  189SOL    HW2 1467   1.529   4.503   3.373
  190SOL     OW 1468   3.412   1.298   6.611
  190SOL    HW1 1469   3.314   1.283   6.601
  190SOL    HW2 1470   3.442   1.367   6.544
  191SOL     OW 1471   5.239   6.030   6.341
  191SOL    HW1 1472   5.266   5.939   6.373
  191SOL    HW2 1473   5.229   6.028   6.241
  192SOL     OW 1474   5.958   0.911   0.188
  192SOL    HW1 1475   6.058   0.913   0.196
  192SOL    HW2 1476   5.918   0.886   0.277
  193SOL     OW 1477   6.262   4.013   7.009
  193SOL    HW1 1478   6.189   4.014   0.055
  193SOL    HW2 1479   6.323   4.092   0.001
  194SOL     OW 1480   4.169   0.363   4.550
  194SOL    HW1 1481   4.174   0.304   4.469
  194SOL    HW2 1482   4.133   0.311   4.627
  195SOL     OW 1483   6.887   5.190   2.799
  195SOL    HW1 1484   6.789   5.186   2.821
  195SOL    HW2 1485   6.926   5.274   2.837
  196SOL     OW 1486   0.684   1.014   0.679
  196SOL    HW1 1487   0.609   1.054   0.732
  196SOL    HW2 1488   0.690   1.060   0.590
  197SOL     OW 1489   1.686   0.753   0.870
  197SOL    HW1 1490   1.622   0.818   0.829
  197SOL    HW2 1491   1.727   0.697   0.798
  198SOL     OW 1492   2.853   1.117   4.472
  198SOL    HW1 1493   2.891   1.209   4.487
  198SOL    HW2 1494   2.872   1.089   4.377
  199SOL     OW 1495   1.012   1.562   4.648
  199SOL    HW1 1496   0.939   1.630   4.639
  199SOL    HW2 1497   1.101   1.605   4.630
  200SOL     OW 1498   6.182   2.324   0.006
  200SOL    HW1 1499   6.217   2.357   0.093
  200SOL    HW2 1500   6.174   2.400   6.964
  201SOL     OW 1501   0.092   1.564   5.979
  201SOL    HW1 1502   0.043   1.649   5.963
  201SOL    HW2 1503   0.154   1.574   6.056
  202SOL     OW 1504   5.320   0.086   0.205
  202SOL    HW1 1505   5.243   0.022   0.197
  202SOL    HW2 1506   5.352   0.111   0.113
  203SOL     OW 1507   6.600   2.979   6.860
  203SOL    HW1 1508   6.684   2.983   6.914
  203SOL    HW2 1509   6.555   3.068   6.863
  204SOL     OW 1510   6.409   0.700   5.266
  204SOL    HW1 1511   6.473   0.625   5.248
  204SOL    HW2 1512   6.373   0.691   5.359
  205SOL     OW 1513   2.172   4.388   3.262
  205SOL    HW1 1514   2.087   4.372   3.212
  205SOL    HW2 1515   2.241   4.424   3.199
  206SOL     OW 1516   0.647   4.106   0.710
  206SOL    HW1 1517   0.552   4.138   0.706
  206SOL    HW2 1518   0.662   4.038   0.638
  207SOL     OW 1519   6.198   3.139   4.878
  207SOL    HW1 1520   6.254   3.102   4.803
  207SOL    HW2 1521   6.139   3.212   4.843
  208SOL     OW 1522   1.293   3.163   4.834
  208SOL    HW1 1523   1.343   3.125   4.911
  208SOL    HW2 1524   1.202   3.122   4.830
  209SOL     OW 1525   6.577   4.702   2.659
  209SOL    HW1 1526   6.558   4.779   2.599
  209SOL    HW2 1527   6.598   4.735   2.751
  210SOL     OW 1528   4.737   3.545   0.863
  210SOL    HW1 1529   4.681   3.487   0.922
  210SOL    HW2 1530   4.749   3.501   0.774
  211SOL     OW 1531   1.424   1.137   1.592
  211SOL    HW1 1532   1.388   1.051   1.627
  211SOL    HW2 1533   1.373   1.213   1.631
  212SOL     OW 1534   2.366   3.825   1.742
  212SOL    HW1 1535   2.317   3.828   1.829
  212SOL    HW2 1536   2.335   3.900   1.684
  213SOL     OW 1537   0.876   5.407   1.329
  213SOL    HW1 1538   0.859   5.336   1.261
  213SOL    HW2 1539   0.807   5.401   1.401
  214SOL     OW 1540   5.621   6.639   2.146
  214SOL    HW1 1541   5.543   6.581   2.123
  214SOL    HW2 1542   5.589   6.733   2.160
  215SOL     OW 1543   2.060   4.919   2.800
  215SOL    HW1 1544   1.979   4.875   2.762
  215SOL    HW2 1545   2.139   4.900   2.742
  216SOL     OW 1546   1.691   6.266   3.328
  216SOL    HW1 1547   1.740   6.193   3.280
  216SOL    HW2 1548   1.622   6.225   3.388
  217SOL     OW 1549   0.094   5.428   5.265
  217SOL    HW1 1550   0.140   5.402   5.179
  217SOL    HW2 1551   0.150   5.397   5.342
  218SOL     OW 1552   2.560   2.277   5.681
  218SOL    HW1 1553   2.585   2.269   5.584
  218SOL    HW2 1554   2.514   2.193   5.711
  219SOL     OW 1555   4.724   2.263   1.180
  219SOL    HW1 1556   4.729   2.320   1.098
  219SOL    HW2 1557   4.633   2.222   1.187
  220SOL     OW 1558   2.717   6.556   0.703
  220SOL    HW1 1559   2.653   6.480   0.703
  220SOL    HW2 1560   2.679   6.632   0.755
  221SOL     OW 1561   4.734   4.616   1.953
  221SOL    HW1 1562   4.814   4.557   1.942
  221SOL    HW2 1563   4.763   4.706   1.987
  222SOL     OW 1564   1.685   4.365   6.711
  222SOL    HW1 1565   1.664   4.281   6.661
  222SOL    HW2 1566   1.782   4.388   6.698
  223SOL     OW 1567   6.443   2.263   4.891
  223SOL    HW1 1568   6.404   2.330   4.827
  223SOL    HW2 1569   6.452   2.305   4.981
  224SOL     OW 1570   3.304   2.412   5.855
  224SOL    HW1 1571   3.369   2.367   5.793
  224SOL    HW2 1572   3.338   2.502   5.879
  225SOL     OW 1573   4.173   5.818   6.711
  225SOL    HW1 1574   4.227   5.901   6.700
  225SOL    HW2 1575   4.209   5.764   6.787
  226SOL     OW 1576   1.766   2.391   0.359
  226SOL    HW1 1577   1.671   2.415   0.344
  226SOL    HW2 1578   1.817   2.471   0.391
  227SOL     OW 1579   1.414   4.064   0.877
  227SOL    HW1 1580   1.349   4.106   0.941
  227SOL    HW2 1581   1.450   4.134   0.815
  228SOL     OW 1582   0.916   0.641   2.571
  228SOL    HW1 1583   0.847   0.571   2.587
  228SOL    HW2 1584   1.002   0.597   2.543
  229SOL     OW 1585   4.042   0.647   6.142
  229SOL    HW1 1586   4.102   0.578   6.184
  229SOL    HW2 1587   3.971   0.601   6.089
  230SOL     OW 1588   5.736   4.307   5.907
  230SOL    HW1 1589   5.835   4.290   5.910
  230SOL    HW2 1590   5.689   4.226   5.872
  231SOL     OW 1591   5.231   0.941   6.983
  231SOL    HW1 1592   5.273   1.027   7.013
  231SOL    HW2 1593   5.276   0.864   0.008
  232SOL     OW 1594   1.093   2.151   5.423
  232SOL    HW1 1595   1.045   2.184   5.504
  232SOL    HW2 1596   1.069   2.207   5.344
  233SOL     OW 1597   3.692   1.430   3.299
  233SOL    HW1 1598   3.685   1.383   3.211
  233SOL    HW2 1599   3.605   1.476   3.318
  234SOL     OW 1600   5.085   0.262   0.681
  234SOL    HW1 1601   5.183   0.245   0.692
  234SOL    HW2 1602   5.044   0.186   0.631
  235SOL     OW 1603   5.374   3.227   2.702
  235SOL    HW1 1604   5.474   3.222   2.695
  235SOL    HW2 1605   5.341   3.153   2.759
  236SOL     OW 1606   3.726   3.247   5.844
  236SOL    HW1 1607   3.690   3.339   5.833
  236SOL    HW2 1608   3.654   3.180   5.824
  237SOL     OW 1609   6.165   3.621   2.995
  237SOL    HW1 1610   6.097   3.627   2.921
  237SOL    HW2 1611   6.256   3.607   2.956
  238SOL     OW 1612   6.107   1.642   0.492
  238SOL    HW1 1613   6.129   1.561   0.437
  238SOL    HW2 1614   6.051   1.705   0.438
  239SOL     OW 1615   1.333   3.450   0.296
  239SOL    HW1 1616   1.340   3.353   0.319
  239SOL    HW2 1617   1.251   3.489   0.338
  240SOL     OW 1618   5.286   3.427   4.078
  240SOL    HW1 1619   5.381   3.445   4.102
  240SOL    HW2 1620   5.226   3.482   4.136
  241SOL     OW 1621   2.462   2.229   4.135
  241SOL    HW1 1622   2.526   2.154   4.150
  241SOL    HW2 1623   2.492   2.282   4.056
  242SOL     OW 1624   3.821   3.378   2.253
  242SOL    HW1 1625   3.781   3.294   2.217
  242SOL    HW2 1626   3.919   3.380   2.234
  243SOL     OW 1627   3.970   2.913   6.100
  243SOL    HW1 1628   3.973   2.995   6.157
  243SOL    HW2 1629   3.896   2.854   6.131
  244SOL     OW 1630   4.890   3.477   4.770
  244SOL    HW1 1631   4.852   3.551   4.824
  244SOL    HW2 1632   4.834   3.395   4.780
  245SOL     OW 1633   3.767   1.250   3.057
  245SOL    HW1 1634   3.831   1.319   3.025
  245SOL    HW2 1635   3.678   1.264   3.013
  246SOL     OW 1636   6.578   1.233   2.271
  246SOL    HW1 1637   6.653   1.214   2.334
  246SOL    HW2 1638   6.613   1.282   2.191
  247SOL     OW 1639   2.071   1.316   1.767
  247SOL    HW1 1640   2.056   1.341   1.672
  247SOL    HW2 1641   2.131   1.383   1.810
  248SOL     OW 1642   3.153   3.790   1.287
  248SOL    HW1 1643   3.173   3.739   1.371
  248SOL    HW2 1644   3.107   3.729   1.222
  249SOL     OW 1645   4.979   6.703   5.231
  249SOL    HW1 1646   4.956   6.612   5.197
  249SOL    HW2 1647   4.909   6.768   5.202
  250SOL     OW 1648   3.970   2.479   6.798
  250SOL    HW1 1649   3.985   2.398   6.741
  250SOL    HW2 1650   3.924   2.549   6.744
  251SOL     OW 1651   4.523   5.279   5.460
  251SOL    HW1 1652   4.447   5.228   5.501
  251SOL    HW2 1653   4.574   5.218   5.399
  252SOL     OW 1654   6.379   6.360   5.004
  252SOL    HW1 1655   6.320   6.314   5.070
  252SOL    HW2 1656   6.472   6.366   5.041
  253SOL     OW 1657   4.095   6.054   6.507
  253SOL    HW1 1658   4.034   6.103   6.570
  253SOL    HW2 1659   4.047   6.038   6.420
  254SOL     OW 1660   6.343   1.980   5.287
  254SOL    HW1 1661   6.288   2.056   5.323
  254SOL    HW2 1662   6.287   1.898   5.281
  255SOL     OW 1663   1.201   4.552   6.625
  255SOL    HW1 1664   1.298   4.525   6.621
  255SOL    HW2 1665   1.149   4.481   6.672
  256SOL     OW 1666   4.763   2.195   4.856
  256SOL    HW1 1667   4.833   2.258   4.892
  256SOL    HW2 1668   4.764   2.110   4.908
  257SOL     OW 1669   4.810   6.445   2.345
  257SOL    HW1 1670   4.722   6.491   2.329
  257SOL    HW2 1671   4.803   6.388   2.427
  258SOL     OW 1672   2.152   3.334   5.818
  258SOL    HW1 1673   2.076   3.270   5.807
  258SOL    HW2 1674   2.157   3.394   5.738
  259SOL     OW 1675   3.198   0.039   3.839
  259SOL    HW1 1676   3.175   0.132   3.866
  259SOL    HW2 1677   3.249   7.017   3.912
  260SOL     OW 1678   4.015   5.623   3.120
  260SOL    HW1 1679   4.048   5.613   3.026
  260SOL    HW2 1680   4.086   5.595   3.184
  261SOL     OW 1681   4.177   5.098   0.019
  261SOL    HW1 1682   4.094   5.153   0.025
  261SOL    HW2 1683   4.191   5.071   6.946
  262SOL     OW 1684   1.029   3.789   6.627
  262SOL    HW1 1685   0.977   3.706   6.646
  262SOL    HW2 1686   1.127   3.769   6.632
  263SOL     OW 1687   1.488   0.266   4.017
  263SOL    HW1 1688   1.397   0.307   4.021
  263SOL    HW2 1689   1.541   0.308   3.943
  264SOL     OW 1690   6.459   2.690   6.503
  264SOL    HW1 1691   6.469   2.649   6.594
  264SOL    HW2 1692   6.437   2.787   6.512
  265SOL     OW 1693   6.916   0.060   3.194
  265SOL    HW1 1694   6.961   0.120   3.259
  265SOL    HW2 1695   6.842   0.109   3.148
  266SOL     OW 1696   3.911   0.597   5.892
  266SOL    HW1 1697   3.928   0.696   5.890
  266SOL    HW2 1698   3.952   0.555   5.811
  267SOL     OW 1699   2.484   0.157   2.922
  267SOL    HW1 1700   2.421   0.184   2.850
  267SOL    HW2 1701   2.563   0.218   2.923
  268SOL     OW 1702   3.341   2.419   0.709
  268SOL    HW1 1703   3.274   2.480   0.666
  268SOL    HW2 1704   3.424   2.417   0.654
  269SOL     OW 1705   5.362   1.846   0.269
  269SOL    HW1 1706   5.288   1.778   0.272
  269SOL    HW2 1707   5.340   1.921   0.330
  270SOL     OW 1708   5.556   0.872   0.459
  270SOL    HW1 1709   5.652   0.862   0.433
  270SOL    HW2 1710   5.536   0.968   0.476
  271SOL     OW 1711   0.791   4.202   6.392
  271SOL    HW1 1712   0.779   4.300   6.378
  271SOL    HW2 1713   0.737   4.151   6.324
  272SOL     OW 1714   2.851   5.869   2.981
  272SOL    HW1 1715   2.901   5.938   2.929
  272SOL    HW2 1716   2.801   5.912   3.056
  273SOL     OW 1717   1.998   5.704   5.859
  273SOL    HW1 1718   2.035   5.762   5.786
  273SOL    HW2 1719   1.945   5.760   5.922
  274SOL     OW 1720   4.501   2.341   3.909
  274SOL    HW1 1721   4.449   2.258   3.887
  274SOL    HW2 1722   4.448   2.397   3.973
  275SOL     OW 1723   5.968   6.860   1.321
  275SOL    HW1 1724   6.062   6.895   1.327
  275SOL    HW2 1725   5.970   6.768   1.283
  276SOL     OW 1726   0.899   0.217   4.623
  276SOL    HW1 1727   0.986   0.173   4.602
  276SOL    HW2 1728   0.871   0.194   4.716
  277SOL     OW 1729   1.768   4.803   0.861
  277SOL    HW1 1730   1.798   4.746   0.937
  277SOL    HW2 1731   1.790   4.899   0.880
  278SOL     OW 1732   0.340   2.794   2.965
  278SOL    HW1 1733   0.385   2.863   3.023
  278SOL    HW2 1734   0.377   2.704   2.987
  279SOL     OW 1735   6.308   1.148   3.299
  279SOL    HW1 1736   6.267   1.101   3.222
  279SOL    HW2 1737   6.349   1.081   3.361
  280SOL     OW 1738   1.901   4.628   2.926
  280SOL    HW1 1739   1.894   4.693   2.850
  280SOL    HW2 1740   1.981   4.650   2.981
  281SOL     OW 1741   2.458   4.546   1.108
  281SOL    HW1 1742   2.484   4.600   1.188
  281SOL    HW2 1743   2.369   4.576   1.076
  282SOL     OW 1744   1.928   1.124   5.759
  282SOL    HW1 1745   1.916   1.208   5.707
  282SOL    HW2 1746   2.023   1.115   5.789
  283SOL     OW 1747   3.525   3.050   5.824
  283SOL    HW1 1748   3.470   2.967   5.819
  283SOL    HW2 1749   3.471   3.124   5.863
  284SOL     OW 1750   0.573   3.490   3.942
  284SOL    HW1 1751   0.519   3.490   3.858
  284SOL    HW2 1752   0.556   3.575   3.992
  285SOL     OW 1753   5.367   4.405   4.066
  285SOL    HW1 1754   5.404   4.327   4.014
  285SOL    HW2 1755   5.268   4.394   4.076
  286SOL     OW 1756   3.276   4.395   0.668
  286SOL    HW1 1757   3.317   4.485   0.680
  286SOL    HW2 1758   3.181   4.405   0.638
  287SOL     OW 1759   1.046   2.777   0.274
  287SOL    HW1 1760   1.127   2.773   0.333
  287SOL    HW2 1761   1.069   2.741   0.183
  288SOL     OW 1762   4.831   3.224   1.398
  288SOL    HW1 1763   4.805   3.128   1.396
  288SOL    HW2 1764   4.795   3.270   1.317
  289SOL     OW 1765   3.770   5.420   6.802
  289SOL    HW1 1766   3.808   5.340   6.847
  289SOL    HW2 1767   3.673   5.429   6.825
  290SOL     OW 1768   1.665   0.771   4.660
  290SOL    HW1 1769   1.733   0.816   4.603
  290SOL    HW2 1770   1.686   0.786   4.756
  291SOL     OW 1771   6.513   2.032   3.066
  291SOL    HW1 1772   6.613   2.027   3.070
  291SOL    HW2 1773   6.475   1.992   3.149
  292SOL     OW 1774   3.358   0.369   3.730
  292SOL    HW1 1775   3.333   0.432   3.804
  292SOL    HW2 1776   3.417   0.297   3.767
  293SOL     OW 1777   3.644   5.009   3.511
  293SOL    HW1 1778   3.603   4.946   3.445
  293SOL    HW2 1779   3.625   5.103   3.483
  294SOL     OW 1780   5.011   0.530   0.644
  294SOL    HW1 1781   5.040   0.591   0.718
  294SOL    HW2 1782   5.044   0.437   0.663
  295SOL     OW 1783   5.569   0.051   3.916
  295SOL    HW1 1784   5.569   0.145   3.881
  295SOL    HW2 1785   5.539   7.011   3.844
  296SOL     OW 1786   2.633   1.933   2.999
  296SOL    HW1 1787   2.733   1.934   3.005
  296SOL    HW2 1788   2.604   1.977   2.914
  297SOL     OW 1789   1.897   4.791   2.403
  297SOL    HW1 1790   1.984   4.838   2.414
  297SOL    HW2 1791   1.908   4.712   2.343
  298SOL     OW 1792   6.343   5.173   0.737
  298SOL    HW1 1793   6.360   5.214   0.827
  298SOL    HW2 1794   6.253   5.130   0.737
  299SOL     OW 1795   6.213   2.199   4.156
  299SOL    HW1 1796   6.267   2.284   4.158
  299SOL    HW2 1797   6.123   2.216   4.195
  300SOL     OW 1798   6.058   6.758   1.915
  300SOL    HW1 1799   6.000   6.727   1.840
  300SOL    HW2 1800   6.105   6.842   1.889
  301SOL     OW 1801   4.708   2.745   5.560
  301SOL    HW1 1802   4.653   2.672   5.520
  301SOL    HW2 1803   4.803   2.736   5.530
  302SOL     OW 1804   1.170   5.633   4.189
  302SOL    HW1 1805   1.137   5.688   4.266
  302SOL    HW2 1806   1.092   5.593   4.141
  303SOL     OW 1807   6.077   0.311   3.658
  303SOL    HW1 1808   6.062   0.237   3.593
  303SOL    HW2 1809   6.057   0.398   3.614
  304SOL     OW 1810   3.634   0.225   3.416
  304SOL    HW1 1811   3.673   0.173   3.492
  304SOL    HW2 1812   3.608   0.316   3.448
  305SOL     OW 1813   1.323   5.179   0.747
  305SOL    HW1 1814   1.392   5.152   0.813
  305SOL    HW2 1815   1.280   5.097   0.708
  306SOL     OW 1816   2.182   1.326   3.378
  306SOL    HW1 1817   2.229   1.348   3.463
  306SOL    HW2 1818   2.206   1.394   3.308
  307SOL     OW 1819   3.531   0.477   1.610
  307SOL    HW1 1820   3.564   0.560   1.564
  307SOL    HW2 1821   3.456   0.501   1.671
  308SOL     OW 1822   0.518   4.836   3.728
  308SOL    HW1 1823   0.578   4.897   3.676
  308SOL    HW2 1824   0.472   4.774   3.665
  309SOL     OW 1825   3.731   4.595   5.506
  309SOL    HW1 1826   3.763   4.502   5.488
  309SOL    HW2 1827   3.634   4.601   5.485
  310SOL     OW 1828   1.466   5.999   6.476
  310SOL    HW1 1829   1.510   5.978   6.389
  310SOL    HW2 1830   1.532   5.988   6.550
  311SOL     OW 1831   0.110   0.781   1.243
  311SOL    HW1 1832   0.122   0.756   1.339
  311SOL    HW2 1833   0.199   0.798   1.201
  312SOL     OW 1834   4.118   1.348   5.543
  312SOL    HW1 1835   4.059   1.342   5.462
  312SOL    HW2 1836   4.201   1.296   5.527
  313SOL     OW 1837   0.212   4.786   1.042
  313SOL    HW1 1838   0.206   4.865   1.104
  313SOL    HW2 1839   0.120   4.758   1.015
  314SOL     OW 1840   3.343   5.871   2.297
  314SOL    HW1 1841   3.268   5.845   2.236
  314SOL    HW2 1842   3.419   5.905   2.242
  315SOL     OW 1843   1.138   3.641   2.691
  315SOL    HW1 1844   1.208   3.570   2.693
  315SOL    HW2 1845   1.053   3.602   2.656
  316SOL     OW 1846   2.164   3.016   4.415
  316SOL    HW1 1847   2.173   3.105   4.369
  316SOL    HW2 1848   2.067   2.994   4.426
  317SOL     OW 1849   6.734   1.263   0.210
  317SOL    HW1 1850   6.733   1.169   0.176
  317SOL    HW2 1851   6.665   1.275   0.280
  318SOL     OW 1852   3.034   4.075   1.060
  318SOL    HW1 1853   3.054   3.992   1.008
  318SOL    HW2 1854   2.950   4.063   1.112
  319SOL     OW 1855   1.098   0.759   6.327
  319SOL    HW1 1856   1.131   0.755   6.233
  319SOL    HW2 1857   1.003   0.727   6.331
  320SOL     OW 1858   5.194   3.284   1.071
  320SOL    HW1 1859   5.213   3.198   1.119
  320SOL    HW2 1860   5.147   3.264   0.985
  321SOL     OW 1861   2.279   1.418   2.425
  321SOL    HW1 1862   2.294   1.517   2.429
  321SOL    HW2 1863   2.329   1.374   2.499
  322SOL     OW 1864   3.326   2.763   5.291
  322SOL    HW1 1865   3.227   2.763   5.303
  322SOL    HW2 1866   3.362   2.671   5.311
  323SOL     OW 1867   1.531   4.481   1.729
  323SOL    HW1 1868   1.604   4.451   1.667
  323SOL    HW2 1869   1.561   4.561   1.780
  324SOL     OW 1870   6.871   2.904   3.992
  324SOL    HW1 1871   6.884   2.832   4.060
  324SOL    HW2 1872   6.806   2.873   3.923
  325SOL     OW 1873   2.069   2.165   2.746
  325SOL    HW1 1874   1.998   2.096   2.733
  325SOL    HW2 1875   2.129   2.138   2.822
  326SOL     OW 1876   1.956   4.043   4.514
  326SOL    HW1 1877   2.049   4.055   4.549
  326SOL    HW2 1878   1.953   3.962   4.456
  327SOL     OW 1879   6.376   3.537   6.230
  327SOL    HW1 1880   6.438   3.518   6.153
  327SOL    HW2 1881   6.421   3.511   6.316
  328SOL     OW 1882   3.529   5.499   2.927
  328SOL    HW1 1883   3.626   5.512   2.945
  328SOL    HW2 1884   3.482   5.587   2.932
  329SOL     OW 1885   3.841   3.913   2.270
  329SOL    HW1 1886   3.833   3.996   2.214
  329SOL    HW2 1887   3.751   3.868   2.275
  330SOL     OW 1888   2.434   2.160   2.036
  330SOL    HW1 1889   2.533   2.157   2.020
  330SOL    HW2 1890   2.417   2.162   2.135
  331SOL     OW 1891   6.404   4.138   5.634
  331SOL    HW1 1892   6.475   4.208   5.638
  331SOL    HW2 1893   6.410   4.079   5.715
  332SOL     OW 1894   3.834   1.916   3.734
  332SOL    HW1 1895   3.752   1.961   3.770
  332SOL    HW2 1896   3.865   1.965   3.652
  333SOL     OW 1897   4.695   6.539   0.564
  333SOL    HW1 1898   4.641   6.529   0.648
  333SOL    HW2 1899   4.662   6.618   0.512
  334SOL     OW 1900   4.687   6.513   2.763
  334SOL    HW1 1901   4.609   6.450   2.763
  334SOL    HW2 1902   4.661   6.599   2.718
  335SOL     OW 1903   3.305   0.248   2.477
  335SOL    HW1 1904   3.384   0.308   2.471
  335SOL    HW2 1905   3.332   0.154   2.454
  336SOL     OW 1906   4.067   0.505   4.912
  336SOL    HW1 1907   4.125   0.554   4.977
  336SOL    HW2 1908   4.026   0.571   4.848
  337SOL     OW 1909   0.666   4.174   2.180
  337SOL    HW1 1910   0.640   4.173   2.277
  337SOL    HW2 1911   0.765   4.168   2.173
  338SOL     OW 1912   2.379   2.200   1.259
  338SOL    HW1 1913   2.299   2.257   1.279
  338SOL    HW2 1914   2.350   2.114   1.219
  339SOL     OW 1915   4.397   1.200   3.373
  339SOL    HW1 1916   4.435   1.285   3.334
  339SOL    HW2 1917   4.340   1.155   3.304
  340SOL     OW 1918   5.098   3.676   4.507
  340SOL    HW1 1919   5.176   3.670   4.569
  340SOL    HW2 1920   5.050   3.588   4.504
  341SOL     OW 1921   4.551   4.254   5.724
  341SOL    HW1 1922   4.473   4.303   5.683
  341SOL    HW2 1923   4.522   4.214   5.811
  342SOL     OW 1924   6.043   3.740   0.847
  342SOL    HW1 1925   6.133   3.703   0.872
  342SOL    HW2 1926   6.015   3.702   0.759
  343SOL     OW 1927   2.371   0.673   2.694
  343SOL    HW1 1928   2.445   0.638   2.751
  343SOL    HW2 1929   2.401   0.756   2.647
  344SOL     OW 1930   3.309   6.801   0.105
  344SOL    HW1 1931   3.271   6.713   0.132
  344SOL    HW2 1932   3.278   6.871   0.169
  345SOL     OW 1933   1.388   1.578   5.022
  345SOL    HW1 1934   1.390   1.657   5.083
  345SOL    HW2 1935   1.474   1.528   5.028
  346SOL     OW 1936   2.874   0.720   5.539
  346SOL    HW1 1937   2.814   0.678   5.471
  346SOL    HW2 1938   2.835   0.808   5.568
  347SOL     OW 1939   5.119   6.240   6.090
  347SOL    HW1 1940   5.135   6.283   6.002
  347SOL    HW2 1941   5.177   6.159   6.099
  348SOL     OW 1942   2.955   6.796   3.170
  348SOL    HW1 1943   3.054   6.811   3.166
  348SOL    HW2 1944   2.924   6.754   3.085
  349SOL     OW 1945   2.407   5.195   2.154
  349SOL    HW1 1946   2.360   5.183   2.242
  349SOL    HW2 1947   2.451   5.109   2.128
  350SOL     OW 1948   4.845   3.178   1.023
  350SOL    HW1 1949   4.841   3.266   1.071
  350SOL    HW2 1950   4.912   3.184   0.949
  351SOL     OW 1951   3.278   1.976   0.943
  351SOL    HW1 1952   3.192   1.924   0.942
  351SOL    HW2 1953   3.277   2.040   1.019
  352SOL     OW 1954   2.825   1.972   6.431
  352SOL    HW1 1955   2.909   1.993   6.380
  352SOL    HW2 1956   2.799   2.050   6.486
  353SOL     OW 1957   2.120   6.983   1.317
  353SOL    HW1 1958   2.044   7.003   1.379
  353SOL    HW2 1959   2.201   6.957   1.370
  354SOL     OW 1960   5.005   0.111   2.166
  354SOL    HW1 1961   4.911   0.078   2.183
  354SOL    HW2 1962   5.057   0.106   2.251
  355SOL     OW 1963   0.813   1.380   2.229
  355SOL    HW1 1964   0.838   1.476   2.219
  355SOL    HW2 1965   0.714   1.372   2.242
  356SOL     OW 1966   3.105   0.060   2.816
  356SOL    HW1 1967   3.053   0.034   2.735
  356SOL    HW2 1968   3.139   7.001   2.862
  357SOL     OW 1969   1.183   5.089   4.792
  357SOL    HW1 1970   1.198   5.054   4.885
  357SOL    HW2 1971   1.254   5.054   4.731
  358SOL     OW 1972   4.557   0.990   3.212
  358SOL    HW1 1973   4.550   1.057   3.137
  358SOL    HW2 1974   4.622   1.023   3.280
  359SOL     OW 1975   0.064   1.597   0.477
  359SOL    HW1 1976   0.062   1.535   0.398
  359SOL    HW2 1977   7.008   1.659   0.472
  360SOL     OW 1978   4.990   0.276   6.852
  360SOL    HW1 1979   4.937   0.212   6.797
  360SOL    HW2 1980   4.998   0.363   6.803
  361SOL     OW 1981   3.162   0.598   2.438
  361SOL    HW1 1982   3.153   0.518   2.379
  361SOL    HW2 1983   3.172   0.569   2.533
  362SOL     OW 1984   2.875   3.799   0.681
  362SOL    HW1 1985   2.781   3.831   0.667
  362SOL    HW2 1986   2.939   3.870   0.653
  363SOL     OW 1987   5.036   4.166   3.679
  363SOL    HW1 1988   5.006   4.215   3.761
  363SOL    HW2 1989   5.068   4.232   3.611
  364SOL     OW 1990   2.708   5.834   6.597
  364SOL    HW1 1991   2.728   5.818   6.501
  364SOL    HW2 1992   2.755   5.916   6.628
  365SOL     OW 1993   4.889   6.501   2.928
  365SOL    HW1 1994   4.911   6.598   2.942
  365SOL    HW2 1995   4.818   6.493   2.859
  366SOL     OW 1996   5.336   1.062   0.311
  366SOL    HW1 1997   5.402   1.090   0.381
  366SOL    HW2 1998   5.385   1.023   0.233
  367SOL     OW 1999   5.515   2.430   1.951
  367SOL    HW1 2000   5.472   2.346   1.919
  367SOL    HW2 2001   5.534   2.422   2.049
  368SOL     OW 2002   0.039   4.918   5.133
  368SOL    HW1 2003   6.987   4.981   5.155
  368SOL    HW2 2004   0.005   4.847   5.071
  369SOL     OW 2005   0.941   3.919   1.894
  369SOL    HW1 2006   0.861   3.917   1.954
  369SOL    HW2 2007   1.024   3.909   1.949
  370SOL     OW 2008   3.717   1.584   6.490
  370SOL    HW1 2009   3.751   1.511   6.550
  370SOL    HW2 2010   3.730   1.673   6.534
  371SOL     OW 2011   3.328   2.623   6.374
  371SOL    HW1 2012   3.376   2.627   6.286
  371SOL    HW2 2013   3.271   2.541   6.376
  372SOL     OW 2014   2.280   5.809   0.156
  372SOL    HW1 2015   2.313   5.872   0.227
  372SOL    HW2 2016   2.304   5.716   0.182
  373SOL     OW 2017   5.991   6.703   6.361
  373SOL    HW1 2018   6.033   6.638   6.298
  373SOL    HW2 2019   6.042   6.789   6.359
  374SOL     OW 2020   5.128   0.740   0.805
  374SOL    HW1 2021   5.128   0.810   0.876
  374SOL    HW2 2022   5.208   0.751   0.747
  375SOL     OW 2023   6.573   4.543   1.302
  375SOL    HW1 2024   6.643   4.614   1.314
  375SOL    HW2 2025   6.487   4.586   1.272
  376SOL     OW 2026   2.111   4.228   5.081
  376SOL    HW1 2027   2.128   4.181   5.168
  376SOL    HW2 2028   2.169   4.188   5.010
  377SOL     OW 2029   4.962   1.138   4.103
  377SOL    HW1 2030   4.965   1.056   4.160
  377SOL    HW2 2031   5.025   1.127   4.026
  378SOL     OW 2032   5.311   2.327   5.465
  378SOL    HW1 2033   5.380   2.257   5.485
  378SOL    HW2 2034   5.346   2.390   5.396
  379SOL     OW 2035   6.368   2.723   1.184
  379SOL    HW1 2036   6.450   2.667   1.169
  379SOL    HW2 2037   6.355   2.737   1.282
  380SOL     OW 2038   1.059   2.250   0.188
  380SOL    HW1 2039   1.031   2.340   0.221
  380SOL    HW2 2040   1.100   2.259   0.097
  381SOL     OW 2041   4.682   4.857   0.031
  381SOL    HW1 2042   4.646   4.913   0.106
  381SOL    HW2 2043   4.616   4.856   6.978
  382SOL     OW 2044   1.917   5.649   6.810
  382SOL    HW1 2045   1.930   5.554   6.784
  382SOL    HW2 2046   1.977   5.707   6.755
  383SOL     OW 2047   6.228   1.487   7.003
  383SOL    HW1 2048   6.318   1.464   0.018
  383SOL    HW2 2049   6.238   1.552   6.928
  384SOL     OW 2050   1.404   5.607   4.332
  384SOL    HW1 2051   1.371   5.592   4.425
  384SOL    HW2 2052   1.328   5.597   4.267
  385SOL     OW 2053   4.578   5.026   1.384
  385SOL    HW1 2054   4.494   5.052   1.336
  385SOL    HW2 2055   4.635   4.970   1.323
  386SOL     OW 2056   2.415   5.857   4.326
  386SOL    HW1 2057   2.507   5.837   4.290
  386SOL    HW2 2058   2.367   5.772   4.344
  387SOL     OW 2059   0.215   0.848   5.406
  387SOL    HW1 2060   0.268   0.847   5.491
  387SOL    HW2 2061   0.260   0.907   5.339
  388SOL     OW 2062   0.481   2.036   4.461
  388SOL    HW1 2063   0.476   1.972   4.538
  388SOL    HW2 2064   0.524   1.991   4.383
  389SOL     OW 2065   4.948   3.143   2.481
  389SOL    HW1 2066   4.892   3.060   2.485
  389SOL    HW2 2067   4.907   3.207   2.416
  390SOL     OW 2068   3.650   2.965   0.378
  390SOL    HW1 2069   3.587   2.896   0.415
  390SOL    HW2 2070   3.641   2.966   0.278
  391SOL     OW 2071   3.879   3.589   3.580
  391SOL    HW1 2072   3.820   3.511   3.604
  391SOL    HW2 2073   3.969   3.555   3.551
  392SOL     OW 2074   2.183   3.720   1.480
  392SOL    HW1 2075   2.254   3.671   1.532
  392SOL    HW2 2076   2.109   3.657   1.459
  393SOL     OW 2077   1.500   6.550   1.137
  393SOL    HW1 2078   1.429   6.484   1.115
  393SOL    HW2 2079   1.549   6.575   1.054
  394SOL     OW 2080   5.939   1.068   6.282
  394SOL    HW1 2081   5.847   1.064   6.242
  394SOL    HW2 2082   5.938   1.131   6.360
  395SOL     OW 2083   6.057   5.141   6.805
  395SOL    HW1 2084   6.056   5.126   6.706
  395SOL    HW2 2085   5.987   5.207   6.830
  396SOL     OW 2086   0.768   0.746   1.257
  396SOL    HW1 2087   0.861   0.778   1.241
  396SOL    HW2 2088   0.756   0.655   1.217
  397SOL     OW 2089   4.572   1.954   4.827
  397SOL    HW1 2090   4.612   1.916   4.744
  397SOL    HW2 2091   4.604   1.902   4.906
  398SOL     OW 2092   0.069   1.582   2.778
  398SOL    HW1 2093   6.998   1.571   2.813
  398SOL    HW2 2094   0.066   1.634   2.693
  399SOL     OW 2095   5.921   5.606   4.147
  399SOL    HW1 2096   6.016   5.603   4.115
  399SOL    HW2 2097   5.912   5.552   4.231
  400SOL     OW 2098   6.971   6.499   3.259
  400SOL    HW1 2099   6.959   6.425   3.193
  400SOL    HW2 2100   6.884   6.544   3.274
  401SOL     OW 2101   1.212   6.016   4.887
  401SOL    HW1 2102   1.295   6.023   4.941
  401SOL    HW2 2103   1.142   5.967   4.939
  402SOL     OW 2104   5.951   1.113   4.568
  402SOL    HW1 2105   5.892   1.138   4.490
  402SOL    HW2 2106   5.970   1.015   4.565
  403SOL     OW 2107   2.409   1.685   5.281
  403SOL    HW1 2108   2.313   1.712   5.283
  403SOL    HW2 2109   2.460   1.750   5.223
  404SOL     OW 2110   2.875   5.910   3.524
  404SOL    HW1 2111   2.971   5.919   3.547
  404SOL    HW2 2112   2.820   5.958   3.593
  405SOL     OW 2113   2.306   4.964   3.885
  405SOL    HW1 2114   2.362   4.975   3.968
  405SOL    HW2 2115   2.213   4.936   3.911
  406SOL     OW 2116   0.906   0.116   6.910
  406SOL    HW1 2117   0.916   0.203   6.862
  406SOL    HW2 2118   0.958   0.118   6.995
  407SOL     OW 2119   1.896   3.682   4.091
  407SOL    HW1 2120   1.987   3.670   4.130
  407SOL    HW2 2121   1.887   3.626   4.008
  408SOL     OW 2122   2.717   2.154   2.013
  408SOL    HW1 2123   2.788   2.223   2.029
  408SOL    HW2 2124   2.752   2.084   1.950
  409SOL     OW 2125   0.569   2.544   2.047
  409SOL    HW1 2126   0.511   2.474   2.006
  409SOL    HW2 2127   0.608   2.509   2.132
  410SOL     OW 2128   1.688   3.413   1.625
  410SOL    HW1 2129   1.727   3.504   1.608
  410SOL    HW2 2130   1.761   3.349   1.649
  411SOL     OW 2131   6.769   1.587   1.225
  411SOL    HW1 2132   6.708   1.524   1.274
  411SOL    HW2 2133   6.742   1.591   1.129
  412SOL     OW 2134   2.387   4.408   3.090
  412SOL    HW1 2135   2.396   4.492   3.037
  412SOL    HW2 2136   2.425   4.422   3.181
  413SOL     OW 2137   6.421   5.431   2.924
  413SOL    HW1 2138   6.396   5.476   3.009
  413SOL    HW2 2139   6.339   5.408   2.872
  414SOL     OW 2140   2.572   6.842   2.567
  414SOL    HW1 2141   2.624   6.927   2.572
  414SOL    HW2 2142   2.491   6.849   2.626
  415SOL     OW 2143   5.916   2.925   1.013
  415SOL    HW1 2144   5.996   2.933   0.954
  415SOL    HW2 2145   5.945   2.912   1.108
  416SOL     OW 2146   6.238   3.160   7.004
  416SOL    HW1 2147   6.179   3.201   0.052
  416SOL    HW2 2148   6.182   3.133   6.926
  417SOL     OW 2149   2.206   2.503   5.334
  417SOL    HW1 2150   2.266   2.454   5.398
  417SOL    HW2 2151   2.226   2.473   5.241
  418SOL     OW 2152   3.740   6.101   6.645
  418SOL    HW1 2153   3.768   6.133   6.736
  418SOL    HW2 2154   3.764   6.004   6.635
  419SOL     OW 2155   5.935   0.183   0.438
  419SOL    HW1 2156   5.946   0.236   0.523
  419SOL    HW2 2157   5.991   0.224   0.366
  420SOL     OW 2158   3.089   6.597   1.142
  420SOL    HW1 2159   3.137   6.652   1.073
  420SOL    HW2 2160   3.097   6.641   1.231
  421SOL     OW 2161   5.211   4.936   2.995
  421SOL    HW1 2162   5.121   4.958   2.960
  421SOL    HW2 2163   5.281   4.974   2.935
  422SOL     OW 2164   4.075   1.471   2.189
  422SOL    HW1 2165   4.162   1.470   2.238
  422SOL    HW2 2166   4.009   1.528   2.239
  423SOL     OW 2167   2.205   0.911   5.687
  423SOL    HW1 2168   2.200   0.941   5.783
  423SOL    HW2 2169   2.116   0.876   5.659
  424SOL     OW 2170   1.401   4.444   4.445
  424SOL    HW1 2171   1.430   4.521   4.388
  424SOL    HW2 2172   1.442   4.453   4.536
  425SOL     OW 2173   2.917   1.303   6.767
  425SOL    HW1 2174   2.954   1.317   6.675
  425SOL    HW2 2175   2.849   1.374   6.786
  426SOL     OW 2176   2.427   2.453   3.164
  426SOL    HW1 2177   2.415   2.530   3.101
  426SOL    HW2 2178   2.466   2.376   3.114
  427SOL     OW 2179   4.400   1.169   4.449
  427SOL    HW1 2180   4.409   1.142   4.545
  427SOL    HW2 2181   4.369   1.264   4.443
  428SOL     OW 2182   2.191   2.121   6.220
  428SOL    HW1 2183   2.147   2.142   6.307
  428SOL    HW2 2184   2.125   2.079   6.158
  429SOL     OW 2185   6.707   6.975   3.423
  429SOL    HW1 2186   6.764   6.916   3.480
  429SOL    HW2 2187   6.730   6.962   3.327
  430SOL     OW 2188   1.869   1.376   3.472
  430SOL    HW1 2189   1.848   1.462   3.519
  430SOL    HW2 2190   1.959   1.382   3.430
  431SOL     OW 2191   2.271   1.154   1.420
  431SOL    HW1 2192   2.349   1.125   1.365
  431SOL    HW2 2193   2.276   1.110   1.510
  432SOL     OW 2194   5.514   1.814   1.928
  432SOL    HW1 2195   5.528   1.806   2.026
  432SOL    HW2 2196   5.557   1.898   1.894
  433SOL     OW 2197   2.006   4.169   6.989
  433SOL    HW1 2198   1.979   4.179   0.062
  433SOL    HW2 2199   2.088   4.112   6.982
  434SOL     OW 2200   3.836   5.591   2.794
  434SOL    HW1 2201   3.817   5.593   2.892
  434SOL    HW2 2202   3.797   5.508   2.753
  435SOL     OW 2203   2.638   2.746   6.715
  435SOL    HW1 2204   2.551   2.759   6.667
  435SOL    HW2 2205   2.696   2.685   6.662
  436SOL     OW 2206   5.230   6.462   2.495
  436SOL    HW1 2207   5.186   6.453   2.585
  436SOL    HW2 2208   5.163   6.498   2.430
  437SOL     OW 2209   6.901   1.080   5.704
  437SOL    HW1 2210   6.930   1.056   5.611
  437SOL    HW2 2211   6.966   1.145   5.743
  438SOL     OW 2212   0.958   3.631   1.653
  438SOL    HW1 2213   0.973   3.729   1.669
  438SOL    HW2 2214   1.036   3.594   1.603
  439SOL     OW 2215   0.699   1.244   6.605
  439SOL    HW1 2216   0.636   1.311   6.566
  439SOL    HW2 2217   0.793   1.268   6.579
  440SOL     OW 2218   3.774   1.500   1.431
  440SOL    HW1 2219   3.779   1.517   1.530
  440SOL    HW2 2220   3.860   1.529   1.388
  441SOL     OW 2221   1.255   4.476   2.685
  441SOL    HW1 2222   1.251   4.548   2.616
  441SOL    HW2 2223   1.269   4.518   2.775
  442SOL     OW 2224   3.022   3.245   5.004
  442SOL    HW1 2225   3.080   3.201   4.936
  442SOL    HW2 2226   2.981   3.176   5.063
  443SOL     OW 2227   4.777   2.419   2.123
  443SOL    HW1 2228   4.822   2.336   2.088
  443SOL    HW2 2229   4.713   2.453   2.054
  444SOL     OW 2230   4.101   2.434   0.999
  444SOL    HW1 2231   4.036   2.471   0.933
  444SOL    HW2 2232   4.058   2.430   1.089
  445SOL     OW 2233   2.107   5.921   3.861
  445SOL    HW1 2234   2.014   5.957   3.866
  445SOL    HW2 2235   2.172   5.996   3.846
  446SOL     OW 2236   0.114   6.430   0.650
  446SOL    HW1 2237   0.169   6.401   0.572
  446SOL    HW2 2238   0.147   6.519   0.683
  447SOL     OW 2239   6.505   3.196   0.211
  447SOL    HW1 2240   6.552   3.262   0.152
  447SOL    HW2 2241   6.407   3.197   0.191
  448SOL     OW 2242   3.571   6.830   4.195
  448SOL    HW1 2243   3.662   6.790   4.188
  448SOL    HW2 2244   3.549   6.879   4.110
  449SOL     OW 2245   0.721   3.873   4.935
  449SOL    HW1 2246   0.699   3.776   4.924
  449SOL    HW2 2247   0.801   3.895   4.879
  450SOL     OW 2248   6.445   3.824   3.879
  450SOL    HW1 2249   6.505   3.792   3.952
  450SOL    HW2 2250   6.495   3.884   3.817
  451SOL     OW 2251   2.574   1.676   6.357
  451SOL    HW1 2252   2.554   1.710   6.449
  451SOL    HW2 2253   2.578   1.753   6.293
  452SOL     OW 2254   4.796   5.113   1.513
  452SOL    HW1 2255   4.868   5.064   1.463
  452SOL    HW2 2256   4.706   5.081   1.483
  453SOL     OW 2257   4.010   0.850   0.199
  453SOL    HW1 2258   4.069   0.927   0.179
  453SOL    HW2 2259   3.914   0.879   0.194
  454SOL     OW 2260   6.763   2.906   3.602
  454SOL    HW1 2261   6.798   2.816   3.627
  454SOL    HW2 2262   6.827   2.976   3.635
  455SOL     OW 2263   6.171   5.257   0.273
  455SOL    HW1 2264   6.201   5.283   0.181
  455SOL    HW2 2265   6.157   5.339   0.328
  456SOL     OW 2266   1.513   1.089   3.270
  456SOL    HW1 2267   1.513   0.994   3.301
  456SOL    HW2 2268   1.454   1.098   3.189
  457SOL     OW 2269   2.894   5.820   0.960
  457SOL    HW1 2270   2.881   5.725   0.932
  457SOL    HW2 2271   2.948   5.868   0.890
  458SOL     OW 2272   3.054   1.050   4.267
  458SOL    HW1 2273   3.094   1.061   4.359
  458SOL    HW2 2274   3.121   1.081   4.199
  459SOL     OW 2275   3.059   1.253   3.727
  459SOL    HW1 2276   3.145   1.202   3.720
  459SOL    HW2 2277   2.990   1.209   3.669
  460SOL     OW 2278   1.122   1.525   6.809
  460SOL    HW1 2279   1.076   1.444   6.846
  460SOL    HW2 2280   1.058   1.602   6.811
  461SOL     OW 2281   1.344   6.858   4.695
  461SOL    HW1 2282   1.290   6.886   4.775
  461SOL    HW2 2283   1.427   6.913   4.690
  462SOL     OW 2284   3.619   4.146   5.412
  462SOL    HW1 2285   3.698   4.100   5.371
  462SOL    HW2 2286   3.561   4.183   5.339
  463SOL     OW 2287   5.541   6.490   3.335
  463SOL    HW1 2288   5.496   6.423   3.395
  463SOL    HW2 2289   5.474   6.530   3.273
  464SOL     OW 2290   4.330   5.963   4.773
  464SOL    HW1 2291   4.353   5.867   4.786
  464SOL    HW2 2292   4.262   5.991   4.841
  465SOL     OW 2293   0.734   5.417   0.925
  465SOL    HW1 2294   0.746   5.515   0.940
  465SOL    HW2 2295   0.792   5.388   0.849
  466SOL     OW 2296   3.341   4.961   3.763
  466SOL    HW1 2297   3.381   4.930   3.849
  466SOL    HW2 2298   3.246   4.988   3.778
  467SOL     OW 2299   6.924   6.723   1.501
  467SOL    HW1 2300   6.883   6.688   1.585
  467SOL    HW2 2301   6.995   6.659   1.470
  468SOL     OW 2302   2.514   6.799   6.999
  468SOL    HW1 2303   2.601   6.791   0.026
  468SOL    HW2 2304   2.522   6.755   6.910
  469SOL     OW 2305   3.820   4.732   5.720
  469SOL    HW1 2306   3.796   4.689   5.633
  469SOL    HW2 2307   3.741   4.783   5.755
  470SOL     OW 2308   2.835   5.202   1.890
  470SOL    HW1 2309   2.879   5.141   1.825
  470SOL    HW2 2310   2.904   5.258   1.936
  471SOL     OW 2311   1.520   2.031   4.458
  471SOL    HW1 2312   1.492   2.009   4.365
  471SOL    HW2 2313   1.562   1.950   4.500
  472SOL     OW 2314   5.267   4.154   6.503
  472SOL    HW1 2315   5.204   4.181   6.430
  472SOL    HW2 2316   5.288   4.057   6.495
  473SOL     OW 2317   5.640   3.477   1.795
  473SOL    HW1 2318   5.551   3.490   1.751
  473SOL    HW2 2319   5.682   3.394   1.759
  474SOL     OW 2320   5.108   4.624   3.796
  474SOL    HW1 2321   5.166   4.687   3.847
  474SOL    HW2 2322   5.156   4.595   3.713
  475SOL     OW 2323   4.656   1.387   0.463
  475SOL    HW1 2324   4.746   1.430   0.469
  475SOL    HW2 2325   4.652   1.308   0.524
  476SOL     OW 2326   1.109   2.658   7.015
  476SOL    HW1 2327   1.198   2.699   0.012
  476SOL    HW2 2328   1.064   2.708   6.942
  477SOL     OW 2329   5.866   5.677   3.818
  477SOL    HW1 2330   5.833   5.607   3.882
  477SOL    HW2 2331   5.962   5.698   3.838
  478SOL     OW 2332   6.549   5.035   1.757
  478SOL    HW1 2333   6.500   4.972   1.696
  478SOL    HW2 2334   6.507   5.126   1.751
  479SOL     OW 2335   3.456   3.843   2.910
  479SOL    HW1 2336   3.442   3.938   2.882
  479SOL    HW2 2337   3.422   3.830   3.003
  480SOL     OW 2338   0.204   0.148   1.856
  480SOL    HW1 2339   0.246   0.216   1.916
  480SOL    HW2 2340   0.202   0.059   1.902
  481SOL     OW 2341   6.172   6.213   1.044
  481SOL    HW1 2342   6.130   6.122   1.042
  481SOL    HW2 2343   6.123   6.270   1.111
  482SOL     OW 2344   3.759   4.955   2.676
  482SOL    HW1 2345   3.776   4.888   2.604
  482SOL    HW2 2346   3.691   5.021   2.644
  483SOL     OW 2347   6.077   1.974   4.570
  483SOL    HW1 2348   5.978   1.965   4.559
  483SOL    HW2 2349   6.124   1.909   4.511
  484SOL     OW 2350   2.512   5.202   3.615
  484SOL    HW1 2351   2.550   5.152   3.693
  484SOL    HW2 2352   2.413   5.186   3.611
  485SOL     OW 2353   4.706   2.399   0.885
  485SOL    HW1 2354   4.672   2.424   0.794
  485SOL    HW2 2355   4.782   2.335   0.874
  486SOL     OW 2356   6.005   6.198   5.407
  486SOL    HW1 2357   6.074   6.232   5.471
  486SOL    HW2 2358   6.004   6.098   5.409
  487SOL     OW 2359   6.383   0.909   6.898
  487SOL    HW1 2360   6.382   0.974   6.821
  487SOL    HW2 2361   6.362   0.817   6.864
  488SOL     OW 2362   2.030   6.337   3.859
  488SOL    HW1 2363   1.931   6.352   3.865
  488SOL    HW2 2364   2.059   6.345   3.764
  489SOL     OW 2365   2.728   4.508   5.383
  489SOL    HW1 2366   2.673   4.426   5.400
  489SOL    HW2 2367   2.794   4.489   5.310
  490SOL     OW 2368   1.303   3.671   5.120
  490SOL    HW1 2369   1.383   3.667   5.179
  490SOL    HW2 2370   1.281   3.579   5.087
  491SOL     OW 2371   6.241   3.235   1.417
  491SOL    HW1 2372   6.301   3.162   1.385
  491SOL    HW2 2373   6.232   3.229   1.517
  492SOL     OW 2374   1.747   2.548   5.526
  492SOL    HW1 2375   1.696   2.528   5.610
  492SOL    HW2 2376   1.682   2.564   5.452
  493SOL     OW 2377   1.401   5.693   3.644
  493SOL    HW1 2378   1.490   5.735   3.628
  493SOL    HW2 2379   1.334   5.764   3.667
  494SOL     OW 2380   2.736   0.393   2.712
  494SOL    HW1 2381   2.830   0.382   2.681
  494SOL    HW2 2382   2.720   0.334   2.791
  495SOL     OW 2383   3.969   4.399   0.131
  495SOL    HW1 2384   3.987   4.459   0.209
  495SOL    HW2 2385   3.892   4.434   0.078
  496SOL     OW 2386   4.704   0.056   3.116
  496SOL    HW1 2387   4.631   0.106   3.164
  496SOL    HW2 2388   4.739   0.113   3.042
  497SOL     OW 2389   4.971   2.889   1.141
  497SOL    HW1 2390   5.037   2.926   1.077
  497SOL    HW2 2391   4.880   2.891   1.101
  498SOL     OW 2392   0.997   0.026   0.947
  498SOL    HW1 2393   1.029   6.957   0.924
  498SOL    HW2 2394   1.075   0.086   0.965
  499SOL     OW 2395   3.058   6.676   6.504
  499SOL    HW1 2396   3.141   6.731   6.507
  499SOL    HW2 2397   3.034   6.647   6.597
  500SOL     OW 2398   6.070   1.730   6.144
  500SOL    HW1 2399   5.982   1.683   6.136
  500SOL    HW2 2400   6.057   1.820   6.185
  501SOL     OW 2401   1.997   2.248   4.651
  501SOL    HW1 2402   2.096   2.257   4.641
  501SOL    HW2 2403   1.952   2.272   4.565
  502SOL     OW 2404   2.896   2.864   0.048
  502SOL    HW1 2405   2.867   2.791   7.009
  502SOL    HW2 2406   2.966   2.831   0.111
  503SOL     OW 2407   4.218   5.374   0.995
  503SOL    HW1 2408   4.275   5.438   1.045
  503SOL    HW2 2409   4.254   5.281   1.006
  504SOL     OW 2410   6.221   0.845   0.105
  504SOL    HW1 2411   6.224   0.892   0.017
  504SOL    HW2 2412   6.265   0.755   0.096
  505SOL     OW 2413   0.380   3.676   5.283
  505SOL    HW1 2414   0.330   3.762   5.267
  505SOL    HW2 2415   0.315   3.601   5.291
  506SOL     OW 2416   2.709   5.956   1.985
  506SOL    HW1 2417   2.705   5.938   2.083
  506SOL    HW2 2418   2.740   5.874   1.937
  507SOL     OW 2419   2.666   6.850   3.923
  507SOL    HW1 2420   2.659   6.937   3.873
  507SOL    HW2 2421   2.746   6.799   3.891
  508SOL     OW 2422   0.480   5.191   2.733
  508SOL    HW1 2423   0.502   5.283   2.763
  508SOL    HW2 2424   0.394   5.192   2.683
  509SOL     OW 2425   4.882   0.451   6.049
  509SOL    HW1 2426   4.819   0.407   5.985
  509SOL    HW2 2427   4.834   0.520   6.102
  510SOL     OW 2428   6.386   4.430   0.414
  510SOL    HW1 2429   6.415   4.341   0.380
  510SOL    HW2 2430   6.353   4.486   0.338
  511SOL     OW 2431   0.190   2.144   0.594
  511SOL    HW1 2432   0.163   2.050   0.614
  511SOL    HW2 2433   0.208   2.193   0.679
  512SOL     OW 2434   1.499   2.122   4.899
  512SOL    HW1 2435   1.584   2.076   4.874
  512SOL    HW2 2436   1.425   2.090   4.841
  513SOL     OW 2437   5.802   5.777   2.838
  513SOL    HW1 2438   5.776   5.688   2.875
  513SOL    HW2 2439   5.821   5.841   2.913
  514SOL     OW 2440   4.962   1.325   4.490
  514SOL    HW1 2441   4.903   1.402   4.516
  514SOL    HW2 2442   4.939   1.246   4.547
  515SOL     OW 2443   3.242   0.701   6.655
  515SOL    HW1 2444   3.155   0.682   6.610
  515SOL    HW2 2445   3.227   0.716   6.753
  516SOL     OW 2446   0.535   5.443   2.785
  516SOL    HW1 2447   0.614   5.503   2.774
  516SOL    HW2 2448   0.480   5.472   2.863
  517SOL     OW 2449   3.705   5.433   0.733
  517SOL    HW1 2450   3.773   5.506   0.730
  517SOL    HW2 2451   3.736   5.360   0.794
  518SOL     OW 2452   1.902   0.335   3.968
  518SOL    HW1 2453   1.939   0.251   4.009
  518SOL    HW2 2454   1.969   0.408   3.977
  519SOL     OW 2455   6.651   6.961   2.940
  519SOL    HW1 2456   6.673   0.023   2.988
  519SOL    HW2 2457   6.720   6.943   2.870
  520SOL     OW 2458   3.723   5.797   0.606
  520SOL    HW1 2459   3.736   5.791   0.705
  520SOL    HW2 2460   3.655   5.730   0.577
  521SOL     OW 2461   0.181   0.033   5.165
  521SOL    HW1 2462   0.137   7.021   5.082
  521SOL    HW2 2463   0.268   0.076   5.141
  522SOL     OW 2464   3.335   5.257   6.581
  522SOL    HW1 2465   3.433   5.244   6.595
  522SOL    HW2 2466   3.302   5.333   6.638
  523SOL     OW 2467   1.563   6.796   6.067
  523SOL    HW1 2468   1.660   6.793   6.045
  523SOL    HW2 2469   1.517   6.715   6.030
  524SOL     OW 2470   6.497   1.346   1.161
  524SOL    HW1 2471   6.442   1.270   1.195
  524SOL    HW2 2472   6.538   1.394   1.238
  525SOL     OW 2473   0.784   3.016   3.601
  525SOL    HW1 2474   0.811   3.105   3.562
  525SOL    HW2 2475   0.845   2.945   3.566
  526SOL     OW 2476   3.858   6.091   4.350
  526SOL    HW1 2477   3.800   6.172   4.350
  526SOL    HW2 2478   3.945   6.112   4.306
  527SOL     OW 2479   6.653   1.296   0.860
  527SOL    HW1 2480   6.717   1.247   0.802
  527SOL    HW2 2481   6.601   1.230   0.915
  528SOL     OW 2482   0.179   1.542   3.978
  528SOL    HW1 2483   0.242   1.591   4.039
  528SOL    HW2 2484   0.203   1.562   3.883
  529SOL     OW 2485   1.024   1.358   6.234
  529SOL    HW1 2486   1.050   1.454   6.227
  529SOL    HW2 2487   0.950   1.339   6.168
  530SOL     OW 2488   3.531   4.406   1.705
  530SOL    HW1 2489   3.536   4.484   1.767
  530SOL    HW2 2490   3.555   4.436   1.612
  531SOL     OW 2491   6.984   1.795   5.925
  531SOL    HW1 2492   0.004   1.835   6.006
  531SOL    HW2 2493   6.946   1.869   5.868
  532SOL     OW 2494   3.573   0.889   6.721
  532SOL    HW1 2495   3.537   0.831   6.648
  532SOL    HW2 2496   3.672   0.894   6.713
  533SOL     OW 2497   3.690   0.280   4.856
  533SOL    HW1 2498   3.738   0.337   4.923
  533SOL    HW2 2499   3.651   0.339   4.785
  534SOL     OW 2500   2.224   4.164   1.129
  534SOL    HW1 2501   2.258   4.245   1.080
  534SOL    HW2 2502   2.300   4.119   1.175
  535SOL     OW 2503   4.509   4.530   3.311
  535SOL    HW1 2504   4.459   4.597   3.366
  535SOL    HW2 2505   4.558   4.468   3.371
  536SOL     OW 2506   6.654   6.699   1.424
  536SOL    HW1 2507   6.630   6.650   1.340
  536SOL    HW2 2508   6.753   6.690   1.439
  537SOL     OW 2509   3.329   1.789   2.770
  537SOL    HW1 2510   3.241   1.790   2.723
  537SOL    HW2 2511   3.317   1.825   2.863
  538SOL     OW 2512   3.962   5.338   5.873
  538SOL    HW1 2513   4.010   5.329   5.961
  538SOL    HW2 2514   4.028   5.332   5.798
  539SOL     OW 2515   2.195   0.187   0.145
  539SOL    HW1 2516   2.152   0.117   0.203
  539SOL    HW2 2517   2.153   0.185   0.054
  540SOL     OW 2518   2.558   1.435   5.560
  540SOL    HW1 2519   2.474   1.491   5.563
  540SOL    HW2 2520   2.611   1.459   5.479
  541SOL     OW 2521   5.273   5.814   2.280
  541SOL    HW1 2522   5.202   5.860   2.334
  541SOL    HW2 2523   5.345   5.879   2.257
  542SOL     OW 2524   3.820   5.716   6.012
  542SOL    HW1 2525   3.829   5.814   5.994
  542SOL    HW2 2526   3.906   5.670   5.987
  543SOL     OW 2527   6.482   1.876   5.068
  543SOL    HW1 2528   6.432   1.931   5.135
  543SOL    HW2 2529   6.514   1.792   5.111
  544SOL     OW 2530   1.035   2.569   1.363
  544SOL    HW1 2531   0.979   2.495   1.401
  544SOL    HW2 2532   1.019   2.575   1.265
  545SOL     OW 2533   7.015   5.452   0.607
  545SOL    HW1 2534   6.958   5.371   0.617
  545SOL    HW2 2535   6.976   5.510   0.535
  546SOL     OW 2536   6.570   6.201   2.715
  546SOL    HW1 2537   6.545   6.173   2.807
  546SOL    HW2 2538   6.489   6.238   2.668
  547SOL     OW 2539   3.794   6.161   6.948
  547SOL    HW1 2540   3.722   6.093   6.933
  547SOL    HW2 2541   3.882   6.122   6.919
  548SOL     OW 2542   4.050   2.824   6.515
  548SOL    HW1 2543   4.078   2.919   6.529
  548SOL    HW2 2544   4.058   2.774   6.600
  549SOL     OW 2545   5.475   2.490   3.650
  549SOL    HW1 2546   5.565   2.449   3.635
  549SOL    HW2 2547   5.457   2.495   3.748
  550SOL     OW 2548   0.318   5.572   3.916
  550SOL    HW1 2549   0.282   5.630   3.989
  550SOL    HW2 2550   0.418   5.578   3.914
  551SOL     OW 2551   5.344   0.694   0.505
  551SOL    HW1 2552   5.421   0.749   0.472
  551SOL    HW2 2553   5.373   0.599   0.513
  552SOL     OW 2554   0.542   0.597   4.520
  552SOL    HW1 2555   0.520   0.654   4.599
  552SOL    HW2 2556   0.638   0.569   4.525
  553SOL     OW 2557   3.625   2.314   5.376
  553SOL    HW1 2558   3.674   2.325   5.462
  553SOL    HW2 2559   3.581   2.224   5.373
  554SOL     OW 2560   0.213   5.054   0.513
  554SOL    HW1 2561   0.187   4.968   0.469
  554SOL    HW2 2562   0.186   5.052   0.609
  555SOL     OW 2563   3.636   4.485   5.914
  555SOL    HW1 2564   3.572   4.537   5.858
  555SOL    HW2 2565   3.599   4.476   6.007
  556SOL     OW 2566   5.509   6.209   3.067
  556SOL    HW1 2567   5.512   6.198   3.167
  556SOL    HW2 2568   5.578   6.275   3.039
  557SOL     OW 2569   6.658   3.414   0.058
  557SOL    HW1 2570   6.679   3.465   6.996
  557SOL    HW2 2571   6.571   3.447   0.095
  558SOL     OW 2572   3.259   3.423   1.921
  558SOL    HW1 2573   3.324   3.487   1.881
  558SOL    HW2 2574   3.279   3.410   2.018
  559SOL     OW 2575   6.225   0.786   6.308
  559SOL    HW1 2576   6.215   0.865   6.247
  559SOL    HW2 2577   6.197   0.811   6.400
  560SOL     OW 2578   1.682   2.292   3.255
  560SOL    HW1 2579   1.616   2.220   3.233
  560SOL    HW2 2580   1.774   2.253   3.258
  561SOL     OW 2581   0.125   4.243   0.376
  561SOL    HW1 2582   0.084   4.317   0.429
  561SOL    HW2 2583   0.052   4.187   0.335
  562SOL     OW 2584   3.471   6.037   3.406
  562SOL    HW1 2585   3.476   5.943   3.374
  562SOL    HW2 2586   3.546   6.055   3.468
  563SOL     OW 2587   0.608   1.023   4.254
  563SOL    HW1 2588   0.542   1.069   4.195
  563SOL    HW2 2589   0.592   0.924   4.253
  564SOL     OW 2590   5.907   1.684   5.601
  564SOL    HW1 2591   6.003   1.709   5.607
  564SOL    HW2 2592   5.899   1.586   5.582
  565SOL     OW 2593   3.478   3.400   3.619
  565SOL    HW1 2594   3.493   3.398   3.718
  565SOL    HW2 2595   3.409   3.469   3.597
  566SOL     OW 2596   1.306   2.680   3.443
  566SOL    HW1 2597   1.310   2.586   3.477
  566SOL    HW2 2598   1.278   2.741   3.517
  567SOL     OW 2599   1.456   3.168   5.301
  567SOL    HW1 2600   1.547   3.140   5.330
  567SOL    HW2 2601   1.437   3.261   5.333
  568SOL     OW 2602   1.224   0.647   6.552
  568SOL    HW1 2603   1.198   0.647   6.455
  568SOL    HW2 2604   1.141   0.641   6.608
  569SOL     OW 2605   5.252   3.363   5.355
  569SOL    HW1 2606   5.282   3.454   5.326
  569SOL    HW2 2607   5.223   3.366   5.451
  570SOL     OW 2608   3.485   0.575   5.951
  570SOL    HW1 2609   3.413   0.506   5.943
  570SOL    HW2 2610   3.512   0.585   6.047
  571SOL     OW 2611   2.272   4.537   1.926
  571SOL    HW1 2612   2.315   4.616   1.883
  571SOL    HW2 2613   2.323   4.511   2.008
  572SOL     OW 2614   2.801   1.734   4.884
  572SOL    HW1 2615   2.767   1.642   4.906
  572SOL    HW2 2616   2.893   1.745   4.922
  573SOL     OW 2617   0.676   6.924   5.698
  573SOL    HW1 2618   0.578   6.934   5.713
  573SOL    HW2 2619   0.723   7.005   5.733
  574SOL     OW 2620   2.482   0.789   5.671
  574SOL    HW1 2621   2.507   0.721   5.739
  574SOL    HW2 2622   2.383   0.805   5.674
  575SOL     OW 2623   4.040   3.489   0.392
  575SOL    HW1 2624   3.955   3.503   0.341
  575SOL    HW2 2625   4.021   3.499   0.490
  576SOL     OW 2626   0.033   0.623   3.432
  576SOL    HW1 2627   6.968   0.577   3.420
  576SOL    HW2 2628   0.033   0.708   3.379
  577SOL     OW 2629   0.099   7.000   2.131
  577SOL    HW1 2630   0.160   6.934   2.086
  577SOL    HW2 2631   0.146   0.019   2.208
  578SOL     OW 2632   4.106   6.559   0.687
  578SOL    HW1 2633   4.012   6.590   0.701
  578SOL    HW2 2634   4.127   6.559   0.589
  579SOL     OW 2635   0.606   3.666   1.871
  579SOL    HW1 2636   0.691   3.638   1.916
  579SOL    HW2 2637   0.616   3.761   1.839
  580SOL     OW 2638   4.648   4.784   4.931
  580SOL    HW1 2639   4.707   4.862   4.911
  580SOL    HW2 2640   4.583   4.809   5.002
  581SOL     OW 2641   2.373   2.402   3.655
  581SOL    HW1 2642   2.383   2.310   3.693
  581SOL    HW2 2643   2.283   2.438   3.681
  582SOL     OW 2644   5.430   4.151   4.988
  582SOL    HW1 2645   5.520   4.186   4.961
  582SOL    HW2 2646   5.362   4.177   4.920
  583SOL     OW 2647   3.304   5.746   5.539
  583SOL    HW1 2648   3.317   5.653   5.573
  583SOL    HW2 2649   3.321   5.811   5.613
  584SOL     OW 2650   3.795   0.724   5.197
  584SOL    HW1 2651   3.843   0.812   5.201
  584SOL    HW2 2652   3.833   0.662   5.267
  585SOL     OW 2653   3.676   6.502   1.818
  585SOL    HW1 2654   3.620   6.452   1.752
  585SOL    HW2 2655   3.764   6.457   1.827
  586SOL     OW 2656   3.871   0.306   0.907
  586SOL    HW1 2657   3.859   0.231   0.972
  586SOL    HW2 2658   3.804   0.296   0.833
  587SOL     OW 2659   4.676   0.502   2.857
  587SOL    HW1 2660   4.745   0.552   2.805
  587SOL    HW2 2661   4.649   0.556   2.937
  588SOL     OW 2662   2.181   4.147   2.433
  588SOL    HW1 2663   2.199   4.082   2.359
  588SOL    HW2 2664   2.099   4.201   2.411
  589SOL     OW 2665   3.196   4.387   6.240
  589SOL    HW1 2666   3.106   4.430   6.228
  589SOL    HW2 2667   3.186   4.288   6.235
  590SOL     OW 2668   2.515   1.804   6.009
  590SOL    HW1 2669   2.590   1.812   6.075
  590SOL    HW2 2670   2.434   1.767   6.055
  591SOL     OW 2671   2.920   0.166   4.180
  591SOL    HW1 2672   2.974   0.224   4.241
  591SOL    HW2 2673   2.913   0.074   4.219
  592SOL     OW 2674   4.490   2.069   4.241
  592SOL    HW1 2675   4.467   2.093   4.147
  592SOL    HW2 2676   4.587   2.087   4.257
  593SOL     OW 2677   1.663   0.278   0.202
  593SOL    HW1 2678   1.621   0.368   0.192
  593SOL    HW2 2679   1.607   0.222   0.263
  594SOL     OW 2680   3.415   1.262   5.431
  594SOL    HW1 2681   3.377   1.224   5.515
  594SOL    HW2 2682   3.414   1.193   5.358
  595SOL     OW 2683   6.429   3.860   2.239
  595SOL    HW1 2684   6.485   3.854   2.322
  595SOL    HW2 2685   6.489   3.858   2.158
  596SOL     OW 2686   6.311   4.673   4.500
  596SOL    HW1 2687   6.393   4.724   4.475
  596SOL    HW2 2688   6.239   4.692   4.434
  597SOL     OW 2689   3.900   1.459   6.646
  597SOL    HW1 2690   3.919   1.557   6.632
  597SOL    HW2 2691   3.971   1.420   6.705
  598SOL     OW 2692   3.159   2.982   2.576
  598SOL    HW1 2693   3.172   2.956   2.671
  598SOL    HW2 2694   3.241   2.960   2.524
  599SOL     OW 2695   2.018   4.923   0.985
  599SOL    HW1 2696   2.041   4.946   0.890
  599SOL    HW2 2697   2.102   4.907   1.037
  600SOL     OW 2698   0.446   3.256   6.115
  600SOL    HW1 2699   0.422   3.169   6.159
  600SOL    HW2 2700   0.512   3.240   6.042
  601SOL     OW 2701   0.064   0.181   5.602
  601SOL    HW1 2702   0.127   0.247   5.560
  601SOL    HW2 2703   0.086   0.170   5.699
  602SOL     OW 2704   0.419   0.650   3.257
  602SOL    HW1 2705   0.449   0.633   3.350
  602SOL    HW2 2706   0.490   0.700   3.207
  603SOL     OW 2707   1.307   1.700   3.725
  603SOL    HW1 2708   1.280   1.663   3.636
  603SOL    HW2 2709   1.264   1.647   3.798
  604SOL     OW 2710   5.268   2.243   0.854
  604SOL    HW1 2711   5.222   2.214   0.938
  604SOL    HW2 2712   5.215   2.211   0.775
  605SOL     OW 2713   5.497   6.421   2.025
  605SOL    HW1 2714   5.528   6.343   2.080
  605SOL    HW2 2715   5.511   6.401   1.928
  606SOL     OW 2716   3.180   6.550   5.124
  606SOL    HW1 2717   3.159   6.477   5.189
  606SOL    HW2 2718   3.098   6.604   5.106
  607SOL     OW 2719   1.501   3.345   5.898
  607SOL    HW1 2720   1.522   3.432   5.855
  607SOL    HW2 2721   1.586   3.294   5.914
  608SOL     OW 2722   2.950   1.550   6.963
  608SOL    HW1 2723   2.857   1.573   6.934
  608SOL    HW2 2724   2.947   1.492   0.021
  609SOL     OW 2725   3.946   3.076   2.355
  609SOL    HW1 2726   4.007   3.095   2.278
  609SOL    HW2 2727   3.991   3.105   2.440
  610SOL     OW 2728   4.919   2.651   2.008
  610SOL    HW1 2729   5.015   2.648   2.036
  610SOL    HW2 2730   4.869   2.575   2.050
  611SOL     OW 2731   3.698   1.693   2.142
  611SOL    HW1 2732   3.640   1.772   2.118
  611SOL    HW2 2733   3.734   1.652   2.059
  612SOL     OW 2734   4.280   5.488   4.325
  612SOL    HW1 2735   4.233   5.452   4.405
  612SOL    HW2 2736   4.353   5.426   4.298
  613SOL     OW 2737   3.913   5.446   6.252
  613SOL    HW1 2738   3.871   5.495   6.176
  613SOL    HW2 2739   3.873   5.477   6.338
  614SOL     OW 2740   3.350   6.180   6.028
  614SOL    HW1 2741   3.268   6.236   6.016
  614SOL    HW2 2742   3.428   6.225   5.985
  615SOL     OW 2743   6.787   5.299   3.688
  615SOL    HW1 2744   6.743   5.306   3.599
  615SOL    HW2 2745   6.830   5.386   3.712
  616SOL     OW 2746   5.928   2.508   3.778
  616SOL    HW1 2747   6.004   2.555   3.822
  616SOL    HW2 2748   5.844   2.561   3.789
  617SOL     OW 2749   2.168   0.544   6.207
  617SOL    HW1 2750   2.261   0.582   6.201
  617SOL    HW2 2751   2.154   0.506   6.298
  618SOL     OW 2752   2.111   0.740   2.747
  618SOL    HW1 2753   2.057   0.656   2.752
  618SOL    HW2 2754   2.207   0.718   2.732
  619SOL     OW 2755   1.085   2.311   6.521
  619SOL    HW1 2756   1.098   2.276   6.429
  619SOL    HW2 2757   1.166   2.290   6.576
  620SOL     OW 2758   4.543   4.029   0.758
  620SOL    HW1 2759   4.547   4.095   0.833
  620SOL    HW2 2760   4.536   3.936   0.797
  621SOL     OW 2761   0.048   6.092   1.160
  621SOL    HW1 2762   0.040   6.097   1.260
  621SOL    HW2 2763   0.144   6.108   1.134
  622SOL     OW 2764   1.055   1.273   6.874
  622SOL    HW1 2765   1.142   1.223   6.869
  622SOL    HW2 2766   0.996   1.244   6.798
  623SOL     OW 2767   6.503   5.823   5.282
  623SOL    HW1 2768   6.536   5.874   5.202
  623SOL    HW2 2769   6.443   5.882   5.336
  624SOL     OW 2770   0.118   1.850   1.224
  624SOL    HW1 2771   0.081   1.763   1.257
  624SOL    HW2 2772   0.107   1.854   1.124
  625SOL     OW 2773   1.463   0.830   1.957
  625SOL    HW1 2774   1.532   0.766   1.922
  625SOL    HW2 2775   1.500   0.879   2.036
  626SOL     OW 2776   3.577   5.462   4.881
  626SOL    HW1 2777   3.486   5.500   4.898
  626SOL    HW2 2778   3.642   5.504   4.945
  627SOL     OW 2779   4.206   5.896   0.236
  627SOL    HW1 2780   4.199   5.867   0.331
  627SOL    HW2 2781   4.143   5.842   0.180
  628SOL     OW 2782   4.920   3.721   3.616
  628SOL    HW1 2783   4.889   3.816   3.612
  628SOL    HW2 2784   4.921   3.682   3.524
  629SOL     OW 2785   1.772   6.793   1.183
  629SOL    HW1 2786   1.858   6.833   1.151
  629SOL    HW2 2787   1.697   6.826   1.126
  630SOL     OW 2788   2.726   1.181   2.149
  630SOL    HW1 2789   2.636   1.187   2.105
  630SOL    HW2 2790   2.746   1.268   2.195
  631SOL     OW 2791   2.442   1.493   4.189
  631SOL    HW1 2792   2.356   1.441   4.193
  631SOL    HW2 2793   2.436   1.562   4.117
  632SOL     OW 2794   3.123   0.453   0.388
  632SOL    HW1 2795   3.153   0.417   0.300
  632SOL    HW2 2796   3.173   0.537   0.409
  633SOL     OW 2797   2.086   0.298   4.778
  633SOL    HW1 2798   2.152   0.353   4.726
  633SOL    HW2 2799   2.098   0.201   4.756
  634SOL     OW 2800   3.064   5.663   2.017
  634SOL    HW1 2801   3.036   5.708   1.932
  634SOL    HW2 2802   3.080   5.732   2.087
  635SOL     OW 2803   3.106   0.151   2.106
  635SOL    HW1 2804   3.037   0.134   2.035
  635SOL    HW2 2805   3.180   0.085   2.096
  636SOL     OW 2806   5.128   4.805   6.829
  636SOL    HW1 2807   5.224   4.825   6.846
  636SOL    HW2 2808   5.084   4.886   6.790
  637SOL     OW 2809   6.057   5.099   6.273
  637SOL    HW1 2810   6.036   5.130   6.180
  637SOL    HW2 2811   6.023   5.006   6.286
  638SOL     OW 2812   5.943   1.720   3.329
  638SOL    HW1 2813   5.855   1.672   3.324
  638SOL    HW2 2814   5.970   1.731   3.424
  639SOL     OW 2815   3.592   3.613   1.597
  639SOL    HW1 2816   3.584   3.700   1.645
  639SOL    HW2 2817   3.671   3.563   1.633
  640SOL     OW 2818   2.871   2.358   5.254
  640SOL    HW1 2819   2.961   2.338   5.216
  640SOL    HW2 2820   2.868   2.453   5.284
  641SOL     OW 2821   0.235   0.027   4.720
  641SOL    HW1 2822   0.244   7.020   4.815
  641SOL    HW2 2823   0.141   0.055   4.701
  642SOL     OW 2824   0.388   4.501   5.815
  642SOL    HW1 2825   0.479   4.522   5.852
  642SOL    HW2 2826   0.369   4.404   5.826
  643SOL     OW 2827   5.587   6.262   4.752
  643SOL    HW1 2828   5.633   6.349   4.737
  643SOL    HW2 2829   5.536   6.265   4.838
  644SOL     OW 2830   3.401   5.964   1.658
  644SOL    HW1 2831   3.455   5.908   1.720
  644SOL    HW2 2832   3.318   5.915   1.631
  645SOL     OW 2833   0.906   3.019   2.791
  645SOL    HW1 2834   0.836   2.948   2.784
  645SOL    HW2 2835   0.947   3.016   2.883
  646SOL     OW 2836   1.737   2.979   4.356
  646SOL    HW1 2837   1.666   3.040   4.321
  646SOL    HW2 2838   1.694   2.898   4.396
  647SOL     OW 2839   5.615   4.823   0.513
  647SOL    HW1 2840   5.648   4.842   0.420
  647SOL    HW2 2841   5.650   4.893   0.575
  648SOL     OW 2842   4.171   2.167   4.065
  648SOL    HW1 2843   4.120   2.137   4.146
  648SOL    HW2 2844   4.120   2.143   3.982
  649SOL     OW 2845   4.153   4.245   1.407
  649SOL    HW1 2846   4.115   4.188   1.479
  649SOL    HW2 2847   4.190   4.329   1.446
  650SOL     OW 2848   5.638   5.050   0.258
  650SOL    HW1 2849   5.552   5.050   0.309
  650SOL    HW2 2850   5.714   5.063   0.322
  651SOL     OW 2851   1.284   5.770   6.299
  651SOL    HW1 2852   1.277   5.719   6.385
  651SOL    HW2 2853   1.308   5.865   6.319
  652SOL     OW 2854   5.067   2.830   1.396
  652SOL    HW1 2855   5.040   2.842   1.301
  652SOL    HW2 2856   5.163   2.805   1.402
  653SOL     OW 2857   3.155   5.238   2.898
  653SOL    HW1 2858   3.151   5.138   2.886
  653SOL    HW2 2859   3.201   5.279   2.819
  654SOL     OW 2860   6.931   5.430   7.014
  654SOL    HW1 2861   6.968   5.401   6.926
  654SOL    HW2 2862   6.909   5.350   0.047
  655SOL     OW 2863   1.798   1.844   0.599
  655SOL    HW1 2864   1.837   1.856   0.690
  655SOL    HW2 2865   1.825   1.922   0.541
  656SOL     OW 2866   2.032   6.614   1.027
  656SOL    HW1 2867   2.031   6.713   1.009
  656SOL    HW2 2868   2.112   6.592   1.083
  657SOL     OW 2869   4.010   0.318   0.195
  657SOL    HW1 2870   4.010   0.241   0.130
  657SOL    HW2 2871   4.052   0.397   0.153
  658SOL     OW 2872   3.284   5.583   0.194
  658SOL    HW1 2873   3.246   5.546   0.110
  658SOL    HW2 2874   3.278   5.683   0.192
  659SOL     OW 2875   3.756   0.287   6.371
  659SOL    HW1 2876   3.672   0.294   6.316
  659SOL    HW2 2877   3.736   0.309   6.466
  660SOL     OW 2878   3.028   6.713   3.457
  660SOL    HW1 2879   2.973   6.723   3.374
  660SOL    HW2 2880   3.081   6.796   3.472
  661SOL     OW 2881   6.489   5.057   2.759
  661SOL    HW1 2882   6.429   5.123   2.714
  661SOL    HW2 2883   6.551   5.106   2.821
  662SOL     OW 2884   4.384   2.074   6.846
  662SOL    HW1 2885   4.293   2.080   6.887
  662SOL    HW2 2886   4.400   2.154   6.788
  663SOL     OW 2887   1.382   4.148   4.635
  663SOL    HW1 2888   1.417   4.144   4.541
  663SOL    HW2 2889   1.455   4.178   4.696
  664SOL     OW 2890   5.722   6.676   6.319
  664SOL    HW1 2891   5.808   6.637   6.349
  664SOL    HW2 2892   5.646   6.626   6.359
  665SOL     OW 2893   1.651   4.047   1.968
  665SOL    HW1 2894   1.680   3.999   2.050
  665SOL    HW2 2895   1.693   4.004   1.888
  666SOL     OW 2896   3.938   0.725   2.690
  666SOL    HW1 2897   4.014   0.670   2.656
  666SOL    HW2 2898   3.863   0.665   2.720
  667SOL     OW 2899   0.393   0.542   1.295
  667SOL    HW1 2900   0.438   0.483   1.228
  667SOL    HW2 2901   0.403   0.637   1.268
  668SOL     OW 2902   5.185   2.824   6.924
  668SOL    HW1 2903   5.238   2.740   6.911
  668SOL    HW2 2904   5.247   2.902   6.930
  669SOL     OW 2905   5.163   1.400   2.873
  669SOL    HW1 2906   5.248   1.396   2.819
  669SOL    HW2 2907   5.100   1.465   2.830
  670SOL     OW 2908   4.003   1.858   2.125
  670SOL    HW1 2909   3.962   1.773   2.157
  670SOL    HW2 2910   3.941   1.935   2.144
  671SOL     OW 2911   1.104   5.552   1.977
  671SOL    HW1 2912   1.065   5.485   1.915
  671SOL    HW2 2913   1.204   5.542   1.978
  672SOL     OW 2914   0.339   7.001   1.084
  672SOL    HW1 2915   0.356   6.904   1.102
  672SOL    HW2 2916   0.413   0.033   1.122
  673SOL     OW 2917   6.070   6.926   6.219
  673SOL    HW1 2918   5.973   6.946   6.228
  673SOL    HW2 2919   6.123   7.009   6.235
  674SOL     OW 2920   5.082   6.541   4.358
  674SOL    HW1 2921   5.116   6.509   4.270
  674SOL    HW2 2922   5.011   6.479   4.391
  675SOL     OW 2923   1.160   5.250   2.548
  675SOL    HW1 2924   1.141   5.317   2.620
  675SOL    HW2 2925   1.251   5.267   2.509
  676SOL     OW 2926   2.428   5.801   6.672
  676SOL    HW1 2927   2.363   5.740   6.716
  676SOL    HW2 2928   2.517   5.756   6.664
  677SOL     OW 2929   5.635   0.637   1.526
  677SOL    HW1 2930   5.723   0.626   1.480
  677SOL    HW2 2931   5.579   0.556   1.511
  678SOL     OW 2932   0.773   5.291   4.031
  678SOL    HW1 2933   0.710   5.349   4.083
  678SOL    HW2 2934   0.861   5.286   4.078
  679SOL     OW 2935   5.477   1.059   5.887
  679SOL    HW1 2936   5.437   1.150   5.877
  679SOL    HW2 2937   5.443   0.999   5.815
  680SOL     OW 2938   5.916   6.772   4.316
  680SOL    HW1 2939   5.881   6.751   4.224
  680SOL    HW2 2940   6.016   6.774   4.313
  681SOL     OW 2941   4.183   4.721   2.660
  681SOL    HW1 2942   4.165   4.681   2.570
  681SOL    HW2 2943   4.247   4.797   2.651
  682SOL     OW 2944   6.136   1.152   2.837
  682SOL    HW1 2945   6.216   1.166   2.895
  682SOL    HW2 2946   6.053   1.150   2.893
  683SOL     OW 2947   3.185   5.279   6.992
  683SOL    HW1 2948   3.174   5.282   0.069
  683SOL    HW2 2949   3.110   5.328   6.949
  684SOL     OW 2950   6.060   2.002   6.174
  684SOL    HW1 2951   6.005   2.086   6.175
  684SOL    HW2 2952   6.129   2.006   6.247
  685SOL     OW 2953   3.270   6.895   3.643
  685SOL    HW1 2954   3.277   6.798   3.666
  685SOL    HW2 2955   3.249   6.947   3.725
  686SOL     OW 2956   3.656   0.608   5.575
  686SOL    HW1 2957   3.562   0.575   5.565
  686SOL    HW2 2958   3.667   0.649   5.665
  687SOL     OW 2959   0.426   0.869   4.068
  687SOL    HW1 2960   0.506   0.827   4.026
  687SOL    HW2 2961   0.401   0.818   4.151
  688SOL     OW 2962   5.322   3.532   0.088
  688SOL    HW1 2963   5.258   3.469   0.042
  688SOL    HW2 2964   5.270   3.597   0.144
  689SOL     OW 2965   2.739   5.793   0.263
  689SOL    HW1 2966   2.650   5.785   0.307
  689SOL    HW2 2967   2.727   5.821   0.168
  690SOL     OW 2968   5.939   3.771   4.012
  690SOL    HW1 2969   6.016   3.772   3.948
  690SOL    HW2 2970   5.940   3.685   4.063
  691SOL     OW 2971   5.518   0.588   2.517
  691SOL    HW1 2972   5.459   0.546   2.448
  691SOL    HW2 2973   5.470   0.662   2.562
  692SOL     OW 2974   1.118   0.270   3.305
  692SOL    HW1 2975   1.141   0.206   3.378
  692SOL    HW2 2976   1.182   0.347   3.306
  693SOL     OW 2977   5.808   4.205   2.297
  693SOL    HW1 2978   5.873   4.252   2.356
  693SOL    HW2 2979   5.822   4.107   2.303
  694SOL     OW 2980   4.576   4.647   4.278
  694SOL    HW1 2981   4.552   4.615   4.370
  694SOL    HW2 2982   4.603   4.569   4.222
  695SOL     OW 2983   4.640   0.054   3.907
  695SOL    HW1 2984   4.650   0.015   3.998
  695SOL    HW2 2985   4.718   0.113   3.886
  696SOL     OW 2986   6.557   4.461   1.823
  696SOL    HW1 2987   6.572   4.552   1.864
  696SOL    HW2 2988   6.583   4.464   1.727
  697SOL     OW 2989   0.151   6.066   3.017
  697SOL    HW1 2990   0.058   6.071   3.055
  697SOL    HW2 2991   0.149   6.011   2.934
  698SOL     OW 2992   5.970   6.359   5.724
  698SOL    HW1 2993   6.042   6.369   5.655
  698SOL    HW2 2994   5.901   6.431   5.711
  699SOL     OW 2995   4.095   2.763   0.763
  699SOL    HW1 2996   4.082   2.857   0.732
  699SOL    HW2 2997   4.030   2.743   0.836
  700SOL     OW 2998   3.880   6.602   5.586
  700SOL    HW1 2999   3.962   6.549   5.566
  700SOL    HW2 3000   3.898   6.699   5.567
  701SOL     OW 3001   4.478   4.539   1.835
  701SOL    HW1 3002   4.575   4.541   1.860
  701SOL    HW2 3003   4.441   4.448   1.852
  702SOL     OW 3004   4.206   0.591   5.127
  702SOL    HW1 3005   4.283   0.575   5.067
  702SOL    HW2 3006   4.217   0.679   5.173
  703SOL     OW 3007   3.871   2.659   0.593
  703SOL    HW1 3008   3.925   2.729   0.640
  703SOL    HW2 3009   3.919   2.630   0.510
  704SOL     OW 3010   3.692   1.733   0.162
  704SOL    HW1 3011   3.732   1.701   0.248
  704SOL    HW2 3012   3.676   1.655   0.101
  705SOL     OW 3013   0.406   6.654   5.612
  705SOL    HW1 3014   0.344   6.718   5.567
  705SOL    HW2 3015   0.357   6.568   5.630
  706SOL     OW 3016   4.107   0.244   4.812
  706SOL    HW1 3017   4.069   0.166   4.863
  706SOL    HW2 3018   4.099   0.327   4.867
  707SOL     OW 3019   3.211   4.946   4.207
  707SOL    HW1 3020   3.208   5.041   4.178
  707SOL    HW2 3021   3.294   4.930   4.260
  708SOL     OW 3022   2.990   6.405   3.921
  708SOL    HW1 3023   3.081   6.377   3.949
  708SOL    HW2 3024   2.985   6.409   3.821
  709SOL     OW 3025   2.031   6.792   2.017
  709SOL    HW1 3026   1.937   6.819   1.995
  709SOL    HW2 3027   2.088   6.801   1.936
  710SOL     OW 3028   4.762   2.397   2.441
  710SOL    HW1 3029   4.787   2.428   2.350
  710SOL    HW2 3030   4.798   2.460   2.510
  711SOL     OW 3031   0.056   1.318   1.154
  711SOL    HW1 3032   0.092   1.294   1.064
  711SOL    HW2 3033   6.982   1.294   1.159
  712SOL     OW 3034   4.970   4.251   0.127
  712SOL    HW1 3035   5.066   4.273   0.144
  712SOL    HW2 3036   4.955   4.242   0.028
  713SOL     OW 3037   4.000   2.830   5.832
  713SOL    HW1 3038   3.946   2.899   5.785
  713SOL    HW2 3039   3.995   2.844   5.931
  714SOL     OW 3040   4.140   6.697   2.997
  714SOL    HW1 3041   4.128   6.741   2.908
  714SOL    HW2 3042   4.082   6.615   3.001
  715SOL     OW 3043   6.003   4.184   5.363
  715SOL    HW1 3044   6.092   4.144   5.382
  715SOL    HW2 3045   5.979   4.248   5.436
  716SOL     OW 3046   3.274   1.817   3.628
  716SOL    HW1 3047   3.364   1.860   3.625
  716SOL    HW2 3048   3.204   1.888   3.640
  717SOL     OW 3049   5.143   4.811   3.511
  717SOL    HW1 3050   5.128   4.789   3.415
  717SOL    HW2 3051   5.241   4.826   3.526
  718SOL     OW 3052   6.536   1.688   5.282
  718SOL    HW1 3053   6.465   1.739   5.331
  718SOL    HW2 3054   6.583   1.627   5.346
  719SOL     OW 3055   4.502   5.689   2.648
  719SOL    HW1 3056   4.589   5.640   2.644
  719SOL    HW2 3057   4.429   5.625   2.670
  720SOL     OW 3058   2.976   1.673   1.231
  720SOL    HW1 3059   3.054   1.696   1.289
  720SOL    HW2 3060   2.920   1.754   1.217
  721SOL     OW 3061   0.174   2.946   2.465
  721SOL    HW1 3062   0.265   2.976   2.436
  721SOL    HW2 3063   0.142   2.872   2.406
  722SOL     OW 3064   5.532   6.443   1.743
  722SOL    HW1 3065   5.547   6.374   1.673
  722SOL    HW2 3066   5.454   6.500   1.718
  723SOL     OW 3067   2.162   0.609   4.393
  723SOL    HW1 3068   2.140   0.689   4.448
  723SOL    HW2 3069   2.140   0.627   4.297
  724SOL     OW 3070   1.201   2.897   4.593
  724SOL    HW1 3071   1.132   2.942   4.650
  724SOL    HW2 3072   1.270   2.855   4.652
  725SOL     OW 3073   1.688   4.405   3.303
  725SOL    HW1 3074   1.777   4.433   3.267
  725SOL    HW2 3075   1.664   4.315   3.268
  726SOL     OW 3076   2.168   3.908   0.330
  726SOL    HW1 3077   2.263   3.930   0.351
  726SOL    HW2 3078   2.165   3.828   0.269
  727SOL     OW 3079   3.825   5.241   4.874
  727SOL    HW1 3080   3.749   5.291   4.915
  727SOL    HW2 3081   3.888   5.305   4.829
  728SOL     OW 3082   6.081   3.630   3.507
  728SOL    HW1 3083   6.145   3.631   3.584
  728SOL    HW2 3084   6.129   3.660   3.424
  729SOL     OW 3085   0.801   5.113   0.513
  729SOL    HW1 3086   0.730   5.111   0.443
  729SOL    HW2 3087   0.759   5.101   0.603
  730SOL     OW 3088   4.136   1.682   3.118
  730SOL    HW1 3089   4.179   1.592   3.113
  730SOL    HW2 3090   4.206   1.752   3.125
  731SOL     OW 3091   4.959   4.602   5.011
  731SOL    HW1 3092   4.985   4.687   4.966
  731SOL    HW2 3093   5.027   4.578   5.080
  732SOL     OW 3094   4.712   0.794   4.262
  732SOL    HW1 3095   4.789   0.857   4.260
  732SOL    HW2 3096   4.634   0.836   4.309
  733SOL     OW 3097   0.607   5.024   4.473
  733SOL    HW1 3098   0.640   4.965   4.398
  733SOL    HW2 3099   0.513   5.050   4.456
  734SOL     OW 3100   5.968   6.038   3.445
  734SOL    HW1 3101   5.900   5.965   3.435
  734SOL    HW2 3102   5.925   6.126   3.424
  735SOL     OW 3103   4.459   0.574   2.687
  735SOL    HW1 3104   4.414   0.662   2.703
  735SOL    HW2 3105   4.532   0.561   2.754
  736SOL     OW 3106   2.008   1.980   3.711
  736SOL    HW1 3107   1.917   1.971   3.670
  736SOL    HW2 3108   2.058   1.894   3.699
  737SOL     OW 3109   3.240   1.016   6.240
  737SOL    HW1 3110   3.330   0.981   6.265
  737SOL    HW2 3111   3.198   0.955   6.172
  738SOL     OW 3112   1.492   5.410   0.209
  738SOL    HW1 3113   1.492   5.328   0.266
  738SOL    HW2 3114   1.428   5.398   0.133
  739SOL     OW 3115   1.798   0.738   3.322
  739SOL    HW1 3116   1.783   0.667   3.253
  739SOL    HW2 3117   1.850   0.700   3.398
  740SOL     OW 3118   4.537   2.421   2.776
  740SOL    HW1 3119   4.620   2.367   2.790
  740SOL    HW2 3120   4.494   2.395   2.689
  741SOL     OW 3121   3.118   1.833   2.579
  741SOL    HW1 3122   3.077   1.742   2.576
  741SOL    HW2 3123   3.197   1.835   2.517
  742SOL     OW 3124   2.485   0.546   2.278
  742SOL    HW1 3125   2.515   0.640   2.296
  742SOL    HW2 3126   2.433   0.513   2.357
  743SOL     OW 3127   6.998   6.608   2.769
  743SOL    HW1 3128   0.032   6.687   2.745
  743SOL    HW2 3129   6.986   6.605   2.869
  744SOL     OW 3130   5.651   1.296   1.153
  744SOL    HW1 3131   5.724   1.244   1.197
  744SOL    HW2 3132   5.671   1.393   1.157
  745SOL     OW 3133   1.796   6.910   5.685
  745SOL    HW1 3134   1.824   6.998   5.647
  745SOL    HW2 3135   1.698   6.912   5.705
  746SOL     OW 3136   6.461   5.871   4.633
  746SOL    HW1 3137   6.399   5.815   4.687
  746SOL    HW2 3138   6.409   5.915   4.558
  747SOL     OW 3139   3.596   5.181   2.550
  747SOL    HW1 3140   3.502   5.207   2.575
  747SOL    HW2 3141   3.608   5.195   2.452
  748SOL     OW 3142   5.910   4.845   2.509
  748SOL    HW1 3143   5.967   4.800   2.578
  748SOL    HW2 3144   5.968   4.899   2.448
  749SOL     OW 3145   4.660   4.269   4.603
  749SOL    HW1 3146   4.662   4.274   4.703
  749SOL    HW2 3147   4.663   4.173   4.574
  750SOL     OW 3148   2.911   1.904   3.000
  750SOL    HW1 3149   2.956   1.891   3.089
  750SOL    HW2 3150   2.971   1.958   2.941
  751SOL     OW 3151   4.111   7.015   0.556
  751SOL    HW1 3152   4.148   0.017   0.645
  751SOL    HW2 3153   4.166   0.034   0.484
  752SOL     OW 3154   3.033   3.204   4.228
  752SOL    HW1 3155   3.048   3.214   4.130
  752SOL    HW2 3156   3.097   3.137   4.265
  753SOL     OW 3157   3.639   3.699   3.717
  753SOL    HW1 3158   3.689   3.740   3.793
  753SOL    HW2 3159   3.703   3.673   3.645
  754SOL     OW 3160   4.980   0.804   6.614
  754SOL    HW1 3161   4.970   0.862   6.694
  754SOL    HW2 3162   5.031   0.853   6.543
  755SOL     OW 3163   4.823   4.327   5.172
  755SOL    HW1 3164   4.770   4.268   5.233
  755SOL    HW2 3165   4.761   4.387   5.121
  756SOL     OW 3166   2.937   5.577   5.946
  756SOL    HW1 3167   2.950   5.533   5.858
  756SOL    HW2 3168   2.878   5.520   6.004
  757SOL     OW 3169   1.258   6.869   1.919
  757SOL    HW1 3170   1.166   6.830   1.919
  757SOL    HW2 3171   1.311   6.831   1.843
  758SOL     OW 3172   3.691   1.418   5.203
  758SOL    HW1 3173   3.619   1.461   5.148
  758SOL    HW2 3174   3.663   1.417   5.299
  759SOL     OW 3175   6.885   2.680   3.670
  759SOL    HW1 3176   6.843   2.608   3.615
  759SOL    HW2 3177   6.911   2.643   3.759
  760SOL     OW 3178   0.075   5.731   4.328
  760SOL    HW1 3179   0.162   5.723   4.378
  760SOL    HW2 3180   7.022   5.705   4.388
  761SOL     OW 3181   5.043   4.976   6.300
  761SOL    HW1 3182   5.108   4.909   6.266
  761SOL    HW2 3183   4.950   4.943   6.284
  762SOL     OW 3184   4.048   5.854   3.267
  762SOL    HW1 3185   4.016   5.780   3.208
  762SOL    HW2 3186   4.089   5.815   3.350
  763SOL     OW 3187   5.788   1.179   0.459
  763SOL    HW1 3188   5.785   1.204   0.362
  763SOL    HW2 3189   5.748   1.253   0.514
  764SOL     OW 3190   4.968   6.277   4.802
  764SOL    HW1 3191   4.891   6.263   4.740
  764SOL    HW2 3192   4.998   6.188   4.838
  765SOL     OW 3193   5.583   6.138   0.350
  765SOL    HW1 3194   5.683   6.133   0.344
  765SOL    HW2 3195   5.545   6.046   0.356
  766SOL     OW 3196   2.403   1.978   3.922
  766SOL    HW1 3197   2.356   1.894   3.896
  766SOL    HW2 3198   2.343   2.032   3.982
  767SOL     OW 3199   6.616   6.372   3.614
  767SOL    HW1 3200   6.533   6.382   3.560
  767SOL    HW2 3201   6.595   6.324   3.699
  768SOL     OW 3202   2.728   5.663   1.301
  768SOL    HW1 3203   2.660   5.613   1.356
  768SOL    HW2 3204   2.740   5.616   1.213
  769SOL     OW 3205   3.454   1.810   5.309
  769SOL    HW1 3206   3.478   1.713   5.318
  769SOL    HW2 3207   3.357   1.818   5.285
  770SOL     OW 3208   0.921   4.681   5.844
  770SOL    HW1 3209   0.972   4.654   5.762
  770SOL    HW2 3210   0.977   4.744   5.899
  771SOL     OW 3211   1.533   4.901   2.610
  771SOL    HW1 3212   1.583   4.977   2.652
  771SOL    HW2 3213   1.465   4.866   2.674
  772SOL     OW 3214   6.115   4.974   0.516
  772SOL    HW1 3215   6.106   4.875   0.522
  772SOL    HW2 3216   6.186   4.998   0.449
  773SOL     OW 3217   1.726   4.856   4.274
  773SOL    HW1 3218   1.795   4.888   4.209
  773SOL    HW2 3219   1.654   4.924   4.282
  774SOL     OW 3220   1.871   2.382   3.784
  774SOL    HW1 3221   1.815   2.350   3.861
  774SOL    HW2 3222   1.837   2.471   3.753
  775SOL     OW 3223   0.920   4.653   2.277
  775SOL    HW1 3224   0.915   4.619   2.371
  775SOL    HW2 3225   0.865   4.594   2.217
  776SOL     OW 3226   2.850   5.006   6.955
  776SOL    HW1 3227   2.804   4.931   6.906
  776SOL    HW2 3228   2.923   4.968   7.011
  777SOL     OW 3229   2.010   3.671   6.780
  777SOL    HW1 3230   1.974   3.763   6.798
  777SOL    HW2 3231   2.093   3.678   6.725
  778SOL     OW 3232   3.493   5.469   6.928
  778SOL    HW1 3233   3.478   5.389   6.985
  778SOL    HW2 3234   3.424   5.473   6.856
  779SOL     OW 3235   5.867   1.788   3.626
  779SOL    HW1 3236   5.894   1.858   3.692
  779SOL    HW2 3237   5.863   1.699   3.672
  780SOL     OW 3238   5.805   1.504   4.969
  780SOL    HW1 3239   5.891   1.503   5.019
  780SOL    HW2 3240   5.818   1.548   4.880
  781SOL     OW 3241   0.257   5.439   6.390
  781SOL    HW1 3242   0.247   5.471   6.484
  781SOL    HW2 3243   0.167   5.423   6.350
  782SOL     OW 3244   2.126   4.022   5.548
  782SOL    HW1 3245   2.101   4.119   5.555
  782SOL    HW2 3246   2.129   3.995   5.452
  783SOL     OW 3247   6.965   5.062   6.328
  783SOL    HW1 3248   6.980   4.963   6.338
  783SOL    HW2 3249   0.004   5.098   6.258
  784SOL     OW 3250   1.813   6.112   5.954
  784SOL    HW1 3251   1.887   6.179   5.958
  784SOL    HW2 3252   1.795   6.077   6.046
  785SOL     OW 3253   0.344   0.004   3.962
  785SOL    HW1 3254   0.344   0.036   4.057
  785SOL    HW2 3255   0.282   6.949   3.953
  786SOL     OW 3256   6.050   1.187   4.834
  786SOL    HW1 3257   6.017   1.170   4.741
  786SOL    HW2 3258   6.120   1.120   4.858
  787SOL     OW 3259   2.202   6.802   0.388
  787SOL    HW1 3260   2.115   6.804   0.338
  787SOL    HW2 3261   2.231   6.896   0.407
  788SOL     OW 3262   2.122   3.346   2.225
  788SOL    HW1 3263   2.143   3.404   2.303
  788SOL    HW2 3264   2.160   3.386   2.142
  789SOL     OW 3265   3.331   5.276   2.541
  789SOL    HW1 3266   3.297   5.185   2.518
  789SOL    HW2 3267   3.328   5.334   2.460
  790SOL     OW 3268   6.980   3.385   2.404
  790SOL    HW1 3269   7.018   3.297   2.432
  790SOL    HW2 3270   6.887   3.371   2.368
  791SOL     OW 3271   3.445   1.278   3.535
  791SOL    HW1 3272   3.385   1.300   3.457
  791SOL    HW2 3273   3.402   1.207   3.590
  792SOL     OW 3274   2.743   0.815   0.536
  792SOL    HW1 3275   2.804   0.758   0.591
  792SOL    HW2 3276   2.777   0.818   0.442
  793SOL     OW 3277   2.073   5.788   4.539
  793SOL    HW1 3278   1.993   5.748   4.584
  793SOL    HW2 3279   2.050   5.809   4.444
  794SOL     OW 3280   3.429   3.618   2.104
  794SOL    HW1 3281   3.407   3.528   2.142
  794SOL    HW2 3282   3.358   3.683   2.131
  795SOL     OW 3283   4.188   6.584   5.771
  795SOL    HW1 3284   4.267   6.642   5.750
  795SOL    HW2 3285   4.167   6.526   5.691
  796SOL     OW 3286   0.991   2.568   6.591
  796SOL    HW1 3287   0.998   2.468   6.586
  796SOL    HW2 3288   0.940   2.594   6.672
  797SOL     OW 3289   3.190   6.792   0.954
  797SOL    HW1 3290   3.127   6.847   0.900
  797SOL    HW2 3291   3.210   6.839   1.040
  798SOL     OW 3292   5.145   4.134   1.757
  798SOL    HW1 3293   5.218   4.135   1.824
  798SOL    HW2 3294   5.075   4.068   1.783
  799SOL     OW 3295   3.662   3.482   4.983
  799SOL    HW1 3296   3.575   3.473   5.032
  799SOL    HW2 3297   3.666   3.571   4.937
  800SOL     OW 3298   5.660   2.983   3.238
  800SOL    HW1 3299   5.619   3.051   3.178
  800SOL    HW2 3300   5.621   2.893   3.218
  801SOL     OW 3301   1.919   5.402   6.722
  801SOL    HW1 3302   1.983   5.372   6.793
  801SOL    HW2 3303   1.890   5.323   6.669
  802SOL     OW 3304   3.971   2.421   6.020
  802SOL    HW1 3305   3.948   2.337   6.070
  802SOL    HW2 3306   4.039   2.474   6.072
  803SOL     OW 3307   2.788   2.232   3.196
  803SOL    HW1 3308   2.851   2.243   3.119
  803SOL    HW2 3309   2.694   2.235   3.163
  804SOL     OW 3310   4.563   6.906   2.888
  804SOL    HW1 3311   4.516   6.993   2.877
  804SOL    HW2 3312   4.656   6.913   2.851
  805SOL     OW 3313   3.419   1.798   3.925
  805SOL    HW1 3314   3.379   1.744   3.852
  805SOL    HW2 3315   3.398   1.895   3.911
  806SOL     OW 3316   4.358   5.953   6.167
  806SOL    HW1 3317   4.275   5.899   6.183
  806SOL    HW2 3318   4.397   5.978   6.256
  807SOL     OW 3319   1.001   6.568   6.351
  807SOL    HW1 3320   1.065   6.577   6.275
  807SOL    HW2 3321   1.005   6.651   6.408
  808SOL     OW 3322   5.361   2.038   6.016
  808SOL    HW1 3323   5.273   2.082   5.999
  808SOL    HW2 3324   5.397   2.002   5.930
  809SOL     OW 3325   2.928   6.595   5.763
  809SOL    HW1 3326   2.972   6.684   5.778
  809SOL    HW2 3327   2.846   6.607   5.707
  810SOL     OW 3328   3.987   4.066   6.621
  810SOL    HW1 3329   3.890   4.076   6.644
  810SOL    HW2 3330   4.029   3.999   6.682
  811SOL     OW 3331   5.370   5.401   5.357
  811SOL    HW1 3332   5.434   5.459   5.408
  811SOL    HW2 3333   5.280   5.404   5.399
  812SOL     OW 3334   1.500   2.671   1.235
  812SOL    HW1 3335   1.420   2.638   1.286
  812SOL    HW2 3336   1.583   2.647   1.284
  813SOL     OW 3337   3.015   2.019   5.069
  813SOL    HW1 3338   2.933   2.049   5.118
  813SOL    HW2 3339   3.077   2.096   5.056
  814SOL     OW 3340   0.531   4.764   1.336
  814SOL    HW1 3341   0.594   4.838   1.357
  814SOL    HW2 3342   0.448   4.773   1.392
  815SOL     OW 3343   4.681   0.818   3.847
  815SOL    HW1 3344   4.762   0.811   3.905
  815SOL    HW2 3345   4.600   0.789   3.898
  816SOL     OW 3346   5.168   3.730   6.440
  816SOL    HW1 3347   5.237   3.802   6.449
  816SOL    HW2 3348   5.213   3.641   6.445
  817SOL     OW 3349   6.708   5.544   6.890
  817SOL    HW1 3350   6.783   5.499   6.939
  817SOL    HW2 3351   6.620   5.510   6.925
  818SOL     OW 3352   6.487   0.942   5.602
  818SOL    HW1 3353   6.480   0.948   5.702
  818SOL    HW2 3354   6.563   0.882   5.578
  819SOL     OW 3355   5.549   3.711   1.994
  819SOL    HW1 3356   5.467   3.746   1.950
  819SOL    HW2 3357   5.599   3.652   1.929
  820SOL     OW 3358   2.326   2.052   5.570
  820SOL    HW1 3359   2.332   2.135   5.513
  820SOL    HW2 3360   2.411   2.000   5.561
  821SOL     OW 3361   5.114   3.165   6.135
  821SOL    HW1 3362   5.192   3.187   6.076
  821SOL    HW2 3363   5.029   3.178   6.084
  822SOL     OW 3364   6.573   4.268   3.377
  822SOL    HW1 3365   6.480   4.232   3.365
  822SOL    HW2 3366   6.569   4.367   3.387
  823SOL     OW 3367   1.907   2.866   4.092
  823SOL    HW1 3368   1.836   2.900   4.153
  823SOL    HW2 3369   1.866   2.832   4.008
  824SOL     OW 3370   5.261   0.358   6.540
  824SOL    HW1 3371   5.313   0.442   6.530
  824SOL    HW2 3372   5.169   0.371   6.504
  825SOL     OW 3373   5.964   5.725   1.096
  825SOL    HW1 3374   5.885   5.679   1.137
  825SOL    HW2 3375   6.048   5.683   1.129
  826SOL     OW 3376   3.647   2.034   0.366
  826SOL    HW1 3377   3.601   2.044   0.277
  826SOL    HW2 3378   3.742   2.010   0.351
  827SOL     OW 3379   3.365   3.293   4.653
  827SOL    HW1 3380   3.314   3.368   4.696
  827SOL    HW2 3381   3.384   3.223   4.721
  828SOL     OW 3382   0.316   6.536   6.024
  828SOL    HW1 3383   0.288   6.458   5.968
  828SOL    HW2 3384   0.402   6.574   5.989
  829SOL     OW 3385   3.981   3.360   1.609
  829SOL    HW1 3386   3.889   3.331   1.634
  829SOL    HW2 3387   4.048   3.311   1.664
  830SOL     OW 3388   0.319   3.470   6.232
  830SOL    HW1 3389   0.294   3.417   6.313
  830SOL    HW2 3390   0.369   3.412   6.168
  831SOL     OW 3391   6.039   1.425   3.146
  831SOL    HW1 3392   5.986   1.506   3.119
  831SOL    HW2 3393   5.998   1.344   3.103
  832SOL     OW 3394   3.368   2.111   4.811
  832SOL    HW1 3395   3.295   2.164   4.855
  832SOL    HW2 3396   3.440   2.093   4.878
  833SOL     OW 3397   3.635   3.261   6.421
  833SOL    HW1 3398   3.717   3.235   6.473
  833SOL    HW2 3399   3.566   3.189   6.430
  834SOL     OW 3400   6.102   3.584   1.108
  834SOL    HW1 3401   6.018   3.532   1.088
  834SOL    HW2 3402   6.137   3.557   1.197
  835SOL     OW 3403   6.504   6.674   5.228
  835SOL    HW1 3404   6.427   6.722   5.186
  835SOL    HW2 3405   6.590   6.714   5.194
  836SOL     OW 3406   5.973   6.720   4.044
  836SOL    HW1 3407   6.064   6.736   4.008
  836SOL    HW2 3408   5.936   6.635   4.007
  837SOL     OW 3409   0.655   0.603   6.421
  837SOL    HW1 3410   0.713   0.667   6.371
  837SOL    HW2 3411   0.561   0.636   6.421
  838SOL     OW 3412   1.027   5.985   3.380
  838SOL    HW1 3413   0.984   5.895   3.369
  838SOL    HW2 3414   0.956   6.056   3.381
  839SOL     OW 3415   1.502   2.144   0.140
  839SOL    HW1 3416   1.581   2.117   0.085
  839SOL    HW2 3417   1.505   2.095   0.228
  840SOL     OW 3418   4.563   5.397   0.466
  840SOL    HW1 3419   4.474   5.368   0.503
  840SOL    HW2 3420   4.632   5.390   0.538
  841SOL     OW 3421   2.797   5.316   6.527
  841SOL    HW1 3422   2.830   5.239   6.472
  841SOL    HW2 3423   2.824   5.402   6.484
  842SOL     OW 3424   4.559   6.785   1.119
  842SOL    HW1 3425   4.485   6.757   1.179
  842SOL    HW2 3426   4.631   6.829   1.174
  843SOL     OW 3427   1.675   0.020   2.395
  843SOL    HW1 3428   1.720   6.994   2.321
  843SOL    HW2 3429   1.586   0.054   2.363
  844SOL     OW 3430   0.014   6.959   1.581
  844SOL    HW1 3431   7.007   6.956   1.676
  844SOL    HW2 3432   6.975   6.904   1.525
  845SOL     OW 3433   3.977   1.395   1.648
  845SOL    HW1 3434   3.903   1.334   1.675
  845SOL    HW2 3435   4.025   1.358   1.569
  846SOL     OW 3436   1.257   1.046   1.065
  846SOL    HW1 3437   1.324   1.044   1.139
  846SOL    HW2 3438   1.182   0.984   1.085
  847SOL     OW 3439   2.448   3.310   1.311
  847SOL    HW1 3440   2.452   3.387   1.247
  847SOL    HW2 3441   2.382   3.243   1.277
  848SOL     OW 3442   6.350   5.952   0.972
  848SOL    HW1 3443   6.399   6.013   0.909
  848SOL    HW2 3444   6.389   5.959   1.063
  849SOL     OW 3445   5.159   3.439   6.259
  849SOL    HW1 3446   5.106   3.450   6.343
  849SOL    HW2 3447   5.196   3.346   6.255
  850SOL     OW 3448   2.048   1.487   5.003
  850SOL    HW1 3449   2.025   1.502   4.907
  850SOL    HW2 3450   2.096   1.400   5.012
  851SOL     OW 3451   4.671   2.303   6.457
  851SOL    HW1 3452   4.588   2.304   6.402
  851SOL    HW2 3453   4.674   2.219   6.512
  852SOL     OW 3454   6.793   5.081   1.462
  852SOL    HW1 3455   6.805   5.039   1.372
  852SOL    HW2 3456   6.812   5.179   1.456
  853SOL     OW 3457   3.612   2.641   0.659
  853SOL    HW1 3458   3.624   2.595   0.747
  853SOL    HW2 3459   3.701   2.669   0.624
  854SOL     OW 3460   0.050   0.060   6.245
  854SOL    HW1 3461   0.137   0.018   6.270
  854SOL    HW2 3462   0.061   0.159   6.245
  855SOL     OW 3463   4.609   2.056   0.015
  855SOL    HW1 3464   4.612   1.956   0.025
  855SOL    HW2 3465   4.527   2.082   6.987
  856SOL     OW 3466   2.015   5.569   1.697
  856SOL    HW1 3467   1.946   5.497   1.708
  856SOL    HW2 3468   2.078   5.567   1.774
  857SOL     OW 3469   0.210   6.883   4.944
  857SOL    HW1 3470   0.304   6.852   4.931
  857SOL    HW2 3471   0.151   6.804   4.962
  858SOL     OW 3472   3.196   4.338   0.158
  858SOL    HW1 3473   3.212   4.243   0.134
  858SOL    HW2 3474   3.196   4.394   0.075
  859SOL     OW 3475   4.876   5.917   5.642
  859SOL    HW1 3476   4.856   5.820   5.659
  859SOL    HW2 3477   4.793   5.962   5.610
  860SOL     OW 3478   4.641   2.943   6.523
  860SOL    HW1 3479   4.640   2.981   6.431
  860SOL    HW2 3480   4.633   3.017   6.590
  861SOL     OW 3481   0.828   5.994   2.675
  861SOL    HW1 3482   0.783   6.052   2.744
  861SOL    HW2 3483   0.759   5.939   2.628
  862SOL     OW 3484   0.898   4.658   3.988
  862SOL    HW1 3485   0.954   4.641   3.907
  862SOL    HW2 3486   0.807   4.689   3.960
  863SOL     OW 3487   5.393   0.271   1.508
  863SOL    HW1 3488   5.380   0.348   1.571
  863SOL    HW2 3489   5.407   0.305   1.415
  864SOL     OW 3490   6.185   4.739   3.420
  864SOL    HW1 3491   6.133   4.820   3.393
  864SOL    HW2 3492   6.231   4.756   3.507
  865SOL     OW 3493   1.617   5.113   4.866
  865SOL    HW1 3494   1.699   5.134   4.919
  865SOL    HW2 3495   1.559   5.194   4.861
  866SOL     OW 3496   3.887   6.720   1.284
  866SOL    HW1 3497   3.884   6.801   1.343
  866SOL    HW2 3498   3.859   6.639   1.336
  867SOL     OW 3499   5.723   3.647   5.095
  867SOL    HW1 3500   5.687   3.740   5.109
  867SOL    HW2 3501   5.818   3.653   5.066
  868SOL     OW 3502   0.545   1.475   1.918
  868SOL    HW1 3503   0.640   1.486   1.887
  868SOL    HW2 3504   0.487   1.450   1.840
  869SOL     OW 3505   0.803   3.116   1.941
  869SOL    HW1 3506   0.848   3.169   2.013
  869SOL    HW2 3507   0.843   3.139   1.853
  870SOL     OW 3508   3.721   4.698   1.639
  870SOL    HW1 3509   3.659   4.685   1.716
  870SOL    HW2 3510   3.768   4.612   1.620
  871SOL     OW 3511   4.529   1.760   3.941
  871SOL    HW1 3512   4.516   1.740   4.038
  871SOL    HW2 3513   4.443   1.793   3.902
  872SOL     OW 3514   1.832   2.811   5.468
  872SOL    HW1 3515   1.774   2.735   5.498
  872SOL    HW2 3516   1.908   2.776   5.414
  873SOL     OW 3517   3.736   0.290   6.657
  873SOL    HW1 3518   3.679   0.372   6.646
  873SOL    HW2 3519   3.795   0.300   6.737
  874SOL     OW 3520   6.139   3.944   2.481
  874SOL    HW1 3521   6.148   3.845   2.493
  874SOL    HW2 3522   6.139   3.965   2.383
  875SOL     OW 3523   5.382   5.329   2.349
  875SOL    HW1 3524   5.360   5.408   2.293
  875SOL    HW2 3525   5.448   5.271   2.301
  876SOL     OW 3526   6.158   1.008   6.137
  876SOL    HW1 3527   6.223   1.077   6.167
  876SOL    HW2 3528   6.070   1.023   6.181
  877SOL     OW 3529   1.396   3.390   6.681
  877SOL    HW1 3530   1.378   3.307   6.733
  877SOL    HW2 3531   1.455   3.369   6.603
  878SOL     OW 3532   4.203   6.206   4.419
  878SOL    HW1 3533   4.256   6.124   4.396
  878SOL    HW2 3534   4.203   6.219   4.518
  879SOL     OW 3535   5.777   6.906   6.186
  879SOL    HW1 3536   5.763   6.822   6.238
  879SOL    HW2 3537   5.705   6.972   6.209
  880SOL     OW 3538   3.321   2.987   3.061
  880SOL    HW1 3539   3.264   3.051   3.112
  880SOL    HW2 3540   3.365   2.924   3.125
  881SOL     OW 3541   4.528   2.303   0.650
  881SOL    HW1 3542   4.506   2.252   0.733
  881SOL    HW2 3543   4.513   2.245   0.570
  882SOL     OW 3544   1.832   3.030   3.334
  882SOL    HW1 3545   1.776   3.089   3.276
  882SOL    HW2 3546   1.801   3.037   3.428
  883SOL     OW 3547   2.382   6.653   2.806
  883SOL    HW1 3548   2.448   6.660   2.881
  883SOL    HW2 3549   2.376   6.740   2.758
  884SOL     OW 3550   2.447   3.494   6.080
  884SOL    HW1 3551   2.512   3.418   6.084
  884SOL    HW2 3552   2.486   3.569   6.026
  885SOL     OW 3553   4.239   3.103   6.605
  885SOL    HW1 3554   4.328   3.148   6.602
  885SOL    HW2 3555   4.180   3.151   6.670
  886SOL     OW 3556   3.628   1.841   6.526
  886SOL    HW1 3557   3.603   1.901   6.451
  886SOL    HW2 3558   3.564   1.854   6.602
  887SOL     OW 3559   3.915   0.953   5.289
  887SOL    HW1 3560   3.957   0.977   5.377
  887SOL    HW2 3561   3.938   1.022   5.221
  888SOL     OW 3562   0.818   0.000   2.091
  888SOL    HW1 3563   0.909   0.033   2.116
  888SOL    HW2 3564   0.792   6.946   2.150
  889SOL     OW 3565   0.328   3.882   0.754
  889SOL    HW1 3566   0.312   3.938   0.673
  889SOL    HW2 3567   0.248   3.887   0.814
  890SOL     OW 3568   2.336   5.827   4.651
  890SOL    HW1 3569   2.240   5.812   4.628
  890SOL    HW2 3570   2.391   5.824   4.568
  891SOL     OW 3571   4.878   4.731   2.409
  891SOL    HW1 3572   4.949   4.687   2.354
  891SOL    HW2 3573   4.828   4.797   2.354
  892SOL     OW 3574   2.091   4.446   1.206
  892SOL    HW1 3575   2.129   4.359   1.172
  892SOL    HW2 3576   2.003   4.428   1.251
  893SOL     OW 3577   1.709   5.084   2.716
  893SOL    HW1 3578   1.793   5.110   2.668
  893SOL    HW2 3579   1.658   5.167   2.740
  894SOL     OW 3580   0.889   4.752   1.277
  894SOL    HW1 3581   0.952   4.800   1.217
  894SOL    HW2 3582   0.846   4.676   1.228
  895SOL     OW 3583   6.975   5.251   4.215
  895SOL    HW1 3584   0.016   5.179   4.245
  895SOL    HW2 3585   6.897   5.210   4.168
  896SOL     OW 3586   6.946   1.029   6.179
  896SOL    HW1 3587   6.951   1.068   6.271
  896SOL    HW2 3588   0.007   1.050   6.129
  897SOL     OW 3589   5.697   1.026   0.708
  897SOL    HW1 3590   5.738   1.093   0.646
  897SOL    HW2 3591   5.729   0.935   0.685
  898SOL     OW 3592   3.848   1.564   3.476
  898SOL    HW1 3593   3.790   1.513   3.414
  898SOL    HW2 3594   3.943   1.557   3.445
  899SOL     OW 3595   6.415   6.430   0.178
  899SOL    HW1 3596   6.372   6.389   0.258
  899SOL    HW2 3597   6.368   6.515   0.154
  900SOL     OW 3598   5.337   5.448   6.462
  900SOL    HW1 3599   5.348   5.472   6.366
  900SOL    HW2 3600   5.410   5.490   6.516
  901SOL     OW 3601   1.353   0.888   3.095
  901SOL    HW1 3602   1.399   0.815   3.045
  901SOL    HW2 3603   1.274   0.920   3.044
  902SOL     OW 3604   0.068   3.294   1.994
  902SOL    HW1 3605   7.000   3.271   2.032
  902SOL    HW2 3606   0.138   3.271   2.061
  903SOL     OW 3607   6.670   0.784   0.423
  903SOL    HW1 3608   6.579   0.792   0.464
  903SOL    HW2 3609   6.739   0.778   0.496
  904SOL     OW 3610   2.817   1.234   3.313
  904SOL    HW1 3611   2.757   1.233   3.392
  904SOL    HW2 3612   2.865   1.146   3.306
  905SOL     OW 3613   5.892   2.217   6.050
  905SOL    HW1 3614   5.906   2.242   6.146
  905SOL    HW2 3615   5.893   2.300   5.993
  906SOL     OW 3616   5.882   3.500   0.758
  906SOL    HW1 3617   5.797   3.528   0.713
  906SOL    HW2 3618   5.958   3.510   0.695
  907SOL     OW 3619   5.831   4.287   6.986
  907SOL    HW1 3620   5.796   4.308   6.894
  907SOL    HW2 3621   5.814   4.190   7.007
  908SOL     OW 3622   0.403   3.714   3.002
  908SOL    HW1 3623   0.385   3.693   3.098
  908SOL    HW2 3624   0.341   3.661   2.944
  909SOL     OW 3625   5.340   4.839   6.163
  909SOL    HW1 3626   5.295   4.889   6.089
  909SOL    HW2 3627   5.331   4.741   6.147
  910SOL     OW 3628   3.344   4.893   0.101
  910SOL    HW1 3629   3.349   4.799   0.134
  910SOL    HW2 3630   3.322   4.894   0.004
  911SOL     OW 3631   1.260   4.588   6.226
  911SOL    HW1 3632   1.244   4.647   6.147
  911SOL    HW2 3633   1.228   4.495   6.205
  912SOL     OW 3634   5.026   1.395   5.395
  912SOL    HW1 3635   5.034   1.477   5.451
  912SOL    HW2 3636   4.957   1.334   5.435
  913SOL     OW 3637   4.886   5.960   3.153
  913SOL    HW1 3638   4.930   6.047   3.133
  913SOL    HW2 3639   4.797   5.976   3.196
  914SOL     OW 3640   2.924   6.690   5.407
  914SOL    HW1 3641   2.978   6.642   5.339
  914SOL    HW2 3642   2.872   6.625   5.462
  915SOL     OW 3643   5.511   5.271   1.814
  915SOL    HW1 3644   5.515   5.310   1.722
  915SOL    HW2 3645   5.600   5.280   1.858
  916SOL     OW 3646   0.984   3.737   3.039
  916SOL    HW1 3647   0.901   3.703   2.993
  916SOL    HW2 3648   0.958   3.804   3.109
  917SOL     OW 3649   0.407   0.042   6.528
  917SOL    HW1 3650   0.364   7.001   6.463
  917SOL    HW2 3651   0.484   0.088   6.483
  918SOL     OW 3652   3.486   6.155   6.805
  918SOL    HW1 3653   3.501   6.111   6.894
  918SOL    HW2 3654   3.518   6.250   6.810
  919SOL     OW 3655   4.596   0.825   6.351
  919SOL    HW1 3656   4.536   0.746   6.336
  919SOL    HW2 3657   4.542   0.901   6.387
  920SOL     OW 3658   3.158   4.800   1.872
  920SOL    HW1 3659   3.083   4.763   1.816
  920SOL    HW2 3660   3.245   4.758   1.843
  921SOL     OW 3661   4.871   5.582   5.154
  921SOL    HW1 3662   4.797   5.531   5.110
  921SOL    HW2 3663   4.860   5.579   5.253
  922SOL     OW 3664   3.401   3.939   3.173
  922SOL    HW1 3665   3.475   4.002   3.148
  922SOL    HW2 3666   3.435   3.874   3.241
  923SOL     OW 3667   2.371   3.989   5.660
  923SOL    HW1 3668   2.282   4.003   5.616
  923SOL    HW2 3669   2.358   3.956   5.753
  924SOL     OW 3670   0.895   3.366   1.190
  924SOL    HW1 3671   0.989   3.395   1.170
  924SOL    HW2 3672   0.898   3.288   1.253
  925SOL     OW 3673   0.596   1.465   6.769
  925SOL    HW1 3674   0.637   1.399   6.833
  925SOL    HW2 3675   0.669   1.521   6.728
  926SOL     OW 3676   2.164   1.993   1.413
  926SOL    HW1 3677   2.128   1.947   1.495
  926SOL    HW2 3678   2.089   2.039   1.366
  927SOL     OW 3679   6.443   3.159   5.136
  927SOL    HW1 3680   6.524   3.134   5.082
  927SOL    HW2 3681   6.466   3.237   5.195
  928SOL     OW 3682   2.827   4.936   6.084
  928SOL    HW1 3683   2.778   4.994   6.149
  928SOL    HW2 3684   2.876   4.993   6.018
  929SOL     OW 3685   0.941   1.981   4.875
  929SOL    HW1 3686   1.038   1.957   4.874
  929SOL    HW2 3687   0.893   1.919   4.937
  930SOL     OW 3688   5.952   5.172   5.208
  930SOL    HW1 3689   5.959   5.089   5.263
  930SOL    HW2 3690   6.037   5.185   5.156
  931SOL     OW 3691   6.278   0.827   3.613
  931SOL    HW1 3692   6.180   0.832   3.593
  931SOL    HW2 3693   6.294   0.757   3.683
  932SOL     OW 3694   4.129   6.822   3.675
  932SOL    HW1 3695   4.134   6.921   3.664
  932SOL    HW2 3696   4.105   6.779   3.588
  933SOL     OW 3697   1.203   5.845   2.060
  933SOL    HW1 3698   1.139   5.792   2.004
  933SOL    HW2 3699   1.216   5.935   2.018
  934SOL     OW 3700   1.974   3.214   0.731
  934SOL    HW1 3701   1.877   3.191   0.734
  934SOL    HW2 3702   2.011   3.214   0.824
  935SOL     OW 3703   5.462   2.738   5.288
  935SOL    HW1 3704   5.378   2.779   5.324
  935SOL    HW2 3705   5.493   2.790   5.209
  936SOL     OW 3706   2.058   0.748   6.438
  936SOL    HW1 3707   2.005   0.673   6.399
  936SOL    HW2 3708   2.107   0.796   6.365
  937SOL     OW 3709   3.170   2.387   6.326
  937SOL    HW1 3710   3.125   2.359   6.411
  937SOL    HW2 3711   3.102   2.394   6.253
  938SOL     OW 3712   4.834   6.230   5.227
  938SOL    HW1 3713   4.870   6.285   5.152
  938SOL    HW2 3714   4.909   6.181   5.271
  939SOL     OW 3715   1.452   0.262   4.725
  939SOL    HW1 3716   1.495   0.177   4.695
  939SOL    HW2 3717   1.494   0.340   4.677
  940SOL     OW 3718   1.816   5.359   0.558
  940SOL    HW1 3719   1.911   5.346   0.587
  940SOL    HW2 3720   1.757   5.299   0.612
  941SOL     OW 3721   3.747   6.814   1.038
  941SOL    HW1 3722   3.780   6.803   1.132
  941SOL    HW2 3723   3.804   6.880   0.990
  942SOL     OW 3724   6.539   5.056   0.248
  942SOL    HW1 3725   6.450   5.055   0.294
  942SOL    HW2 3726   6.526   5.039   0.151
  943SOL     OW 3727   3.733   6.083   1.084
  943SOL    HW1 3728   3.819   6.130   1.107
  943SOL    HW2 3729   3.656   6.136   1.118
  944SOL     OW 3730   6.139   6.283   3.194
  944SOL    HW1 3731   6.149   6.343   3.273
  944SOL    HW2 3732   6.128   6.188   3.225
  945SOL     OW 3733   0.229   5.367   6.856
  945SOL    HW1 3734   0.252   5.434   6.784
  945SOL    HW2 3735   0.289   5.288   6.848
  946SOL     OW 3736   5.688   1.881   3.912
  946SOL    HW1 3737   5.609   1.933   3.880
  946SOL    HW2 3738   5.772   1.927   3.883
  947SOL     OW 3739   3.904   3.943   2.959
  947SOL    HW1 3740   3.940   3.995   2.882
  947SOL    HW2 3741   3.978   3.898   3.008
  948SOL     OW 3742   3.417   1.462   3.782
  948SOL    HW1 3743   3.508   1.451   3.822
  948SOL    HW2 3744   3.417   1.428   3.688
  949SOL     OW 3745   2.696   6.867   5.353
  949SOL    HW1 3746   2.759   6.789   5.356
  949SOL    HW2 3747   2.712   6.919   5.269
  950SOL     OW 3748   0.212   6.785   1.752
  950SOL    HW1 3749   0.219   6.776   1.653
  950SOL    HW2 3750   0.127   6.832   1.775
  951SOL     OW 3751   1.449   0.295   3.177
  951SOL    HW1 3752   1.466   0.392   3.160
  951SOL    HW2 3753   1.432   0.249   3.090
  952SOL     OW 3754   3.627   1.713   2.708
  952SOL    HW1 3755   3.660   1.780   2.775
  952SOL    HW2 3756   3.533   1.735   2.683
  953SOL     OW 3757   1.012   6.075   5.889
  953SOL    HW1 3758   0.950   6.148   5.858
  953SOL    HW2 3759   1.047   6.097   5.980
  954SOL     OW 3760   4.494   6.924   2.537
  954SOL    HW1 3761   4.479   6.934   2.635
  954SOL    HW2 3762   4.413   6.958   2.488
  955SOL     OW 3763   3.290   4.634   1.686
  955SOL    HW1 3764   3.384   4.648   1.716
  955SOL    HW2 3765   3.290   4.578   1.603
  956SOL     OW 3766   3.327   0.200   1.076
  956SOL    HW1 3767   3.327   0.184   1.175
  956SOL    HW2 3768   3.421   0.200   1.042
  957SOL     OW 3769   5.887   6.915   3.204
  957SOL    HW1 3770   5.884   6.931   3.303
  957SOL    HW2 3771   5.953   6.978   3.162
  958SOL     OW 3772   5.757   5.833   1.659
  958SOL    HW1 3773   5.796   5.885   1.583
  958SOL    HW2 3774   5.669   5.872   1.685
  959SOL     OW 3775   4.720   0.153   2.402
  959SOL    HW1 3776   4.711   0.105   2.315
  959SOL    HW2 3777   4.633   0.195   2.427
  960SOL     OW 3778   1.156   6.274   5.552
  960SOL    HW1 3779   1.115   6.363   5.571
  960SOL    HW2 3780   1.236   6.286   5.493
  961SOL     OW 3781   3.971   1.191   3.818
  961SOL    HW1 3782   3.956   1.128   3.741
  961SOL    HW2 3783   3.940   1.282   3.792
  962SOL     OW 3784   6.958   0.201   4.835
  962SOL    HW1 3785   7.010   0.195   4.750
  962SOL    HW2 3786   6.929   0.110   4.864
  963SOL     OW 3787   5.983   2.436   1.240
  963SOL    HW1 3788   5.913   2.463   1.307
  963SOL    HW2 3789   5.939   2.412   1.154
  964SOL     OW 3790   3.772   6.437   5.062
  964SOL    HW1 3791   3.718   6.365   5.019
  964SOL    HW2 3792   3.714   6.490   5.124
  965SOL     OW 3793   4.829   1.642   4.171
  965SOL    HW1 3794   4.890   1.669   4.246
  965SOL    HW2 3795   4.785   1.555   4.194
  966SOL     OW 3796   5.105   0.899   3.263
  966SOL    HW1 3797   5.078   0.912   3.358
  966SOL    HW2 3798   5.131   0.988   3.223
  967SOL     OW 3799   3.698   5.465   5.827
  967SOL    HW1 3800   3.788   5.424   5.842
  967SOL    HW2 3801   3.708   5.562   5.805
  968SOL     OW 3802   4.095   0.375   1.566
  968SOL    HW1 3803   3.999   0.357   1.585
  968SOL    HW2 3804   4.103   0.422   1.478
  969SOL     OW 3805   2.779   3.647   6.787
  969SOL    HW1 3806   2.784   3.700   6.872
  969SOL    HW2 3807   2.749   3.554   6.808
  970SOL     OW 3808   4.330   5.984   5.524
  970SOL    HW1 3809   4.231   5.999   5.520
  970SOL    HW2 3810   4.373   6.025   5.443
  971SOL     OW 3811   5.127   3.248   3.381
  971SOL    HW1 3812   5.114   3.314   3.308
  971SOL    HW2 3813   5.193   3.179   3.353
  972SOL     OW 3814   0.529   1.740   0.761
  972SOL    HW1 3815   0.496   1.658   0.809
  972SOL    HW2 3816   0.555   1.809   0.828
  973SOL     OW 3817   6.394   2.673   4.940
  973SOL    HW1 3818   6.494   2.665   4.939
  973SOL    HW2 3819   6.369   2.770   4.942
  974SOL     OW 3820   1.325   3.345   1.613
  974SOL    HW1 3821   1.348   3.316   1.706
  974SOL    HW2 3822   1.383   3.297   1.547
  975SOL     OW 3823   3.111   0.443   1.735
  975SOL    HW1 3824   3.170   0.523   1.729
  975SOL    HW2 3825   3.167   0.361   1.752
  976SOL     OW 3826   0.088   2.986   3.905
  976SOL    HW1 3827   0.002   2.955   3.945
  976SOL    HW2 3828   0.132   2.910   3.858
  977SOL     OW 3829   6.531   1.444   2.021
  977SOL    HW1 3830   6.542   1.455   1.923
  977SOL    HW2 3831   6.621   1.438   2.065
  978SOL     OW 3832   5.626   1.931   0.851
  978SOL    HW1 3833   5.726   1.931   0.857
  978SOL    HW2 3834   5.597   2.002   0.787
  979SOL     OW 3835   0.250   5.079   6.458
  979SOL    HW1 3836   0.215   5.143   6.526
  979SOL    HW2 3837   0.227   5.111   6.366
  980SOL     OW 3838   4.876   1.581   3.737
  980SOL    HW1 3839   4.778   1.566   3.751
  980SOL    HW2 3840   4.890   1.634   3.654
  981SOL     OW 3841   0.650   5.997   5.521
  981SOL    HW1 3842   0.550   5.996   5.526
  981SOL    HW2 3843   0.688   5.947   5.599
  982SOL     OW 3844   0.279   1.130   6.600
  982SOL    HW1 3845   0.235   1.114   6.512
  982SOL    HW2 3846   0.221   1.190   6.656
  983SOL     OW 3847   6.893   3.864   2.253
  983SOL    HW1 3848   6.846   3.951   2.237
  983SOL    HW2 3849   6.941   3.836   2.170
  984SOL     OW 3850   0.393   3.550   3.730
  984SOL    HW1 3851   0.315   3.603   3.765
  984SOL    HW2 3852   0.380   3.533   3.632
  985SOL     OW 3853   5.473   5.115   5.628
  985SOL    HW1 3854   5.532   5.121   5.709
  985SOL    HW2 3855   5.381   5.144   5.652
  986SOL     OW 3856   3.898   5.446   1.696
  986SOL    HW1 3857   3.854   5.407   1.615
  986SOL    HW2 3858   3.924   5.372   1.759
  987SOL     OW 3859   4.508   4.519   4.496
  987SOL    HW1 3860   4.547   4.427   4.502
  987SOL    HW2 3861   4.435   4.529   4.563
  988SOL     OW 3862   3.009   4.906   2.272
  988SOL    HW1 3863   2.927   4.862   2.235
  988SOL    HW2 3864   3.090   4.874   2.222
  989SOL     OW 3865   0.510   2.811   1.381
  989SOL    HW1 3866   0.492   2.897   1.333
  989SOL    HW2 3867   0.604   2.782   1.365
  990SOL     OW 3868   3.639   0.030   5.027
  990SOL    HW1 3869   3.666   0.117   5.066
  990SOL    HW2 3870   3.698   0.009   4.949
  991SOL     OW 3871   1.728   6.354   3.822
  991SOL    HW1 3872   1.715   6.430   3.886
  991SOL    HW2 3873   1.667   6.279   3.847
  992SOL     OW 3874   6.430   3.380   0.736
  992SOL    HW1 3875   6.457   3.325   0.815
  992SOL    HW2 3876   6.463   3.337   0.653
  993SOL     OW 3877   1.994   5.522   6.413
  993SOL    HW1 3878   1.991   5.422   6.405
  993SOL    HW2 3879   2.056   5.547   6.488
  994SOL     OW 3880   2.919   6.923   1.541
  994SOL    HW1 3881   2.969   6.973   1.611
  994SOL    HW2 3882   2.902   6.983   1.463
  995SOL     OW 3883   5.427   4.380   5.456
  995SOL    HW1 3884   5.525   4.361   5.448
  995SOL    HW2 3885   5.375   4.309   5.408
  996SOL     OW 3886   4.111   6.617   5.277
  996SOL    HW1 3887   4.193   6.643   5.329
  996SOL    HW2 3888   4.038   6.682   5.296
  997SOL     OW 3889   1.414   6.221   3.417
  997SOL    HW1 3890   1.434   6.161   3.340
  997SOL    HW2 3891   1.366   6.170   3.488
  998SOL     OW 3892   4.600   0.299   0.343
  998SOL    HW1 3893   4.605   0.303   0.243
  998SOL    HW2 3894   4.546   0.376   0.377
  999SOL     OW 3895   5.914   3.310   2.571
  999SOL    HW1 3896   5.855   3.318   2.651
  999SOL    HW2 3897   5.927   3.214   2.548
 1000SOL     OW 3898   5.878   1.813   2.045
 1000SOL    HW1 3899   5.975   1.790   2.044
 1000SOL    HW2 3900   5.824   1.729   2.051
 1001SOL     OW 3901   2.264   6.609   3.393
 1001SOL    HW1 3902   2.218   6.685   3.440
 1001SOL    HW2 3903   2.199   6.560   3.336
 1002SOL     OW 3904   4.046   2.526   0.397
 1002SOL    HW1 3905   4.063   2.492   0.304
 1002SOL    HW2 3906   4.131   2.562   0.436
 1003SOL     OW 3907   0.740   1.336   3.929
 1003SOL    HW1 3908   0.735   1.239   3.905
 1003SOL    HW2 3909   0.825   1.375   3.892
 1004SOL     OW 3910   4.532   1.128   4.768
 1004SOL    HW1 3911   4.492   1.207   4.814
 1004SOL    HW2 3912   4.461   1.063   4.744
 1005SOL     OW 3913   0.791   5.934   2.043
 1005SOL    HW1 3914   0.806   5.838   2.021
 1005SOL    HW2 3915   0.801   5.948   2.141
 1006SOL     OW 3916   1.778   4.609   1.110
 1006SOL    HW1 3917   1.761   4.530   1.051
 1006SOL    HW2 3918   1.718   4.605   1.190
 1007SOL     OW 3919   4.698   1.116   6.241
 1007SOL    HW1 3920   4.653   1.050   6.302
 1007SOL    HW2 3921   4.755   1.068   6.176
 1008SOL     OW 3922   0.373   4.480   4.534
 1008SOL    HW1 3923   0.377   4.501   4.631
 1008SOL    HW2 3924   0.456   4.514   4.489
 1009SOL     OW 3925   6.280   6.264   6.479
 1009SOL    HW1 3926   6.269   6.269   6.579
 1009SOL    HW2 3927   6.376   6.281   6.455
 1010SOL     OW 3928   3.355   3.966   0.574
 1010SOL    HW1 3929   3.342   3.910   0.656
 1010SOL    HW2 3930   3.276   4.026   0.562
 1011SOL     OW 3931   0.022   5.301   2.280
 1011SOL    HW1 3932   7.007   5.306   2.372
 1011SOL    HW2 3933   0.100   5.362   2.273
 1012SOL     OW 3934   5.434   6.140   3.351
 1012SOL    HW1 3935   5.341   6.133   3.386
 1012SOL    HW2 3936   5.478   6.221   3.391
 1013SOL     OW 3937   0.527   1.039   6.506
 1013SOL    HW1 3938   0.611   1.081   6.539
 1013SOL    HW2 3939   0.449   1.099   6.527
 1014SOL     OW 3940   0.816   4.666   4.277
 1014SOL    HW1 3941   0.839   4.638   4.184
 1014SOL    HW2 3942   0.899   4.679   4.329
 1015SOL     OW 3943   3.224   6.409   0.012
 1015SOL    HW1 3944   3.269   6.417   0.101
 1015SOL    HW2 3945   3.184   6.318   0.004
 1016SOL     OW 3946   6.857   4.926   0.302
 1016SOL    HW1 3947   6.911   4.848   0.330
 1016SOL    HW2 3948   6.831   4.917   0.206
 1017SOL     OW 3949   1.912   0.927   2.348
 1017SOL    HW1 3950   1.909   0.924   2.448
 1017SOL    HW2 3951   1.924   1.021   2.318
 1018SOL     OW 3952   5.603   6.347   5.715
 1018SOL    HW1 3953   5.558   6.319   5.800
 1018SOL    HW2 3954   5.701   6.329   5.721
 1019SOL     OW 3955   6.322   3.242   1.689
 1019SOL    HW1 3956   6.308   3.338   1.715
 1019SOL    HW2 3957   6.413   3.232   1.647
 1020SOL     OW 3958   5.127   0.937   1.007
 1020SOL    HW1 3959   5.131   1.026   0.963
 1020SOL    HW2 3960   5.051   0.935   1.072
 1021SOL     OW 3961   1.649   6.702   0.606
 1021SOL    HW1 3962   1.555   6.735   0.600
 1021SOL    HW2 3963   1.651   6.605   0.580
 1022SOL     OW 3964   1.592   5.320   6.032
 1022SOL    HW1 3965   1.532   5.240   6.034
 1022SOL    HW2 3966   1.546   5.397   6.075
 1023SOL     OW 3967   1.047   1.401   2.018
 1023SOL    HW1 3968   1.043   1.399   2.118
 1023SOL    HW2 3969   1.141   1.418   1.989
 1024SOL     OW 3970   1.936   2.522   4.204
 1024SOL    HW1 3971   2.003   2.494   4.273
 1024SOL    HW2 3972   1.972   2.600   4.153
 1025SOL     OW 3973   4.628   4.255   0.931
 1025SOL    HW1 3974   4.686   4.270   1.011
 1025SOL    HW2 3975   4.537   4.225   0.962
 1026SOL     OW 3976   3.153   2.847   1.728
 1026SOL    HW1 3977   3.130   2.751   1.741
 1026SOL    HW2 3978   3.132   2.899   1.811
 1027SOL     OW 3979   6.452   6.956   0.100
 1027SOL    HW1 3980   6.477   7.015   0.023
 1027SOL    HW2 3981   6.533   6.909   0.133
 1028SOL     OW 3982   1.039   5.036   3.366
 1028SOL    HW1 3983   0.990   5.024   3.280
 1028SOL    HW2 3984   1.103   5.112   3.358
 1029SOL     OW 3985   0.561   0.909   5.048
 1029SOL    HW1 3986   0.615   0.961   5.115
 1029SOL    HW2 3987   0.581   0.942   4.956
 1030SOL     OW 3988   4.051   3.708   0.768
 1030SOL    HW1 3989   4.107   3.744   0.694
 1030SOL    HW2 3990   4.111   3.674   0.841
 1031SOL     OW 3991   4.230   2.642   0.578
 1031SOL    HW1 3992   4.179   2.667   0.660
 1031SOL    HW2 3993   4.249   2.723   0.523
 1032SOL     OW 3994   1.076   0.894   1.538
 1032SOL    HW1 3995   1.073   0.974   1.598
 1032SOL    HW2 3996   1.049   0.812   1.589
 1033SOL     OW 3997   6.266   6.764   2.166
 1033SOL    HW1 3998   6.174   6.799   2.149
 1033SOL    HW2 3999   6.333   6.832   2.136
 1034SOL     OW 4000   2.093   0.929   5.362
 1034SOL    HW1 4001   2.182   0.952   5.402
 1034SOL    HW2 4002   2.087   0.830   5.346
 1035SOL     OW 4003   1.510   0.516   0.298
 1035SOL    HW1 4004   1.503   0.616   0.293
 1035SOL    HW2 4005   1.562   0.491   0.380
 1036SOL     OW 4006   5.317   1.335   2.461
 1036SOL    HW1 4007   5.258   1.271   2.411
 1036SOL    HW2 4008   5.403   1.347   2.410
 1037SOL     OW 4009   1.326   3.799   2.850
 1037SOL    HW1 4010   1.281   3.725   2.799
 1037SOL    HW2 4011   1.302   3.793   2.946
 1038SOL     OW 4012   1.704   6.355   6.888
 1038SOL    HW1 4013   1.745   6.404   6.812
 1038SOL    HW2 4014   1.653   6.419   6.946
 1039SOL     OW 4015   2.923   3.826   3.010
 1039SOL    HW1 4016   2.843   3.859   3.059
 1039SOL    HW2 4017   2.998   3.891   3.020
 1040SOL     OW 4018   3.743   1.408   2.780
 1040SOL    HW1 4019   3.671   1.349   2.814
 1040SOL    HW2 4020   3.711   1.503   2.779
 1041SOL     OW 4021   6.788   6.838   6.923
 1041SOL    HW1 4022   6.751   6.811   6.834
 1041SOL    HW2 4023   6.713   6.867   6.983
 1042SOL     OW 4024   5.496   3.622   3.986
 1042SOL    HW1 4025   5.539   3.534   3.967
 1042SOL    HW2 4026   5.519   3.687   3.914
 1043SOL     OW 4027   2.648   2.077   3.483
 1043SOL    HW1 4028   2.559   2.092   3.528
 1043SOL    HW2 4029   2.695   2.164   3.472
 1044SOL     OW 4030   5.592   4.570   2.203
 1044SOL    HW1 4031   5.618   4.474   2.195
 1044SOL    HW2 4032   5.673   4.627   2.188
 1045SOL     OW 4033   2.368   0.440   2.520
 1045SOL    HW1 4034   2.356   0.483   2.610
 1045SOL    HW2 4035   2.305   0.363   2.511
 1046SOL     OW 4036   3.145   2.647   0.623
 1046SOL    HW1 4037   3.190   2.684   0.704
 1046SOL    HW2 4038   3.076   2.712   0.591
 1047SOL     OW 4039   3.802   0.725   3.565
 1047SOL    HW1 4040   3.749   0.747   3.647
 1047SOL    HW2 4041   3.740   0.726   3.485
 1048SOL     OW 4042   0.327   6.954   2.370
 1048SOL    HW1 4043   0.385   6.890   2.419
 1048SOL    HW2 4044   0.382   7.009   2.308
 1049SOL     OW 4045   3.545   0.101   0.835
 1049SOL    HW1 4046   3.453   0.116   0.800
 1049SOL    HW2 4047   3.569   0.176   0.897
 1050SOL     OW 4048   2.219   1.981   4.508
 1050SOL    HW1 4049   2.285   1.921   4.553
 1050SOL    HW2 4050   2.134   1.932   4.492
 1051SOL     OW 4051   1.539   2.288   5.294
 1051SOL    HW1 4052   1.579   2.201   5.267
 1051SOL    HW2 4053   1.471   2.273   5.367
 1052SOL     OW 4054   4.430   2.304   6.306
 1052SOL    HW1 4055   4.368   2.342   6.375
 1052SOL    HW2 4056   4.411   2.206   6.295
 1053SOL     OW 4057   4.711   2.732   3.950
 1053SOL    HW1 4058   4.676   2.818   3.914
 1053SOL    HW2 4059   4.704   2.731   4.049
 1054SOL     OW 4060   4.962   5.299   6.756
 1054SOL    HW1 4061   4.993   5.363   6.685
 1054SOL    HW2 4062   4.869   5.322   6.783
 1055SOL     OW 4063   5.411   5.544   6.222
 1055SOL    HW1 4064   5.459   5.626   6.190
 1055SOL    HW2 4065   5.439   5.466   6.167
 1056SOL     OW 4066   3.870   3.758   0.368
 1056SOL    HW1 4067   3.966   3.765   0.338
 1056SOL    HW2 4068   3.815   3.826   0.319
 1057SOL     OW 4069   2.741   3.332   6.312
 1057SOL    HW1 4070   2.696   3.323   6.222
 1057SOL    HW2 4071   2.743   3.242   6.356
 1058SOL     OW 4072   3.047   2.140   1.876
 1058SOL    HW1 4073   3.017   2.221   1.926
 1058SOL    HW2 4074   3.128   2.162   1.823
 1059SOL     OW 4075   2.168   5.719   2.561
 1059SOL    HW1 4076   2.126   5.763   2.482
 1059SOL    HW2 4077   2.129   5.756   2.645
 1060SOL     OW 4078   6.603   0.146   5.393
 1060SOL    HW1 4079   6.685   0.196   5.421
 1060SOL    HW2 4080   6.523   0.205   5.407
 1061SOL     OW 4081   0.125   3.520   6.762
 1061SOL    HW1 4082   0.193   3.457   6.801
 1061SOL    HW2 4083   0.169   3.607   6.739
 1062SOL     OW 4084   3.451   4.682   5.783
 1062SOL    HW1 4085   3.520   4.754   5.788
 1062SOL    HW2 4086   3.361   4.721   5.802
 1063SOL     OW 4087   2.816   6.509   4.085
 1063SOL    HW1 4088   2.863   6.451   4.018
 1063SOL    HW2 4089   2.859   6.498   4.175
 1064SOL     OW 4090   0.966   4.483   0.704
 1064SOL    HW1 4091   0.872   4.516   0.716
 1064SOL    HW2 4092   0.967   4.383   0.706
 1065SOL     OW 4093   5.598   0.654   5.010
 1065SOL    HW1 4094   5.609   0.656   5.109
 1065SOL    HW2 4095   5.547   0.735   4.981
 1066SOL     OW 4096   4.586   6.167   0.672
 1066SOL    HW1 4097   4.564   6.075   0.642
 1066SOL    HW2 4098   4.682   6.187   0.654
 1067SOL     OW 4099   3.383   0.998   0.367
 1067SOL    HW1 4100   3.392   1.096   0.385
 1067SOL    HW2 4101   3.437   0.946   0.433
 1068SOL     OW 4102   5.902   2.973   2.174
 1068SOL    HW1 4103   5.873   3.037   2.246
 1068SOL    HW2 4104   5.997   2.989   2.151
 1069SOL     OW 4105   6.947   2.423   2.578
 1069SOL    HW1 4106   7.005   2.423   2.497
 1069SOL    HW2 4107   6.852   2.406   2.551
 1070SOL     OW 4108   0.683   0.865   2.460
 1070SOL    HW1 4109   0.698   0.771   2.491
 1070SOL    HW2 4110   0.618   0.864   2.384
 1071SOL     OW 4111   0.674   2.743   5.806
 1071SOL    HW1 4112   0.730   2.798   5.743
 1071SOL    HW2 4113   0.603   2.696   5.755
 1072SOL     OW 4114   2.509   1.259   1.981
 1072SOL    HW1 4115   2.532   1.356   1.985
 1072SOL    HW2 4116   2.508   1.230   1.885
 1073SOL     OW 4117   5.203   2.037   2.848
 1073SOL    HW1 4118   5.109   2.004   2.844
 1073SOL    HW2 4119   5.256   1.995   2.774
 1074SOL     OW 4120   3.373   5.575   2.021
 1074SOL    HW1 4121   3.283   5.583   2.063
 1074SOL    HW2 4122   3.442   5.566   2.092
 1075SOL     OW 4123   6.942   3.487   4.702
 1075SOL    HW1 4124   6.881   3.444   4.768
 1075SOL    HW2 4125   6.936   3.587   4.710
 1076SOL     OW 4126   2.345   4.209   5.286
 1076SOL    HW1 4127   2.359   4.117   5.250
 1076SOL    HW2 4128   2.380   4.276   5.220
 1077SOL     OW 4129   6.916   6.300   0.750
 1077SOL    HW1 4130   6.828   6.347   0.757
 1077SOL    HW2 4131   6.984   6.363   0.713
 1078SOL     OW 4132   5.626   6.602   4.165
 1078SOL    HW1 4133   5.656   6.513   4.201
 1078SOL    HW2 4134   5.543   6.630   4.212
 1079SOL     OW 4135   1.160   5.948   1.506
 1079SOL    HW1 4136   1.069   5.937   1.545
 1079SOL    HW2 4137   1.167   6.038   1.463
 1080SOL     OW 4138   4.937   5.862   0.197
 1080SOL    HW1 4139   5.027   5.820   0.191
 1080SOL    HW2 4140   4.885   5.841   0.114
 1081SOL     OW 4141   6.774   6.670   3.291
 1081SOL    HW1 4142   6.686   6.675   3.245
 1081SOL    HW2 4143   6.764   6.701   3.386
 1082SOL     OW 4144   4.449   0.048   0.004
 1082SOL    HW1 4145   4.391   6.989   0.014
 1082SOL    HW2 4146   4.483   0.053   6.933
 1083SOL     OW 4147   6.334   4.246   2.210
 1083SOL    HW1 4148   6.255   4.306   2.197
 1083SOL    HW2 4149   6.418   4.297   2.189
 1084SOL     OW 4150   4.231   0.909   5.461
 1084SOL    HW1 4151   4.165   0.962   5.514
 1084SOL    HW2 4152   4.209   0.915   5.364
 1085SOL     OW 4153   1.659   3.313   4.873
 1085SOL    HW1 4154   1.612   3.242   4.822
 1085SOL    HW2 4155   1.594   3.356   4.936
 1086SOL     OW 4156   5.857   4.564   2.090
 1086SOL    HW1 4157   5.823   4.470   2.084
 1086SOL    HW2 4158   5.848   4.609   2.002
 1087SOL     OW 4159   3.918   0.130   5.963
 1087SOL    HW1 4160   3.964   0.195   6.025
 1087SOL    HW2 4161   3.949   0.037   5.984
 1088SOL     OW 4162   6.367   5.119   4.444
 1088SOL    HW1 4163   6.446   5.175   4.421
 1088SOL    HW2 4164   6.310   5.106   4.362
 1089SOL     OW 4165   5.937   5.115   4.367
 1089SOL    HW1 4166   5.902   5.164   4.446
 1089SOL    HW2 4167   5.996   5.040   4.397
 1090SOL     OW 4168   6.041   2.729   5.024
 1090SOL    HW1 4169   6.072   2.634   5.025
 1090SOL    HW2 4170   5.956   2.737   5.077
 1091SOL     OW 4171   2.128   3.798   3.024
 1091SOL    HW1 4172   2.153   3.809   2.928
 1091SOL    HW2 4173   2.072   3.716   3.035
 1092SOL     OW 4174   1.256   6.504   0.289
 1092SOL    HW1 4175   1.329   6.450   0.248
 1092SOL    HW2 4176   1.169   6.456   0.279
 1093SOL     OW 4177   1.726   0.578   3.118
 1093SOL    HW1 4178   1.778   0.646   3.066
 1093SOL    HW2 4179   1.756   0.486   3.093
 1094SOL     OW 4180   0.101   6.905   3.102
 1094SOL    HW1 4181   0.009   6.938   3.123
 1094SOL    HW2 4182   0.152   6.976   3.054
 1095SOL     OW 4183   6.250   3.810   1.150
 1095SOL    HW1 4184   6.208   3.841   1.236
 1095SOL    HW2 4185   6.199   3.732   1.114
 1096SOL     OW 4186   1.917   5.962   1.979
 1096SOL    HW1 4187   1.895   6.020   2.057
 1096SOL    HW2 4188   2.001   5.910   1.998
 1097SOL     OW 4189   3.129   6.135   4.919
 1097SOL    HW1 4190   3.106   6.093   5.007
 1097SOL    HW2 4191   3.141   6.233   4.931
 1098SOL     OW 4192   6.757   4.278   0.081
 1098SOL    HW1 4193   6.799   4.188   0.083
 1098SOL    HW2 4194   6.818   4.345   0.124
 1099SOL     OW 4195   5.490   0.145   6.964
 1099SOL    HW1 4196   5.553   0.223   6.966
 1099SOL    HW2 4197   5.452   0.134   6.873
 1100SOL     OW 4198   4.752   1.376   4.217
 1100SOL    HW1 4199   4.830   1.355   4.158
 1100SOL    HW2 4200   4.701   1.293   4.236
 1101SOL     OW 4201   5.031   3.054   6.844
 1101SOL    HW1 4202   4.943   3.021   6.879
 1101SOL    HW2 4203   5.099   2.981   6.850
 1102SOL     OW 4204   3.394   0.978   4.273
 1102SOL    HW1 4205   3.334   1.015   4.343
 1102SOL    HW2 4206   3.435   0.893   4.306
 1103SOL     OW 4207   3.387   6.633   0.867
 1103SOL    HW1 4208   3.451   6.695   0.822
 1103SOL    HW2 4209   3.302   6.681   0.886
 1104SOL     OW 4210   6.361   1.402   3.381
 1104SOL    HW1 4211   6.356   1.316   3.330
 1104SOL    HW2 4212   6.436   1.398   3.446
 1105SOL     OW 4213   4.840   0.917   6.114
 1105SOL    HW1 4214   4.921   0.923   6.055
 1105SOL    HW2 4215   4.823   0.821   6.136
 1106SOL     OW 4216   5.971   1.571   1.752
 1106SOL    HW1 4217   6.018   1.637   1.693
 1106SOL    HW2 4218   5.872   1.585   1.745
 1107SOL     OW 4219   1.658   2.142   6.733
 1107SOL    HW1 4220   1.753   2.125   6.708
 1107SOL    HW2 4221   1.644   2.123   6.830
 1108SOL     OW 4222   2.433   1.618   3.287
 1108SOL    HW1 4223   2.360   1.578   3.232
 1108SOL    HW2 4224   2.457   1.708   3.251
 1109SOL     OW 4225   4.836   1.614   5.123
 1109SOL    HW1 4226   4.834   1.519   5.153
 1109SOL    HW2 4227   4.925   1.654   5.144
 1110SOL     OW 4228   1.236   0.897   2.817
 1110SOL    HW1 4229   1.280   0.834   2.753
 1110SOL    HW2 4230   1.155   0.854   2.857
 1111SOL     OW 4231   5.637   2.926   6.080
 1111SOL    HW1 4232   5.709   2.994   6.091
 1111SOL    HW2 4233   5.584   2.946   5.998
 1112SOL     OW 4234   5.773   0.637   2.462
 1112SOL    HW1 4235   5.821   0.556   2.430
 1112SOL    HW2 4236   5.687   0.611   2.504
 1113SOL     OW 4237   0.240   2.089   2.922
 1113SOL    HW1 4238   0.184   2.169   2.902
 1113SOL    HW2 4239   0.293   2.106   3.005
 1114SOL     OW 4240   3.307   3.488   4.869
 1114SOL    HW1 4241   3.328   3.440   4.954
 1114SOL    HW2 4242   3.212   3.472   4.844
 1115SOL     OW 4243   2.542   5.168   5.964
 1115SOL    HW1 4244   2.537   5.131   5.871
 1115SOL    HW2 4245   2.491   5.108   6.026
 1116SOL     OW 4246   4.447   0.131   0.503
 1116SOL    HW1 4247   4.370   0.108   0.443
 1116SOL    HW2 4248   4.506   0.198   0.457
 1117SOL     OW 4249   2.303   2.464   1.610
 1117SOL    HW1 4250   2.363   2.384   1.602
 1117SOL    HW2 4251   2.299   2.493   1.705
 1118SOL     OW 4252   4.579   6.568   6.856
 1118SOL    HW1 4253   4.560   6.487   6.801
 1118SOL    HW2 4254   4.607   6.643   6.796
 1119SOL     OW 4255   2.473   5.475   3.860
 1119SOL    HW1 4256   2.466   5.483   3.761
 1119SOL    HW2 4257   2.381   5.462   3.899
 1120SOL     OW 4258   0.384   3.280   1.649
 1120SOL    HW1 4259   0.324   3.297   1.727
 1120SOL    HW2 4260   0.457   3.348   1.648
 1121SOL     OW 4261   5.448   4.449   5.754
 1121SOL    HW1 4262   5.498   4.370   5.790
 1121SOL    HW2 4263   5.431   4.436   5.656
 1122SOL     OW 4264   6.042   0.716   2.013
 1122SOL    HW1 4265   6.008   0.684   2.101
 1122SOL    HW2 4266   6.074   0.638   1.959
 1123SOL     OW 4267   3.762   1.655   4.682
 1123SOL    HW1 4268   3.827   1.658   4.606
 1123SOL    HW2 4269   3.772   1.737   4.738
 1124SOL     OW 4270   2.388   2.661   3.396
 1124SOL    HW1 4271   2.453   2.588   3.417
 1124SOL    HW2 4272   2.362   2.707   3.481
 1125SOL     OW 4273   1.389   3.403   4.288
 1125SOL    HW1 4274   1.460   3.406   4.358
 1125SOL    HW2 4275   1.402   3.322   4.231
 1126SOL     OW 4276   4.415   4.626   3.718
 1126SOL    HW1 4277   4.366   4.618   3.805
 1126SOL    HW2 4278   4.490   4.692   3.728
 1127SOL     OW 4279   6.170   6.616   0.949
 1127SOL    HW1 4280   6.198   6.523   0.925
 1127SOL    HW2 4281   6.143   6.665   0.866
 1128SOL     OW 4282   3.737   1.902   4.810
 1128SOL    HW1 4283   3.787   1.984   4.785
 1128SOL    HW2 4284   3.644   1.907   4.774
 1129SOL     OW 4285   1.150   1.004   0.201
 1129SOL    HW1 4286   1.195   0.971   0.284
 1129SOL    HW2 4287   1.164   1.102   0.192
 1130SOL     OW 4288   2.103   5.265   1.321
 1130SOL    HW1 4289   2.108   5.267   1.221
 1130SOL    HW2 4290   2.102   5.359   1.356
 1131SOL     OW 4291   1.415   5.440   3.767
 1131SOL    HW1 4292   1.395   5.528   3.724
 1131SOL    HW2 4293   1.331   5.404   3.809
 1132SOL     OW 4294   1.485   2.130   3.319
 1132SOL    HW1 4295   1.431   2.046   3.322
 1132SOL    HW2 4296   1.426   2.206   3.294
 1133SOL     OW 4297   1.398   6.469   6.682
 1133SOL    HW1 4298   1.375   6.484   6.778
 1133SOL    HW2 4299   1.411   6.558   6.636
 1134SOL     OW 4300   4.463   5.718   0.829
 1134SOL    HW1 4301   4.493   5.685   0.919
 1134SOL    HW2 4302   4.522   5.681   0.758
 1135SOL     OW 4303   2.096   0.364   2.980
 1135SOL    HW1 4304   2.125   0.307   2.903
 1135SOL    HW2 4305   2.154   0.445   2.985
 1136SOL     OW 4306   1.659   4.462   2.741
 1136SOL    HW1 4307   1.756   4.439   2.735
 1136SOL    HW2 4308   1.609   4.416   2.667
 1137SOL     OW 4309   1.308   5.572   4.581
 1137SOL    HW1 4310   1.251   5.500   4.619
 1137SOL    HW2 4311   1.290   5.658   4.629
 1138SOL     OW 4312   2.236   4.010   4.445
 1138SOL    HW1 4313   2.221   4.107   4.428
 1138SOL    HW2 4314   2.334   3.989   4.439
 1139SOL     OW 4315   3.423   5.790   5.082
 1139SOL    HW1 4316   3.424   5.819   5.178
 1139SOL    HW2 4317   3.345   5.832   5.035
 1140SOL     OW 4318   2.216   2.395   1.354
 1140SOL    HW1 4319   2.283   2.470   1.348
 1140SOL    HW2 4320   2.229   2.346   1.440
 1141SOL     OW 4321   6.435   4.837   5.588
 1141SOL    HW1 4322   6.404   4.906   5.653
 1141SOL    HW2 4323   6.382   4.753   5.600
 1142SOL     OW 4324   0.830   5.405   2.803
 1142SOL    HW1 4325   0.862   5.499   2.792
 1142SOL    HW2 4326   0.785   5.374   2.719
 1143SOL     OW 4327   6.643   4.488   1.568
 1143SOL    HW1 4328   6.742   4.473   1.569
 1143SOL    HW2 4329   6.613   4.503   1.474
 1144SOL     OW 4330   5.212   4.667   0.334
 1144SOL    HW1 4331   5.135   4.605   0.320
 1144SOL    HW2 4332   5.281   4.651   0.263
 1145SOL     OW 4333   6.376   6.752   0.600
 1145SOL    HW1 4334   6.285   6.735   0.639
 1145SOL    HW2 4335   6.418   6.665   0.575
 1146SOL     OW 4336   1.788   0.655   1.679
 1146SOL    HW1 4337   1.846   0.725   1.637
 1146SOL    HW2 4338   1.824   0.565   1.657
 1147SOL     OW 4339   1.859   6.426   1.246
 1147SOL    HW1 4340   1.806   6.359   1.195
 1147SOL    HW2 4341   1.865   6.511   1.194
 1148SOL     OW 4342   3.615   5.834   2.073
 1148SOL    HW1 4343   3.642   5.753   2.125
 1148SOL    HW2 4344   3.695   5.888   2.050
 1149SOL     OW 4345   5.671   2.264   1.331
 1149SOL    HW1 4346   5.719   2.351   1.323
 1149SOL    HW2 4347   5.602   2.257   1.259
 1150SOL     OW 4348   1.472   2.193   1.021
 1150SOL    HW1 4349   1.527   2.139   0.958
 1150SOL    HW2 4350   1.374   2.177   1.003
 1151SOL     OW 4351   5.579   5.211   4.295
 1151SOL    HW1 4352   5.651   5.154   4.256
 1151SOL    HW2 4353   5.506   5.153   4.330
 1152SOL     OW 4354   3.096   6.415   5.935
 1152SOL    HW1 4355   3.053   6.327   5.955
 1152SOL    HW2 4356   3.034   6.470   5.878
 1153SOL     OW 4357   5.387   6.751   1.353
 1153SOL    HW1 4358   5.370   6.786   1.445
 1153SOL    HW2 4359   5.485   6.754   1.335
 1154SOL     OW 4360   1.724   3.137   0.880
 1154SOL    HW1 4361   1.648   3.099   0.827
 1154SOL    HW2 4362   1.764   3.064   0.935
 1155SOL     OW 4363   3.674   6.025   3.935
 1155SOL    HW1 4364   3.604   5.958   3.961
 1155SOL    HW2 4365   3.634   6.094   3.875
 1156SOL     OW 4366   2.609   1.148   1.718
 1156SOL    HW1 4367   2.626   1.054   1.747
 1156SOL    HW2 4368   2.677   1.174   1.649
 1157SOL     OW 4369   2.414   1.911   0.428
 1157SOL    HW1 4370   2.468   1.950   0.503
 1157SOL    HW2 4371   2.324   1.886   0.462
 1158SOL     OW 4372   5.710   4.502   4.090
 1158SOL    HW1 4373   5.671   4.533   4.003
 1158SOL    HW2 4374   5.659   4.422   4.122
 1159SOL     OW 4375   5.402   4.934   0.766
 1159SOL    HW1 4376   5.492   4.970   0.740
 1159SOL    HW2 4377   5.370   4.871   0.695
 1160SOL     OW 4378   4.240   1.914   0.806
 1160SOL    HW1 4379   4.294   1.988   0.846
 1160SOL    HW2 4380   4.143   1.931   0.822
 1161SOL     OW 4381   0.046   5.059   0.835
 1161SOL    HW1 4382   0.128   5.005   0.817
 1161SOL    HW2 4383   0.069   5.137   0.894
 1162SOL     OW 4384   2.065   2.474   4.905
 1162SOL    HW1 4385   2.119   2.412   4.847
 1162SOL    HW2 4386   2.098   2.567   4.893
 1163SOL     OW 4387   5.067   2.018   1.810
 1163SOL    HW1 4388   5.087   1.963   1.891
 1163SOL    HW2 4389   5.026   1.961   1.740
 1164SOL     OW 4390   4.194   2.077   5.560
 1164SOL    HW1 4391   4.139   2.159   5.544
 1164SOL    HW2 4392   4.290   2.103   5.567
 1165SOL     OW 4393   4.496   0.171   3.466
 1165SOL    HW1 4394   4.418   0.222   3.502
 1165SOL    HW2 4395   4.521   0.098   3.529
 1166SOL     OW 4396   3.684   4.121   6.416
 1166SOL    HW1 4397   3.666   4.214   6.448
 1166SOL    HW2 4398   3.725   4.126   6.325
 1167SOL     OW 4399   5.450   3.949   3.402
 1167SOL    HW1 4400   5.532   3.894   3.415
 1167SOL    HW2 4401   5.464   4.013   3.326
 1168SOL     OW 4402   0.834   6.658   0.936
 1168SOL    HW1 4403   0.841   6.559   0.921
 1168SOL    HW2 4404   0.738   6.686   0.934
 1169SOL     OW 4405   5.043   2.357   5.387
 1169SOL    HW1 4406   5.139   2.343   5.413
 1169SOL    HW2 4407   5.001   2.423   5.449
 1170SOL     OW 4408   4.972   4.717   2.659
 1170SOL    HW1 4409   4.961   4.628   2.703
 1170SOL    HW2 4410   4.924   4.716   2.572
 1171SOL     OW 4411   0.469   6.412   0.863
 1171SOL    HW1 4412   0.412   6.427   0.782
 1171SOL    HW2 4413   0.524   6.493   0.881
 1172SOL     OW 4414   5.759   3.112   6.931
 1172SOL    HW1 4415   5.753   3.129   0.007
 1172SOL    HW2 4416   5.733   3.017   6.912
 1173SOL     OW 4417   4.425   2.609   1.146
 1173SOL    HW1 4418   4.493   2.643   1.212
 1173SOL    HW2 4419   4.344   2.578   1.195
 1174SOL     OW 4420   3.000   5.074   0.374
 1174SOL    HW1 4421   3.033   4.990   0.332
 1174SOL    HW2 4422   2.978   5.056   0.470
 1175SOL     OW 4423   3.294   4.139   3.896
 1175SOL    HW1 4424   3.287   4.098   3.987
 1175SOL    HW2 4425   3.213   4.116   3.842
 1176SOL     OW 4426   5.807   3.267   0.415
 1176SOL    HW1 4427   5.771   3.218   0.335
 1176SOL    HW2 4428   5.775   3.362   0.413
 1177SOL     OW 4429   0.949   1.763   5.071
 1177SOL    HW1 4430   0.922   1.804   5.158
 1177SOL    HW2 4431   0.876   1.702   5.040
 1178SOL     OW 4432   4.330   6.607   0.008
 1178SOL    HW1 4433   4.367   6.603   0.101
 1178SOL    HW2 4434   4.401   6.581   6.965
 1179SOL     OW 4435   0.117   5.796   0.566
 1179SOL    HW1 4436   0.052   5.743   0.511
 1179SOL    HW2 4437   0.210   5.764   0.549
 1180SOL     OW 4438   3.676   6.474   0.678
 1180SOL    HW1 4439   3.688   6.379   0.649
 1180SOL    HW2 4440   3.733   6.534   0.621
 1181SOL     OW 4441   6.183   5.998   6.468
 1181SOL    HW1 4442   6.240   5.938   6.411
 1181SOL    HW2 4443   6.223   6.089   6.470
 1182SOL     OW 4444   4.846   3.677   4.091
 1182SOL    HW1 4445   4.816   3.582   4.096
 1182SOL    HW2 4446   4.850   3.715   4.184
 1183SOL     OW 4447   1.776   4.753   6.819
 1183SOL    HW1 4448   1.735   4.669   6.854
 1183SOL    HW2 4449   1.853   4.731   6.758
 1184SOL     OW 4450   6.938   1.319   5.381
 1184SOL    HW1 4451   7.012   1.252   5.379
 1184SOL    HW2 4452   6.855   1.278   5.343
 1185SOL     OW 4453   6.596   1.767   6.572
 1185SOL    HW1 4454   6.503   1.768   6.607
 1185SOL    HW2 4455   6.603   1.697   6.500
 1186SOL     OW 4456   5.507   6.580   4.573
 1186SOL    HW1 4457   5.461   6.630   4.499
 1186SOL    HW2 4458   5.594   6.543   4.539
 1187SOL     OW 4459   6.423   2.246   6.077
 1187SOL    HW1 4460   6.485   2.171   6.097
 1187SOL    HW2 4461   6.347   2.213   6.021
 1188SOL     OW 4462   3.972   1.717   6.605
 1188SOL    HW1 4463   4.070   1.720   6.626
 1188SOL    HW2 4464   3.952   1.780   6.531
 1189SOL     OW 4465   5.882   3.541   3.644
 1189SOL    HW1 4466   5.960   3.578   3.594
 1189SOL    HW2 4467   5.803   3.535   3.583
 1190SOL     OW 4468   3.085   0.241   3.974
 1190SOL    HW1 4469   3.048   0.318   3.921
 1190SOL    HW2 4470   3.019   0.213   4.043
 1191SOL     OW 4471   3.144   6.830   2.842
 1191SOL    HW1 4472   3.205   6.795   2.913
 1191SOL    HW2 4473   3.083   6.757   2.811
 1192SOL     OW 4474   6.383   5.509   3.900
 1192SOL    HW1 4475   6.289   5.495   3.868
 1192SOL    HW2 4476   6.393   5.472   3.992
 1193SOL     OW 4477   6.476   6.258   4.490
 1193SOL    HW1 4478   6.472   6.315   4.408
 1193SOL    HW2 4479   6.414   6.296   4.560
 1194SOL     OW 4480   3.686   0.545   0.893
 1194SOL    HW1 4481   3.603   0.576   0.939
 1194SOL    HW2 4482   3.758   0.528   0.961
 1195SOL     OW 4483   4.756   2.708   2.886
 1195SOL    HW1 4484   4.689   2.780   2.866
 1195SOL    HW2 4485   4.739   2.671   2.977
 1196SOL     OW 4486   0.492   6.803   4.913
 1196SOL    HW1 4487   0.530   6.763   4.996
 1196SOL    HW2 4488   0.453   6.730   4.856
 1197SOL     OW 4489   2.225   6.451   0.128
 1197SOL    HW1 4490   2.196   6.413   0.040
 1197SOL    HW2 4491   2.152   6.506   0.167
 1198SOL     OW 4492   1.457   2.661   0.206
 1198SOL    HW1 4493   1.424   2.619   0.291
 1198SOL    HW2 4494   1.480   2.589   0.140
 1199SOL     OW 4495   5.918   3.957   2.650
 1199SOL    HW1 4496   5.990   3.952   2.581
 1199SOL    HW2 4497   5.838   3.905   2.618
 1200SOL     OW 4498   3.290   4.075   2.433
 1200SOL    HW1 4499   3.232   4.061   2.513
 1200SOL    HW2 4500   3.381   4.040   2.451
 1201SOL     OW 4501   1.400   2.378   4.921
 1201SOL    HW1 4502   1.354   2.392   4.833
 1201SOL    HW2 4503   1.455   2.295   4.917
 1202SOL     OW 4504   1.416   6.225   5.214
 1202SOL    HW1 4505   1.438   6.128   5.222
 1202SOL    HW2 4506   1.333   6.237   5.158
 1203SOL     OW 4507   4.103   5.781   5.180
 1203SOL    HW1 4508   4.090   5.880   5.186
 1203SOL    HW2 4509   4.102   5.741   5.272
 1204SOL     OW 4510   2.316   6.874   2.673
 1204SOL    HW1 4511   2.331   6.964   2.633
 1204SOL    HW2 4512   2.222   6.869   2.708
 1205SOL     OW 4513   5.718   3.565   2.369
 1205SOL    HW1 4514   5.796   3.540   2.313
 1205SOL    HW2 4515   5.634   3.551   2.317
 1206SOL     OW 4516   3.018   3.899   4.256
 1206SOL    HW1 4517   3.047   3.804   4.244
 1206SOL    HW2 4518   3.040   3.929   4.349
 1207SOL     OW 4519   0.980   5.584   3.072
 1207SOL    HW1 4520   0.998   5.593   3.170
 1207SOL    HW2 4521   0.964   5.488   3.049
 1208SOL     OW 4522   3.406   3.068   6.408
 1208SOL    HW1 4523   3.358   3.022   6.483
 1208SOL    HW2 4524   3.379   3.026   6.321
 1209SOL     OW 4525   3.977   6.373   5.238
 1209SOL    HW1 4526   4.050   6.441   5.251
 1209SOL    HW2 4527   3.910   6.408   5.174
 1210SOL     OW 4528   3.193   1.027   2.779
 1210SOL    HW1 4529   3.284   1.013   2.818
 1210SOL    HW2 4530   3.200   1.080   2.694
 1211SOL     OW 4531   0.919   2.782   0.596
 1211SOL    HW1 4532   0.890   2.875   0.577
 1211SOL    HW2 4533   0.860   2.718   0.546
 1212SOL     OW 4534   0.733   6.797   0.443
 1212SOL    HW1 4535   0.736   6.720   0.378
 1212SOL    HW2 4536   0.662   6.780   0.512
 1213SOL     OW 4537   5.752   2.854   1.431
 1213SOL    HW1 4538   5.836   2.853   1.486
 1213SOL    HW2 4539   5.678   2.895   1.485
 1214SOL     OW 4540   6.834   2.664   2.321
 1214SOL    HW1 4541   6.780   2.653   2.405
 1214SOL    HW2 4542   6.801   2.601   2.252
 1215SOL     OW 4543   2.105   5.886   2.811
 1215SOL    HW1 4544   2.038   5.946   2.855
 1215SOL    HW2 4545   2.197   5.917   2.835
 1216SOL     OW 4546   4.369   6.939   1.562
 1216SOL    HW1 4547   4.331   0.006   1.535
 1216SOL    HW2 4548   4.400   6.890   1.480
 1217SOL     OW 4549   2.669   4.258   6.780
 1217SOL    HW1 4550   2.728   4.313   6.839
 1217SOL    HW2 4551   2.585   4.234   6.829
 1218SOL     OW 4552   2.050   4.861   3.958
 1218SOL    HW1 4553   2.050   4.762   3.969
 1218SOL    HW2 4554   2.024   4.905   4.044
 1219SOL     OW 4555   3.690   5.130   2.275
 1219SOL    HW1 4556   3.753   5.102   2.202
 1219SOL    HW2 4557   3.644   5.049   2.311
 1220SOL     OW 4558   0.254   4.581   2.343
 1220SOL    HW1 4559   0.254   4.580   2.443
 1220SOL    HW2 4560   0.205   4.662   2.311
 1221SOL     OW 4561   4.785   4.455   6.752
 1221SOL    HW1 4562   4.843   4.377   6.777
 1221SOL    HW2 4563   4.709   4.462   6.816
 1222SOL     OW 4564   6.825   0.992   6.685
 1222SOL    HW1 4565   6.799   1.028   6.775
 1222SOL    HW2 4566   6.809   1.061   6.615
 1223SOL     OW 4567   3.892   6.323   1.249
 1223SOL    HW1 4568   3.929   6.344   1.159
 1223SOL    HW2 4569   3.950   6.254   1.294
 1224SOL     OW 4570   3.171   1.044   1.437
 1224SOL    HW1 4571   3.089   1.098   1.452
 1224SOL    HW2 4572   3.252   1.100   1.454
 1225SOL     OW 4573   3.107   3.767   5.967
 1225SOL    HW1 4574   3.080   3.838   5.902
 1225SOL    HW2 4575   3.194   3.793   6.010
 1226SOL     OW 4576   2.325   4.958   0.381
 1226SOL    HW1 4577   2.225   4.959   0.384
 1226SOL    HW2 4578   2.360   5.052   0.370
 1227SOL     OW 4579   1.455   4.337   5.682
 1227SOL    HW1 4580   1.529   4.389   5.637
 1227SOL    HW2 4581   1.492   4.253   5.720
 1228SOL     OW 4582   3.861   2.196   6.913
 1228SOL    HW1 4583   3.872   2.278   6.970
 1228SOL    HW2 4584   3.832   2.119   6.970
 1229SOL     OW 4585   3.541   3.892   6.769
 1229SOL    HW1 4586   3.507   3.832   6.696
 1229SOL    HW2 4587   3.474   3.963   6.789
 1230SOL     OW 4588   4.248   0.373   3.841
 1230SOL    HW1 4589   4.318   0.407   3.778
 1230SOL    HW2 4590   4.171   0.437   3.842
 1231SOL     OW 4591   1.047   3.417   3.670
 1231SOL    HW1 4592   1.140   3.411   3.632
 1231SOL    HW2 4593   1.041   3.497   3.730
 1232SOL     OW 4594   1.887   3.021   2.489
 1232SOL    HW1 4595   1.854   3.016   2.583
 1232SOL    HW2 4596   1.940   2.940   2.467
 1233SOL     OW 4597   0.826   2.140   4.326
 1233SOL    HW1 4598   0.755   2.173   4.263
 1233SOL    HW2 4599   0.800   2.163   4.420
 1234SOL     OW 4600   6.601   4.429   4.354
 1234SOL    HW1 4601   6.634   4.376   4.276
 1234SOL    HW2 4602   6.578   4.521   4.324
 1235SOL     OW 4603   6.325   5.272   3.358
 1235SOL    HW1 4604   6.374   5.265   3.271
 1235SOL    HW2 4605   6.370   5.215   3.427
 1236SOL     OW 4606   5.481   0.750   6.833
 1236SOL    HW1 4607   5.386   0.777   6.820
 1236SOL    HW2 4608   5.537   0.789   6.760
 1237SOL     OW 4609   2.132   4.562   6.266
 1237SOL    HW1 4610   2.034   4.576   6.249
 1237SOL    HW2 4611   2.146   4.545   6.364
 1238SOL     OW 4612   1.786   1.433   1.471
 1238SOL    HW1 4613   1.727   1.352   1.479
 1238SOL    HW2 4614   1.747   1.496   1.403
 1239SOL     OW 4615   0.892   0.099   5.800
 1239SOL    HW1 4616   0.922   0.160   5.726
 1239SOL    HW2 4617   0.972   0.063   5.847
 1240SOL     OW 4618   5.626   5.594   0.961
 1240SOL    HW1 4619   5.538   5.560   0.929
 1240SOL    HW2 4620   5.655   5.672   0.906
 1241SOL     OW 4621   0.102   2.095   4.328
 1241SOL    HW1 4622   0.177   2.136   4.276
 1241SOL    HW2 4623   0.015   2.115   4.282
 1242SOL     OW 4624   2.144   2.464   6.636
 1242SOL    HW1 4625   2.232   2.457   6.589
 1242SOL    HW2 4626   2.145   2.408   6.719
 1243SOL     OW 4627   3.192   5.148   5.183
 1243SOL    HW1 4628   3.174   5.071   5.121
 1243SOL    HW2 4629   3.219   5.227   5.129
 1244SOL     OW 4630   0.805   1.905   2.952
 1244SOL    HW1 4631   0.837   1.811   2.957
 1244SOL    HW2 4632   0.860   1.956   2.885
 1245SOL     OW 4633   3.049   2.788   5.334
 1245SOL    HW1 4634   2.968   2.736   5.310
 1245SOL    HW2 4635   3.057   2.868   5.274
 1246SOL     OW 4636   1.295   6.462   1.853
 1246SOL    HW1 4637   1.276   6.375   1.807
 1246SOL    HW2 4638   1.296   6.536   1.786
 1247SOL     OW 4639   0.804   6.142   6.550
 1247SOL    HW1 4640   0.832   6.238   6.544
 1247SOL    HW2 4641   0.753   6.128   6.635
 1248SOL     OW 4642   2.218   0.043   4.179
 1248SOL    HW1 4643   2.226   0.018   4.083
 1248SOL    HW2 4644   2.243   6.988   4.237
 1249SOL     OW 4645   5.935   3.024   3.196
 1249SOL    HW1 4646   5.836   3.033   3.210
 1249SOL    HW2 4647   5.953   2.953   3.128
 1250SOL     OW 4648   0.102   3.105   4.653
 1250SOL    HW1 4649   0.107   3.184   4.591
 1250SOL    HW2 4650   0.194   3.068   4.666
 1251SOL     OW 4651   3.392   0.623   6.222
 1251SOL    HW1 4652   3.359   0.579   6.306
 1251SOL    HW2 4653   3.474   0.677   6.242
 1252SOL     OW 4654   3.465   3.698   0.403
 1252SOL    HW1 4655   3.507   3.789   0.403
 1252SOL    HW2 4656   3.464   3.662   0.496
 1253SOL     OW 4657   4.741   1.203   2.871
 1253SOL    HW1 4658   4.694   1.219   2.958
 1253SOL    HW2 4659   4.674   1.180   2.801
 1254SOL     OW 4660   5.518   0.979   3.719
 1254SOL    HW1 4661   5.601   1.034   3.710
 1254SOL    HW2 4662   5.456   1.022   3.785
 1255SOL     OW 4663   5.741   0.527   1.925
 1255SOL    HW1 4664   5.753   0.440   1.876
 1255SOL    HW2 4665   5.721   0.599   1.859
 1256SOL     OW 4666   5.054   2.567   3.567
 1256SOL    HW1 4667   5.030   2.497   3.500
 1256SOL    HW2 4668   5.102   2.525   3.644
 1257SOL     OW 4669   5.641   1.133   4.199
 1257SOL    HW1 4670   5.655   1.074   4.119
 1257SOL    HW2 4671   5.631   1.077   4.280
 1258SOL     OW 4672   0.176   5.104   3.517
 1258SOL    HW1 4673   0.129   5.192   3.527
 1258SOL    HW2 4674   0.254   5.115   3.455
 1259SOL     OW 4675   5.560   2.257   4.461
 1259SOL    HW1 4676   5.568   2.269   4.560
 1259SOL    HW2 4677   5.510   2.335   4.422
 1260SOL     OW 4678   0.681   1.624   4.977
 1260SOL    HW1 4679   0.723   1.537   4.951
 1260SOL    HW2 4680   0.587   1.608   5.007
 1261SOL     OW 4681   6.709   3.673   1.041
 1261SOL    HW1 4682   6.646   3.724   1.098
 1261SOL    HW2 4683   6.679   3.578   1.034
 1262SOL     OW 4684   4.699   6.307   2.119
 1262SOL    HW1 4685   4.768   6.315   2.191
 1262SOL    HW2 4686   4.632   6.380   2.130
 1263SOL     OW 4687   1.025   2.122   3.157
 1263SOL    HW1 4688   0.949   2.060   3.177
 1263SOL    HW2 4689   1.036   2.186   3.233
 1264SOL     OW 4690   1.291   2.792   5.006
 1264SOL    HW1 4691   1.333   2.881   5.021
 1264SOL    HW2 4692   1.344   2.741   4.938
 1265SOL     OW 4693   6.239   0.044   5.710
 1265SOL    HW1 4694   6.328   0.088   5.712
 1265SOL    HW2 4695   6.224   7.018   5.796
 1266SOL     OW 4696   3.174   1.306   5.692
 1266SOL    HW1 4697   3.201   1.231   5.631
 1266SOL    HW2 4698   3.177   1.275   5.787
 1267SOL     OW 4699   3.243   0.777   2.245
 1267SOL    HW1 4700   3.232   0.725   2.329
 1267SOL    HW2 4701   3.251   0.875   2.268
 1268SOL     OW 4702   4.177   2.225   5.301
 1268SOL    HW1 4703   4.150   2.188   5.389
 1268SOL    HW2 4704   4.114   2.193   5.230
 1269SOL     OW 4705   5.622   1.856   3.547
 1269SOL    HW1 4706   5.589   1.933   3.603
 1269SOL    HW2 4707   5.714   1.831   3.575
 1270SOL     OW 4708   5.937   5.405   3.280
 1270SOL    HW1 4709   6.005   5.375   3.347
 1270SOL    HW2 4710   5.853   5.353   3.292
 1271SOL     OW 4711   1.543   0.586   2.164
 1271SOL    HW1 4712   1.617   0.631   2.212
 1271SOL    HW2 4713   1.548   0.608   2.066
 1272SOL     OW 4714   6.290   1.999   0.351
 1272SOL    HW1 4715   6.204   1.946   0.353
 1272SOL    HW2 4716   6.326   2.006   0.443
 1273SOL     OW 4717   1.843   4.380   5.422
 1273SOL    HW1 4718   1.818   4.329   5.505
 1273SOL    HW2 4719   1.937   4.357   5.395
 1274SOL     OW 4720   0.232   4.540   4.258
 1274SOL    HW1 4721   0.180   4.559   4.175
 1274SOL    HW2 4722   0.169   4.521   4.334
 1275SOL     OW 4723   1.793   1.482   2.992
 1275SOL    HW1 4724   1.889   1.463   2.972
 1275SOL    HW2 4725   1.777   1.581   2.991
 1276SOL     OW 4726   5.895   4.265   3.885
 1276SOL    HW1 4727   5.870   4.235   3.794
 1276SOL    HW2 4728   5.835   4.222   3.953
 1277SOL     OW 4729   1.481   6.282   6.451
 1277SOL    HW1 4730   1.478   6.321   6.543
 1277SOL    HW2 4731   1.444   6.189   6.453
 1278SOL     OW 4732   0.053   6.365   2.714
 1278SOL    HW1 4733   0.038   6.462   2.730
 1278SOL    HW2 4734   6.992   6.314   2.736
 1279SOL     OW 4735   2.904   3.380   0.591
 1279SOL    HW1 4736   2.956   3.451   0.639
 1279SOL    HW2 4737   2.886   3.304   0.653
 1280SOL     OW 4738   2.817   2.232   3.964
 1280SOL    HW1 4739   2.787   2.246   3.869
 1280SOL    HW2 4740   2.917   2.240   3.969
 1281SOL     OW 4741   5.288   6.074   5.536
 1281SOL    HW1 4742   5.211   6.011   5.528
 1281SOL    HW2 4743   5.372   6.023   5.552
 1282SOL     OW 4744   1.201   2.762   1.040
 1282SOL    HW1 4745   1.123   2.700   1.029
 1282SOL    HW2 4746   1.286   2.712   1.018
 1283SOL     OW 4747   1.050   0.863   4.154
 1283SOL    HW1 4748   1.013   0.954   4.134
 1283SOL    HW2 4749   0.983   0.812   4.207
 1284SOL     OW 4750   3.947   2.420   1.755
 1284SOL    HW1 4751   3.872   2.367   1.795
 1284SOL    HW2 4752   3.921   2.517   1.751
 1285SOL     OW 4753   4.020   1.077   4.562
 1285SOL    HW1 4754   3.942   1.018   4.584
 1285SOL    HW2 4755   3.988   1.171   4.547
 1286SOL     OW 4756   4.817   1.208   1.923
 1286SOL    HW1 4757   4.734   1.253   1.957
 1286SOL    HW2 4758   4.812   1.198   1.824
 1287SOL     OW 4759   5.438   4.980   6.358
 1287SOL    HW1 4760   5.537   4.994   6.356
 1287SOL    HW2 4761   5.409   4.934   6.274
 1288SOL     OW 4762   4.526   4.438   6.289
 1288SOL    HW1 4763   4.483   4.392   6.366
 1288SOL    HW2 4764   4.461   4.501   6.247
 1289SOL     OW 4765   1.274   0.036   0.268
 1289SOL    HW1 4766   1.358   0.049   0.215
 1289SOL    HW2 4767   1.297   0.020   0.364
 1290SOL     OW 4768   1.207   6.699   4.537
 1290SOL    HW1 4769   1.268   6.756   4.592
 1290SOL    HW2 4770   1.210   6.605   4.572
 1291SOL     OW 4771   5.658   5.572   2.999
 1291SOL    HW1 4772   5.710   5.586   3.083
 1291SOL    HW2 4773   5.585   5.640   2.992
 1292SOL     OW 4774   0.423   6.609   2.917
 1292SOL    HW1 4775   0.368   6.527   2.899
 1292SOL    HW2 4776   0.520   6.584   2.914
 1293SOL     OW 4777   5.008   0.421   0.963
 1293SOL    HW1 4778   5.059   0.384   0.886
 1293SOL    HW2 4779   4.925   0.467   0.930
 1294SOL     OW 4780   2.176   4.566   5.649
 1294SOL    HW1 4781   2.165   4.468   5.659
 1294SOL    HW2 4782   2.271   4.592   5.666
 1295SOL     OW 4783   0.329   4.695   0.246
 1295SOL    HW1 4784   0.364   4.685   0.338
 1295SOL    HW2 4785   0.345   4.612   0.194
 1296SOL     OW 4786   4.210   0.703   5.791
 1296SOL    HW1 4787   4.152   0.628   5.759
 1296SOL    HW2 4788   4.228   0.692   5.889
 1297SOL     OW 4789   6.213   6.632   6.925
 1297SOL    HW1 4790   6.203   6.726   6.959
 1297SOL    HW2 4791   6.203   6.568   7.001
 1298SOL     OW 4792   5.187   0.546   3.286
 1298SOL    HW1 4793   5.269   0.494   3.260
 1298SOL    HW2 4794   5.209   0.608   3.361
 1299SOL     OW 4795   1.054   4.798   4.615
 1299SOL    HW1 4796   1.136   4.806   4.672
 1299SOL    HW2 4797   1.061   4.717   4.557
 1300SOL     OW 4798   1.517   5.661   0.003
 1300SOL    HW1 4799   1.526   5.682   6.928
 1300SOL    HW2 4800   1.423   5.678   0.032
 1301SOL     OW 4801   6.299   1.207   6.954
 1301SOL    HW1 4802   6.278   1.303   6.933
 1301SOL    HW2 4803   6.223   1.149   6.926
 1302SOL     OW 4804   6.679   6.850   4.909
 1302SOL    HW1 4805   6.644   6.897   4.989
 1302SOL    HW2 4806   6.728   6.768   4.938
 1303SOL     OW 4807   3.028   6.671   1.457
 1303SOL    HW1 4808   2.997   6.762   1.484
 1303SOL    HW2 4809   3.127   6.666   1.465
 1304SOL     OW 4810   6.952   0.243   0.145
 1304SOL    HW1 4811   6.949   0.154   0.191
 1304SOL    HW2 4812   6.889   0.242   0.067
 1305SOL     OW 4813   4.203   3.943   5.878
 1305SOL    HW1 4814   4.222   4.035   5.911
 1305SOL    HW2 4815   4.106   3.936   5.854
 1306SOL     OW 4816   2.960   6.442   4.314
 1306SOL    HW1 4817   2.910   6.373   4.366
 1306SOL    HW2 4818   3.046   6.463   4.361
 1307SOL     OW 4819   2.113   3.343   3.962
 1307SOL    HW1 4820   2.110   3.427   4.018
 1307SOL    HW2 4821   2.130   3.265   4.021
 1308SOL     OW 4822   0.805   3.866   6.457
 1308SOL    HW1 4823   0.735   3.825   6.516
 1308SOL    HW2 4824   0.895   3.832   6.484
 1309SOL     OW 4825   6.285   3.795   6.737
 1309SOL    HW1 4826   6.343   3.874   6.757
 1309SOL    HW2 4827   6.192   3.826   6.716
 1310SOL     OW 4828   2.147   3.058   3.287
 1310SOL    HW1 4829   2.166   3.011   3.373
 1310SOL    HW2 4830   2.233   3.078   3.240
 1311SOL     OW 4831   6.244   4.999   0.273
 1311SOL    HW1 4832   6.185   4.966   0.199
 1311SOL    HW2 4833   6.241   5.098   0.276
 1312SOL     OW 4834   2.344   1.497   6.410
 1312SOL    HW1 4835   2.380   1.582   6.371
 1312SOL    HW2 4836   2.260   1.517   6.459
 1313SOL     OW 4837   5.806   5.294   2.319
 1313SOL    HW1 4838   5.759   5.318   2.234
 1313SOL    HW2 4839   5.885   5.354   2.331
 1314SOL     OW 4840   2.457   1.668   3.983
 1314SOL    HW1 4841   2.396   1.709   3.915
 1314SOL    HW2 4842   2.552   1.680   3.954
 1315SOL     OW 4843   5.980   1.027   3.175
 1315SOL    HW1 4844   6.040   0.961   3.129
 1315SOL    HW2 4845   5.890   1.025   3.132
 1316SOL     OW 4846   5.320   0.072   6.393
 1316SOL    HW1 4847   5.337   6.999   6.369
 1316SOL    HW2 4848   5.242   0.077   6.456
 1317SOL     OW 4849   4.094   3.416   4.489
 1317SOL    HW1 4850   4.106   3.499   4.435
 1317SOL    HW2 4851   4.006   3.418   4.536
 1318SOL     OW 4852   1.972   1.188   6.692
 1318SOL    HW1 4853   1.896   1.253   6.689
 1318SOL    HW2 4854   1.957   1.117   6.623
 1319SOL     OW 4855   6.625   1.513   0.409
 1319SOL    HW1 4856   6.694   1.560   0.465
 1319SOL    HW2 4857   6.610   1.421   0.447
 1320SOL     OW 4858   2.655   3.025   6.167
 1320SOL    HW1 4859   2.728   2.982   6.220
 1320SOL    HW2 4860   2.597   2.955   6.126
 1321SOL     OW 4861   0.193   3.004   1.357
 1321SOL    HW1 4862   0.182   2.974   1.452
 1321SOL    HW2 4863   0.255   3.083   1.353
 1322SOL     OW 4864   2.268   2.592   7.011
 1322SOL    HW1 4865   2.334   2.593   6.937
 1322SOL    HW2 4866   2.315   2.605   0.076
 1323SOL     OW 4867   4.166   0.510   1.337
 1323SOL    HW1 4868   4.122   0.503   1.248
 1323SOL    HW2 4869   4.233   0.585   1.336
 1324SOL     OW 4870   2.300   3.993   5.926
 1324SOL    HW1 4871   2.210   3.995   5.881
 1324SOL    HW2 4872   2.298   3.927   6.002
 1325SOL     OW 4873   4.164   5.914   4.556
 1325SOL    HW1 4874   4.113   5.831   4.580
 1325SOL    HW2 4875   4.211   5.948   4.637
 1326SOL     OW 4876   4.271   1.141   4.969
 1326SOL    HW1 4877   4.249   1.053   4.928
 1326SOL    HW2 4878   4.284   1.209   4.897
 1327SOL     OW 4879   4.879   5.808   2.111
 1327SOL    HW1 4880   4.919   5.717   2.122
 1327SOL    HW2 4881   4.780   5.800   2.095
 1328SOL     OW 4882   1.581   2.180   5.637
 1328SOL    HW1 4883   1.515   2.248   5.605
 1328SOL    HW2 4884   1.565   2.161   5.734
 1329SOL     OW 4885   1.065   3.087   3.833
 1329SOL    HW1 4886   0.967   3.073   3.848
 1329SOL    HW2 4887   1.081   3.113   3.738
 1330SOL     OW 4888   6.445   3.152   2.929
 1330SOL    HW1 4889   6.352   3.182   2.951
 1330SOL    HW2 4890   6.509   3.195   2.993
 1331SOL     OW 4891   4.107   1.843   2.834
 1331SOL    HW1 4892   4.130   1.857   2.738
 1331SOL    HW2 4893   4.170   1.776   2.874
 1332SOL     OW 4894   2.453   6.105   6.668
 1332SOL    HW1 4895   2.462   6.006   6.684
 1332SOL    HW2 4896   2.376   6.122   6.606
 1333SOL     OW 4897   3.887   3.712   2.671
 1333SOL    HW1 4898   3.927   3.623   2.649
 1333SOL    HW2 4899   3.807   3.699   2.729
 1334SOL     OW 4900   6.524   4.153   1.168
 1334SOL    HW1 4901   6.593   4.088   1.203
 1334SOL    HW2 4902   6.445   4.153   1.229
 1335SOL     OW 4903   0.261   3.505   2.816
 1335SOL    HW1 4904   0.181   3.566   2.813
 1335SOL    HW2 4905   0.230   3.410   2.811
 1336SOL     OW 4906   2.208   6.562   6.076
 1336SOL    HW1 4907   2.138   6.608   6.130
 1336SOL    HW2 4908   2.196   6.585   5.979
 1337SOL     OW 4909   0.733   6.812   2.238
 1337SOL    HW1 4910   0.640   6.799   2.202
 1337SOL    HW2 4911   0.741   6.765   2.326
 1338SOL     OW 4912   0.064   3.733   5.198
 1338SOL    HW1 4913   0.106   3.813   5.156
 1338SOL    HW2 4914   0.013   3.682   5.129
 1339SOL     OW 4915   5.523   1.030   0.102
 1339SOL    HW1 4916   5.547   0.940   0.066
 1339SOL    HW2 4917   5.606   1.075   0.135
 1340SOL     OW 4918   2.900   2.645   0.955
 1340SOL    HW1 4919   2.988   2.597   0.965
 1340SOL    HW2 4920   2.855   2.650   1.044
 1341SOL     OW 4921   5.622   5.940   6.609
 1341SOL    HW1 4922   5.614   5.847   6.574
 1341SOL    HW2 4923   5.573   6.003   6.549
 1342SOL     OW 4924   1.780   5.740   1.653
 1342SOL    HW1 4925   1.844   5.669   1.625
 1342SOL    HW2 4926   1.687   5.704   1.652
 1343SOL     OW 4927   4.901   5.765   2.915
 1343SOL    HW1 4928   4.926   5.850   2.868
 1343SOL    HW2 4929   4.910   5.778   3.014
 1344SOL     OW 4930   1.200   0.466   3.761
 1344SOL    HW1 4931   1.202   0.385   3.820
 1344SOL    HW2 4932   1.133   0.452   3.688
 1345SOL     OW 4933   1.517   6.679   5.384
 1345SOL    HW1 4934   1.458   6.598   5.375
 1345SOL    HW2 4935   1.460   6.761   5.391
 1346SOL     OW 4936   3.207   5.724   3.762
 1346SOL    HW1 4937   3.244   5.677   3.681
 1346SOL    HW2 4938   3.196   5.658   3.836
 1347SOL     OW 4939   1.486   0.581   6.512
 1347SOL    HW1 4940   1.401   0.614   6.554
 1347SOL    HW2 4941   1.464   0.517   6.439
 1348SOL     OW 4942   1.673   6.826   4.898
 1348SOL    HW1 4943   1.679   6.773   4.814
 1348SOL    HW2 4944   1.690   6.767   4.977
 1349SOL     OW 4945   5.721   3.887   4.156
 1349SOL    HW1 4946   5.639   3.834   4.174
 1349SOL    HW2 4947   5.778   3.839   4.089
 1350SOL     OW 4948   5.338   4.727   6.442
 1350SOL    HW1 4949   5.399   4.666   6.392
 1350SOL    HW2 4950   5.354   4.822   6.413
 1351SOL     OW 4951   7.019   2.768   6.658
 1351SOL    HW1 4952   6.922   2.778   6.638
 1351SOL    HW2 4953   0.012   2.681   6.704
 1352SOL     OW 4954   6.953   0.912   3.076
 1352SOL    HW1 4955   6.914   0.823   3.053
 1352SOL    HW2 4956   6.881   0.973   3.110
 1353SOL     OW 4957   6.547   2.489   6.112
 1353SOL    HW1 4958   6.645   2.505   6.097
 1353SOL    HW2 4959   6.523   2.396   6.084
 1354SOL     OW 4960   4.978   4.957   2.831
 1354SOL    HW1 4961   4.968   4.887   2.760
 1354SOL    HW2 4962   4.890   5.004   2.844
 1355SOL     OW 4963   4.171   3.710   5.018
 1355SOL    HW1 4964   4.166   3.663   4.930
 1355SOL    HW2 4965   4.256   3.686   5.065
 1356SOL     OW 4966   2.867   3.211   6.747
 1356SOL    HW1 4967   2.832   3.140   6.686
 1356SOL    HW2 4968   2.950   3.250   6.709
 1357SOL     OW 4969   0.786   3.114   5.578
 1357SOL    HW1 4970   0.708   3.168   5.545
 1357SOL    HW2 4971   0.852   3.102   5.505
 1358SOL     OW 4972   2.471   6.971   6.660
 1358SOL    HW1 4973   2.474   6.978   6.760
 1358SOL    HW2 4974   2.376   6.977   6.628
 1359SOL     OW 4975   6.312   4.788   6.957
 1359SOL    HW1 4976   6.274   4.709   6.909
 1359SOL    HW2 4977   6.238   4.840   7.000
 1360SOL     OW 4978   2.576   1.284   5.801
 1360SOL    HW1 4979   2.484   1.298   5.839
 1360SOL    HW2 4980   2.579   1.321   5.708
 1361SOL     OW 4981   6.159   5.253   5.062
 1361SOL    HW1 4982   6.119   5.225   4.975
 1361SOL    HW2 4983   6.240   5.198   5.082
 1362SOL     OW 4984   3.462   3.930   4.044
 1362SOL    HW1 4985   3.395   3.868   4.002
 1362SOL    HW2 4986   3.553   3.911   4.007
 1363SOL     OW 4987   0.134   6.621   3.600
 1363SOL    HW1 4988   0.107   6.717   3.605
 1363SOL    HW2 4989   0.156   6.598   3.506
 1364SOL     OW 4990   3.730   4.185   6.942
 1364SOL    HW1 4991   3.714   4.145   6.852
 1364SOL    HW2 4992   3.828   4.204   6.953
 1365SOL     OW 4993   5.313   2.328   5.799
 1365SOL    HW1 4994   5.275   2.299   5.712
 1365SOL    HW2 4995   5.408   2.359   5.786
 1366SOL     OW 4996   2.112   1.016   5.091
 1366SOL    HW1 4997   2.120   0.985   5.186
 1366SOL    HW2 4998   2.021   1.055   5.076
 1367SOL     OW 4999   2.528   1.755   2.266
 1367SOL    HW1 5000   2.599   1.818   2.232
 1367SOL    HW2 5001   2.563   1.705   2.345
 1368SOL     OW 5002   6.815   0.485   3.558
 1368SOL    HW1 5003   6.732   0.523   3.599
 1368SOL    HW2 5004   6.894   0.506   3.616
 1369SOL     OW 5005   0.012   0.511   2.628
 1369SOL    HW1 5006   6.966   0.440   2.613
 1369SOL    HW2 5007   0.099   0.470   2.655
 1370SOL     OW 5008   1.607   1.068   2.831
 1370SOL    HW1 5009   1.623   1.128   2.909
 1370SOL    HW2 5010   1.512   1.079   2.799
 1371SOL     OW 5011   3.292   0.387   5.924
 1371SOL    HW1 5012   3.291   0.308   5.986
 1371SOL    HW2 5013   3.200   0.402   5.889
 1372SOL     OW 5014   3.142   1.730   1.582
 1372SOL    HW1 5015   3.205   1.801   1.550
 1372SOL    HW2 5016   3.050   1.768   1.593
 1373SOL     OW 5017   1.566   5.539   6.254
 1373SOL    HW1 5018   1.644   5.535   6.317
 1373SOL    HW2 5019   1.584   5.609   6.184
 1374SOL     OW 5020   5.293   3.648   5.198
 1374SOL    HW1 5021   5.312   3.744   5.179
 1374SOL    HW2 5022   5.206   3.622   5.155
 1375SOL     OW 5023   1.353   4.109   4.315
 1375SOL    HW1 5024   1.449   4.138   4.310
 1375SOL    HW2 5025   1.295   4.189   4.330
 1376SOL     OW 5026   4.661   0.328   2.139
 1376SOL    HW1 5027   4.755   0.309   2.111
 1376SOL    HW2 5028   4.645   0.292   2.230
 1377SOL     OW 5029   6.994   4.126   5.089
 1377SOL    HW1 5030   0.044   4.113   5.157
 1377SOL    HW2 5031   6.922   4.184   5.127
 1378SOL     OW 5032   1.993   1.620   0.493
 1378SOL    HW1 5033   1.910   1.652   0.448
 1378SOL    HW2 5034   1.969   1.561   0.570
 1379SOL     OW 5035   4.308   5.299   1.890
 1379SOL    HW1 5036   4.328   5.335   1.981
 1379SOL    HW2 5037   4.310   5.374   1.823
 1380SOL     OW 5038   6.071   5.080   2.863
 1380SOL    HW1 5039   5.985   5.045   2.900
 1380SOL    HW2 5040   6.147   5.035   2.909
 1381SOL     OW 5041   4.263   6.767   2.671
 1381SOL    HW1 5042   4.188   6.782   2.607
 1381SOL    HW2 5043   4.286   6.854   2.715
 1382SOL     OW 5044   0.147   4.198   0.807
 1382SOL    HW1 5045   0.095   4.235   0.884
 1382SOL    HW2 5046   0.089   4.135   0.755
 1383SOL     OW 5047   2.792   0.133   0.679
 1383SOL    HW1 5048   2.824   0.039   0.690
 1383SOL    HW2 5049   2.828   0.190   0.753
 1384SOL     OW 5050   1.437   1.120   2.030
 1384SOL    HW1 5051   1.338   1.103   2.022
 1384SOL    HW2 5052   1.482   1.092   1.945
 1385SOL     OW 5053   4.958   3.278   3.817
 1385SOL    HW1 5054   4.924   3.372   3.826
 1385SOL    HW2 5055   4.906   3.217   3.877
 1386SOL     OW 5056   2.805   2.316   3.451
 1386SOL    HW1 5057   2.808   2.285   3.356
 1386SOL    HW2 5058   2.721   2.368   3.467
 1387SOL     OW 5059   3.280   0.599   3.872
 1387SOL    HW1 5060   3.254   0.645   3.788
 1387SOL    HW2 5061   3.235   0.643   3.950
 1388SOL     OW 5062   4.935   2.072   3.733
 1388SOL    HW1 5063   4.981   1.990   3.699
 1388SOL    HW2 5064   4.840   2.051   3.756
 1389SOL     OW 5065   6.239   0.393   3.995
 1389SOL    HW1 5066   6.227   0.431   4.087
 1389SOL    HW2 5067   6.151   0.392   3.947
 1390SOL     OW 5068   5.411   1.984   2.310
 1390SOL    HW1 5069   5.454   2.066   2.274
 1390SOL    HW2 5070   5.460   1.903   2.276
 1391SOL     OW 5071   5.755   0.533   5.360
 1391SOL    HW1 5072   5.849   0.503   5.378
 1391SOL    HW2 5073   5.743   0.626   5.396
 1392SOL     OW 5074   3.687   0.259   5.160
 1392SOL    HW1 5075   3.709   0.351   5.127
 1392SOL    HW2 5076   3.739   0.240   5.243
 1393SOL     OW 5077   5.121   0.048   6.942
 1393SOL    HW1 5078   5.061   0.124   6.915
 1393SOL    HW2 5079   5.209   0.057   6.895
 1394SOL     OW 5080   4.222   1.015   4.240
 1394SOL    HW1 5081   4.216   0.916   4.253
 1394SOL    HW2 5082   4.260   1.058   4.323
 1395SOL     OW 5083   0.924   4.931   2.278
 1395SOL    HW1 5084   0.930   4.956   2.181
 1395SOL    HW2 5085   0.943   4.834   2.289
 1396SOL     OW 5086   1.197   1.565   3.531
 1396SOL    HW1 5087   1.106   1.561   3.490
 1396SOL    HW2 5088   1.226   1.473   3.556
 1397SOL     OW 5089   2.455   4.376   5.717
 1397SOL    HW1 5090   2.526   4.441   5.744
 1397SOL    HW2 5091   2.475   4.340   5.626
 1398SOL     OW 5092   3.276   6.806   6.130
 1398SOL    HW1 5093   3.292   6.861   6.212
 1398SOL    HW2 5094   3.286   6.865   6.049
 1399SOL     OW 5095   3.598   6.899   0.054
 1399SOL    HW1 5096   3.519   6.870   0.109
 1399SOL    HW2 5097   3.570   6.910   6.981
 1400SOL     OW 5098   0.278   1.788   5.464
 1400SOL    HW1 5099   0.278   1.714   5.396
 1400SOL    HW2 5100   0.190   1.790   5.511
 1401SOL     OW 5101   4.395   6.951   2.128
 1401SOL    HW1 5102   4.423   7.020   2.061
 1401SOL    HW2 5103   4.403   6.990   2.220
 1402SOL     OW 5104   4.834   3.912   2.096
 1402SOL    HW1 5105   4.831   3.944   2.001
 1402SOL    HW2 5106   4.815   3.988   2.158
 1403SOL     OW 5107   3.280   3.074   6.940
 1403SOL    HW1 5108   3.243   3.159   6.902
 1403SOL    HW2 5109   3.246   2.996   6.887
 1404SOL     OW 5110   3.539   6.387   6.976
 1404SOL    HW1 5111   3.447   6.425   6.976
 1404SOL    HW2 5112   3.545   6.311   0.019
 1405SOL     OW 5113   1.131   4.303   6.688
 1405SOL    HW1 5114   1.127   4.280   6.785
 1405SOL    HW2 5115   1.079   4.236   6.635
 1406SOL     OW 5116   2.083   2.400   6.994
 1406SOL    HW1 5117   2.148   2.476   6.994
 1406SOL    HW2 5118   2.059   2.377   0.066
 1407SOL     OW 5119   6.829   2.752   1.397
 1407SOL    HW1 5120   6.766   2.783   1.467
 1407SOL    HW2 5121   6.894   2.824   1.376
 1408SOL     OW 5122   5.326   6.298   1.063
 1408SOL    HW1 5123   5.281   6.333   0.980
 1408SOL    HW2 5124   5.285   6.210   1.088
 1409SOL     OW 5125   5.759   2.116   5.808
 1409SOL    HW1 5126   5.692   2.043   5.821
 1409SOL    HW2 5127   5.805   2.135   5.894
 1410SOL     OW 5128   3.099   0.525   0.853
 1410SOL    HW1 5129   3.120   0.533   0.950
 1410SOL    HW2 5130   3.181   0.548   0.799
 1411SOL     OW 5131   3.211   6.909   0.345
 1411SOL    HW1 5132   3.272   6.894   0.423
 1411SOL    HW2 5133   3.226   7.001   0.308
 1412SOL     OW 5134   2.054   1.521   6.545
 1412SOL    HW1 5135   2.003   1.494   6.463
 1412SOL    HW2 5136   2.036   1.617   6.566
 1413SOL     OW 5137   2.635   1.530   4.999
 1413SOL    HW1 5138   2.655   1.485   5.086
 1413SOL    HW2 5139   2.581   1.469   4.942
 1414SOL     OW 5140   0.369   5.169   2.178
 1414SOL    HW1 5141   0.386   5.268   2.172
 1414SOL    HW2 5142   0.450   5.119   2.147
 1415SOL     OW 5143   3.594   2.031   5.394
 1415SOL    HW1 5144   3.574   2.007   5.489
 1415SOL    HW2 5145   3.554   1.962   5.334
 1416SOL     OW 5146   4.683   0.590   5.365
 1416SOL    HW1 5147   4.710   0.570   5.271
 1416SOL    HW2 5148   4.654   0.685   5.372
 1417SOL     OW 5149   3.670   3.846   4.324
 1417SOL    HW1 5150   3.575   3.867   4.348
 1417SOL    HW2 5151   3.720   3.930   4.307
 1418SOL     OW 5152   3.113   3.652   5.103
 1418SOL    HW1 5153   3.052   3.653   5.023
 1418SOL    HW2 5154   3.208   3.650   5.073
 1419SOL     OW 5155   0.558   5.268   1.808
 1419SOL    HW1 5156   0.516   5.326   1.739
 1419SOL    HW2 5157   0.602   5.325   1.878
 1420SOL     OW 5158   2.678   6.642   3.333
 1420SOL    HW1 5159   2.689   6.729   3.283
 1420SOL    HW2 5160   2.625   6.659   3.416
 1421SOL     OW 5161   1.796   5.357   0.283
 1421SOL    HW1 5162   1.870   5.400   0.232
 1421SOL    HW2 5163   1.806   5.377   0.380
 1422SOL     OW 5164   1.693   4.206   6.977
 1422SOL    HW1 5165   1.748   4.216   0.038
 1422SOL    HW2 5166   1.749   4.230   6.898
 1423SOL     OW 5167   4.786   1.153   4.640
 1423SOL    HW1 5168   4.837   1.171   4.725
 1423SOL    HW2 5169   4.688   1.159   4.658
 1424SOL     OW 5170   6.537   3.541   1.391
 1424SOL    HW1 5171   6.598   3.465   1.369
 1424SOL    HW2 5172   6.559   3.576   1.482
 1425SOL     OW 5173   5.874   6.315   3.460
 1425SOL    HW1 5174   5.842   6.351   3.372
 1425SOL    HW2 5175   5.797   6.309   3.524
 1426SOL     OW 5176   3.946   1.223   1.199
 1426SOL    HW1 5177   3.899   1.231   1.111
 1426SOL    HW2 5178   3.879   1.214   1.272
 1427SOL     OW 5179   1.288   1.120   4.110
 1427SOL    HW1 5180   1.308   1.118   4.012
 1427SOL    HW2 5181   1.326   1.039   4.154
 1428SOL     OW 5182   1.926   3.976   3.892
 1428SOL    HW1 5183   1.970   4.050   3.841
 1428SOL    HW2 5184   1.980   3.956   3.974
 1429SOL     OW 5185   6.047   0.497   1.452
 1429SOL    HW1 5186   5.954   0.482   1.420
 1429SOL    HW2 5187   6.112   0.463   1.384
 1430SOL     OW 5188   2.106   3.759   4.343
 1430SOL    HW1 5189   2.167   3.834   4.367
 1430SOL    HW2 5190   2.014   3.794   4.325
 1431SOL     OW 5191   3.404   2.008   0.678
 1431SOL    HW1 5192   3.480   2.071   0.692
 1431SOL    HW2 5193   3.353   1.998   0.764
 1432SOL     OW 5194   3.004   0.343   2.717
 1432SOL    HW1 5195   3.076   0.413   2.714
 1432SOL    HW2 5196   3.046   0.252   2.715
 1433SOL     OW 5197   3.389   1.590   4.115
 1433SOL    HW1 5198   3.307   1.614   4.168
 1433SOL    HW2 5199   3.405   1.659   4.045
 1434SOL     OW 5200   5.851   3.488   1.064
 1434SOL    HW1 5201   5.890   3.483   0.972
 1434SOL    HW2 5202   5.779   3.557   1.066
 1435SOL     OW 5203   6.964   6.395   4.454
 1435SOL    HW1 5204   6.933   6.368   4.545
 1435SOL    HW2 5205   6.955   6.317   4.392
 1436SOL     OW 5206   5.776   0.779   7.021
 1436SOL    HW1 5207   5.827   0.836   0.063
 1436SOL    HW2 5208   5.685   0.761   0.035
 1437SOL     OW 5209   4.199   0.764   0.393
 1437SOL    HW1 5210   4.188   0.691   0.460
 1437SOL    HW2 5211   4.109   0.791   0.358
 1438SOL     OW 5212   2.730   6.915   3.217
 1438SOL    HW1 5213   2.739   7.013   3.235
 1438SOL    HW2 5214   2.820   6.874   3.209
 1439SOL     OW 5215   6.811   5.184   4.967
 1439SOL    HW1 5216   6.721   5.217   4.938
 1439SOL    HW2 5217   6.827   5.211   5.062
 1440SOL     OW 5218   3.442   3.135   2.633
 1440SOL    HW1 5219   3.406   3.227   2.650
 1440SOL    HW2 5220   3.393   3.070   2.690
 1441SOL     OW 5221   0.606   2.340   6.433
 1441SOL    HW1 5222   0.623   2.352   6.531
 1441SOL    HW2 5223   0.529   2.278   6.420
 1442SOL     OW 5224   5.541   6.063   0.071
 1442SOL    HW1 5225   5.568   6.157   0.092
 1442SOL    HW2 5226   5.459   6.039   0.124
 1443SOL     OW 5227   1.768   3.158   4.091
 1443SOL    HW1 5228   1.676   3.189   4.113
 1443SOL    HW2 5229   1.789   3.177   3.995
 1444SOL     OW 5230   4.956   6.608   4.659
 1444SOL    HW1 5231   4.997   6.697   4.639
 1444SOL    HW2 5232   5.029   6.543   4.679
 1445SOL     OW 5233   6.742   2.336   0.145
 1445SOL    HW1 5234   6.645   2.359   0.134
 1445SOL    HW2 5235   6.761   2.250   0.098
 1446SOL     OW 5236   2.855   5.811   2.242
 1446SOL    HW1 5237   2.892   5.765   2.323
 1446SOL    HW2 5238   2.769   5.857   2.265
 1447SOL     OW 5239   6.545   1.040   4.788
 1447SOL    HW1 5240   6.497   1.032   4.701
 1447SOL    HW2 5241   6.585   0.952   4.812
 1448SOL     OW 5242   5.499   1.152   0.523
 1448SOL    HW1 5243   5.593   1.176   0.498
 1448SOL    HW2 5244   5.454   1.233   0.562
 1449SOL     OW 5245   4.568   5.526   0.215
 1449SOL    HW1 5246   4.586   5.487   0.306
 1449SOL    HW2 5247   4.642   5.503   0.153
 1450SOL     OW 5248   5.413   1.286   3.473
 1450SOL    HW1 5249   5.315   1.303   3.482
 1450SOL    HW2 5250   5.460   1.317   3.555
 1451SOL     OW 5251   0.487   6.812   2.547
 1451SOL    HW1 5252   0.465   6.836   2.641
 1451SOL    HW2 5253   0.473   6.714   2.534
 1452SOL     OW 5254   1.971   0.186   6.179
 1452SOL    HW1 5255   1.956   0.098   6.223
 1452SOL    HW2 5256   1.989   0.255   6.249
 1453SOL     OW 5257   6.077   4.228   4.330
 1453SOL    HW1 5258   6.033   4.158   4.273
 1453SOL    HW2 5259   6.140   4.282   4.274
 1454SOL     OW 5260   5.644   3.964   1.562
 1454SOL    HW1 5261   5.715   3.935   1.498
 1454SOL    HW2 5262   5.580   4.025   1.516
 1455SOL     OW 5263   1.922   1.713   1.870
 1455SOL    HW1 5264   1.832   1.729   1.912
 1455SOL    HW2 5265   1.934   1.775   1.792
 1456SOL     OW 5266   5.411   5.189   5.046
 1456SOL    HW1 5267   5.428   5.288   5.044
 1456SOL    HW2 5268   5.437   5.152   5.135
 1457SOL     OW 5269   1.891   1.280   4.759
 1457SOL    HW1 5270   1.952   1.355   4.733
 1457SOL    HW2 5271   1.799   1.301   4.726
 1458SOL     OW 5272   6.597   5.606   0.339
 1458SOL    HW1 5273   6.570   5.636   0.430
 1458SOL    HW2 5274   6.647   5.520   0.345
 1459SOL     OW 5275   2.737   0.059   1.752
 1459SOL    HW1 5276   2.712   6.989   1.780
 1459SOL    HW2 5277   2.710   0.073   1.656
 1460SOL     OW 5278   0.550   1.565   6.480
 1460SOL    HW1 5279   0.571   1.572   6.382
 1460SOL    HW2 5280   0.630   1.594   6.533
 1461SOL     OW 5281   4.809   4.374   2.720
 1461SOL    HW1 5282   4.853   4.357   2.808
 1461SOL    HW2 5283   4.716   4.409   2.735
 1462SOL     OW 5284   5.762   0.230   5.412
 1462SOL    HW1 5285   5.768   0.147   5.355
 1462SOL    HW2 5286   5.843   0.286   5.398
 1463SOL     OW 5287   0.996   2.304   5.610
 1463SOL    HW1 5288   1.071   2.306   5.676
 1463SOL    HW2 5289   0.925   2.241   5.642
 1464SOL     OW 5290   0.581   0.829   1.033
 1464SOL    HW1 5291   0.621   0.802   1.121
 1464SOL    HW2 5292   0.626   0.778   0.959
 1465SOL     OW 5293   1.972   1.199   3.812
 1465SOL    HW1 5294   2.024   1.114   3.807
 1465SOL    HW2 5295   1.903   1.200   3.739
 1466SOL     OW 5296   5.993   5.906   4.118
 1466SOL    HW1 5297   6.063   5.838   4.095
 1466SOL    HW2 5298   5.907   5.860   4.139
 1467SOL     OW 5299   0.093   4.215   4.869
 1467SOL    HW1 5300   0.177   4.242   4.916
 1467SOL    HW2 5301   0.031   4.171   4.934
 1468SOL     OW 5302   4.515   0.325   2.491
 1468SOL    HW1 5303   4.420   0.302   2.510
 1468SOL    HW2 5304   4.555   0.371   2.571
 1469SOL     OW 5305   6.777   0.405   2.480
 1469SOL    HW1 5306   6.731   0.408   2.569
 1469SOL    HW2 5307   6.759   0.316   2.437
 1470SOL     OW 5308   0.226   0.361   2.720
 1470SOL    HW1 5309   0.220   0.272   2.675
 1470SOL    HW2 5310   0.322   0.382   2.739
 1471SOL     OW 5311   6.134   1.398   1.268
 1471SOL    HW1 5312   6.075   1.382   1.347
 1471SOL    HW2 5313   6.109   1.336   1.194
 1472SOL     OW 5314   4.285   5.282   4.954
 1472SOL    HW1 5315   4.325   5.371   4.975
 1472SOL    HW2 5316   4.295   5.222   5.033
 1473SOL     OW 5317   0.199   3.191   4.037
 1473SOL    HW1 5318   0.298   3.183   4.031
 1473SOL    HW2 5319   0.156   3.128   3.973
 1474SOL     OW 5320   4.755   6.264   2.575
 1474SOL    HW1 5321   4.750   6.336   2.645
 1474SOL    HW2 5322   4.747   6.174   2.619
 1475SOL     OW 5323   6.141   6.453   2.725
 1475SOL    HW1 5324   6.158   6.354   2.733
 1475SOL    HW2 5325   6.098   6.473   2.637
 1476SOL     OW 5326   0.999   2.333   0.925
 1476SOL    HW1 5327   0.971   2.357   0.832
 1476SOL    HW2 5328   1.084   2.279   0.921
 1477SOL     OW 5329   2.370   6.559   4.602
 1477SOL    HW1 5330   2.347   6.520   4.513
 1477SOL    HW2 5331   2.292   6.547   4.664
 1478SOL     OW 5332   0.468   4.019   1.146
 1478SOL    HW1 5333   0.500   4.044   1.237
 1478SOL    HW2 5334   0.369   4.008   1.147
 1479SOL     OW 5335   1.504   5.147   6.902
 1479SOL    HW1 5336   1.576   5.100   6.851
 1479SOL    HW2 5337   1.492   5.102   6.991
 1480SOL     OW 5338   3.226   0.430   0.141
 1480SOL    HW1 5339   3.240   0.529   0.131
 1480SOL    HW2 5340   3.313   0.383   0.133
 1481SOL     OW 5341   0.226   3.354   0.740
 1481SOL    HW1 5342   0.299   3.327   0.677
 1481SOL    HW2 5343   0.266   3.398   0.820
 1482SOL     OW 5344   5.584   0.656   5.962
 1482SOL    HW1 5345   5.654   0.720   5.930
 1482SOL    HW2 5346   5.535   0.618   5.883
 1483SOL     OW 5347   0.378   2.885   0.716
 1483SOL    HW1 5348   0.314   2.810   0.698
 1483SOL    HW2 5349   0.326   2.968   0.735
 1484SOL     OW 5350   6.304   0.104   3.221
 1484SOL    HW1 5351   6.325   0.040   3.295
 1484SOL    HW2 5352   6.205   0.111   3.211
 1485SOL     OW 5353   5.532   3.414   4.230
 1485SOL    HW1 5354   5.491   3.323   4.240
 1485SOL    HW2 5355   5.474   3.482   4.273
 1486SOL     OW 5356   5.108   2.942   1.636
 1486SOL    HW1 5357   5.049   2.915   1.713
 1486SOL    HW2 5358   5.081   2.892   1.554
 1487SOL     OW 5359   0.622   6.882   5.431
 1487SOL    HW1 5360   0.568   6.798   5.436
 1487SOL    HW2 5361   0.656   6.905   5.522
 1488SOL     OW 5362   4.834   1.893   4.071
 1488SOL    HW1 5363   4.821   1.888   3.972
 1488SOL    HW2 5364   4.820   1.803   4.111
 1489SOL     OW 5365   3.266   4.951   4.899
 1489SOL    HW1 5366   3.258   5.048   4.877
 1489SOL    HW2 5367   3.363   4.925   4.901
 1490SOL     OW 5368   2.701   3.290   0.412
 1490SOL    HW1 5369   2.770   3.322   0.476
 1490SOL    HW2 5370   2.647   3.218   0.454
 1491SOL     OW 5371   1.181   2.075   3.808
 1491SOL    HW1 5372   1.216   2.040   3.895
 1491SOL    HW2 5373   1.253   2.069   3.739
 1492SOL     OW 5374   0.390   2.208   1.493
 1492SOL    HW1 5375   0.460   2.279   1.500
 1492SOL    HW2 5376   0.299   2.250   1.503
 1493SOL     OW 5377   6.310   2.752   5.258
 1493SOL    HW1 5378   6.294   2.794   5.169
 1493SOL    HW2 5379   6.407   2.727   5.266
 1494SOL     OW 5380   5.379   1.890   3.864
 1494SOL    HW1 5381   5.378   1.884   3.964
 1494SOL    HW2 5382   5.362   1.799   3.825
 1495SOL     OW 5383   1.690   4.031   1.228
 1495SOL    HW1 5384   1.681   3.941   1.184
 1495SOL    HW2 5385   1.787   4.053   1.238
 1496SOL     OW 5386   0.398   0.568   2.505
 1496SOL    HW1 5387   0.395   0.468   2.493
 1496SOL    HW2 5388   0.433   0.588   2.597
 1497SOL     OW 5389   5.729   4.824   6.090
 1497SOL    HW1 5390   5.774   4.752   6.036
 1497SOL    HW2 5391   5.708   4.901   6.030
 1498SOL     OW 5392   3.033   5.494   6.906
 1498SOL    HW1 5393   3.009   5.548   6.987
 1498SOL    HW2 5394   2.952   5.444   6.875
 1499SOL     OW 5395   1.509   4.371   4.132
 1499SOL    HW1 5396   1.472   4.409   4.047
 1499SOL    HW2 5397   1.480   4.428   4.209
 1500SOL     OW 5398   4.173   5.957   5.927
 1500SOL    HW1 5399   4.199   6.042   5.880
 1500SOL    HW2 5400   4.251   5.925   5.981
 1501SOL     OW 5401   3.477   0.589   1.076
 1501SOL    HW1 5402   3.491   0.546   1.166
 1501SOL    HW2 5403   3.480   0.689   1.087
 1502SOL     OW 5404   0.311   0.868   6.656
 1502SOL    HW1 5405   0.339   0.964   6.650
 1502SOL    HW2 5406   0.249   0.847   6.581
 1503SOL     OW 5407   3.465   3.862   5.127
 1503SOL    HW1 5408   3.414   3.801   5.066
 1503SOL    HW2 5409   3.563   3.852   5.110
 1504SOL     OW 5410   2.844   6.974   3.598
 1504SOL    HW1 5411   2.841   6.931   3.507
 1504SOL    HW2 5412   2.910   0.027   3.596
 1505SOL     OW 5413   5.364   6.653   3.167
 1505SOL    HW1 5414   5.384   6.714   3.243
 1505SOL    HW2 5415   5.353   6.706   3.083
 1506SOL     OW 5416   0.048   6.324   4.031
 1506SOL    HW1 5417   7.002   6.271   3.982
 1506SOL    HW2 5418   0.089   6.268   4.103
 1507SOL     OW 5419   1.959   1.679   6.888
 1507SOL    HW1 5420   1.928   1.740   6.961
 1507SOL    HW2 5421   1.912   1.591   6.896
 1508SOL     OW 5422   4.500   6.511   0.759
 1508SOL    HW1 5423   4.437   6.434   0.752
 1508SOL    HW2 5424   4.537   6.515   0.852
 1509SOL     OW 5425   5.392   1.744   6.837
 1509SOL    HW1 5426   5.470   1.786   6.789
 1509SOL    HW2 5427   5.423   1.708   6.925
 1510SOL     OW 5428   6.372   1.751   2.036
 1510SOL    HW1 5429   6.361   1.819   2.108
 1510SOL    HW2 5430   6.446   1.688   2.059
 1511SOL     OW 5431   0.489   2.989   0.481
 1511SOL    HW1 5432   0.461   2.975   0.576
 1511SOL    HW2 5433   0.414   2.964   0.420
 1512SOL     OW 5434   7.022   0.750   2.775
 1512SOL    HW1 5435   0.079   0.762   2.835
 1512SOL    HW2 5436   0.007   0.663   2.727
 1513SOL     OW 5437   1.959   0.949   2.655
 1513SOL    HW1 5438   2.047   0.994   2.645
 1513SOL    HW2 5439   1.970   0.865   2.709
 1514SOL     OW 5440   4.621   0.304   5.902
 1514SOL    HW1 5441   4.591   0.388   5.857
 1514SOL    HW2 5442   4.562   0.286   5.982
 1515SOL     OW 5443   5.652   5.448   5.903
 1515SOL    HW1 5444   5.580   5.511   5.877
 1515SOL    HW2 5445   5.738   5.498   5.916
 1516SOL     OW 5446   6.042   1.573   2.281
 1516SOL    HW1 5447   6.031   1.596   2.185
 1516SOL    HW2 5448   6.133   1.600   2.312
 1517SOL     OW 5449   3.556   5.154   1.863
 1517SOL    HW1 5450   3.510   5.243   1.863
 1517SOL    HW2 5451   3.640   5.159   1.917
 1518SOL     OW 5452   1.057   5.091   1.108
 1518SOL    HW1 5453   1.068   4.992   1.100
 1518SOL    HW2 5454   1.102   5.123   1.191
 1519SOL     OW 5455   0.443   4.622   1.075
 1519SOL    HW1 5456   0.361   4.678   1.080
 1519SOL    HW2 5457   0.499   4.637   1.157
 1520SOL     OW 5458   1.496   4.313   2.970
 1520SOL    HW1 5459   1.566   4.243   2.986
 1520SOL    HW2 5460   1.514   4.359   2.883
 1521SOL     OW 5461   2.318   5.971   5.342
 1521SOL    HW1 5462   2.366   5.887   5.367
 1521SOL    HW2 5463   2.338   5.994   5.247
 1522SOL     OW 5464   1.591   2.468   5.742
 1522SOL    HW1 5465   1.594   2.461   5.842
 1522SOL    HW2 5466   1.496   2.468   5.712
 1523SOL     OW 5467   5.667   0.774   1.748
 1523SOL    HW1 5468   5.651   0.700   1.682
 1523SOL    HW2 5469   5.763   0.803   1.742
 1524SOL     OW 5470   0.736   1.904   0.913
 1524SOL    HW1 5471   0.798   1.956   0.972
 1524SOL    HW2 5472   0.714   1.817   0.957
 1525SOL     OW 5473   5.012   0.985   5.236
 1525SOL    HW1 5474   4.989   0.888   5.231
 1525SOL    HW2 5475   5.096   0.998   5.289
 1526SOL     OW 5476   5.611   2.900   0.194
 1526SOL    HW1 5477   5.575   2.924   0.284
 1526SOL    HW2 5478   5.675   2.824   0.203
 1527SOL     OW 5479   2.262   0.530   5.106
 1527SOL    HW1 5480   2.346   0.585   5.098
 1527SOL    HW2 5481   2.183   0.591   5.114
 1528SOL     OW 5482   5.206   6.249   3.904
 1528SOL    HW1 5483   5.294   6.284   3.873
 1528SOL    HW2 5484   5.202   6.151   3.886
 1529SOL     OW 5485   1.713   6.723   5.189
 1529SOL    HW1 5486   1.636   6.711   5.252
 1529SOL    HW2 5487   1.784   6.777   5.234
 1530SOL     OW 5488   3.272   6.430   1.666
 1530SOL    HW1 5489   3.281   6.514   1.614
 1530SOL    HW2 5490   3.357   6.378   1.661
 1531SOL     OW 5491   5.888   1.285   6.527
 1531SOL    HW1 5492   5.838   1.342   6.462
 1531SOL    HW2 5493   5.871   1.318   6.620
 1532SOL     OW 5494   2.942   1.161   5.182
 1532SOL    HW1 5495   2.936   1.255   5.217
 1532SOL    HW2 5496   2.979   1.163   5.089
 1533SOL     OW 5497   4.717   3.531   0.553
 1533SOL    HW1 5498   4.620   3.535   0.577
 1533SOL    HW2 5499   4.727   3.551   0.455
 1534SOL     OW 5500   0.438   0.053   0.478
 1534SOL    HW1 5501   0.453   0.011   0.388
 1534SOL    HW2 5502   0.341   0.071   0.490
 1535SOL     OW 5503   5.159   4.227   4.558
 1535SOL    HW1 5504   5.061   4.208   4.572
 1535SOL    HW2 5505   5.195   4.164   4.490
 1536SOL     OW 5506   2.996   6.295   3.101
 1536SOL    HW1 5507   2.913   6.298   3.157
 1536SOL    HW2 5508   3.075   6.319   3.157
 1537SOL     OW 5509   1.781   5.832   4.312
 1537SOL    HW1 5510   1.724   5.877   4.380
 1537SOL    HW2 5511   1.724   5.802   4.235
 1538SOL     OW 5512   3.301   6.106   0.162
 1538SOL    HW1 5513   3.284   6.091   0.259
 1538SOL    HW2 5514   3.214   6.113   0.113
 1539SOL     OW 5515   2.574   6.679   2.031
 1539SOL    HW1 5516   2.527   6.607   1.981
 1539SOL    HW2 5517   2.546   6.677   2.127
 1540SOL     OW 5518   6.130   0.180   5.510
 1540SOL    HW1 5519   6.101   0.113   5.441
 1540SOL    HW2 5520   6.190   0.136   5.576
 1541SOL     OW 5521   5.282   2.232   1.621
 1541SOL    HW1 5522   5.183   2.232   1.606
 1541SOL    HW2 5523   5.323   2.309   1.573
 1542SOL     OW 5524   0.018   5.424   1.549
 1542SOL    HW1 5525   6.953   5.400   1.505
 1542SOL    HW2 5526   0.087   5.440   1.479
 1543SOL     OW 5527   3.319   3.361   2.712
 1543SOL    HW1 5528   3.317   3.415   2.628
 1543SOL    HW2 5529   3.226   3.350   2.747
 1544SOL     OW 5530   3.515   3.341   1.578
 1544SOL    HW1 5531   3.426   3.309   1.609
 1544SOL    HW2 5532   3.520   3.440   1.586
 1545SOL     OW 5533   0.551   6.606   5.390
 1545SOL    HW1 5534   0.489   6.614   5.468
 1545SOL    HW2 5535   0.499   6.579   5.309
 1546SOL     OW 5536   0.502   6.776   0.623
 1546SOL    HW1 5537   0.466   6.731   0.542
 1546SOL    HW2 5538   0.435   6.843   0.656
 1547SOL     OW 5539   2.949   6.318   0.531
 1547SOL    HW1 5540   2.949   6.219   0.519
 1547SOL    HW2 5541   2.901   6.340   0.617
 1548SOL     OW 5542   6.304   4.172   3.345
 1548SOL    HW1 5543   6.275   4.196   3.252
 1548SOL    HW2 5544   6.305   4.072   3.355
 1549SOL     OW 5545   5.901   1.756   1.191
 1549SOL    HW1 5546   5.907   1.856   1.202
 1549SOL    HW2 5547   5.932   1.711   1.274
 1550SOL     OW 5548   2.382   4.799   2.270
 1550SOL    HW1 5549   2.376   4.834   2.177
 1550SOL    HW2 5550   2.445   4.857   2.323
 1551SOL     OW 5551   1.364   2.389   1.716
 1551SOL    HW1 5552   1.272   2.411   1.747
 1551SOL    HW2 5553   1.376   2.290   1.714
 1552SOL     OW 5554   1.561   6.402   2.324
 1552SOL    HW1 5555   1.651   6.358   2.324
 1552SOL    HW2 5556   1.534   6.421   2.229
 1553SOL     OW 5557   5.834   1.940   5.597
 1553SOL    HW1 5558   5.833   2.000   5.676
 1553SOL    HW2 5559   5.850   1.846   5.627
 1554SOL     OW 5560   2.905   3.370   0.218
 1554SOL    HW1 5561   2.913   3.307   0.141
 1554SOL    HW2 5562   2.835   3.335   0.282
 1555SOL     OW 5563   4.697   1.610   1.034
 1555SOL    HW1 5564   4.769   1.543   1.052
 1555SOL    HW2 5565   4.608   1.564   1.038
 1556SOL     OW 5566   3.055   2.310   0.793
 1556SOL    HW1 5567   3.054   2.397   0.840
 1556SOL    HW2 5568   3.136   2.303   0.735
 1557SOL     OW 5569   2.438   2.232   1.569
 1557SOL    HW1 5570   2.519   2.283   1.540
 1557SOL    HW2 5571   2.421   2.157   1.506
 1558SOL     OW 5572   4.658   2.637   0.037
 1558SOL    HW1 5573   4.720   2.608   6.987
 1558SOL    HW2 5574   4.566   2.648   0.000
 1559SOL     OW 5575   2.444   6.783   3.784
 1559SOL    HW1 5576   2.522   6.811   3.839
 1559SOL    HW2 5577   2.476   6.730   3.705
 1560SOL     OW 5578   4.787   2.946   1.369
 1560SOL    HW1 5579   4.881   2.926   1.340
 1560SOL    HW2 5580   4.786   2.963   1.468
 1561SOL     OW 5581   6.153   6.386   0.739
 1561SOL    HW1 5582   6.244   6.393   0.700
 1561SOL    HW2 5583   6.091   6.343   0.674
 1562SOL     OW 5584   2.749   0.102   2.784
 1562SOL    HW1 5585   2.712   0.010   2.800
 1562SOL    HW2 5586   2.728   0.161   2.862
 1563SOL     OW 5587   2.300   4.248   3.559
 1563SOL    HW1 5588   2.294   4.161   3.607
 1563SOL    HW2 5589   2.271   4.237   3.464
 1564SOL     OW 5590   1.930   2.157   3.344
 1564SOL    HW1 5591   1.950   2.235   3.404
 1564SOL    HW2 5592   1.985   2.165   3.261
 1565SOL     OW 5593   5.362   1.690   5.380
 1565SOL    HW1 5594   5.456   1.722   5.374
 1565SOL    HW2 5595   5.329   1.700   5.474
 1566SOL     OW 5596   1.318   3.482   3.922
 1566SOL    HW1 5597   1.402   3.535   3.909
 1566SOL    HW2 5598   1.239   3.543   3.910
 1567SOL     OW 5599   5.267   0.659   4.764
 1567SOL    HW1 5600   5.314   0.743   4.736
 1567SOL    HW2 5601   5.276   0.647   4.863
 1568SOL     OW 5602   2.011   4.695   0.644
 1568SOL    HW1 5603   1.949   4.760   0.689
 1568SOL    HW2 5604   2.105   4.719   0.666
 1569SOL     OW 5605   2.244   1.058   2.272
 1569SOL    HW1 5606   2.201   1.140   2.234
 1569SOL    HW2 5607   2.332   1.043   2.227
 1570SOL     OW 5608   2.958   5.911   6.285
 1570SOL    HW1 5609   2.871   5.867   6.306
 1570SOL    HW2 5610   3.011   5.852   6.225
 1571SOL     OW 5611   0.816   1.238   5.031
 1571SOL    HW1 5612   0.836   1.317   4.974
 1571SOL    HW2 5613   0.866   1.246   5.118
 1572SOL     OW 5614   1.836   6.234   3.586
 1572SOL    HW1 5615   1.755   6.269   3.632
 1572SOL    HW2 5616   1.905   6.307   3.579
 1573SOL     OW 5617   5.509   5.874   0.354
 1573SOL    HW1 5618   5.468   5.826   0.432
 1573SOL    HW2 5619   5.606   5.854   0.350
 1574SOL     OW 5620   0.448   3.022   3.079
 1574SOL    HW1 5621   0.447   3.120   3.058
 1574SOL    HW2 5622   0.486   3.007   3.170
 1575SOL     OW 5623   6.825   2.090   7.012
 1575SOL    HW1 5624   6.920   2.101   0.019
 1575SOL    HW2 5625   6.808   2.149   6.933
 1576SOL     OW 5626   1.051   6.341   2.723
 1576SOL    HW1 5627   1.089   6.298   2.641
 1576SOL    HW2 5628   0.969   6.392   2.699
 1577SOL     OW 5629   4.365   5.976   3.560
 1577SOL    HW1 5630   4.431   5.919   3.610
 1577SOL    HW2 5631   4.348   6.060   3.610
 1578SOL     OW 5632   5.339   1.903   1.712
 1578SOL    HW1 5633   5.406   1.933   1.780
 1578SOL    HW2 5634   5.249   1.937   1.738
 1579SOL     OW 5635   1.549   3.663   2.293
 1579SOL    HW1 5636   1.525   3.638   2.200
 1579SOL    HW2 5637   1.472   3.641   2.354
 1580SOL     OW 5638   3.215   3.460   3.905
 1580SOL    HW1 5639   3.314   3.472   3.906
 1580SOL    HW2 5640   3.173   3.533   3.852
 1581SOL     OW 5641   5.164   4.044   5.369
 1581SOL    HW1 5642   5.169   3.945   5.350
 1581SOL    HW2 5643   5.251   4.086   5.342
 1582SOL     OW 5644   3.905   5.852   3.676
 1582SOL    HW1 5645   3.960   5.908   3.738
 1582SOL    HW2 5646   3.963   5.818   3.602
 1583SOL     OW 5647   0.432   5.600   4.745
 1583SOL    HW1 5648   0.424   5.570   4.840
 1583SOL    HW2 5649   0.384   5.535   4.686
 1584SOL     OW 5650   0.404   4.486   0.066
 1584SOL    HW1 5651   0.342   4.409   0.078
 1584SOL    HW2 5652   0.496   4.451   0.044
 1585SOL     OW 5653   4.428   6.301   4.167
 1585SOL    HW1 5654   4.501   6.350   4.118
 1585SOL    HW2 5655   4.398   6.356   4.245
 1586SOL     OW 5656   2.756   6.096   3.777
 1586SOL    HW1 5657   2.679   6.157   3.799
 1586SOL    HW2 5658   2.797   6.064   3.862
 1587SOL     OW 5659   4.154   0.298   6.899
 1587SOL    HW1 5660   4.197   0.311   6.988
 1587SOL    HW2 5661   4.057   0.275   6.911
 1588SOL     OW 5662   6.357   1.816   3.954
 1588SOL    HW1 5663   6.321   1.739   4.007
 1588SOL    HW2 5664   6.326   1.809   3.860
 1589SOL     OW 5665   6.940   1.460   4.138
 1589SOL    HW1 5666   7.009   1.475   4.067
 1589SOL    HW2 5667   6.970   1.501   4.224
 1590SOL     OW 5668   5.763   0.681   3.583
 1590SOL    HW1 5669   5.743   0.598   3.531
 1590SOL    HW2 5670   5.687   0.700   3.644
 1591SOL     OW 5671   0.216   5.485   0.768
 1591SOL    HW1 5672   0.136   5.485   0.708
 1591SOL    HW2 5673   0.189   5.458   0.860
 1592SOL     OW 5674   6.962   4.428   4.921
 1592SOL    HW1 5675   7.021   4.354   4.889
 1592SOL    HW2 5676   6.868   4.395   4.927
 1593SOL     OW 5677   3.731   5.545   1.441
 1593SOL    HW1 5678   3.809   5.595   1.478
 1593SOL    HW2 5679   3.751   5.447   1.443
 1594SOL     OW 5680   5.439   0.839   2.624
 1594SOL    HW1 5681   5.424   0.877   2.716
 1594SOL    HW2 5682   5.481   0.909   2.566
 1595SOL     OW 5683   7.017   3.932   0.390
 1595SOL    HW1 5684   6.943   3.873   0.357
 1595SOL    HW2 5685   0.066   3.937   0.321
 1596SOL     OW 5686   5.096   4.376   4.093
 1596SOL    HW1 5687   5.050   4.450   4.142
 1596SOL    HW2 5688   5.053   4.289   4.116
 1597SOL     OW 5689   4.162   6.655   1.197
 1597SOL    HW1 5690   4.085   6.711   1.166
 1597SOL    HW2 5691   4.194   6.599   1.121
 1598SOL     OW 5692   0.657   5.629   5.977
 1598SOL    HW1 5693   0.689   5.707   5.924
 1598SOL    HW2 5694   0.558   5.638   5.992
 1599SOL     OW 5695   5.309   5.094   4.159
 1599SOL    HW1 5696   5.331   5.084   4.062
 1599SOL    HW2 5697   5.341   5.184   4.191
 1600SOL     OW 5698   5.040   1.192   1.390
 1600SOL    HW1 5699   5.054   1.233   1.300
 1600SOL    HW2 5700   4.976   1.248   1.442
 1601SOL     OW 5701   6.205   0.513   4.923
 1601SOL    HW1 5702   6.172   0.437   4.867
 1601SOL    HW2 5703   6.141   0.530   4.997
 1602SOL     OW 5704   3.794   5.939   3.301
 1602SOL    HW1 5705   3.775   6.033   3.329
 1602SOL    HW2 5706   3.889   5.916   3.324
 1603SOL     OW 5707   3.213   5.521   1.574
 1603SOL    HW1 5708   3.180   5.460   1.647
 1603SOL    HW2 5709   3.270   5.468   1.510
 1604SOL     OW 5710   4.248   5.464   1.507
 1604SOL    HW1 5711   4.280   5.499   1.595
 1604SOL    HW2 5712   4.168   5.517   1.478
 1605SOL     OW 5713   4.478   4.979   0.343
 1605SOL    HW1 5714   4.410   5.044   0.309
 1605SOL    HW2 5715   4.502   5.003   0.437
 1606SOL     OW 5716   4.859   5.755   4.715
 1606SOL    HW1 5717   4.820   5.664   4.700
 1606SOL    HW2 5718   4.843   5.811   4.633
 1607SOL     OW 5719   4.704   4.369   4.156
 1607SOL    HW1 5720   4.732   4.326   4.241
 1607SOL    HW2 5721   4.647   4.306   4.103
 1608SOL     OW 5722   6.664   3.611   2.650
 1608SOL    HW1 5723   6.662   3.626   2.748
 1608SOL    HW2 5724   6.571   3.611   2.613
 1609SOL     OW 5725   1.378   0.086   0.815
 1609SOL    HW1 5726   1.388   0.180   0.848
 1609SOL    HW2 5727   1.327   0.033   0.883
 1610SOL     OW 5728   5.732   5.632   1.202
 1610SOL    HW1 5729   5.664   5.675   1.261
 1610SOL    HW2 5730   5.696   5.627   1.108
 1611SOL     OW 5731   6.898   4.592   6.741
 1611SOL    HW1 5732   6.958   4.552   6.811
 1611SOL    HW2 5733   6.852   4.519   6.691
 1612SOL     OW 5734   5.391   1.026   1.884
 1612SOL    HW1 5735   5.489   1.033   1.898
 1612SOL    HW2 5736   5.345   1.008   1.971
 1613SOL     OW 5737   0.650   6.213   2.748
 1613SOL    HW1 5738   0.606   6.223   2.838
 1613SOL    HW2 5739   0.607   6.139   2.698
 1614SOL     OW 5740   5.781   1.084   5.899
 1614SOL    HW1 5741   5.684   1.079   5.878
 1614SOL    HW2 5742   5.797   1.050   5.992
 1615SOL     OW 5743   6.361   3.307   6.018
 1615SOL    HW1 5744   6.448   3.355   6.032
 1615SOL    HW2 5745   6.302   3.363   5.960
 1616SOL     OW 5746   1.312   1.347   3.628
 1616SOL    HW1 5747   1.227   1.302   3.598
 1616SOL    HW2 5748   1.342   1.307   3.715
 1617SOL     OW 5749   0.359   6.071   4.337
 1617SOL    HW1 5750   0.383   6.077   4.434
 1617SOL    HW2 5751   0.336   5.976   4.315
 1618SOL     OW 5752   2.856   5.574   3.126
 1618SOL    HW1 5753   2.767   5.611   3.102
 1618SOL    HW2 5754   2.908   5.641   3.178
 1619SOL     OW 5755   0.890   3.692   5.984
 1619SOL    HW1 5756   0.854   3.646   6.066
 1619SOL    HW2 5757   0.939   3.625   5.928
 1620SOL     OW 5758   2.419   0.334   4.889
 1620SOL    HW1 5759   2.349   0.313   4.957
 1620SOL    HW2 5760   2.458   0.425   4.907
 1621SOL     OW 5761   5.767   4.645   0.992
 1621SOL    HW1 5762   5.844   4.703   0.963
 1621SOL    HW2 5763   5.779   4.553   0.955
 1622SOL     OW 5764   6.326   2.914   3.194
 1622SOL    HW1 5765   6.408   2.861   3.171
 1622SOL    HW2 5766   6.256   2.898   3.125
 1623SOL     OW 5767   0.525   2.025   4.050
 1623SOL    HW1 5768   0.556   2.115   4.079
 1623SOL    HW2 5769   0.544   1.958   4.121
 1624SOL     OW 5770   4.587   3.014   0.624
 1624SOL    HW1 5771   4.590   3.031   0.722
 1624SOL    HW2 5772   4.553   2.921   0.607
 1625SOL     OW 5773   1.013   6.299   0.421
 1625SOL    HW1 5774   0.945   6.301   0.348
 1625SOL    HW2 5775   1.103   6.279   0.382
 1626SOL     OW 5776   2.834   1.698   2.022
 1626SOL    HW1 5777   2.767   1.708   2.095
 1626SOL    HW2 5778   2.851   1.787   1.980
 1627SOL     OW 5779   4.729   1.404   6.204
 1627SOL    HW1 5780   4.717   1.422   6.107
 1627SOL    HW2 5781   4.719   1.306   6.221
 1628SOL     OW 5782   5.570   5.768   1.386
 1628SOL    HW1 5783   5.535   5.698   1.448
 1628SOL    HW2 5784   5.560   5.858   1.427
 1629SOL     OW 5785   1.548   6.377   3.061
 1629SOL    HW1 5786   1.543   6.439   3.140
 1629SOL    HW2 5787   1.486   6.409   2.989
 1630SOL     OW 5788   0.167   5.102   6.165
 1630SOL    HW1 5789   0.177   5.074   6.070
 1630SOL    HW2 5790   0.248   5.153   6.193
 1631SOL     OW 5791   5.218   4.364   0.133
 1631SOL    HW1 5792   5.283   4.402   0.199
 1631SOL    HW2 5793   5.198   4.432   0.062
 1632SOL     OW 5794   6.123   5.964   2.536
 1632SOL    HW1 5795   6.046   5.994   2.479
 1632SOL    HW2 5796   6.143   5.867   2.518
 1633SOL     OW 5797   6.912   3.780   4.692
 1633SOL    HW1 5798   6.904   3.846   4.767
 1633SOL    HW2 5799   6.969   3.818   4.620
 1634SOL     OW 5800   1.234   3.730   6.102
 1634SOL    HW1 5801   1.141   3.698   6.088
 1634SOL    HW2 5802   1.271   3.690   6.187
 1635SOL     OW 5803   2.588   1.203   4.384
 1635SOL    HW1 5804   2.542   1.292   4.376
 1635SOL    HW2 5805   2.674   1.215   4.434
 1636SOL     OW 5806   0.222   6.237   1.786
 1636SOL    HW1 5807   0.145   6.296   1.763
 1636SOL    HW2 5808   0.208   6.146   1.746
 1637SOL     OW 5809   1.017   1.125   1.766
 1637SOL    HW1 5810   0.965   1.072   1.833
 1637SOL    HW2 5811   1.102   1.157   1.808
 1638SOL     OW 5812   5.403   2.163   3.801
 1638SOL    HW1 5813   5.309   2.194   3.788
 1638SOL    HW2 5814   5.403   2.067   3.828
 1639SOL     OW 5815   5.372   2.258   1.253
 1639SOL    HW1 5816   5.301   2.315   1.295
 1639SOL    HW2 5817   5.376   2.170   1.300
 1640SOL     OW 5818   6.476   1.046   6.648
 1640SOL    HW1 5819   6.444   1.127   6.599
 1640SOL    HW2 5820   6.497   0.974   6.583
 1641SOL     OW 5821   5.551   1.763   2.188
 1641SOL    HW1 5822   5.645   1.791   2.206
 1641SOL    HW2 5823   5.533   1.676   2.234
 1642SOL     OW 5824   6.779   2.966   6.395
 1642SOL    HW1 5825   6.834   3.049   6.388
 1642SOL    HW2 5826   6.817   2.895   6.336
 1643SOL     OW 5827   2.472   5.408   4.479
 1643SOL    HW1 5828   2.390   5.439   4.433
 1643SOL    HW2 5829   2.529   5.486   4.503
 1644SOL     OW 5830   5.955   1.499   0.983
 1644SOL    HW1 5831   5.978   1.500   1.081
 1644SOL    HW2 5832   5.950   1.592   0.949
 1645SOL     OW 5833   2.348   1.139   3.885
 1645SOL    HW1 5834   2.305   1.080   3.953
 1645SOL    HW2 5835   2.283   1.210   3.857
 1646SOL     OW 5836   0.010   5.662   2.170
 1646SOL    HW1 5837   6.947   5.705   2.201
 1646SOL    HW2 5838   7.021   5.628   2.077
 1647SOL     OW 5839   6.463   3.395   5.280
 1647SOL    HW1 5840   6.422   3.350   5.359
 1647SOL    HW2 5841   6.392   3.439   5.225
 1648SOL     OW 5842   5.405   5.968   2.507
 1648SOL    HW1 5843   5.475   5.953   2.438
 1648SOL    HW2 5844   5.426   5.913   2.588
 1649SOL     OW 5845   3.971   0.719   3.030
 1649SOL    HW1 5846   4.011   0.806   3.000
 1649SOL    HW2 5847   3.943   0.726   3.125
 1650SOL     OW 5848   2.644   2.442   4.819
 1650SOL    HW1 5849   2.617   2.529   4.779
 1650SOL    HW2 5850   2.707   2.395   4.757
 1651SOL     OW 5851   1.626   2.190   4.232
 1651SOL    HW1 5852   1.545   2.222   4.280
 1651SOL    HW2 5853   1.663   2.264   4.176
 1652SOL     OW 5854   0.104   4.214   1.608
 1652SOL    HW1 5855   0.163   4.234   1.530
 1652SOL    HW2 5856   0.153   4.156   1.673
 1653SOL     OW 5857   6.196   4.139   1.987
 1653SOL    HW1 5858   6.177   4.040   1.987
 1653SOL    HW2 5859   6.222   4.167   2.080
 1654SOL     OW 5860   6.894   3.475   1.567
 1654SOL    HW1 5861   6.904   3.375   1.566
 1654SOL    HW2 5862   6.811   3.501   1.519
 1655SOL     OW 5863   7.005   0.340   5.986
 1655SOL    HW1 5864   6.980   0.303   6.075
 1655SOL    HW2 5865   0.026   0.270   5.931
 1656SOL     OW 5866   1.869   3.890   2.792
 1656SOL    HW1 5867   1.858   3.874   2.890
 1656SOL    HW2 5868   1.801   3.956   2.760
 1657SOL     OW 5869   0.543   1.584   6.198
 1657SOL    HW1 5870   0.464   1.526   6.180
 1657SOL    HW2 5871   0.518   1.680   6.185
 1658SOL     OW 5872   5.164   0.279   5.606
 1658SOL    HW1 5873   5.142   0.375   5.623
 1658SOL    HW2 5874   5.136   0.223   5.683
 1659SOL     OW 5875   2.990   0.616   6.568
 1659SOL    HW1 5876   2.935   0.680   6.621
 1659SOL    HW2 5877   2.993   0.647   6.473
 1660SOL     OW 5878   3.090   1.162   1.828
 1660SOL    HW1 5879   3.025   1.094   1.794
 1660SOL    HW2 5880   3.095   1.158   1.927
 1661SOL     OW 5881   4.884   5.036   3.507
 1661SOL    HW1 5882   4.883   5.117   3.448
 1661SOL    HW2 5883   4.964   4.980   3.484
 1662SOL     OW 5884   0.539   1.688   3.516
 1662SOL    HW1 5885   0.555   1.589   3.518
 1662SOL    HW2 5886   0.597   1.733   3.584
 1663SOL     OW 5887   5.904   3.862   1.055
 1663SOL    HW1 5888   5.967   3.935   1.080
 1663SOL    HW2 5889   5.952   3.792   1.002
 1664SOL     OW 5890   1.451   1.472   6.227
 1664SOL    HW1 5891   1.531   1.456   6.286
 1664SOL    HW2 5892   1.427   1.569   6.229
 1665SOL     OW 5893   1.594   3.967   0.299
 1665SOL    HW1 5894   1.684   3.962   0.342
 1665SOL    HW2 5895   1.582   4.058   0.258
 1666SOL     OW 5896   5.243   6.311   5.436
 1666SOL    HW1 5897   5.257   6.221   5.478
 1666SOL    HW2 5898   5.217   6.377   5.507
 1667SOL     OW 5899   6.504   4.893   1.278
 1667SOL    HW1 5900   6.563   4.872   1.356
 1667SOL    HW2 5901   6.537   4.977   1.233
 1668SOL     OW 5902   6.663   3.367   1.831
 1668SOL    HW1 5903   6.694   3.462   1.835
 1668SOL    HW2 5904   6.600   3.356   1.754
 1669SOL     OW 5905   6.085   2.596   5.371
 1669SOL    HW1 5906   6.166   2.648   5.344
 1669SOL    HW2 5907   6.083   2.586   5.470
 1670SOL     OW 5908   3.007   4.238   5.315
 1670SOL    HW1 5909   2.979   4.317   5.260
 1670SOL    HW2 5910   3.048   4.169   5.255
 1671SOL     OW 5911   5.974   2.342   0.767
 1671SOL    HW1 5912   6.022   2.293   0.694
 1671SOL    HW2 5913   5.940   2.429   0.732
 1672SOL     OW 5914   0.645   2.172   1.177
 1672SOL    HW1 5915   0.555   2.145   1.141
 1672SOL    HW2 5916   0.703   2.201   1.101
 1673SOL     OW 5917   0.815   0.761   6.277
 1673SOL    HW1 5918   0.792   0.858   6.291
 1673SOL    HW2 5919   0.794   0.736   6.182
 1674SOL     OW 5920   4.795   2.949   3.244
 1674SOL    HW1 5921   4.807   3.046   3.267
 1674SOL    HW2 5922   4.884   2.907   3.227
 1675SOL     OW 5923   5.327   0.801   1.739
 1675SOL    HW1 5924   5.286   0.831   1.652
 1675SOL    HW2 5925   5.355   0.881   1.792
 1676SOL     OW 5926   1.501   2.500   3.909
 1676SOL    HW1 5927   1.498   2.558   3.828
 1676SOL    HW2 5928   1.447   2.541   3.982
 1677SOL     OW 5929   3.291   4.027   1.833
 1677SOL    HW1 5930   3.302   4.099   1.765
 1677SOL    HW2 5931   3.198   4.029   1.870
 1678SOL     OW 5932   0.166   6.790   0.458
 1678SOL    HW1 5933   0.171   6.890   0.464
 1678SOL    HW2 5934   0.071   6.763   0.442
 1679SOL     OW 5935   6.045   1.881   0.341
 1679SOL    HW1 5936   6.070   1.828   0.259
 1679SOL    HW2 5937   5.982   1.954   0.315
 1680SOL     OW 5938   5.628   2.124   3.270
 1680SOL    HW1 5939   5.655   2.074   3.188
 1680SOL    HW2 5940   5.535   2.099   3.296
 1681SOL     OW 5941   3.908   6.071   4.027
 1681SOL    HW1 5942   3.922   6.151   4.085
 1681SOL    HW2 5943   3.813   6.067   3.997
 1682SOL     OW 5944   3.907   1.758   5.496
 1682SOL    HW1 5945   4.000   1.745   5.530
 1682SOL    HW2 5946   3.903   1.839   5.439
 1683SOL     OW 5947   0.728   3.616   2.953
 1683SOL    HW1 5948   0.675   3.700   2.967
 1683SOL    HW2 5949   0.666   3.538   2.948
 1684SOL     OW 5950   3.158   5.538   1.236
 1684SOL    HW1 5951   3.092   5.498   1.299
 1684SOL    HW2 5952   3.139   5.636   1.226
 1685SOL     OW 5953   0.060   2.039   5.620
 1685SOL    HW1 5954   0.020   2.090   5.543
 1685SOL    HW2 5955   0.049   1.941   5.603
 1686SOL     OW 5956   3.335   5.384   1.383
 1686SOL    HW1 5957   3.315   5.466   1.330
 1686SOL    HW2 5958   3.418   5.340   1.348
 1687SOL     OW 5959   4.509   4.179   0.306
 1687SOL    HW1 5960   4.421   4.205   0.345
 1687SOL    HW2 5961   4.581   4.238   0.342
 1688SOL     OW 5962   3.136   0.456   3.072
 1688SOL    HW1 5963   3.224   0.481   3.033
 1688SOL    HW2 5964   3.133   0.482   3.169
 1689SOL     OW 5965   4.358   0.683   1.707
 1689SOL    HW1 5966   4.434   0.627   1.674
 1689SOL    HW2 5967   4.312   0.636   1.782
 1690SOL     OW 5968   0.105   4.465   4.490
 1690SOL    HW1 5969   0.202   4.472   4.510
 1690SOL    HW2 5970   0.052   4.501   4.567
 1691SOL     OW 5971   4.131   2.743   5.299
 1691SOL    HW1 5972   4.189   2.756   5.379
 1691SOL    HW2 5973   4.170   2.672   5.241
 1692SOL     OW 5974   5.968   5.515   2.397
 1692SOL    HW1 5975   5.998   5.598   2.350
 1692SOL    HW2 5976   5.920   5.540   2.481
 1693SOL     OW 5977   5.784   0.092   5.651
 1693SOL    HW1 5978   5.784   0.146   5.567
 1693SOL    HW2 5979   5.747   0.147   5.726
 1694SOL     OW 5980   4.862   1.269   6.797
 1694SOL    HW1 5981   4.838   1.367   6.800
 1694SOL    HW2 5982   4.918   1.246   6.876
 1695SOL     OW 5983   4.523   7.007   5.093
 1695SOL    HW1 5984   4.600   6.976   5.148
 1695SOL    HW2 5985   4.510   0.083   5.107
 1696SOL     OW 5986   5.072   6.967   1.048
 1696SOL    HW1 5987   5.076   6.919   1.136
 1696SOL    HW2 5988   5.165   6.982   1.014
 1697SOL     OW 5989   4.092   3.637   1.893
 1697SOL    HW1 5990   4.125   3.668   1.982
 1697SOL    HW2 5991   4.011   3.689   1.867
 1698SOL     OW 5992   4.761   1.417   1.437
 1698SOL    HW1 5993   4.698   1.460   1.372
 1698SOL    HW2 5994   4.708   1.364   1.504
 1699SOL     OW 5995   1.703   0.427   1.128
 1699SOL    HW1 5996   1.746   0.509   1.168
 1699SOL    HW2 5997   1.773   0.372   1.083
 1700SOL     OW 5998   6.001   2.873   2.980
 1700SOL    HW1 5999   5.944   2.819   2.918
 1700SOL    HW2 6000   6.096   2.842   2.973
 1701SOL     OW 6001   1.169   5.263   5.153
 1701SOL    HW1 6002   1.151   5.344   5.209
 1701SOL    HW2 6003   1.189   5.291   5.059
 1702SOL     OW 6004   2.301   2.053   0.062
 1702SOL    HW1 6005   2.311   1.954   0.066
 1702SOL    HW2 6006   2.262   2.087   0.148
 1703SOL     OW 6007   1.628   1.965   1.729
 1703SOL    HW1 6008   1.568   1.892   1.697
 1703SOL    HW2 6009   1.722   1.944   1.706
 1704SOL     OW 6010   3.211   2.996   6.594
 1704SOL    HW1 6011   3.165   2.951   6.517
 1704SOL    HW2 6012   3.194   3.094   6.590
 1705SOL     OW 6013   5.650   3.009   1.092
 1705SOL    HW1 6014   5.727   2.980   1.035
 1705SOL    HW2 6015   5.584   2.935   1.099
 1706SOL     OW 6016   5.649   0.684   5.603
 1706SOL    HW1 6017   5.694   0.739   5.674
 1706SOL    HW2 6018   5.670   0.587   5.618
 1707SOL     OW 6019   3.253   1.412   2.300
 1707SOL    HW1 6020   3.255   1.419   2.400
 1707SOL    HW2 6021   3.341   1.442   2.263
 1708SOL     OW 6022   2.706   4.837   1.897
 1708SOL    HW1 6023   2.731   4.749   1.937
 1708SOL    HW2 6024   2.737   4.840   1.802
 1709SOL     OW 6025   5.762   4.988   1.961
 1709SOL    HW1 6026   5.744   5.086   1.976
 1709SOL    HW2 6027   5.808   4.950   2.041
 1710SOL     OW 6028   4.668   2.754   1.904
 1710SOL    HW1 6029   4.747   2.728   1.960
 1710SOL    HW2 6030   4.657   2.853   1.905
 1711SOL     OW 6031   4.411   5.377   7.014
 1711SOL    HW1 6032   4.413   5.370   0.091
 1711SOL    HW2 6033   4.429   5.287   6.974
 1712SOL     OW 6034   0.141   2.234   2.069
 1712SOL    HW1 6035   0.060   2.291   2.057
 1712SOL    HW2 6036   0.121   2.160   2.133
 1713SOL     OW 6037   3.000   1.390   2.401
 1713SOL    HW1 6038   3.078   1.366   2.345
 1713SOL    HW2 6039   2.971   1.311   2.455
 1714SOL     OW 6040   3.108   4.736   1.295
 1714SOL    HW1 6041   3.176   4.755   1.224
 1714SOL    HW2 6042   3.106   4.811   1.361
 1715SOL     OW 6043   1.421   6.294   0.834
 1715SOL    HW1 6044   1.417   6.201   0.798
 1715SOL    HW2 6045   1.490   6.299   0.906
 1716SOL     OW 6046   5.138   1.631   3.110
 1716SOL    HW1 6047   5.127   1.643   3.011
 1716SOL    HW2 6048   5.180   1.713   3.149
 1717SOL     OW 6049   3.548   6.541   4.000
 1717SOL    HW1 6050   3.579   6.632   4.027
 1717SOL    HW2 6051   3.471   6.513   4.057
 1718SOL     OW 6052   1.601   4.142   1.618
 1718SOL    HW1 6053   1.668   4.077   1.653
 1718SOL    HW2 6054   1.544   4.098   1.549
 1719SOL     OW 6055   1.684   4.782   3.920
 1719SOL    HW1 6056   1.724   4.873   3.914
 1719SOL    HW2 6057   1.620   4.779   3.997
 1720SOL     OW 6058   1.447   2.906   5.471
 1720SOL    HW1 6059   1.494   2.986   5.435
 1720SOL    HW2 6060   1.374   2.878   5.409
 1721SOL     OW 6061   2.300   2.469   0.375
 1721SOL    HW1 6062   2.390   2.475   0.419
 1721SOL    HW2 6063   2.307   2.412   0.293
 1722SOL     OW 6064   3.596   2.099   2.862
 1722SOL    HW1 6065   3.606   2.008   2.902
 1722SOL    HW2 6066   3.683   2.126   2.820
 1723SOL     OW 6067   6.340   4.820   1.693
 1723SOL    HW1 6068   6.241   4.812   1.706
 1723SOL    HW2 6069   6.368   4.767   1.613
 1724SOL     OW 6070   6.031   3.952   1.373
 1724SOL    HW1 6071   5.966   3.895   1.424
 1724SOL    HW2 6072   6.105   3.980   1.434
 1725SOL     OW 6073   1.503   6.565   4.717
 1725SOL    HW1 6074   1.519   6.570   4.815
 1725SOL    HW2 6075   1.498   6.469   4.689
 1726SOL     OW 6076   5.305   4.833   3.231
 1726SOL    HW1 6077   5.356   4.748   3.213
 1726SOL    HW2 6078   5.289   4.881   3.145
 1727SOL     OW 6079   2.999   3.642   3.817
 1727SOL    HW1 6080   2.974   3.720   3.874
 1727SOL    HW2 6081   2.954   3.560   3.851
 1728SOL     OW 6082   5.695   2.263   4.744
 1728SOL    HW1 6083   5.715   2.242   4.839
 1728SOL    HW2 6084   5.780   2.259   4.690
 1729SOL     OW 6085   1.591   3.633   3.287
 1729SOL    HW1 6086   1.577   3.545   3.242
 1729SOL    HW2 6087   1.663   3.625   3.355
 1730SOL     OW 6088   2.572   1.140   4.793
 1730SOL    HW1 6089   2.644   1.091   4.743
 1730SOL    HW2 6090   2.502   1.076   4.823
 1731SOL     OW 6091   6.027   4.514   3.806
 1731SOL    HW1 6092   6.057   4.553   3.893
 1731SOL    HW2 6093   5.968   4.435   3.824
 1732SOL     OW 6094   4.021   3.473   5.220
 1732SOL    HW1 6095   3.980   3.460   5.130
 1732SOL    HW2 6096   4.119   3.454   5.216
 1733SOL     OW 6097   1.393   1.760   0.058
 1733SOL    HW1 6098   1.489   1.744   0.033
 1733SOL    HW2 6099   1.343   1.673   0.052
 1734SOL     OW 6100   0.930   4.329   2.064
 1734SOL    HW1 6101   0.846   4.373   2.095
 1734SOL    HW2 6102   0.941   4.241   2.111
 1735SOL     OW 6103   3.471   5.358   5.948
 1735SOL    HW1 6104   3.399   5.426   5.932
 1735SOL    HW2 6105   3.559   5.394   5.917
 1736SOL     OW 6106   4.482   1.929   5.320
 1736SOL    HW1 6107   4.399   1.890   5.282
 1736SOL    HW2 6108   4.471   2.028   5.331
 1737SOL     OW 6109   2.475   0.674   6.803
 1737SOL    HW1 6110   2.475   0.765   6.761
 1737SOL    HW2 6111   2.533   0.613   6.749
 1738SOL     OW 6112   1.215   3.935   2.018
 1738SOL    HW1 6113   1.235   3.994   1.940
 1738SOL    HW2 6114   1.199   3.992   2.099
 1739SOL     OW 6115   4.364   5.323   2.239
 1739SOL    HW1 6116   4.403   5.231   2.232
 1739SOL    HW2 6117   4.432   5.384   2.279
 1740SOL     OW 6118   6.540   2.468   4.447
 1740SOL    HW1 6119   6.639   2.483   4.452
 1740SOL    HW2 6120   6.518   2.376   4.479
 1741SOL     OW 6121   1.346   2.823   4.053
 1741SOL    HW1 6122   1.389   2.861   4.134
 1741SOL    HW2 6123   1.339   2.724   4.062
 1742SOL     OW 6124   5.801   6.919   7.014
 1742SOL    HW1 6125   5.854   6.847   0.036
 1742SOL    HW2 6126   5.847   7.007   0.006
 1743SOL     OW 6127   1.013   2.053   1.633
 1743SOL    HW1 6128   1.010   2.098   1.544
 1743SOL    HW2 6129   0.921   2.054   1.674
 1744SOL     OW 6130   3.181   1.846   5.249
 1744SOL    HW1 6131   3.130   1.906   5.187
 1744SOL    HW2 6132   3.119   1.814   5.322
 1745SOL     OW 6133   6.482   6.577   0.953
 1745SOL    HW1 6134   6.493   6.511   1.027
 1745SOL    HW2 6135   6.456   6.666   0.991
 1746SOL     OW 6136   2.446   5.017   2.802
 1746SOL    HW1 6137   2.437   4.917   2.794
 1746SOL    HW2 6138   2.435   5.044   2.897
 1747SOL     OW 6139   2.706   6.822   1.833
 1747SOL    HW1 6140   2.752   6.741   1.796
 1747SOL    HW2 6141   2.644   6.794   1.906
 1748SOL     OW 6142   0.092   1.361   3.597
 1748SOL    HW1 6143   0.053   1.300   3.529
 1748SOL    HW2 6144   0.019   1.411   3.644
 1749SOL     OW 6145   6.611   5.747   2.514
 1749SOL    HW1 6146   6.708   5.766   2.530
 1749SOL    HW2 6147   6.569   5.825   2.467
 1750SOL     OW 6148   2.567   1.359   1.369
 1750SOL    HW1 6149   2.534   1.354   1.275
 1750SOL    HW2 6150   2.612   1.273   1.394
 1751SOL     OW 6151   6.443   4.466   4.871
 1751SOL    HW1 6152   6.373   4.422   4.927
 1751SOL    HW2 6153   6.422   4.454   4.774
 1752SOL     OW 6154   5.746   0.424   2.780
 1752SOL    HW1 6155   5.656   0.390   2.754
 1752SOL    HW2 6156   5.765   0.397   2.875
 1753SOL     OW 6157   6.675   1.567   0.946
 1753SOL    HW1 6158   6.586   1.609   0.963
 1753SOL    HW2 6159   6.661   1.476   0.907
 1754SOL     OW 6160   2.050   4.357   3.667
 1754SOL    HW1 6161   2.140   4.340   3.628
 1754SOL    HW2 6162   1.983   4.296   3.624
 1755SOL     OW 6163   6.017   6.598   5.252
 1755SOL    HW1 6164   6.031   6.687   5.208
 1755SOL    HW2 6165   5.957   6.609   5.331
 1756SOL     OW 6166   4.462   5.601   1.407
 1756SOL    HW1 6167   4.527   5.603   1.483
 1756SOL    HW2 6168   4.393   5.531   1.424
 1757SOL     OW 6169   2.972   5.132   4.930
 1757SOL    HW1 6170   3.027   5.114   4.848
 1757SOL    HW2 6171   2.945   5.045   4.972
 1758SOL     OW 6172   0.622   6.186   3.878
 1758SOL    HW1 6173   0.570   6.199   3.962
 1758SOL    HW2 6174   0.706   6.240   3.882
 1759SOL     OW 6175   1.849   5.257   6.083
 1759SOL    HW1 6176   1.914   5.319   6.039
 1759SOL    HW2 6177   1.759   5.267   6.040
 1760SOL     OW 6178   6.049   1.365   4.128
 1760SOL    HW1 6179   5.960   1.388   4.088
 1760SOL    HW2 6180   6.050   1.395   4.224
 1761SOL     OW 6181   5.473   2.303   4.022
 1761SOL    HW1 6182   5.465   2.401   4.007
 1761SOL    HW2 6183   5.460   2.255   3.935
 1762SOL     OW 6184   0.961   1.467   5.799
 1762SOL    HW1 6185   1.017   1.399   5.847
 1762SOL    HW2 6186   0.917   1.527   5.866
 1763SOL     OW 6187   1.707   5.185   3.976
 1763SOL    HW1 6188   1.617   5.158   3.941
 1763SOL    HW2 6189   1.778   5.149   3.916
 1764SOL     OW 6190   0.465   5.513   3.448
 1764SOL    HW1 6191   0.500   5.440   3.506
 1764SOL    HW2 6192   0.375   5.541   3.481
 1765SOL     OW 6193   5.295   3.804   1.956
 1765SOL    HW1 6194   5.280   3.896   1.992
 1765SOL    HW2 6195   5.241   3.738   2.008
 1766SOL     OW 6196   4.194   5.215   3.480
 1766SOL    HW1 6197   4.122   5.187   3.543
 1766SOL    HW2 6198   4.155   5.269   3.406
 1767SOL     OW 6199   1.712   4.397   1.566
 1767SOL    HW1 6200   1.667   4.312   1.592
 1767SOL    HW2 6201   1.805   4.398   1.603
 1768SOL     OW 6202   3.369   5.031   2.794
 1768SOL    HW1 6203   3.323   4.960   2.847
 1768SOL    HW2 6204   3.419   5.092   2.856
 1769SOL     OW 6205   5.387   0.189   0.738
 1769SOL    HW1 6206   5.371   0.151   0.829
 1769SOL    HW2 6207   5.426   0.118   0.679
 1770SOL     OW 6208   2.730   4.582   0.436
 1770SOL    HW1 6209   2.707   4.520   0.512
 1770SOL    HW2 6210   2.705   4.676   0.461
 1771SOL     OW 6211   1.180   3.133   6.051
 1771SOL    HW1 6212   1.149   3.048   6.093
 1771SOL    HW2 6213   1.268   3.159   6.091
 1772SOL     OW 6214   3.246   5.381   2.239
 1772SOL    HW1 6215   3.218   5.307   2.300
 1772SOL    HW2 6216   3.344   5.372   2.219
 1773SOL     OW 6217   2.040   6.194   4.567
 1773SOL    HW1 6218   1.999   6.103   4.568
 1773SOL    HW2 6219   2.110   6.200   4.637
 1774SOL     OW 6220   5.606   5.346   1.564
 1774SOL    HW1 6221   5.578   5.250   1.572
 1774SOL    HW2 6222   5.644   5.363   1.474
 1775SOL     OW 6223   2.023   6.902   1.058
 1775SOL    HW1 6224   2.011   7.001   1.049
 1775SOL    HW2 6225   2.058   6.881   1.149
 1776SOL     OW 6226   4.904   3.253   5.902
 1776SOL    HW1 6227   4.838   3.280   5.832
 1776SOL    HW2 6228   4.918   3.329   5.965
 1777SOL     OW 6229   4.730   5.017   6.804
 1777SOL    HW1 6230   4.778   5.042   6.720
 1777SOL    HW2 6231   4.789   5.034   6.882
 1778SOL     OW 6232   6.803   0.585   3.301
 1778SOL    HW1 6233   6.798   0.671   3.353
 1778SOL    HW2 6234   6.772   0.510   3.359
 1779SOL     OW 6235   6.716   0.091   4.552
 1779SOL    HW1 6236   6.691   0.127   4.642
 1779SOL    HW2 6237   6.657   0.014   4.530
 1780SOL     OW 6238   2.936   7.015   4.545
 1780SOL    HW1 6239   2.911   0.051   4.622
 1780SOL    HW2 6240   2.856   7.000   4.486
 1781SOL     OW 6241   4.579   1.264   5.757
 1781SOL    HW1 6242   4.655   1.329   5.760
 1781SOL    HW2 6243   4.519   1.279   5.836
 1782SOL     OW 6244   5.075   0.416   2.539
 1782SOL    HW1 6245   5.004   0.475   2.577
 1782SOL    HW2 6246   5.164   0.461   2.547
 1783SOL     OW 6247   1.858   3.222   0.065
 1783SOL    HW1 6248   1.760   3.239   0.050
 1783SOL    HW2 6249   1.878   3.126   0.043
 1784SOL     OW 6250   2.361   5.456   1.626
 1784SOL    HW1 6251   2.277   5.452   1.680
 1784SOL    HW2 6252   2.440   5.456   1.687
 1785SOL     OW 6253   2.077   5.262   4.664
 1785SOL    HW1 6254   2.032   5.186   4.711
 1785SOL    HW2 6255   2.119   5.228   4.579
 1786SOL     OW 6256   0.565   5.597   2.304
 1786SOL    HW1 6257   0.519   5.679   2.340
 1786SOL    HW2 6258   0.661   5.598   2.332
 1787SOL     OW 6259   2.570   2.431   6.287
 1787SOL    HW1 6260   2.622   2.458   6.206
 1787SOL    HW2 6261   2.479   2.401   6.260
 1788SOL     OW 6262   3.834   4.130   0.559
 1788SOL    HW1 6263   3.819   4.041   0.601
 1788SOL    HW2 6264   3.759   4.191   0.581
 1789SOL     OW 6265   5.851   2.680   2.841
 1789SOL    HW1 6266   5.863   2.581   2.833
 1789SOL    HW2 6267   5.767   2.699   2.893
 1790SOL     OW 6268   2.342   2.134   5.078
 1790SOL    HW1 6269   2.431   2.176   5.096
 1790SOL    HW2 6270   2.344   2.088   4.989
 1791SOL     OW 6271   6.066   0.481   3.154
 1791SOL    HW1 6272   6.123   0.536   3.215
 1791SOL    HW2 6273   6.105   0.483   3.061
 1792SOL     OW 6274   0.005   3.163   5.995
 1792SOL    HW1 6275   6.933   3.156   5.964
 1792SOL    HW2 6276   0.066   3.159   5.916
 1793SOL     OW 6277   0.425   1.636   5.095
 1793SOL    HW1 6278   0.378   1.586   5.022
 1793SOL    HW2 6279   0.399   1.598   5.184
 1794SOL     OW 6280   6.284   1.715   6.374
 1794SOL    HW1 6281   6.249   1.628   6.407
 1794SOL    HW2 6282   6.320   1.703   6.281
 1795SOL     OW 6283   5.810   4.359   0.940
 1795SOL    HW1 6284   5.797   4.260   0.937
 1795SOL    HW2 6285   5.863   4.383   1.021
 1796SOL     OW 6286   6.080   0.038   6.796
 1796SOL    HW1 6287   6.131   7.008   6.864
 1796SOL    HW2 6288   6.018   0.101   6.842
 1797SOL     OW 6289   3.037   6.110   6.015
 1797SOL    HW1 6290   2.982   6.068   6.087
 1797SOL    HW2 6291   3.026   6.059   5.930
 1798SOL     OW 6292   2.259   3.907   6.846
 1798SOL    HW1 6293   2.186   3.932   6.782
 1798SOL    HW2 6294   2.340   3.880   6.795
 1799SOL     OW 6295   3.487   1.687   1.624
 1799SOL    HW1 6296   3.459   1.596   1.657
 1799SOL    HW2 6297   3.455   1.700   1.530
 1800SOL     OW 6298   5.779   2.224   5.470
 1800SOL    HW1 6299   5.817   2.138   5.505
 1800SOL    HW2 6300   5.848   2.270   5.415
 1801SOL     OW 6301   0.734   1.962   1.987
 1801SOL    HW1 6302   0.802   1.891   1.970
 1801SOL    HW2 6303   0.662   1.925   2.045
 1802SOL     OW 6304   6.179   4.852   5.015
 1802SOL    HW1 6305   6.115   4.826   4.942
 1802SOL    HW2 6306   6.266   4.806   5.001
 1803SOL     OW 6307   6.513   6.966   3.876
 1803SOL    HW1 6308   6.545   6.904   3.804
 1803SOL    HW2 6309   6.415   6.982   3.866
 1804SOL     OW 6310   1.298   3.032   6.539
 1804SOL    HW1 6311   1.316   3.056   6.634
 1804SOL    HW2 6312   1.215   3.078   6.508
 1805SOL     OW 6313   6.497   4.899   5.903
 1805SOL    HW1 6314   6.534   4.827   5.844
 1805SOL    HW2 6315   6.449   4.856   5.980
 1806SOL     OW 6316   0.699   1.043   1.559
 1806SOL    HW1 6317   0.638   1.041   1.480
 1806SOL    HW2 6318   0.658   1.098   1.632
 1807SOL     OW 6319   6.068   2.332   2.333
 1807SOL    HW1 6320   6.115   2.411   2.295
 1807SOL    HW2 6321   6.001   2.363   2.401
 1808SOL     OW 6322   6.427   0.518   7.010
 1808SOL    HW1 6323   6.404   0.452   6.939
 1808SOL    HW2 6324   6.527   0.527   7.017
 1809SOL     OW 6325   4.409   0.557   4.646
 1809SOL    HW1 6326   4.349   0.481   4.619
 1809SOL    HW2 6327   4.486   0.521   4.699
 1810SOL     OW 6328   1.125   1.459   4.930
 1810SOL    HW1 6329   1.082   1.530   4.874
 1810SOL    HW2 6330   1.209   1.495   4.970
 1811SOL     OW 6331   3.451   5.386   1.830
 1811SOL    HW1 6332   3.486   5.462   1.885
 1811SOL    HW2 6333   3.351   5.385   1.834
 1812SOL     OW 6334   4.153   0.941   6.941
 1812SOL    HW1 6335   4.194   1.032   6.938
 1812SOL    HW2 6336   4.056   0.950   6.964
 1813SOL     OW 6337   5.922   3.547   1.804
 1813SOL    HW1 6338   5.827   3.562   1.829
 1813SOL    HW2 6339   5.943   3.595   1.719
 1814SOL     OW 6340   6.511   5.538   1.241
 1814SOL    HW1 6341   6.550   5.627   1.221
 1814SOL    HW2 6342   6.484   5.533   1.337
 1815SOL     OW 6343   6.108   5.076   1.417
 1815SOL    HW1 6344   6.032   5.113   1.470
 1815SOL    HW2 6345   6.076   4.997   1.365
 1816SOL     OW 6346   3.484   4.984   4.295
 1816SOL    HW1 6347   3.582   4.991   4.315
 1816SOL    HW2 6348   3.435   4.961   4.379
 1817SOL     OW 6349   6.431   2.973   3.988
 1817SOL    HW1 6350   6.453   3.068   3.967
 1817SOL    HW2 6351   6.362   2.970   4.061
 1818SOL     OW 6352   2.503   1.624   0.411
 1818SOL    HW1 6353   2.529   1.576   0.495
 1818SOL    HW2 6354   2.513   1.723   0.425
 1819SOL     OW 6355   1.049   3.350   0.937
 1819SOL    HW1 6356   1.149   3.343   0.931
 1819SOL    HW2 6357   1.018   3.429   0.884
 1820SOL     OW 6358   3.931   6.849   4.946
 1820SOL    HW1 6359   3.864   6.834   4.873
 1820SOL    HW2 6360   4.012   6.793   4.928
 1821SOL     OW 6361   3.793   1.379   2.439
 1821SOL    HW1 6362   3.811   1.302   2.378
 1821SOL    HW2 6363   3.822   1.356   2.532
 1822SOL     OW 6364   2.250   4.165   4.762
 1822SOL    HW1 6365   2.271   4.127   4.852
 1822SOL    HW2 6366   2.302   4.115   4.692
 1823SOL     OW 6367   4.662   6.932   4.155
 1823SOL    HW1 6368   4.593   6.868   4.191
 1823SOL    HW2 6369   4.745   6.926   4.210
 1824SOL     OW 6370   4.504   2.679   1.711
 1824SOL    HW1 6371   4.557   2.701   1.792
 1824SOL    HW2 6372   4.465   2.762   1.672
 1825SOL     OW 6373   1.310   3.853   0.289
 1825SOL    HW1 6374   1.259   3.930   0.327
 1825SOL    HW2 6375   1.408   3.868   0.302
 1826SOL     OW 6376   3.915   3.032   0.277
 1826SOL    HW1 6377   3.864   3.029   0.363
 1826SOL    HW2 6378   3.852   3.015   0.201
 1827SOL     OW 6379   5.275   4.667   0.813
 1827SOL    HW1 6380   5.242   4.762   0.816
 1827SOL    HW2 6381   5.285   4.639   0.718
 1828SOL     OW 6382   2.593   5.610   5.048
 1828SOL    HW1 6383   2.599   5.631   4.951
 1828SOL    HW2 6384   2.662   5.662   5.098
 1829SOL     OW 6385   1.674   6.277   2.823
 1829SOL    HW1 6386   1.654   6.245   2.916
 1829SOL    HW2 6387   1.624   6.362   2.806
 1830SOL     OW 6388   4.341   1.283   6.770
 1830SOL    HW1 6389   4.399   1.230   6.833
 1830SOL    HW2 6390   4.261   1.317   6.819
 1831SOL     OW 6391   3.723   4.436   6.739
 1831SOL    HW1 6392   3.650   4.372   6.761
 1831SOL    HW2 6393   3.811   4.394   6.760
 1832SOL     OW 6394   2.091   2.608   5.687
 1832SOL    HW1 6395   2.128   2.661   5.611
 1832SOL    HW2 6396   2.031   2.537   5.651
 1833SOL     OW 6397   5.877   1.569   0.128
 1833SOL    HW1 6398   5.974   1.595   0.134
 1833SOL    HW2 6399   5.840   1.601   0.040
 1834SOL     OW 6400   2.091   4.052   6.690
 1834SOL    HW1 6401   2.040   4.023   6.609
 1834SOL    HW2 6402   2.027   4.087   6.759
 1835SOL     OW 6403   6.106   0.000   6.512
 1835SOL    HW1 6404   6.106   0.010   6.612
 1835SOL    HW2 6405   6.019   0.031   6.475
 1836SOL     OW 6406   6.077   0.853   4.763
 1836SOL    HW1 6407   6.068   0.902   4.676
 1836SOL    HW2 6408   6.157   0.887   4.812
 1837SOL     OW 6409   1.261   1.982   1.251
 1837SOL    HW1 6410   1.341   1.992   1.310
 1837SOL    HW2 6411   1.273   1.903   1.191
 1838SOL     OW 6412   5.225   0.291   0.402
 1838SOL    HW1 6413   5.172   0.250   0.476
 1838SOL    HW2 6414   5.249   0.220   0.336
 1839SOL     OW 6415   6.827   1.866   6.197
 1839SOL    HW1 6416   6.919   1.854   6.159
 1839SOL    HW2 6417   6.772   1.785   6.176
 1840SOL     OW 6418   2.354   0.013   5.630
 1840SOL    HW1 6419   2.398   7.021   5.718
 1840SOL    HW2 6420   2.374   0.105   5.597
 1841SOL     OW 6421   2.471   0.009   1.932
 1841SOL    HW1 6422   2.426   6.999   2.015
 1841SOL    HW2 6423   2.569   7.011   1.938
 1842SOL     OW 6424   7.012   4.536   1.753
 1842SOL    HW1 6425   6.990   4.473   1.679
 1842SOL    HW2 6426   6.985   4.497   1.841
 1843SOL     OW 6427   2.988   0.923   6.796
 1843SOL    HW1 6428   3.061   0.960   6.739
 1843SOL    HW2 6429   3.027   0.859   6.862
 1844SOL     OW 6430   5.021   3.610   0.910
 1844SOL    HW1 6431   4.923   3.589   0.911
 1844SOL    HW2 6432   5.063   3.569   0.828
 1845SOL     OW 6433   0.573   2.566   4.523
 1845SOL    HW1 6434   0.568   2.466   4.533
 1845SOL    HW2 6435   0.665   2.597   4.548
 1846SOL     OW 6436   3.923   1.655   2.316
 1846SOL    HW1 6437   3.915   1.682   2.412
 1846SOL    HW2 6438   3.834   1.664   2.272
 1847SOL     OW 6439   3.115   5.874   6.790
 1847SOL    HW1 6440   3.105   5.914   6.699
 1847SOL    HW2 6441   3.210   5.883   6.821
 1848SOL     OW 6442   3.341   5.803   4.524
 1848SOL    HW1 6443   3.294   5.742   4.587
 1848SOL    HW2 6444   3.437   5.812   4.550
 1849SOL     OW 6445   4.656   2.628   2.292
 1849SOL    HW1 6446   4.681   2.716   2.251
 1849SOL    HW2 6447   4.604   2.574   2.227
 1850SOL     OW 6448   4.899   1.443   1.067
 1850SOL    HW1 6449   4.984   1.435   1.120
 1850SOL    HW2 6450   4.848   1.358   1.074
 1851SOL     OW 6451   1.357   5.195   3.604
 1851SOL    HW1 6452   1.388   5.264   3.670
 1851SOL    HW2 6453   1.268   5.159   3.632
 1852SOL     OW 6454   0.282   0.042   3.693
 1852SOL    HW1 6455   0.308   0.138   3.687
 1852SOL    HW2 6456   0.300   0.008   3.785
 1853SOL     OW 6457   0.996   2.182   5.112
 1853SOL    HW1 6458   0.971   2.148   5.022
 1853SOL    HW2 6459   1.094   2.200   5.115
 1854SOL     OW 6460   0.893   6.912   4.100
 1854SOL    HW1 6461   0.989   6.887   4.087
 1854SOL    HW2 6462   0.834   6.840   4.063
 1855SOL     OW 6463   6.653   1.609   5.049
 1855SOL    HW1 6464   6.628   1.634   5.143
 1855SOL    HW2 6465   6.752   1.600   5.043
 1856SOL     OW 6466   5.069   3.739   6.981
 1856SOL    HW1 6467   5.138   3.803   6.949
 1856SOL    HW2 6468   4.994   3.789   0.002
 1857SOL     OW 6469   4.704   0.741   6.772
 1857SOL    HW1 6470   4.790   0.769   6.729
 1857SOL    HW2 6471   4.671   0.815   6.830
 1858SOL     OW 6472   4.965   2.111   4.537
 1858SOL    HW1 6473   4.946   2.209   4.537
 1858SOL    HW2 6474   4.879   2.061   4.525
 1859SOL     OW 6475   6.132   6.159   2.731
 1859SOL    HW1 6476   6.137   6.110   2.643
 1859SOL    HW2 6477   6.097   6.097   2.801
 1860SOL     OW 6478   2.097   0.817   0.824
 1860SOL    HW1 6479   2.115   0.879   0.901
 1860SOL    HW2 6480   2.055   0.733   0.858
 1861SOL     OW 6481   6.492   6.910   5.452
 1861SOL    HW1 6482   6.534   6.999   5.434
 1861SOL    HW2 6483   6.518   6.845   5.381
 1862SOL     OW 6484   3.894   5.116   5.113
 1862SOL    HW1 6485   3.963   5.169   5.164
 1862SOL    HW2 6486   3.865   5.168   5.033
 1863SOL     OW 6487   0.108   1.042   1.372
 1863SOL    HW1 6488   0.087   1.093   1.288
 1863SOL    HW2 6489   0.103   0.943   1.353
 1864SOL     OW 6490   2.323   6.132   2.374
 1864SOL    HW1 6491   2.323   6.193   2.295
 1864SOL    HW2 6492   2.315   6.037   2.343
 1865SOL     OW 6493   6.111   2.515   5.646
 1865SOL    HW1 6494   6.108   2.511   5.746
 1865SOL    HW2 6495   6.193   2.565   5.617
 1866SOL     OW 6496   0.169   4.063   5.270
 1866SOL    HW1 6497   0.230   4.128   5.315
 1866SOL    HW2 6498   0.220   4.009   5.204
 1867SOL     OW 6499   1.107   0.716   0.917
 1867SOL    HW1 6500   1.086   0.799   0.967
 1867SOL    HW2 6501   1.091   0.730   0.820
 1868SOL     OW 6502   5.431   3.491   5.953
 1868SOL    HW1 6503   5.513   3.476   5.899
 1868SOL    HW2 6504   5.454   3.543   6.036
 1869SOL     OW 6505   5.254   0.538   5.034
 1869SOL    HW1 6506   5.331   0.567   5.091
 1869SOL    HW2 6507   5.276   0.451   4.991
 1870SOL     OW 6508   5.433   0.879   5.678
 1870SOL    HW1 6509   5.493   0.800   5.662
 1870SOL    HW2 6510   5.384   0.901   5.593
 1871SOL     OW 6511   2.727   4.655   0.107
 1871SOL    HW1 6512   2.650   4.718   0.118
 1871SOL    HW2 6513   2.763   4.630   0.197
 1872SOL     OW 6514   2.501   3.327   0.032
 1872SOL    HW1 6515   2.465   3.410   7.014
 1872SOL    HW2 6516   2.427   3.275   0.076
 1873SOL     OW 6517   5.963   1.352   2.017
 1873SOL    HW1 6518   5.993   1.293   2.092
 1873SOL    HW2 6519   6.042   1.383   1.965
 1874SOL     OW 6520   2.278   5.279   6.685
 1874SOL    HW1 6521   2.371   5.260   6.654
 1874SOL    HW2 6522   2.215   5.213   6.641
 1875SOL     OW 6523   1.097   5.993   2.670
 1875SOL    HW1 6524   1.001   6.000   2.644
 1875SOL    HW2 6525   1.104   5.960   2.764
 1876SOL     OW 6526   0.344   5.105   5.634
 1876SOL    HW1 6527   0.420   5.116   5.697
 1876SOL    HW2 6528   0.376   5.062   5.549
 1877SOL     OW 6529   0.445   1.103   3.713
 1877SOL    HW1 6530   0.416   1.198   3.709
 1877SOL    HW2 6531   0.426   1.059   3.625
 1878SOL     OW 6532   5.994   3.892   4.618
 1878SOL    HW1 6533   5.965   3.973   4.567
 1878SOL    HW2 6534   5.920   3.863   4.679
 1879SOL     OW 6535   4.020   6.060   5.223
 1879SOL    HW1 6536   4.025   6.038   5.320
 1879SOL    HW2 6537   4.008   6.159   5.212
 1880SOL     OW 6538   1.816   3.701   4.577
 1880SOL    HW1 6539   1.806   3.605   4.605
 1880SOL    HW2 6540   1.783   3.712   4.483
 1881SOL     OW 6541   2.577   2.233   3.034
 1881SOL    HW1 6542   2.589   2.135   3.024
 1881SOL    HW2 6543   2.528   2.269   2.954
 1882SOL     OW 6544   4.053   6.948   0.126
 1882SOL    HW1 6545   4.054   6.870   0.189
 1882SOL    HW2 6546   4.111   6.927   0.047
 1883SOL     OW 6547   2.041   3.549   2.812
 1883SOL    HW1 6548   2.100   3.477   2.774
 1883SOL    HW2 6549   2.069   3.637   2.775
 1884SOL     OW 6550   4.753   1.146   0.235
 1884SOL    HW1 6551   4.808   1.190   0.306
 1884SOL    HW2 6552   4.685   1.086   0.277
 1885SOL     OW 6553   0.086   1.851   0.966
 1885SOL    HW1 6554   0.005   1.793   0.955
 1885SOL    HW2 6555   0.091   1.916   0.891
 1886SOL     OW 6556   3.413   3.106   4.456
 1886SOL    HW1 6557   3.476   3.161   4.401
 1886SOL    HW2 6558   3.383   3.159   4.535
 1887SOL     OW 6559   0.837   5.792   5.404
 1887SOL    HW1 6560   0.937   5.803   5.409
 1887SOL    HW2 6561   0.795   5.825   5.489
 1888SOL     OW 6562   2.145   1.958   5.765
 1888SOL    HW1 6563   2.193   2.011   5.694
 1888SOL    HW2 6564   2.141   1.862   5.738
 1889SOL     OW 6565   3.784   3.940   0.049
 1889SOL    HW1 6566   3.718   3.870   0.024
 1889SOL    HW2 6567   3.763   4.025   7.022
 1890SOL     OW 6568   6.146   6.434   6.316
 1890SOL    HW1 6569   6.228   6.461   6.266
 1890SOL    HW2 6570   6.169   6.361   6.380
 1891SOL     OW 6571   5.359   3.045   6.932
 1891SOL    HW1 6572   5.342   3.143   6.938
 1891SOL    HW2 6573   5.435   3.028   6.868
 1892SOL     OW 6574   3.943   0.654   3.297
 1892SOL    HW1 6575   3.922   0.567   3.342
 1892SOL    HW2 6576   3.886   0.727   3.337
 1893SOL     OW 6577   2.873   2.358   0.022
 1893SOL    HW1 6578   2.793   2.401   7.003
 1893SOL    HW2 6579   2.918   2.299   6.977
 1894SOL     OW 6580   5.039   3.259   0.820
 1894SOL    HW1 6581   5.049   3.350   0.780
 1894SOL    HW2 6582   5.090   3.193   0.764
 1895SOL     OW 6583   4.485   5.472   2.941
 1895SOL    HW1 6584   4.430   5.476   2.857
 1895SOL    HW2 6585   4.454   5.543   3.004
 1896SOL     OW 6586   0.112   1.466   4.697
 1896SOL    HW1 6587   0.169   1.488   4.777
 1896SOL    HW2 6588   0.171   1.453   4.617
 1897SOL     OW 6589   5.416   5.287   3.410
 1897SOL    HW1 6590   5.401   5.335   3.323
 1897SOL    HW2 6591   5.370   5.199   3.408
 1898SOL     OW 6592   4.972   6.494   0.273
 1898SOL    HW1 6593   5.065   6.512   0.305
 1898SOL    HW2 6594   4.935   6.576   0.230
 1899SOL     OW 6595   1.475   3.263   3.766
 1899SOL    HW1 6596   1.391   3.238   3.719
 1899SOL    HW2 6597   1.482   3.362   3.771
 1900SOL     OW 6598   2.685   5.894   1.449
 1900SOL    HW1 6599   2.715   5.820   1.389
 1900SOL    HW2 6600   2.598   5.869   1.492
 1901SOL     OW 6601   0.445   1.847   6.131
 1901SOL    HW1 6602   0.400   1.821   6.045
 1901SOL    HW2 6603   0.470   1.943   6.127
 1902SOL     OW 6604   1.385   2.683   4.701
 1902SOL    HW1 6605   1.333   2.603   4.671
 1902SOL    HW2 6606   1.455   2.654   4.766
 1903SOL     OW 6607   6.851   5.939   3.790
 1903SOL    HW1 6608   6.828   6.035   3.801
 1903SOL    HW2 6609   6.771   5.883   3.814
 1904SOL     OW 6610   0.434   0.106   4.204
 1904SOL    HW1 6611   0.366   0.121   4.276
 1904SOL    HW2 6612   0.438   0.187   4.145
 1905SOL     OW 6613   5.705   3.335   5.415
 1905SOL    HW1 6614   5.638   3.345   5.488
 1905SOL    HW2 6615   5.750   3.423   5.398
 1906SOL     OW 6616   1.994   6.309   5.930
 1906SOL    HW1 6617   1.975   6.397   5.886
 1906SOL    HW2 6618   2.092   6.291   5.927
 1907SOL     OW 6619   4.388   6.615   3.180
 1907SOL    HW1 6620   4.307   6.632   3.125
 1907SOL    HW2 6621   4.460   6.577   3.123
 1908SOL     OW 6622   4.931   4.682   0.990
 1908SOL    HW1 6623   4.912   4.607   0.927
 1908SOL    HW2 6624   4.972   4.759   0.940
 1909SOL     OW 6625   4.894   5.277   3.704
 1909SOL    HW1 6626   4.838   5.219   3.645
 1909SOL    HW2 6627   4.990   5.248   3.698
 1910SOL     OW 6628   5.519   3.754   4.223
 1910SOL    HW1 6629   5.448   3.726   4.287
 1910SOL    HW2 6630   5.512   3.700   4.139
 1911SOL     OW 6631   0.953   2.556   5.467
 1911SOL    HW1 6632   0.983   2.468   5.503
 1911SOL    HW2 6633   0.972   2.628   5.535
 1912SOL     OW 6634   3.308   6.985   2.413
 1912SOL    HW1 6635   3.336   6.913   2.477
 1912SOL    HW2 6636   3.212   6.973   2.389
 1913SOL     OW 6637   2.894   4.045   6.959
 1913SOL    HW1 6638   2.801   4.061   6.992
 1913SOL    HW2 6639   2.913   4.106   6.882
 1914SOL     OW 6640   4.207   1.466   5.122
 1914SOL    HW1 6641   4.221   1.518   5.206
 1914SOL    HW2 6642   4.109   1.457   5.105
 1915SOL     OW 6643   2.499   6.541   4.959
 1915SOL    HW1 6644   2.537   6.633   4.962
 1915SOL    HW2 6645   2.402   6.544   4.983
 1916SOL     OW 6646   3.478   6.368   2.571
 1916SOL    HW1 6647   3.488   6.462   2.605
 1916SOL    HW2 6648   3.388   6.333   2.595
 1917SOL     OW 6649   4.047   3.660   3.342
 1917SOL    HW1 6650   4.073   3.720   3.267
 1917SOL    HW2 6651   3.965   3.697   3.387
 1918SOL     OW 6652   0.883   6.281   5.727
 1918SOL    HW1 6653   0.857   6.328   5.811
 1918SOL    HW2 6654   0.940   6.341   5.670
 1919SOL     OW 6655   5.388   0.496   1.702
 1919SOL    HW1 6656   5.382   0.595   1.715
 1919SOL    HW2 6657   5.437   0.456   1.779
 1920SOL     OW 6658   6.176   6.714   4.327
 1920SOL    HW1 6659   6.204   6.633   4.379
 1920SOL    HW2 6660   6.256   6.754   4.282
 1921SOL     OW 6661   2.524   6.684   6.767
 1921SOL    HW1 6662   2.556   6.592   6.748
 1921SOL    HW2 6663   2.548   6.745   6.691
 1922SOL     OW 6664   3.725   4.680   6.803
 1922SOL    HW1 6665   3.735   4.672   6.902
 1922SOL    HW2 6666   3.735   4.589   6.761
 1923SOL     OW 6667   1.854   2.934   1.031
 1923SOL    HW1 6668   1.928   2.936   1.098
 1923SOL    HW2 6669   1.859   2.849   0.978
 1924SOL     OW 6670   0.648   3.899   1.711
 1924SOL    HW1 6671   0.564   3.886   1.658
 1924SOL    HW2 6672   0.725   3.911   1.649
 1925SOL     OW 6673   3.347   4.605   0.223
 1925SOL    HW1 6674   3.329   4.519   0.176
 1925SOL    HW2 6675   3.416   4.591   0.294
 1926SOL     OW 6676   0.403   0.282   3.527
 1926SOL    HW1 6677   0.421   0.197   3.478
 1926SOL    HW2 6678   0.332   0.334   3.479
 1927SOL     OW 6679   5.263   3.370   1.421
 1927SOL    HW1 6680   5.326   3.387   1.345
 1927SOL    HW2 6681   5.210   3.287   1.402
 1928SOL     OW 6682   0.259   5.457   4.569
 1928SOL    HW1 6683   0.276   5.520   4.494
 1928SOL    HW2 6684   0.319   5.377   4.559
 1929SOL     OW 6685   1.319   4.569   2.949
 1929SOL    HW1 6686   1.414   4.597   2.965
 1929SOL    HW2 6687   1.257   4.637   2.988
 1930SOL     OW 6688   6.560   5.612   5.765
 1930SOL    HW1 6689   6.614   5.528   5.752
 1930SOL    HW2 6690   6.483   5.611   5.701
 1931SOL     OW 6691   2.120   2.657   3.500
 1931SOL    HW1 6692   2.171   2.742   3.485
 1931SOL    HW2 6693   2.135   2.625   3.594
 1932SOL     OW 6694   6.331   3.428   2.184
 1932SOL    HW1 6695   6.406   3.471   2.235
 1932SOL    HW2 6696   6.270   3.381   2.248
 1933SOL     OW 6697   2.633   5.504   0.203
 1933SOL    HW1 6698   2.711   5.444   0.186
 1933SOL    HW2 6699   2.665   5.598   0.214
 1934SOL     OW 6700   6.843   6.251   3.167
 1934SOL    HW1 6701   6.801   6.285   3.252
 1934SOL    HW2 6702   6.791   6.172   3.135
 1935SOL     OW 6703   1.066   1.642   2.782
 1935SOL    HW1 6704   1.053   1.569   2.714
 1935SOL    HW2 6705   1.153   1.629   2.828
 1936SOL     OW 6706   0.437   5.892   4.665
 1936SOL    HW1 6707   0.501   5.954   4.619
 1936SOL    HW2 6708   0.473   5.868   4.755
 1937SOL     OW 6709   4.614   1.714   3.313
 1937SOL    HW1 6710   4.563   1.786   3.360
 1937SOL    HW2 6711   4.648   1.648   3.379
 1938SOL     OW 6712   5.032   6.770   3.899
 1938SOL    HW1 6713   4.994   6.847   3.950
 1938SOL    HW2 6714   4.964   6.736   3.835
 1939SOL     OW 6715   2.445   1.017   4.514
 1939SOL    HW1 6716   2.523   0.955   4.516
 1939SOL    HW2 6717   2.473   1.104   4.474
 1940SOL     OW 6718   6.391   6.982   6.540
 1940SOL    HW1 6719   6.292   6.985   6.526
 1940SOL    HW2 6720   6.429   0.052   6.533
 1941SOL     OW 6721   4.312   5.249   2.925
 1941SOL    HW1 6722   4.392   5.295   2.962
 1941SOL    HW2 6723   4.280   5.180   2.990
 1942SOL     OW 6724   0.364   3.427   2.573
 1942SOL    HW1 6725   0.321   3.450   2.486
 1942SOL    HW2 6726   0.332   3.489   2.644
 1943SOL     OW 6727   3.619   5.487   3.320
 1943SOL    HW1 6728   3.609   5.472   3.419
 1943SOL    HW2 6729   3.606   5.584   3.301
 1944SOL     OW 6730   6.878   6.467   1.886
 1944SOL    HW1 6731   6.950   6.441   1.823
 1944SOL    HW2 6732   6.831   6.385   1.919
 1945SOL     OW 6733   2.773   5.109   2.584
 1945SOL    HW1 6734   2.700   5.167   2.620
 1945SOL    HW2 6735   2.833   5.081   2.659
 1946SOL     OW 6736   1.599   6.651   6.903
 1946SOL    HW1 6737   1.606   6.748   6.927
 1946SOL    HW2 6738   1.638   6.636   6.812
 1947SOL     OW 6739   4.177   0.939   3.752
 1947SOL    HW1 6740   4.179   0.920   3.850
 1947SOL    HW2 6741   4.082   0.935   3.719
 1948SOL     OW 6742   6.242   2.905   4.987
 1948SOL    HW1 6743   6.165   2.843   4.984
 1948SOL    HW2 6744   6.217   2.992   4.945
 1949SOL     OW 6745   4.663   3.583   0.022
 1949SOL    HW1 6746   4.738   3.556   6.983
 1949SOL    HW2 6747   4.623   3.502   0.063
 1950SOL     OW 6748   2.578   4.978   0.546
 1950SOL    HW1 6749   2.556   5.068   0.510
 1950SOL    HW2 6750   2.635   4.929   0.481
 1951SOL     OW 6751   6.101   2.658   6.728
 1951SOL    HW1 6752   6.063   2.699   6.645
 1951SOL    HW2 6753   6.136   2.730   6.788
 1952SOL     OW 6754   2.950   3.715   3.555
 1952SOL    HW1 6755   2.899   3.656   3.492
 1952SOL    HW2 6756   2.954   3.671   3.645
 1953SOL     OW 6757   0.348   2.391   4.616
 1953SOL    HW1 6758   0.367   2.332   4.537
 1953SOL    HW2 6759   0.286   2.464   4.588
 1954SOL     OW 6760   2.274   2.326   4.306
 1954SOL    HW1 6761   2.187   2.287   4.274
 1954SOL    HW2 6762   2.346   2.301   4.241
 1955SOL     OW 6763   6.577   5.683   2.831
 1955SOL    HW1 6764   6.517   5.602   2.831
 1955SOL    HW2 6765   6.526   5.761   2.794
 1956SOL     OW 6766   4.045   6.119   3.185
 1956SOL    HW1 6767   4.049   6.028   3.228
 1956SOL    HW2 6768   3.957   6.130   3.140
 1957SOL     OW 6769   2.104   6.529   5.378
 1957SOL    HW1 6770   2.142   6.495   5.464
 1957SOL    HW2 6771   2.173   6.585   5.332
 1958SOL     OW 6772   4.060   3.950   6.282
 1958SOL    HW1 6773   3.985   3.933   6.218
 1958SOL    HW2 6774   4.050   3.891   6.362
 1959SOL     OW 6775   2.549   0.445   0.914
 1959SOL    HW1 6776   2.536   0.346   0.924
 1959SOL    HW2 6777   2.478   0.481   0.853
 1960SOL     OW 6778   5.298   5.234   3.089
 1960SOL    HW1 6779   5.205   5.227   3.052
 1960SOL    HW2 6780   5.346   5.309   3.045
 1961SOL     OW 6781   5.672   4.341   5.371
 1961SOL    HW1 6782   5.687   4.390   5.285
 1961SOL    HW2 6783   5.756   4.344   5.425
 1962SOL     OW 6784   0.667   6.690   4.126
 1962SOL    HW1 6785   0.631   6.762   4.185
 1962SOL    HW2 6786   0.592   6.650   4.073
 1963SOL     OW 6787   2.588   1.446   3.677
 1963SOL    HW1 6788   2.659   1.396   3.628
 1963SOL    HW2 6789   2.628   1.495   3.754
 1964SOL     OW 6790   6.601   3.044   2.231
 1964SOL    HW1 6791   6.572   3.032   2.326
 1964SOL    HW2 6792   6.694   3.010   2.220
 1965SOL     OW 6793   2.440   0.548   3.206
 1965SOL    HW1 6794   2.424   0.479   3.276
 1965SOL    HW2 6795   2.395   0.520   3.121
 1966SOL     OW 6796   6.783   6.384   6.981
 1966SOL    HW1 6797   6.859   6.372   0.022
 1966SOL    HW2 6798   6.818   6.389   6.887
 1967SOL     OW 6799   6.043   2.723   4.692
 1967SOL    HW1 6800   6.095   2.802   4.660
 1967SOL    HW2 6801   6.026   2.732   4.790
 1968SOL     OW 6802   4.196   5.715   4.200
 1968SOL    HW1 6803   4.096   5.709   4.208
 1968SOL    HW2 6804   4.238   5.643   4.256
 1969SOL     OW 6805   6.326   0.649   1.435
 1969SOL    HW1 6806   6.264   0.688   1.503
 1969SOL    HW2 6807   6.413   0.699   1.437
 1970SOL     OW 6808   2.094   1.528   4.439
 1970SOL    HW1 6809   2.122   1.490   4.351
 1970SOL    HW2 6810   2.172   1.527   4.502
 1971SOL     OW 6811   0.328   1.432   6.118
 1971SOL    HW1 6812   0.360   1.379   6.040
 1971SOL    HW2 6813   0.241   1.395   6.150
 1972SOL     OW 6814   1.174   0.125   3.517
 1972SOL    HW1 6815   1.231   0.096   3.594
 1972SOL    HW2 6816   1.081   0.143   3.549
 1973SOL     OW 6817   3.199   3.116   0.186
 1973SOL    HW1 6818   3.172   3.021   0.203
 1973SOL    HW2 6819   3.227   3.126   0.091
 1974SOL     OW 6820   6.366   6.372   4.078
 1974SOL    HW1 6821   6.363   6.445   4.009
 1974SOL    HW2 6822   6.437   6.393   4.145
 1975SOL     OW 6823   2.651   0.043   3.745
 1975SOL    HW1 6824   2.669   0.140   3.762
 1975SOL    HW2 6825   2.726   0.004   3.691
 1976SOL     OW 6826   6.340   4.634   5.993
 1976SOL    HW1 6827   6.363   4.642   6.090
 1976SOL    HW2 6828   6.256   4.686   5.974
 1977SOL     OW 6829   3.320   2.180   5.258
 1977SOL    HW1 6830   3.244   2.239   5.229
 1977SOL    HW2 6831   3.361   2.137   5.178
 1978SOL     OW 6832   6.694   2.553   4.728
 1978SOL    HW1 6833   6.696   2.602   4.641
 1978SOL    HW2 6834   6.658   2.461   4.714
 1979SOL     OW 6835   6.804   4.018   2.617
 1979SOL    HW1 6836   6.865   3.972   2.552
 1979SOL    HW2 6837   6.729   4.060   2.567
 1980SOL     OW 6838   2.606   0.716   3.058
 1980SOL    HW1 6839   2.636   0.669   2.975
 1980SOL    HW2 6840   2.561   0.650   3.118
 1981SOL     OW 6841   5.915   3.566   2.182
 1981SOL    HW1 6842   5.886   3.544   2.089
 1981SOL    HW2 6843   6.011   3.594   2.181
 1982SOL     OW 6844   0.313   6.990   5.384
 1982SOL    HW1 6845   0.259   0.011   5.312
 1982SOL    HW2 6846   0.409   6.986   5.356
 1983SOL     OW 6847   0.766   4.815   1.705
 1983SOL    HW1 6848   0.832   4.743   1.725
 1983SOL    HW2 6849   0.704   4.827   1.783
 1984SOL     OW 6850   4.020   1.036   5.551
 1984SOL    HW1 6851   3.977   0.948   5.569
 1984SOL    HW2 6852   3.985   1.104   5.617
 1985SOL     OW 6853   1.361   5.462   1.978
 1985SOL    HW1 6854   1.405   5.403   1.910
 1985SOL    HW2 6855   1.427   5.530   2.011
 1986SOL     OW 6856   6.840   2.202   0.674
 1986SOL    HW1 6857   6.859   2.300   0.674
 1986SOL    HW2 6858   6.758   2.185   0.730
 1987SOL     OW 6859   2.556   3.473   0.279
 1987SOL    HW1 6860   2.608   3.419   0.344
 1987SOL    HW2 6861   2.554   3.426   0.190
 1988SOL     OW 6862   5.098   2.930   0.914
 1988SOL    HW1 6863   5.126   2.860   0.848
 1988SOL    HW2 6864   5.022   2.983   0.876
 1989SOL     OW 6865   2.727   2.271   3.714
 1989SOL    HW1 6866   2.782   2.284   3.631
 1989SOL    HW2 6867   2.663   2.195   3.700
 1990SOL     OW 6868   1.016   0.937   2.994
 1990SOL    HW1 6869   1.013   0.861   3.059
 1990SOL    HW2 6870   0.949   0.922   2.921
 1991SOL     OW 6871   4.722   6.073   2.782
 1991SOL    HW1 6872   4.653   6.002   2.770
 1991SOL    HW2 6873   4.813   6.032   2.785
 1992SOL     OW 6874   2.394   5.360   5.388
 1992SOL    HW1 6875   2.410   5.262   5.398
 1992SOL    HW2 6876   2.348   5.395   5.470
 1993SOL     OW 6877   3.105   3.224   3.966
 1993SOL    HW1 6878   3.153   3.307   3.937
 1993SOL    HW2 6879   3.122   3.150   3.901
 1994SOL     OW 6880   6.608   2.022   1.845
 1994SOL    HW1 6881   6.641   2.087   1.913
 1994SOL    HW2 6882   6.567   2.071   1.768
 1995SOL     OW 6883   3.835   2.224   1.336
 1995SOL    HW1 6884   3.896   2.221   1.416
 1995SOL    HW2 6885   3.850   2.142   1.280
 1996SOL     OW 6886   2.119   4.654   5.332
 1996SOL    HW1 6887   2.121   4.574   5.272
 1996SOL    HW2 6888   2.112   4.623   5.427
 1997SOL     OW 6889   5.737   6.269   3.971
 1997SOL    HW1 6890   5.744   6.334   4.047
 1997SOL    HW2 6891   5.814   6.205   3.976
 1998SOL     OW 6892   3.112   4.947   4.595
 1998SOL    HW1 6893   3.049   4.890   4.647
 1998SOL    HW2 6894   3.061   5.009   4.536
 1999SOL     OW 6895   3.111   1.708   2.057
 1999SOL    HW1 6896   3.136   1.798   2.093
 1999SOL    HW2 6897   3.017   1.688   2.082
 2000SOL     OW 6898   2.584   1.242   5.095
 2000SOL    HW1 6899   2.598   1.207   5.003
 2000SOL    HW2 6900   2.609   1.172   5.162
 2001SOL     OW 6901   2.425   2.518   6.802
 2001SOL    HW1 6902   2.437   2.436   6.746
 2001SOL    HW2 6903   2.405   2.596   6.743
 2002SOL     OW 6904   1.548   4.873   4.981
 2002SOL    HW1 6905   1.622   4.875   5.048
 2002SOL    HW2 6906   1.542   4.961   4.935
 2003SOL     OW 6907   6.331   3.893   3.360
 2003SOL    HW1 6908   6.272   3.812   3.353
 2003SOL    HW2 6909   6.411   3.881   3.301
 2004SOL     OW 6910   3.345   7.008   6.749
 2004SOL    HW1 6911   3.376   6.920   6.783
 2004SOL    HW2 6912   3.264   0.015   6.800
 2005SOL     OW 6913   2.938   6.666   5.079
 2005SOL    HW1 6914   2.862   6.604   5.057
 2005SOL    HW2 6915   2.958   6.723   4.999
 2006SOL     OW 6916   4.585   6.838   3.481
 2006SOL    HW1 6917   4.526   6.862   3.404
 2006SOL    HW2 6918   4.672   6.886   3.473
 2007SOL     OW 6919   6.730   5.687   6.642
 2007SOL    HW1 6920   6.726   5.779   6.683
 2007SOL    HW2 6921   6.736   5.619   6.715
 2008SOL     OW 6922   0.365   5.893   5.537
 2008SOL    HW1 6923   0.424   5.816   5.562
 2008SOL    HW2 6924   0.270   5.870   5.558
 2009SOL     OW 6925   1.150   0.529   0.066
 2009SOL    HW1 6926   1.184   0.436   0.051
 2009SOL    HW2 6927   1.164   0.554   0.162
 2010SOL     OW 6928   2.193   1.243   1.009
 2010SOL    HW1 6929   2.163   1.154   1.043
 2010SOL    HW2 6930   2.113   1.298   0.984
 2011SOL     OW 6931   6.207   1.479   4.575
 2011SOL    HW1 6932   6.242   1.567   4.543
 2011SOL    HW2 6933   6.249   1.456   4.663
 2012SOL     OW 6934   6.780   3.397   1.280
 2012SOL    HW1 6935   6.871   3.436   1.261
 2012SOL    HW2 6936   6.791   3.310   1.329
 2013SOL     OW 6937   3.678   2.521   1.472
 2013SOL    HW1 6938   3.622   2.581   1.528
 2013SOL    HW2 6939   3.693   2.435   1.521
 2014SOL     OW 6940   3.224   5.754   3.359
 2014SOL    HW1 6941   3.136   5.746   3.405
 2014SOL    HW2 6942   3.213   5.804   3.273
 2015SOL     OW 6943   2.850   5.474   0.571
 2015SOL    HW1 6944   2.869   5.515   0.482
 2015SOL    HW2 6945   2.812   5.544   0.632
 2016SOL     OW 6946   5.961   5.598   4.864
 2016SOL    HW1 6947   5.969   5.697   4.861
 2016SOL    HW2 6948   5.892   5.568   4.798
 2017SOL     OW 6949   2.025   5.373   1.966
 2017SOL    HW1 6950   2.019   5.425   2.051
 2017SOL    HW2 6951   1.933   5.346   1.937
 2018SOL     OW 6952   0.339   4.219   5.454
 2018SOL    HW1 6953   0.338   4.301   5.511
 2018SOL    HW2 6954   0.324   4.138   5.511
 2019SOL     OW 6955   5.201   0.723   2.586
 2019SOL    HW1 6956   5.292   0.763   2.573
 2019SOL    HW2 6957   5.160   0.704   2.497
 2020SOL     OW 6958   2.576   5.599   3.514
 2020SOL    HW1 6959   2.650   5.535   3.494
 2020SOL    HW2 6960   2.488   5.550   3.510
 2021SOL     OW 6961   1.695   5.942   1.800
 2021SOL    HW1 6962   1.733   5.871   1.740
 2021SOL    HW2 6963   1.762   5.966   1.870
 2022SOL     OW 6964   3.471   5.665   1.510
 2022SOL    HW1 6965   3.549   5.603   1.514
 2022SOL    HW2 6966   3.402   5.636   1.576
 2023SOL     OW 6967   6.402   2.184   5.704
 2023SOL    HW1 6968   6.344   2.159   5.627
 2023SOL    HW2 6969   6.348   2.235   5.771
 2024SOL     OW 6970   5.706   0.441   3.467
 2024SOL    HW1 6971   5.687   0.413   3.562
 2024SOL    HW2 6972   5.747   0.365   3.418
 2025SOL     OW 6973   6.207   1.010   1.258
 2025SOL    HW1 6974   6.272   1.028   1.331
 2025SOL    HW2 6975   6.177   1.097   1.217
 2026SOL     OW 6976   1.811   1.750   5.172
 2026SOL    HW1 6977   1.806   1.771   5.075
 2026SOL    HW2 6978   1.836   1.832   5.223
 2027SOL     OW 6979   6.756   0.169   2.348
 2027SOL    HW1 6980   6.691   0.095   2.365
 2027SOL    HW2 6981   6.733   0.216   2.263
 2028SOL     OW 6982   4.059   4.247   5.673
 2028SOL    HW1 6983   4.039   4.342   5.648
 2028SOL    HW2 6984   4.072   4.193   5.590
 2029SOL     OW 6985   1.822   0.625   0.673
 2029SOL    HW1 6986   1.910   0.625   0.625
 2029SOL    HW2 6987   1.759   0.563   0.627
 2030SOL     OW 6988   2.239   2.994   2.556
 2030SOL    HW1 6989   2.267   2.908   2.513
 2030SOL    HW2 6990   2.255   2.989   2.654
 2031SOL     OW 6991   5.985   6.878   2.139
 2031SOL    HW1 6992   5.955   6.969   2.108
 2031SOL    HW2 6993   5.987   6.816   2.060
 2032SOL     OW 6994   4.321   6.100   1.931
 2032SOL    HW1 6995   4.289   6.163   2.002
 2032SOL    HW2 6996   4.419   6.113   1.916
 2033SOL     OW 6997   0.429   4.879   6.544
 2033SOL    HW1 6998   0.377   4.956   6.509
 2033SOL    HW2 6999   0.483   4.839   6.470
 2034SOL     OW 7000   2.222   5.407   3.969
 2034SOL    HW1 7001   2.226   5.325   3.912
 2034SOL    HW2 7002   2.148   5.466   3.936
 2035SOL     OW 7003   0.551   1.883   3.320
 2035SOL    HW1 7004   0.552   1.794   3.365
 2035SOL    HW2 7005   0.534   1.955   3.388
 2036SOL     OW 7006   0.626   4.906   0.993
 2036SOL    HW1 7007   0.721   4.922   1.021
 2036SOL    HW2 7008   0.565   4.921   1.071
 2037SOL     OW 7009   0.591   2.775   6.818
 2037SOL    HW1 7010   0.508   2.732   6.783
 2037SOL    HW2 7011   0.567   2.835   6.895
 2038SOL     OW 7012   1.774   0.062   4.894
 2038SOL    HW1 7013   1.706   0.097   4.830
 2038SOL    HW2 7014   1.775   6.985   4.891
 2039SOL     OW 7015   1.271   5.403   2.244
 2039SOL    HW1 7016   1.177   5.432   2.229
 2039SOL    HW2 7017   1.319   5.400   2.156
 2040SOL     OW 7018   3.857   3.451   4.643
 2040SOL    HW1 7019   3.879   3.385   4.714
 2040SOL    HW2 7020   3.762   3.480   4.653
 2041SOL     OW 7021   4.960   2.721   0.012
 2041SOL    HW1 7022   4.964   2.750   0.108
 2041SOL    HW2 7023   5.042   2.754   6.987
 2042SOL     OW 7024   3.332   6.360   0.858
 2042SOL    HW1 7025   3.243   6.366   0.904
 2042SOL    HW2 7026   3.356   6.450   0.821
 2043SOL     OW 7027   4.311   5.846   2.491
 2043SOL    HW1 7028   4.299   5.795   2.406
 2043SOL    HW2 7029   4.380   5.801   2.547
 2044SOL     OW 7030   6.244   0.854   2.351
 2044SOL    HW1 7031   6.323   0.908   2.379
 2044SOL    HW2 7032   6.161   0.888   2.396
 2045SOL     OW 7033   2.989   6.706   6.186
 2045SOL    HW1 7034   2.999   6.704   6.286
 2045SOL    HW2 7035   3.074   6.738   6.145
 2046SOL     OW 7036   5.715   6.864   5.708
 2046SOL    HW1 7037   5.686   6.823   5.621
 2046SOL    HW2 7038   5.768   6.947   5.691
 2047SOL     OW 7039   5.096   3.397   0.278
 2047SOL    HW1 7040   5.177   3.340   0.297
 2047SOL    HW2 7041   5.051   3.363   0.196
 2048SOL     OW 7042   4.412   6.370   5.693
 2048SOL    HW1 7043   4.465   6.378   5.608
 2048SOL    HW2 7044   4.453   6.428   5.763
 2049SOL     OW 7045   5.351   5.161   6.548
 2049SOL    HW1 7046   5.373   5.097   6.474
 2049SOL    HW2 7047   5.346   5.254   6.511
 2050SOL     OW 7048   5.508   1.049   3.268
 2050SOL    HW1 7049   5.498   1.148   3.257
 2050SOL    HW2 7050   5.591   1.029   3.320
 2051SOL     OW 7051   3.059   5.833   1.214
 2051SOL    HW1 7052   3.026   5.909   1.270
 2051SOL    HW2 7053   3.002   5.825   1.132
 2052SOL     OW 7054   2.115   2.510   1.136
 2052SOL    HW1 7055   2.175   2.472   1.064
 2052SOL    HW2 7056   2.146   2.477   1.225
 2053SOL     OW 7057   4.583   0.814   0.932
 2053SOL    HW1 7058   4.554   0.725   0.897
 2053SOL    HW2 7059   4.542   0.886   0.876
 2054SOL     OW 7060   0.995   3.041   0.893
 2054SOL    HW1 7061   0.935   3.007   0.965
 2054SOL    HW2 7062   0.994   3.141   0.894
 2055SOL     OW 7063   6.588   1.156   3.685
 2055SOL    HW1 7064   6.669   1.101   3.665
 2055SOL    HW2 7065   6.595   1.194   3.777
 2056SOL     OW 7066   0.428   6.542   2.460
 2056SOL    HW1 7067   0.368   6.552   2.381
 2056SOL    HW2 7068   0.400   6.461   2.512
 2057SOL     OW 7069   4.813   3.129   3.982
 2057SOL    HW1 7070   4.845   3.073   4.058
 2057SOL    HW2 7071   4.785   3.070   3.906
 2058SOL     OW 7072   0.924   1.111   1.397
 2058SOL    HW1 7073   0.996   1.042   1.408
 2058SOL    HW2 7074   0.850   1.093   1.462
 2059SOL     OW 7075   1.682   1.011   6.806
 2059SOL    HW1 7076   1.609   0.944   6.796
 2059SOL    HW2 7077   1.768   0.964   6.827
 2060SOL     OW 7078   0.165   4.847   3.041
 2060SOL    HW1 7079   0.249   4.812   2.999
 2060SOL    HW2 7080   0.090   4.841   2.975
 2061SOL     OW 7081   1.390   0.464   0.692
 2061SOL    HW1 7082   1.362   0.555   0.661
 2061SOL    HW2 7083   1.318   0.398   0.670
 2062SOL     OW 7084   3.671   0.434   3.660
 2062SOL    HW1 7085   3.770   0.444   3.648
 2062SOL    HW2 7086   3.652   0.362   3.727
 2063SOL     OW 7087   2.436   2.583   1.331
 2063SOL    HW1 7088   2.465   2.658   1.390
 2063SOL    HW2 7089   2.515   2.525   1.310
 2064SOL     OW 7090   1.185   2.089   1.002
 2064SOL    HW1 7091   1.171   2.016   0.934
 2064SOL    HW2 7092   1.216   2.048   1.088
 2065SOL     OW 7093   0.044   2.772   2.648
 2065SOL    HW1 7094   7.020   2.739   2.565
 2065SOL    HW2 7095   0.110   2.843   2.623
 2066SOL     OW 7096   0.841   6.151   3.415
 2066SOL    HW1 7097   0.875   6.238   3.450
 2066SOL    HW2 7098   0.747   6.138   3.445
 2067SOL     OW 7099   0.159   0.752   0.662
 2067SOL    HW1 7100   0.230   0.707   0.608
 2067SOL    HW2 7101   0.073   0.700   0.655
 2068SOL     OW 7102   2.063   2.216   5.144
 2068SOL    HW1 7103   2.149   2.249   5.105
 2068SOL    HW2 7104   2.069   2.216   5.244
 2069SOL     OW 7105   1.523   2.282   2.147
 2069SOL    HW1 7106   1.470   2.366   2.145
 2069SOL    HW2 7107   1.535   2.248   2.053
 2070SOL     OW 7108   0.054   1.719   2.530
 2070SOL    HW1 7109   0.134   1.690   2.479
 2070SOL    HW2 7110   7.002   1.654   2.516
 2071SOL     OW 7111   2.605   6.186   5.478
 2071SOL    HW1 7112   2.642   6.179   5.571
 2071SOL    HW2 7113   2.506   6.179   5.481
 2072SOL     OW 7114   4.769   5.039   2.431
 2072SOL    HW1 7115   4.675   5.005   2.426
 2072SOL    HW2 7116   4.777   5.102   2.509
 2073SOL     OW 7117   3.605   6.858   5.249
 2073SOL    HW1 7118   3.548   6.910   5.312
 2073SOL    HW2 7119   3.614   6.908   5.163
 2074SOL     OW 7120   5.700   1.983   3.039
 2074SOL    HW1 7121   5.757   1.901   3.040
 2074SOL    HW2 7122   5.611   1.961   2.999
 2075SOL     OW 7123   3.875   2.987   5.668
 2075SOL    HW1 7124   3.801   3.053   5.679
 2075SOL    HW2 7125   3.930   3.012   5.588
 2076SOL     OW 7126   5.126   6.895   0.275
 2076SOL    HW1 7127   5.182   6.814   0.258
 2076SOL    HW2 7128   5.052   6.898   0.207
 2077SOL     OW 7129   4.464   0.880   4.388
 2077SOL    HW1 7130   4.442   0.974   4.362
 2077SOL    HW2 7131   4.390   0.818   4.360
 2078SOL     OW 7132   4.095   6.008   3.827
 2078SOL    HW1 7133   4.083   6.069   3.906
 2078SOL    HW2 7134   4.186   6.021   3.789
 2079SOL     OW 7135   5.890   6.876   3.752
 2079SOL    HW1 7136   5.868   6.942   3.824
 2079SOL    HW2 7137   5.867   6.784   3.783
 2080SOL     OW 7138   2.912   2.012   3.427
 2080SOL    HW1 7139   2.932   2.081   3.357
 2080SOL    HW2 7140   2.814   2.013   3.448
 2081SOL     OW 7141   0.931   6.218   4.060
 2081SOL    HW1 7142   0.955   6.235   4.155
 2081SOL    HW2 7143   0.880   6.296   4.024
 2082SOL     OW 7144   5.076   0.777   2.326
 2082SOL    HW1 7145   5.130   0.850   2.369
 2082SOL    HW2 7146   5.112   0.759   2.234
 2083SOL     OW 7147   3.659   4.424   6.232
 2083SOL    HW1 7148   3.577   4.402   6.180
 2083SOL    HW2 7149   3.636   4.427   6.330
 2084SOL     OW 7150   0.273   2.382   3.019
 2084SOL    HW1 7151   0.254   2.439   2.940
 2084SOL    HW2 7152   0.356   2.328   3.002
 2085SOL     OW 7153   5.954   6.699   0.092
 2085SOL    HW1 7154   5.919   6.699   0.185
 2085SOL    HW2 7155   5.893   6.646   0.033
 2086SOL     OW 7156   3.443   5.190   6.991
 2086SOL    HW1 7157   3.349   5.224   7.002
 2086SOL    HW2 7158   3.461   5.173   6.894
 2087SOL     OW 7159   5.495   5.798   3.582
 2087SOL    HW1 7160   5.443   5.723   3.622
 2087SOL    HW2 7161   5.561   5.761   3.517
 2088SOL     OW 7162   2.551   6.563   1.669
 2088SOL    HW1 7163   2.609   6.486   1.644
 2088SOL    HW2 7164   2.504   6.543   1.755
 2089SOL     OW 7165   2.224   1.137   6.503
 2089SOL    HW1 7166   2.216   1.185   6.591
 2089SOL    HW2 7167   2.320   1.124   6.480
 2090SOL     OW 7168   3.272   3.816   3.879
 2090SOL    HW1 7169   3.235   3.889   3.821
 2090SOL    HW2 7170   3.201   3.747   3.894
 2091SOL     OW 7171   2.842   4.319   1.014
 2091SOL    HW1 7172   2.920   4.258   0.998
 2091SOL    HW2 7173   2.780   4.278   1.081
 2092SOL     OW 7174   6.554   0.053   0.883
 2092SOL    HW1 7175   6.587   0.051   0.789
 2092SOL    HW2 7176   6.492   6.999   0.898
 2093SOL     OW 7177   1.576   1.530   1.698
 2093SOL    HW1 7178   1.583   1.507   1.796
 2093SOL    HW2 7179   1.668   1.531   1.658
 2094SOL     OW 7180   6.990   0.420   1.987
 2094SOL    HW1 7181   0.045   0.480   1.966
 2094SOL    HW2 7182   6.960   0.436   2.081
 2095SOL     OW 7183   6.030   4.730   5.199
 2095SOL    HW1 7184   6.068   4.639   5.182
 2095SOL    HW2 7185   6.075   4.796   5.139
 2096SOL     OW 7186   5.097   4.407   3.415
 2096SOL    HW1 7187   5.060   4.479   3.355
 2096SOL    HW2 7188   5.162   4.447   3.478
 2097SOL     OW 7189   6.202   3.493   5.886
 2097SOL    HW1 7190   6.124   3.483   5.825
 2097SOL    HW2 7191   6.228   3.589   5.891
 2098SOL     OW 7192   4.017   0.503   3.942
 2098SOL    HW1 7193   3.970   0.414   3.939
 2098SOL    HW2 7194   3.959   0.573   3.901
 2099SOL     OW 7195   2.754   1.798   3.657
 2099SOL    HW1 7196   2.720   1.773   3.748
 2099SOL    HW2 7197   2.678   1.807   3.593
 2100SOL     OW 7198   4.522   4.905   6.244
 2100SOL    HW1 7199   4.530   5.003   6.260
 2100SOL    HW2 7200   4.518   4.857   6.331
 2101SOL     OW 7201   6.206   7.003   1.852
 2101SOL    HW1 7202   6.261   0.062   1.870
 2101SOL    HW2 7203   6.266   6.930   1.817
 2102SOL     OW 7204   0.359   5.390   1.289
 2102SOL    HW1 7205   0.425   5.374   1.215
 2102SOL    HW2 7206   0.365   5.316   1.356
 2103SOL     OW 7207   3.410   3.732   6.586
 2103SOL    HW1 7208   3.387   3.635   6.590
 2103SOL    HW2 7209   3.342   3.780   6.530
 2104SOL     OW 7210   1.297   4.742   5.805
 2104SOL    HW1 7211   1.363   4.699   5.866
 2104SOL    HW2 7212   1.234   4.799   5.859
 2105SOL     OW 7213   5.912   5.735   2.605
 2105SOL    HW1 7214   5.885   5.809   2.543
 2105SOL    HW2 7215   5.849   5.731   2.682
 2106SOL     OW 7216   5.721   6.296   6.194
 2106SOL    HW1 7217   5.778   6.226   6.151
 2106SOL    HW2 7218   5.777   6.377   6.214
 2107SOL     OW 7219   2.484   5.169   0.300
 2107SOL    HW1 7220   2.556   5.136   0.238
 2107SOL    HW2 7221   2.525   5.227   0.369
 2108SOL     OW 7222   5.802   4.724   6.628
 2108SOL    HW1 7223   5.889   4.697   6.668
 2108SOL    HW2 7224   5.762   4.647   6.579
 2109SOL     OW 7225   5.476   5.365   2.927
 2109SOL    HW1 7226   5.532   5.446   2.945
 2109SOL    HW2 7227   5.528   5.299   2.874
 2110SOL     OW 7228   0.915   4.896   5.232
 2110SOL    HW1 7229   1.010   4.874   5.256
 2110SOL    HW2 7230   0.853   4.846   5.293
 2111SOL     OW 7231   1.930   2.043   6.695
 2111SOL    HW1 7232   1.957   2.092   6.612
 2111SOL    HW2 7233   1.997   2.062   6.767
 2112SOL     OW 7234   5.215   4.111   0.776
 2112SOL    HW1 7235   5.157   4.177   0.824
 2112SOL    HW2 7236   5.166   4.073   0.698
 2113SOL     OW 7237   6.798   1.391   3.415
 2113SOL    HW1 7238   6.864   1.318   3.396
 2113SOL    HW2 7239   6.740   1.405   3.334
 2114SOL     OW 7240   1.557   3.319   6.960
 2114SOL    HW1 7241   1.558   3.417   6.980
 2114SOL    HW2 7242   1.610   3.301   6.878
 2115SOL     OW 7243   4.032   5.308   2.094
 2115SOL    HW1 7244   4.060   5.402   2.078
 2115SOL    HW2 7245   4.053   5.283   2.189
 2116SOL     OW 7246   0.630   3.962   4.004
 2116SOL    HW1 7247   0.590   4.050   3.979
 2116SOL    HW2 7248   0.558   3.902   4.042
 2117SOL     OW 7249   6.655   5.854   5.629
 2117SOL    HW1 7250   6.630   5.849   5.532
 2117SOL    HW2 7251   6.629   5.769   5.675
 2118SOL     OW 7252   0.094   3.032   2.185
 2118SOL    HW1 7253   0.177   2.977   2.172
 2118SOL    HW2 7254   0.088   3.061   2.281
 2119SOL     OW 7255   3.961   6.466   0.186
 2119SOL    HW1 7256   4.007   6.457   0.097
 2119SOL    HW2 7257   4.030   6.476   0.258
 2120SOL     OW 7258   6.579   4.128   2.006
 2120SOL    HW1 7259   6.543   4.218   2.032
 2120SOL    HW2 7260   6.652   4.102   2.069
 2121SOL     OW 7261   0.336   3.913   5.103
 2121SOL    HW1 7262   0.352   3.831   5.049
 2121SOL    HW2 7263   0.418   3.971   5.100
 2122SOL     OW 7264   3.685   4.931   5.127
 2122SOL    HW1 7265   3.746   4.995   5.080
 2122SOL    HW2 7266   3.728   4.901   5.213
 2123SOL     OW 7267   4.349   5.579   3.510
 2123SOL    HW1 7268   4.306   5.636   3.580
 2123SOL    HW2 7269   4.380   5.493   3.552
 2124SOL     OW 7270   2.283   2.420   1.967
 2124SOL    HW1 7271   2.289   2.321   1.953
 2124SOL    HW2 7272   2.288   2.439   2.065
 2125SOL     OW 7273   5.136   6.078   0.569
 2125SOL    HW1 7274   5.059   6.047   0.513
 2125SOL    HW2 7275   5.149   6.176   0.557
 2126SOL     OW 7276   3.373   1.997   1.351
 2126SOL    HW1 7277   3.373   1.897   1.343
 2126SOL    HW2 7278   3.455   2.027   1.399
 2127SOL     OW 7279   5.237   2.794   4.361
 2127SOL    HW1 7280   5.175   2.743   4.301
 2127SOL    HW2 7281   5.331   2.768   4.342
 2128SOL     OW 7282   0.770   3.932   4.266
 2128SOL    HW1 7283   0.726   3.940   4.177
 2128SOL    HW2 7284   0.805   3.839   4.278
 2129SOL     OW 7285   4.451   2.094   5.069
 2129SOL    HW1 7286   4.507   2.072   4.989
 2129SOL    HW2 7287   4.509   2.122   5.145
 2130SOL     OW 7288   4.802   6.907   3.310
 2130SOL    HW1 7289   4.798   6.976   3.237
 2130SOL    HW2 7290   4.770   6.820   3.273
 2131SOL     OW 7291   5.194   1.711   6.621
 2131SOL    HW1 7292   5.239   1.686   6.707
 2131SOL    HW2 7293   5.163   1.806   6.625
 2132SOL     OW 7294   1.678   3.491   1.127
 2132SOL    HW1 7295   1.776   3.487   1.145
 2132SOL    HW2 7296   1.658   3.444   1.041
 2133SOL     OW 7297   2.415   4.073   6.197
 2133SOL    HW1 7298   2.454   3.992   6.153
 2133SOL    HW2 7299   2.385   4.138   6.127
 2134SOL     OW 7300   6.862   6.560   0.276
 2134SOL    HW1 7301   6.778   6.574   0.225
 2134SOL    HW2 7302   6.940   6.570   0.215
 2135SOL     OW 7303   6.512   5.256   5.523
 2135SOL    HW1 7304   6.531   5.243   5.620
 2135SOL    HW2 7305   6.582   5.210   5.468
 2136SOL     OW 7306   1.258   5.604   6.880
 2136SOL    HW1 7307   1.308   5.682   6.842
 2136SOL    HW2 7308   1.160   5.621   6.876
 2137SOL     OW 7309   1.587   6.989   3.514
 2137SOL    HW1 7310   1.511   0.001   3.457
 2137SOL    HW2 7311   1.589   0.018   3.600
 2138SOL     OW 7312   5.385   1.702   1.514
 2138SOL    HW1 7313   5.311   1.682   1.451
 2138SOL    HW2 7314   5.360   1.780   1.572
 2139SOL     OW 7315   2.718   6.156   5.712
 2139SOL    HW1 7316   2.811   6.127   5.688
 2139SOL    HW2 7317   2.669   6.078   5.752
 2140SOL     OW 7318   2.236   1.953   3.338
 2140SOL    HW1 7319   2.307   1.889   3.368
 2140SOL    HW2 7320   2.224   2.024   3.407
 2141SOL     OW 7321   6.661   3.287   3.043
 2141SOL    HW1 7322   6.687   3.216   3.109
 2141SOL    HW2 7323   6.733   3.296   2.974
 2142SOL     OW 7324   2.039   1.709   2.143
 2142SOL    HW1 7325   1.947   1.711   2.183
 2142SOL    HW2 7326   2.054   1.793   2.091
 2143SOL     OW 7327   6.431   5.623   5.423
 2143SOL    HW1 7328   6.447   5.688   5.349
 2143SOL    HW2 7329   6.402   5.535   5.385
 2144SOL     OW 7330   6.077   4.458   2.823
 2144SOL    HW1 7331   6.090   4.364   2.790
 2144SOL    HW2 7332   6.067   4.457   2.922
 2145SOL     OW 7333   3.921   1.464   3.061
 2145SOL    HW1 7334   3.978   1.545   3.065
 2145SOL    HW2 7335   3.900   1.433   3.154
 2146SOL     OW 7336   1.928   1.408   6.969
 2146SOL    HW1 7337   2.012   1.431   7.018
 2146SOL    HW2 7338   1.898   1.317   6.997
 2147SOL     OW 7339   6.087   7.014   5.320
 2147SOL    HW1 7340   6.129   6.929   5.354
 2147SOL    HW2 7341   5.989   7.001   5.310
 2148SOL     OW 7342   1.101   2.250   4.813
 2148SOL    HW1 7343   1.092   2.342   4.851
 2148SOL    HW2 7344   1.194   2.216   4.831
 2149SOL     OW 7345   0.122   6.639   0.203
 2149SOL    HW1 7346   0.052   6.678   0.144
 2149SOL    HW2 7347   0.194   6.706   0.219
 2150SOL     OW 7348   1.869   2.627   0.408
 2150SOL    HW1 7349   1.930   2.681   0.351
 2150SOL    HW2 7350   1.898   2.634   0.503
 2151SOL     OW 7351   0.929   5.063   6.344
 2151SOL    HW1 7352   0.898   5.065   6.439
 2151SOL    HW2 7353   0.991   4.986   6.331
 2152SOL     OW 7354   5.503   6.207   4.110
 2152SOL    HW1 7355   5.423   6.175   4.160
 2152SOL    HW2 7356   5.477   6.283   4.050
 2153SOL     OW 7357   4.827   6.622   4.111
 2153SOL    HW1 7358   4.877   6.666   4.186
 2153SOL    HW2 7359   4.860   6.656   4.023
 2154SOL     OW 7360   2.511   6.722   2.299
 2154SOL    HW1 7361   2.566   6.714   2.382
 2154SOL    HW2 7362   2.417   6.696   2.318
 2155SOL     OW 7363   5.296   0.526   0.993
 2155SOL    HW1 7364   5.201   0.518   1.022
 2155SOL    HW2 7365   5.320   0.623   0.983
 2156SOL     OW 7366   6.200   1.854   4.901
 2156SOL    HW1 7367   6.288   1.860   4.948
 2156SOL    HW2 7368   6.215   1.837   4.803
 2157SOL     OW 7369   4.154   6.414   3.935
 2157SOL    HW1 7370   4.225   6.485   3.941
 2157SOL    HW2 7371   4.197   6.325   3.949
 2158SOL     OW 7372   2.804   6.873   0.704
 2158SOL    HW1 7373   2.846   6.810   0.638
 2158SOL    HW2 7374   2.705   6.859   0.706
 2159SOL     OW 7375   7.019   1.418   5.623
 2159SOL    HW1 7376   6.936   1.439   5.673
 2159SOL    HW2 7377   6.996   1.378   5.534
 2160SOL     OW 7378   5.382   6.673   0.001
 2160SOL    HW1 7379   5.388   6.595   6.961
 2160SOL    HW2 7380   5.420   6.755   6.979
 2161SOL     OW 7381   1.235   3.841   0.787
 2161SOL    HW1 7382   1.303   3.911   0.810
 2161SOL    HW2 7383   1.200   3.800   0.872
 2162SOL     OW 7384   1.862   0.068   0.074
 2162SOL    HW1 7385   1.767   0.091   0.097
 2162SOL    HW2 7386   1.911   0.151   0.049
 2163SOL     OW 7387   0.942   2.789   4.081
 2163SOL    HW1 7388   1.016   2.721   4.073
 2163SOL    HW2 7389   0.975   2.877   4.048
 2164SOL     OW 7390   2.202   4.343   1.720
 2164SOL    HW1 7391   2.221   4.402   1.799
 2164SOL    HW2 7392   2.174   4.400   1.643
 2165SOL     OW 7393   6.254   1.356   5.589
 2165SOL    HW1 7394   6.194   1.340   5.511
 2165SOL    HW2 7395   6.285   1.451   5.587
 2166SOL     OW 7396   0.291   2.408   1.762
 2166SOL    HW1 7397   0.311   2.362   1.848
 2166SOL    HW2 7398   0.376   2.427   1.713
 2167SOL     OW 7399   1.575   2.442   2.899
 2167SOL    HW1 7400   1.515   2.519   2.881
 2167SOL    HW2 7401   1.521   2.358   2.907
 2168SOL     OW 7402   1.880   2.781   2.976
 2168SOL    HW1 7403   1.878   2.781   3.076
 2168SOL    HW2 7404   1.938   2.705   2.944
 2169SOL     OW 7405   6.989   6.768   1.189
 2169SOL    HW1 7406   7.018   6.861   1.168
 2169SOL    HW2 7407   6.941   6.767   1.277
 2170SOL     OW 7408   1.518   2.934   6.399
 2170SOL    HW1 7409   1.549   2.850   6.444
 2170SOL    HW2 7410   1.436   2.967   6.444
 2171SOL     OW 7411   6.801   6.258   1.394
 2171SOL    HW1 7412   6.870   6.191   1.422
 2171SOL    HW2 7413   6.759   6.299   1.475
 2172SOL     OW 7414   2.433   2.621   4.743
 2172SOL    HW1 7415   2.399   2.697   4.686
 2172SOL    HW2 7416   2.430   2.648   4.839
 2173SOL     OW 7417   4.701   0.423   5.098
 2173SOL    HW1 7418   4.789   0.382   5.123
 2173SOL    HW2 7419   4.707   0.463   5.007
 2174SOL     OW 7420   5.272   0.282   6.180
 2174SOL    HW1 7421   5.351   0.269   6.120
 2174SOL    HW2 7422   5.262   0.201   6.239
 2175SOL     OW 7423   3.568   2.931   5.425
 2175SOL    HW1 7424   3.539   2.881   5.343
 2175SOL    HW2 7425   3.599   3.022   5.399
 2176SOL     OW 7426   6.775   2.012   3.111
 2176SOL    HW1 7427   6.829   2.002   3.028
 2176SOL    HW2 7428   6.833   2.043   3.186
 2177SOL     OW 7429   0.089   1.233   5.797
 2177SOL    HW1 7430   0.047   1.307   5.744
 2177SOL    HW2 7431   0.179   1.262   5.828
 2178SOL     OW 7432   1.988   2.690   2.076
 2178SOL    HW1 7433   2.038   2.750   2.138
 2178SOL    HW2 7434   1.906   2.655   2.122
 2179SOL     OW 7435   1.465   4.196   0.125
 2179SOL    HW1 7436   1.503   4.231   0.039
 2179SOL    HW2 7437   1.376   4.154   0.107
 2180SOL     OW 7438   0.539   5.184   2.417
 2180SOL    HW1 7439   0.569   5.096   2.379
 2180SOL    HW2 7440   0.440   5.181   2.434
 2181SOL     OW 7441   4.529   4.939   4.297
 2181SOL    HW1 7442   4.559   4.845   4.283
 2181SOL    HW2 7443   4.429   4.942   4.300
 2182SOL     OW 7444   0.359   6.711   1.506
 2182SOL    HW1 7445   0.427   6.675   1.443
 2182SOL    HW2 7446   0.320   6.796   1.469
 2183SOL     OW 7447   3.733   3.157   6.751
 2183SOL    HW1 7448   3.812   3.129   6.806
 2183SOL    HW2 7449   3.651   3.154   6.808
 2184SOL     OW 7450   6.496   1.683   6.868
 2184SOL    HW1 7451   6.522   1.779   6.873
 2184SOL    HW2 7452   6.495   1.643   6.960
 2185SOL     OW 7453   0.776   1.326   6.348
 2185SOL    HW1 7454   0.721   1.374   6.279
 2185SOL    HW2 7455   0.854   1.383   6.374
 2186SOL     OW 7456   0.008   6.225   5.489
 2186SOL    HW1 7457   0.073   6.293   5.457
 2186SOL    HW2 7458   0.024   6.138   5.442
 2187SOL     OW 7459   5.974   4.306   1.967
 2187SOL    HW1 7460   6.061   4.260   1.953
 2187SOL    HW2 7461   5.919   4.255   2.033
 2188SOL     OW 7462   3.077   1.200   1.074
 2188SOL    HW1 7463   3.024   1.284   1.066
 2188SOL    HW2 7464   3.021   1.129   1.116
 2189SOL     OW 7465   2.189   0.794   2.302
 2189SOL    HW1 7466   2.199   0.893   2.297
 2189SOL    HW2 7467   2.247   0.751   2.232
 2190SOL     OW 7468   6.336   4.720   2.295
 2190SOL    HW1 7469   6.261   4.692   2.355
 2190SOL    HW2 7470   6.318   4.686   2.202
 2191SOL     OW 7471   3.707   6.905   6.802
 2191SOL    HW1 7472   3.742   6.878   6.892
 2191SOL    HW2 7473   3.771   6.969   6.759
 2192SOL     OW 7474   4.434   2.279   1.647
 2192SOL    HW1 7475   4.498   2.344   1.607
 2192SOL    HW2 7476   4.370   2.248   1.577
 2193SOL     OW 7477   1.459   0.640   5.132
 2193SOL    HW1 7478   1.523   0.598   5.069
 2193SOL    HW2 7479   1.381   0.579   5.148
 2194SOL     OW 7480   0.973   4.487   5.347
 2194SOL    HW1 7481   0.890   4.502   5.294
 2194SOL    HW2 7482   0.968   4.397   5.391
 2195SOL     OW 7483   0.263   4.032   5.658
 2195SOL    HW1 7484   0.267   4.095   5.735
 2195SOL    HW2 7485   0.315   3.950   5.679
 2196SOL     OW 7486   4.075   1.407   6.840
 2196SOL    HW1 7487   4.032   1.352   6.912
 2196SOL    HW2 7488   4.106   1.494   6.878
 2197SOL     OW 7489   4.149   5.416   6.894
 2197SOL    HW1 7490   4.247   5.396   6.907
 2197SOL    HW2 7491   4.111   5.453   6.979
 2198SOL     OW 7492   1.620   1.019   6.295
 2198SOL    HW1 7493   1.644   1.115   6.313
 2198SOL    HW2 7494   1.566   0.983   6.371
 2199SOL     OW 7495   4.388   6.730   3.747
 2199SOL    HW1 7496   4.293   6.759   3.732
 2199SOL    HW2 7497   4.408   6.651   3.688
 2200SOL     OW 7498   2.716   2.255   4.609
 2200SOL    HW1 7499   2.793   2.241   4.672
 2200SOL    HW2 7500   2.716   2.183   4.540
 2201SOL     OW 7501   5.720   3.462   4.889
 2201SOL    HW1 7502   5.744   3.368   4.912
 2201SOL    HW2 7503   5.726   3.520   4.970
 2202SOL     OW 7504   4.277   6.674   3.987
 2202SOL    HW1 7505   4.263   6.768   4.019
 2202SOL    HW2 7506   4.312   6.676   3.893
 2203SOL     OW 7507   2.091   5.778   1.299
 2203SOL    HW1 7508   2.082   5.696   1.356
 2203SOL    HW2 7509   2.113   5.857   1.356
 2204SOL     OW 7510   5.260   2.855   0.653
 2204SOL    HW1 7511   5.179   2.822   0.604
 2204SOL    HW2 7512   5.261   2.955   0.651
 2205SOL     OW 7513   5.035   5.609   1.050
 2205SOL    HW1 7514   4.956   5.612   0.988
 2205SOL    HW2 7515   5.006   5.630   1.143
 2206SOL     OW 7516   3.523   2.866   5.102
 2206SOL    HW1 7517   3.449   2.837   5.163
 2206SOL    HW2 7518   3.509   2.828   5.011
 2207SOL     OW 7519   4.665   5.084   1.770
 2207SOL    HW1 7520   4.652   4.985   1.761
 2207SOL    HW2 7521   4.710   5.119   1.688
 2208SOL     OW 7522   6.410   6.396   3.448
 2208SOL    HW1 7523   6.320   6.387   3.490
 2208SOL    HW2 7524   6.402   6.450   3.364
 2209SOL     OW 7525   2.282   5.883   3.608
 2209SOL    HW1 7526   2.288   5.895   3.707
 2209SOL    HW2 7527   2.365   5.837   3.575
 2210SOL     OW 7528   5.245   6.457   2.134
 2210SOL    HW1 7529   5.336   6.430   2.102
 2210SOL    HW2 7530   5.191   6.376   2.153
 2211SOL     OW 7531   1.373   0.865   1.647
 2211SOL    HW1 7532   1.274   0.867   1.655
 2211SOL    HW2 7533   1.414   0.855   1.737
 2212SOL     OW 7534   2.795   6.179   6.190
 2212SOL    HW1 7535   2.811   6.275   6.211
 2212SOL    HW2 7536   2.775   6.129   6.274
 2213SOL     OW 7537   3.322   1.215   4.661
 2213SOL    HW1 7538   3.361   1.265   4.739
 2213SOL    HW2 7539   3.249   1.271   4.621
 2214SOL     OW 7540   4.469   4.567   6.650
 2214SOL    HW1 7541   4.415   4.643   6.615
 2214SOL    HW2 7542   4.555   4.602   6.688
 2215SOL     OW 7543   5.874   5.320   6.431
 2215SOL    HW1 7544   5.829   5.280   6.351
 2215SOL    HW2 7545   5.924   5.249   6.480
 2216SOL     OW 7546   0.523   6.349   0.284
 2216SOL    HW1 7547   0.579   6.323   0.206
 2216SOL    HW2 7548   0.557   6.303   0.366
 2217SOL     OW 7549   4.206   1.137   3.566
 2217SOL    HW1 7550   4.206   1.059   3.628
 2217SOL    HW2 7551   4.293   1.141   3.517
 2218SOL     OW 7552   6.011   5.606   5.362
 2218SOL    HW1 7553   6.072   5.552   5.420
 2218SOL    HW2 7554   6.016   5.573   5.268
 2219SOL     OW 7555   5.575   2.028   0.325
 2219SOL    HW1 7556   5.508   1.955   0.311
 2219SOL    HW2 7557   5.550   2.081   0.405
 2220SOL     OW 7558   6.907   6.711   4.373
 2220SOL    HW1 7559   6.942   6.639   4.313
 2220SOL    HW2 7560   6.869   6.785   4.317
 2221SOL     OW 7561   5.400   0.403   3.609
 2221SOL    HW1 7562   5.420   0.351   3.527
 2221SOL    HW2 7563   5.307   0.382   3.640
 2222SOL     OW 7564   3.669   1.101   3.404
 2222SOL    HW1 7565   3.600   1.132   3.339
 2222SOL    HW2 7566   3.665   1.157   3.487
 2223SOL     OW 7567   1.014   0.122   5.529
 2223SOL    HW1 7568   1.017   0.030   5.492
 2223SOL    HW2 7569   0.919   0.151   5.538
 2224SOL     OW 7570   5.550   4.368   6.769
 2224SOL    HW1 7571   5.455   4.342   6.753
 2224SOL    HW2 7572   5.556   4.466   6.782
 2225SOL     OW 7573   6.839   6.970   0.831
 2225SOL    HW1 7574   6.759   6.936   0.881
 2225SOL    HW2 7575   6.815   6.980   0.734
 2226SOL     OW 7576   2.655   3.406   6.831
 2226SOL    HW1 7577   2.724   3.345   6.791
 2226SOL    HW2 7578   2.616   3.364   6.913
 2227SOL     OW 7579   4.290   1.594   1.579
 2227SOL    HW1 7580   4.191   1.606   1.569
 2227SOL    HW2 7581   4.331   1.678   1.614
 2228SOL     OW 7582   4.948   6.670   6.426
 2228SOL    HW1 7583   4.941   6.614   6.509
 2228SOL    HW2 7584   4.957   6.610   6.346
 2229SOL     OW 7585   3.050   3.209   4.515
 2229SOL    HW1 7586   2.979   3.182   4.450
 2229SOL    HW2 7587   3.140   3.203   4.471
 2230SOL     OW 7588   6.724   0.874   6.069
 2230SOL    HW1 7589   6.734   0.865   5.970
 2230SOL    HW2 7590   6.793   0.938   6.104
 2231SOL     OW 7591   1.008   6.872   6.357
 2231SOL    HW1 7592   1.055   6.861   6.445
 2231SOL    HW2 7593   1.051   6.947   6.306
 2232SOL     OW 7594   1.748   0.637   6.545
 2232SOL    HW1 7595   1.767   0.633   6.447
 2232SOL    HW2 7596   1.652   0.615   6.561
 2233SOL     OW 7597   2.867   5.257   1.212
 2233SOL    HW1 7598   2.808   5.184   1.247
 2233SOL    HW2 7599   2.882   5.325   1.283
 2234SOL     OW 7600   5.096   1.985   1.443
 2234SOL    HW1 7601   5.195   1.969   1.436
 2234SOL    HW2 7602   5.068   2.049   1.372
 2235SOL     OW 7603   1.291   2.351   3.177
 2235SOL    HW1 7604   1.201   2.375   3.211
 2235SOL    HW2 7605   1.355   2.426   3.195
 2236SOL     OW 7606   2.685   4.708   5.210
 2236SOL    HW1 7607   2.667   4.634   5.276
 2236SOL    HW2 7608   2.766   4.685   5.156
 2237SOL     OW 7609   5.906   6.802   5.923
 2237SOL    HW1 7610   5.884   6.852   5.839
 2237SOL    HW2 7611   5.862   6.847   6.001
 2238SOL     OW 7612   5.538   4.143   2.287
 2238SOL    HW1 7613   5.553   4.045   2.273
 2238SOL    HW2 7614   5.621   4.184   2.326
 2239SOL     OW 7615   3.843   0.072   2.891
 2239SOL    HW1 7616   3.832   7.012   2.837
 2239SOL    HW2 7617   3.783   0.069   2.970
 2240SOL     OW 7618   4.862   5.337   2.461
 2240SOL    HW1 7619   4.908   5.397   2.526
 2240SOL    HW2 7620   4.929   5.298   2.398
 2241SOL     OW 7621   1.121   2.015   2.910
 2241SOL    HW1 7622   1.138   2.064   2.996
 2241SOL    HW2 7623   1.158   2.069   2.834
 2242SOL     OW 7624   5.522   2.126   4.234
 2242SOL    HW1 7625   5.524   2.181   4.318
 2242SOL    HW2 7626   5.525   2.187   4.154
 2243SOL     OW 7627   2.340   0.418   0.164
 2243SOL    HW1 7628   2.285   0.335   0.165
 2243SOL    HW2 7629   2.433   0.396   0.133
 2244SOL     OW 7630   2.587   1.782   1.575
 2244SOL    HW1 7631   2.636   1.757   1.492
 2244SOL    HW2 7632   2.569   1.701   1.630
 2245SOL     OW 7633   0.027   0.863   0.427
 2245SOL    HW1 7634   0.057   0.838   0.519
 2245SOL    HW2 7635   6.971   0.806   0.401
 2246SOL     OW 7636   5.414   0.530   5.786
 2246SOL    HW1 7637   5.427   0.439   5.748
 2246SOL    HW2 7638   5.345   0.579   5.731
 2247SOL     OW 7639   3.242   3.303   1.677
 2247SOL    HW1 7640   3.172   3.232   1.674
 2247SOL    HW2 7641   3.242   3.346   1.768
 2248SOL     OW 7642   5.166   3.408   4.780
 2248SOL    HW1 7643   5.218   3.474   4.725
 2248SOL    HW2 7644   5.070   3.435   4.782
 2249SOL     OW 7645   2.012   6.486   3.596
 2249SOL    HW1 7646   1.996   6.537   3.512
 2249SOL    HW2 7647   2.096   6.520   3.640
 2250SOL     OW 7648   4.569   5.755   6.291
 2250SOL    HW1 7649   4.532   5.742   6.199
 2250SOL    HW2 7650   4.590   5.852   6.305
 2251SOL     OW 7651   3.756   6.799   4.736
 2251SOL    HW1 7652   3.697   6.880   4.725
 2251SOL    HW2 7653   3.714   6.721   4.689
 2252SOL     OW 7654   3.942   1.161   2.819
 2252SOL    HW1 7655   3.889   1.082   2.787
 2252SOL    HW2 7656   3.882   1.240   2.827
 2253SOL     OW 7657   1.277   2.802   1.580
 2253SOL    HW1 7658   1.213   2.758   1.644
 2253SOL    HW2 7659   1.231   2.878   1.535
 2254SOL     OW 7660   3.134   3.332   3.009
 2254SOL    HW1 7661   3.080   3.396   2.954
 2254SOL    HW2 7662   3.108   3.238   2.987
 2255SOL     OW 7663   1.480   2.311   6.411
 2255SOL    HW1 7664   1.481   2.286   6.508
 2255SOL    HW2 7665   1.445   2.404   6.401
 2256SOL     OW 7666   5.109   0.329   1.293
 2256SOL    HW1 7667   5.158   0.388   1.357
 2256SOL    HW2 7668   5.071   0.384   1.219
 2257SOL     OW 7669   0.154   0.475   6.373
 2257SOL    HW1 7670   0.064   0.450   6.337
 2257SOL    HW2 7671   0.196   0.396   6.415
 2258SOL     OW 7672   2.644   0.171   3.296
 2258SOL    HW1 7673   2.608   0.148   3.387
 2258SOL    HW2 7674   2.569   0.205   3.239
 2259SOL     OW 7675   5.994   0.407   5.460
 2259SOL    HW1 7676   6.036   0.321   5.490
 2259SOL    HW2 7677   6.055   0.483   5.482
 2260SOL     OW 7678   1.607   3.764   1.170
 2260SOL    HW1 7679   1.632   3.671   1.143
 2260SOL    HW2 7680   1.519   3.788   1.129
 2261SOL     OW 7681   5.161   4.454   6.314
 2261SOL    HW1 7682   5.203   4.482   6.400
 2261SOL    HW2 7683   5.066   4.428   6.330
 2262SOL     OW 7684   6.646   0.162   3.982
 2262SOL    HW1 7685   6.628   0.083   3.925
 2262SOL    HW2 7686   6.744   0.180   3.986
 2263SOL     OW 7687   2.211   4.482   6.523
 2263SOL    HW1 7688   2.239   4.390   6.553
 2263SOL    HW2 7689   2.285   4.524   6.471
 2264SOL     OW 7690   1.953   0.175   6.758
 2264SOL    HW1 7691   1.956   0.274   6.744
 2264SOL    HW2 7692   2.033   0.146   6.811
 2265SOL     OW 7693   0.290   6.366   3.562
 2265SOL    HW1 7694   0.360   6.407   3.621
 2265SOL    HW2 7695   0.250   6.438   3.504
 2266SOL     OW 7696   5.013   3.963   6.424
 2266SOL    HW1 7697   5.048   3.869   6.422
 2266SOL    HW2 7698   4.949   3.973   6.501
 2267SOL     OW 7699   5.562   3.058   4.374
 2267SOL    HW1 7700   5.479   3.033   4.424
 2267SOL    HW2 7701   5.540   3.126   4.305
 2268SOL     OW 7702   0.946   6.038   4.585
 2268SOL    HW1 7703   0.881   6.095   4.635
 2268SOL    HW2 7704   0.927   5.942   4.606
 2269SOL     OW 7705   1.947   2.370   5.601
 2269SOL    HW1 7706   1.865   2.424   5.581
 2269SOL    HW2 7707   1.949   2.290   5.541
 2270SOL     OW 7708   4.864   2.023   6.326
 2270SOL    HW1 7709   4.938   2.086   6.351
 2270SOL    HW2 7710   4.849   2.027   6.227
 2271SOL     OW 7711   4.025   5.651   5.433
 2271SOL    HW1 7712   3.947   5.589   5.436
 2271SOL    HW2 7713   4.036   5.697   5.521
 2272SOL     OW 7714   5.999   0.608   6.193
 2272SOL    HW1 7715   6.067   0.654   6.250
 2272SOL    HW2 7716   5.920   0.582   6.250
 2273SOL     OW 7717   1.228   2.146   4.121
 2273SOL    HW1 7718   1.272   2.077   4.179
 2273SOL    HW2 7719   1.249   2.237   4.157
 2274SOL     OW 7720   1.300   1.518   0.013
 2274SOL    HW1 7721   1.253   1.513   6.947
 2274SOL    HW2 7722   1.233   1.507   0.087
 2275SOL     OW 7723   5.685   3.514   3.480
 2275SOL    HW1 7724   5.706   3.546   3.388
 2275SOL    HW2 7725   5.588   3.492   3.487
 2276SOL     OW 7726   2.020   1.651   1.457
 2276SOL    HW1 7727   1.930   1.615   1.483
 2276SOL    HW2 7728   2.089   1.618   1.521
 2277SOL     OW 7729   3.368   2.857   3.322
 2277SOL    HW1 7730   3.393   2.902   3.408
 2277SOL    HW2 7731   3.278   2.813   3.332
 2278SOL     OW 7732   6.647   3.489   3.751
 2278SOL    HW1 7733   6.686   3.577   3.778
 2278SOL    HW2 7734   6.600   3.447   3.828
 2279SOL     OW 7735   0.669   5.081   5.528
 2279SOL    HW1 7736   0.757   5.128   5.522
 2279SOL    HW2 7737   0.662   5.034   5.616
 2280SOL     OW 7738   4.860   2.400   5.745
 2280SOL    HW1 7739   4.795   2.420   5.818
 2280SOL    HW2 7740   4.899   2.485   5.710
 2281SOL     OW 7741   4.734   6.799   2.263
 2281SOL    HW1 7742   4.756   6.804   2.360
 2281SOL    HW2 7743   4.686   6.714   2.243
 2282SOL     OW 7744   3.379   5.498   5.602
 2282SOL    HW1 7745   3.456   5.436   5.614
 2282SOL    HW2 7746   3.294   5.446   5.601
 2283SOL     OW 7747   6.862   0.953   5.060
 2283SOL    HW1 7748   6.809   1.022   5.109
 2283SOL    HW2 7749   6.847   0.864   5.103
 2284SOL     OW 7750   1.571   3.870   6.570
 2284SOL    HW1 7751   1.473   3.857   6.583
 2284SOL    HW2 7752   1.619   3.846   6.655
 2285SOL     OW 7753   1.224   5.265   6.511
 2285SOL    HW1 7754   1.259   5.309   6.594
 2285SOL    HW2 7755   1.178   5.180   6.536
 2286SOL     OW 7756   4.590   4.524   2.722
 2286SOL    HW1 7757   4.492   4.522   2.742
 2286SOL    HW2 7758   4.620   4.618   2.710
 2287SOL     OW 7759   1.498   1.267   4.215
 2287SOL    HW1 7760   1.416   1.218   4.186
 2287SOL    HW2 7761   1.573   1.246   4.153
 2288SOL     OW 7762   6.168   5.318   3.012
 2288SOL    HW1 7763   6.123   5.279   2.933
 2288SOL    HW2 7764   6.117   5.295   3.095
 2289SOL     OW 7765   0.249   5.110   0.114
 2289SOL    HW1 7766   0.225   5.055   0.034
 2289SOL    HW2 7767   0.258   5.050   0.194
 2290SOL     OW 7768   0.773   5.374   6.820
 2290SOL    HW1 7769   0.725   5.454   6.854
 2290SOL    HW2 7770   0.809   5.322   6.897
 2291SOL     OW 7771   1.978   1.775   6.637
 2291SOL    HW1 7772   1.933   1.861   6.660
 2291SOL    HW2 7773   1.966   1.711   6.714
 2292SOL     OW 7774   1.862   0.596   4.301
 2292SOL    HW1 7775   1.776   0.629   4.262
 2292SOL    HW2 7776   1.904   0.669   4.355
 2293SOL     OW 7777   5.445   4.574   2.739
 2293SOL    HW1 7778   5.513   4.505   2.712
 2293SOL    HW2 7779   5.418   4.628   2.660
 2294SOL     OW 7780   3.835   6.709   6.981
 2294SOL    HW1 7781   3.818   6.645   6.906
 2294SOL    HW2 7782   3.931   6.735   6.982
 2295SOL     OW 7783   0.778   0.617   2.272
 2295SOL    HW1 7784   0.835   0.688   2.312
 2295SOL    HW2 7785   0.780   0.624   2.172
 2296SOL     OW 7786   2.912   6.048   0.426
 2296SOL    HW1 7787   2.847   5.995   0.480
 2296SOL    HW2 7788   2.996   5.996   0.414
 2297SOL     OW 7789   4.086   6.480   6.955
 2297SOL    HW1 7790   4.152   6.537   7.004
 2297SOL    HW2 7791   4.130   6.396   6.924
 2298SOL     OW 7792   4.083   3.263   6.790
 2298SOL    HW1 7793   4.163   3.281   6.846
 2298SOL    HW2 7794   4.003   3.249   6.848
 2299SOL     OW 7795   4.264   6.897   0.895
 2299SOL    HW1 7796   4.304   6.848   0.818
 2299SOL    HW2 7797   4.272   6.995   0.880
 2300SOL     OW 7798   1.323   5.376   1.059
 2300SOL    HW1 7799   1.316   5.278   1.038
 2300SOL    HW2 7800   1.231   5.414   1.071
 2301SOL     OW 7801   3.732   3.282   1.710
 2301SOL    HW1 7802   3.640   3.309   1.684
 2301SOL    HW2 7803   3.729   3.228   1.793
 2302SOL     OW 7804   2.535   5.219   2.658
 2302SOL    HW1 7805   2.560   5.293   2.721
 2302SOL    HW2 7806   2.497   5.143   2.710
 2303SOL     OW 7807   0.334   3.339   6.476
 2303SOL    HW1 7808   0.288   3.256   6.506
 2303SOL    HW2 7809   0.306   3.416   6.533
 2304SOL     OW 7810   1.672   1.407   4.648
 2304SOL    HW1 7811   1.578   1.415   4.682
 2304SOL    HW2 7812   1.682   1.322   4.597
 2305SOL     OW 7813   4.077   4.833   1.868
 2305SOL    HW1 7814   3.989   4.880   1.878
 2305SOL    HW2 7815   4.076   4.778   1.784
 2306SOL     OW 7816   0.463   4.409   0.531
 2306SOL    HW1 7817   0.514   4.423   0.446
 2306SOL    HW2 7818   0.393   4.480   0.541
 2307SOL     OW 7819   0.362   0.957   3.173
 2307SOL    HW1 7820   0.434   0.894   3.144
 2307SOL    HW2 7821   0.390   1.051   3.151
 2308SOL     OW 7822   1.046   0.067   0.136
 2308SOL    HW1 7823   0.958   0.072   0.185
 2308SOL    HW2 7824   1.119   0.049   0.202
 2309SOL     OW 7825   2.116   5.125   6.545
 2309SOL    HW1 7826   2.147   5.030   6.539
 2309SOL    HW2 7827   2.085   5.156   6.455
 2310SOL     OW 7828   5.716   1.528   3.287
 2310SOL    HW1 7829   5.633   1.507   3.236
 2310SOL    HW2 7830   5.748   1.446   3.335
 2311SOL     OW 7831   2.617   0.619   2.791
 2311SOL    HW1 7832   2.683   0.693   2.777
 2311SOL    HW2 7833   2.658   0.532   2.764
 2312SOL     OW 7834   2.482   0.886   2.554
 2312SOL    HW1 7835   2.534   0.946   2.615
 2312SOL    HW2 7836   2.546   0.826   2.505
 2313SOL     OW 7837   4.918   4.352   2.140
 2313SOL    HW1 7838   4.838   4.305   2.176
 2313SOL    HW2 7839   4.916   4.350   2.040
 2314SOL     OW 7840   6.439   6.128   2.956
 2314SOL    HW1 7841   6.444   6.078   3.042
 2314SOL    HW2 7842   6.399   6.218   2.973
 2315SOL     OW 7843   4.499   6.258   4.859
 2315SOL    HW1 7844   4.440   6.188   4.818
 2315SOL    HW2 7845   4.560   6.215   4.925
 2316SOL     OW 7846   3.537   1.673   5.898
 2316SOL    HW1 7847   3.439   1.683   5.912
 2316SOL    HW2 7848   3.578   1.763   5.884
 2317SOL     OW 7849   6.842   5.116   2.549
 2317SOL    HW1 7850   6.879   5.199   2.506
 2317SOL    HW2 7851   6.870   5.114   2.645
 2318SOL     OW 7852   1.096   4.539   3.828
 2318SOL    HW1 7853   1.163   4.594   3.778
 2318SOL    HW2 7854   1.045   4.482   3.764
 2319SOL     OW 7855   2.325   5.465   3.250
 2319SOL    HW1 7856   2.309   5.551   3.202
 2319SOL    HW2 7857   2.342   5.483   3.347
 2320SOL     OW 7858   0.856   1.820   5.314
 2320SOL    HW1 7859   0.810   1.908   5.298
 2320SOL    HW2 7860   0.943   1.836   5.360
 2321SOL     OW 7861   1.950   4.960   5.451
 2321SOL    HW1 7862   1.873   4.956   5.514
 2321SOL    HW2 7863   2.029   4.913   5.490
 2322SOL     OW 7864   2.326   4.096   1.596
 2322SOL    HW1 7865   2.423   4.093   1.618
 2322SOL    HW2 7866   2.284   4.175   1.641
 2323SOL     OW 7867   2.539   5.483   0.743
 2323SOL    HW1 7868   2.451   5.531   0.739
 2323SOL    HW2 7869   2.612   5.549   0.763
 2324SOL     OW 7870   6.565   5.111   2.387
 2324SOL    HW1 7871   6.557   5.014   2.408
 2324SOL    HW2 7872   6.627   5.155   2.452
 2325SOL     OW 7873   6.346   5.254   2.609
 2325SOL    HW1 7874   6.371   5.324   2.542
 2325SOL    HW2 7875   6.248   5.237   2.605
 2326SOL     OW 7876   1.900   0.411   0.276
 2326SOL    HW1 7877   1.939   0.430   0.185
 2326SOL    HW2 7878   1.822   0.349   0.267
 2327SOL     OW 7879   6.668   6.283   2.092
 2327SOL    HW1 7880   6.739   6.223   2.054
 2327SOL    HW2 7881   6.629   6.339   2.019
 2328SOL     OW 7882   2.241   3.969   2.196
 2328SOL    HW1 7883   2.257   4.055   2.148
 2328SOL    HW2 7884   2.215   3.899   2.130
 2329SOL     OW 7885   0.616   4.773   2.732
 2329SOL    HW1 7886   0.686   4.843   2.717
 2329SOL    HW2 7887   0.592   4.731   2.644
 2330SOL     OW 7888   6.130   2.943   1.538
 2330SOL    HW1 7889   6.041   2.898   1.553
 2330SOL    HW2 7890   6.162   2.980   1.625
 2331SOL     OW 7891   4.826   5.727   1.377
 2331SOL    HW1 7892   4.910   5.676   1.357
 2331SOL    HW2 7893   4.797   5.777   1.296
 2332SOL     OW 7894   6.155   6.940   5.944
 2332SOL    HW1 7895   6.085   6.896   5.888
 2332SOL    HW2 7896   6.126   6.942   6.039
 2333SOL     OW 7897   1.170   4.760   2.504
 2333SOL    HW1 7898   1.188   4.849   2.546
 2333SOL    HW2 7899   1.198   4.761   2.409
 2334SOL     OW 7900   3.105   1.464   6.337
 2334SOL    HW1 7901   3.009   1.453   6.361
 2334SOL    HW2 7902   3.125   1.413   6.253
 2335SOL     OW 7903   6.875   1.568   3.640
 2335SOL    HW1 7904   6.883   1.544   3.544
 2335SOL    HW2 7905   6.779   1.581   3.664
 2336SOL     OW 7906   1.795   2.014   3.551
 2336SOL    HW1 7907   1.710   2.043   3.595
 2336SOL    HW2 7908   1.829   2.089   3.493
 2337SOL     OW 7909   3.997   0.974   1.590
 2337SOL    HW1 7910   3.922   1.021   1.637
 2337SOL    HW2 7911   4.052   1.041   1.541
 2338SOL     OW 7912   6.996   3.646   3.751
 2338SOL    HW1 7913   6.910   3.680   3.788
 2338SOL    HW2 7914   0.049   3.671   3.811
 2339SOL     OW 7915   3.211   3.209   3.221
 2339SOL    HW1 7916   3.294   3.258   3.246
 2339SOL    HW2 7917   3.169   3.253   3.142
 2340SOL     OW 7918   2.343   4.429   6.823
 2340SOL    HW1 7919   2.297   4.363   6.764
 2340SOL    HW2 7920   2.423   4.465   6.776
 2341SOL     OW 7921   2.589   4.556   4.281
 2341SOL    HW1 7922   2.564   4.541   4.377
 2341SOL    HW2 7923   2.551   4.483   4.225
 2342SOL     OW 7924   3.539   1.111   4.088
 2342SOL    HW1 7925   3.502   1.048   4.157
 2342SOL    HW2 7926   3.467   1.174   4.059
 2343SOL     OW 7927   0.531   6.956   1.404
 2343SOL    HW1 7928   0.620   6.950   1.449
 2343SOL    HW2 7929   0.461   6.979   1.472
 2344SOL     OW 7930   5.936   4.416   0.281
 2344SOL    HW1 7931   5.898   4.389   0.192
 2344SOL    HW2 7932   5.862   4.437   0.345
 2345SOL     OW 7933   3.616   6.249   4.956
 2345SOL    HW1 7934   3.525   6.282   4.977
 2345SOL    HW2 7935   3.645   6.182   5.024
 2346SOL     OW 7936   4.733   3.636   0.316
 2346SOL    HW1 7937   4.772   3.727   0.303
 2346SOL    HW2 7938   4.696   3.604   0.229
 2347SOL     OW 7939   1.764   1.756   1.225
 2347SOL    HW1 7940   1.742   1.663   1.197
 2347SOL    HW2 7941   1.690   1.818   1.196
 2348SOL     OW 7942   0.468   5.431   2.114
 2348SOL    HW1 7943   0.550   5.418   2.059
 2348SOL    HW2 7944   0.489   5.489   2.192
 2349SOL     OW 7945   1.208   4.350   5.025
 2349SOL    HW1 7946   1.232   4.254   5.011
 2349SOL    HW2 7947   1.255   4.385   5.106
 2350SOL     OW 7948   5.248   3.745   0.227
 2350SOL    HW1 7949   5.280   3.745   0.322
 2350SOL    HW2 7950   5.292   3.819   0.177
 2351SOL     OW 7951   2.457   5.829   1.566
 2351SOL    HW1 7952   2.494   5.815   1.657
 2351SOL    HW2 7953   2.359   5.811   1.566
 2352SOL     OW 7954   6.827   2.428   3.515
 2352SOL    HW1 7955   6.803   2.338   3.476
 2352SOL    HW2 7956   6.748   2.464   3.565
 2353SOL     OW 7957   3.161   5.264   4.184
 2353SOL    HW1 7958   3.222   5.288   4.260
 2353SOL    HW2 7959   3.213   5.264   4.098
 2354SOL     OW 7960   2.516   2.574   3.840
 2354SOL    HW1 7961   2.514   2.507   3.765
 2354SOL    HW2 7962   2.581   2.544   3.909
 2355SOL     OW 7963   2.651   5.616   4.517
 2355SOL    HW1 7964   2.724   5.551   4.540
 2355SOL    HW2 7965   2.673   5.661   4.431
 2356SOL     OW 7966   6.733   2.575   6.920
 2356SOL    HW1 7967   6.715   2.573   7.018
 2356SOL    HW2 7968   6.823   2.535   6.902
 2357SOL     OW 7969   2.170   6.625   3.031
 2357SOL    HW1 7970   2.165   6.701   2.966
 2357SOL    HW2 7971   2.260   6.623   3.074
 2358SOL     OW 7972   3.614   4.909   5.810
 2358SOL    HW1 7973   3.526   4.943   5.779
 2358SOL    HW2 7974   3.684   4.980   5.800
 2359SOL     OW 7975   1.616   0.489   4.950
 2359SOL    HW1 7976   1.712   0.510   4.934
 2359SOL    HW2 7977   1.609   0.403   5.000
 2360SOL     OW 7978   6.874   4.020   0.048
 2360SOL    HW1 7979   6.947   3.998   0.112
 2360SOL    HW2 7980   6.827   3.935   0.021
 2361SOL     OW 7981   3.592   1.227   0.204
 2361SOL    HW1 7982   3.549   1.197   0.119
 2361SOL    HW2 7983   3.522   1.249   0.272
 2362SOL     OW 7984   2.755   6.007   3.186
 2362SOL    HW1 7985   2.844   6.006   3.232
 2362SOL    HW2 7986   2.683   6.026   3.252
 2363SOL     OW 7987   3.881   0.738   3.848
 2363SOL    HW1 7988   3.806   0.804   3.838
 2363SOL    HW2 7989   3.939   0.742   3.767
 2364SOL     OW 7990   1.512   2.895   1.507
 2364SOL    HW1 7991   1.577   2.820   1.518
 2364SOL    HW2 7992   1.423   2.868   1.543
 2365SOL     OW 7993   5.026   2.022   0.268
 2365SOL    HW1 7994   5.089   2.016   0.346
 2365SOL    HW2 7995   4.977   1.935   0.259
 2366SOL     OW 7996   4.301   5.500   0.737
 2366SOL    HW1 7997   4.307   5.595   0.767
 2366SOL    HW2 7998   4.325   5.439   0.812
 2367SOL     OW 7999   2.197   3.423   6.055
 2367SOL    HW1 8000   2.289   3.462   6.067
 2367SOL    HW2 8001   2.190   3.383   5.964
 2368SOL     OW 8002   6.034   6.305   1.862
 2368SOL    HW1 8003   6.074   6.217   1.835
 2368SOL    HW2 8004   6.100   6.357   1.916
 2369SOL     OW 8005   2.709   1.403   3.131
 2369SOL    HW1 8006   2.703   1.489   3.182
 2369SOL    HW2 8007   2.746   1.332   3.191
 2370SOL     OW 8008   5.517   2.676   6.080
 2370SOL    HW1 8009   5.582   2.600   6.089
 2370SOL    HW2 8010   5.564   2.762   6.100
 2371SOL     OW 8011   2.047   6.145   1.799
 2371SOL    HW1 8012   2.008   6.074   1.857
 2371SOL    HW2 8013   1.973   6.199   1.759
 2372SOL     OW 8014   6.211   3.201   2.571
 2372SOL    HW1 8015   6.146   3.211   2.646
 2372SOL    HW2 8016   6.304   3.208   2.606
 2373SOL     OW 8017   2.234   3.488   6.361
 2373SOL    HW1 8018   2.281   3.575   6.352
 2373SOL    HW2 8019   2.288   3.416   6.318
 2374SOL     OW 8020   5.220   2.553   4.602
 2374SOL    HW1 8021   5.251   2.622   4.668
 2374SOL    HW2 8022   5.298   2.519   4.550
 2375SOL     OW 8023   1.812   6.853   5.953
 2375SOL    HW1 8024   1.825   6.836   5.855
 2375SOL    HW2 8025   1.827   6.950   5.973
 2376SOL     OW 8026   6.781   2.649   4.462
 2376SOL    HW1 8027   6.876   2.681   4.462
 2376SOL    HW2 8028   6.720   2.728   4.450
 2377SOL     OW 8029   3.299   2.880   4.122
 2377SOL    HW1 8030   3.394   2.865   4.097
 2377SOL    HW2 8031   3.240   2.860   4.044
 2378SOL     OW 8032   5.374   2.475   0.932
 2378SOL    HW1 8033   5.290   2.530   0.940
 2378SOL    HW2 8034   5.351   2.385   0.895
 2379SOL     OW 8035   6.695   7.021   6.673
 2379SOL    HW1 8036   6.688   6.959   6.595
 2379SOL    HW2 8037   6.792   0.017   6.691
 2380SOL     OW 8038   6.466   2.066   2.688
 2380SOL    HW1 8039   6.543   2.109   2.736
 2380SOL    HW2 8040   6.382   2.116   2.709
 2381SOL     OW 8041   1.817   6.072   2.687
 2381SOL    HW1 8042   1.740   6.113   2.736
 2381SOL    HW2 8043   1.895   6.064   2.749
 2382SOL     OW 8044   1.245   3.354   5.827
 2382SOL    HW1 8045   1.212   3.262   5.803
 2382SOL    HW2 8046   1.337   3.347   5.866
 2383SOL     OW 8047   5.874   5.829   2.261
 2383SOL    HW1 8048   5.940   5.759   2.233
 2383SOL    HW2 8049   5.917   5.919   2.259
 2384SOL     OW 8050   4.181   1.137   1.492
 2384SOL    HW1 8051   4.224   1.054   1.456
 2384SOL    HW2 8052   4.248   1.212   1.491
 2385SOL     OW 8053   1.525   2.546   6.977
 2385SOL    HW1 8054   1.540   2.612   6.904
 2385SOL    HW2 8055   1.608   2.491   6.990
 2386SOL     OW 8056   4.465   4.871   4.006
 2386SOL    HW1 8057   4.524   4.928   4.062
 2386SOL    HW2 8058   4.514   4.843   3.924
 2387SOL     OW 8059   1.530   1.543   3.051
 2387SOL    HW1 8060   1.609   1.505   3.002
 2387SOL    HW2 8061   1.526   1.502   3.142
 2388SOL     OW 8062   0.204   1.844   4.256
 2388SOL    HW1 8063   0.168   1.923   4.307
 2388SOL    HW2 8064   0.304   1.846   4.256
 2389SOL     OW 8065   3.445   6.603   2.386
 2389SOL    HW1 8066   3.446   6.508   2.416
 2389SOL    HW2 8067   3.429   6.607   2.288
 2390SOL     OW 8068   3.036   4.482   1.324
 2390SOL    HW1 8069   3.052   4.577   1.298
 2390SOL    HW2 8070   2.937   4.467   1.336
 2391SOL     OW 8071   4.018   5.409   4.880
 2391SOL    HW1 8072   4.021   5.505   4.909
 2391SOL    HW2 8073   4.107   5.366   4.900
 2392SOL     OW 8074   3.933   1.301   0.002
 2392SOL    HW1 8075   3.899   1.207   7.013
 2392SOL    HW2 8076   3.936   1.324   0.100
 2393SOL     OW 8077   3.818   4.990   4.760
 2393SOL    HW1 8078   3.837   5.074   4.810
 2393SOL    HW2 8079   3.896   4.928   4.765
 2394SOL     OW 8080   0.000   4.521   5.697
 2394SOL    HW1 8081   0.095   4.542   5.723
 2394SOL    HW2 8082   6.992   4.586   5.628
 2395SOL     OW 8083   4.469   6.543   6.527
 2395SOL    HW1 8084   4.488   6.467   6.588
 2395SOL    HW2 8085   4.370   6.553   6.515
 2396SOL     OW 8086   2.979   5.512   0.879
 2396SOL    HW1 8087   3.017   5.430   0.923
 2396SOL    HW2 8088   3.052   5.579   0.865
 2397SOL     OW 8089   0.557   3.657   4.144
 2397SOL    HW1 8090   0.511   3.736   4.185
 2397SOL    HW2 8091   0.654   3.660   4.164
 2398SOL     OW 8092   4.772   3.718   5.377
 2398SOL    HW1 8093   4.707   3.793   5.387
 2398SOL    HW2 8094   4.748   3.664   5.296
 2399SOL     OW 8095   4.226   2.510   1.281
 2399SOL    HW1 8096   4.253   2.536   1.374
 2399SOL    HW2 8097   4.127   2.495   1.278
 2400SOL     OW 8098   1.772   5.042   0.074
 2400SOL    HW1 8099   1.674   5.033   0.091
 2400SOL    HW2 8100   1.790   5.129   0.028
 2401SOL     OW 8101   6.560   6.065   6.467
 2401SOL    HW1 8102   6.547   5.998   6.540
 2401SOL    HW2 8103   6.624   6.136   6.498
 2402SOL     OW 8104   6.853   6.478   4.100
 2402SOL    HW1 8105   6.810   6.401   4.147
 2402SOL    HW2 8106   6.951   6.462   4.092
 2403SOL     OW 8107   0.846   1.422   4.831
 2403SOL    HW1 8108   0.853   1.330   4.791
 2403SOL    HW2 8109   0.887   1.488   4.768
 2404SOL     OW 8110   1.257   0.484   0.392
 2404SOL    HW1 8111   1.346   0.473   0.347
 2404SOL    HW2 8112   1.211   0.396   0.395
 2405SOL     OW 8113   2.746   4.440   1.350
 2405SOL    HW1 8114   2.751   4.445   1.450
 2405SOL    HW2 8115   2.704   4.354   1.323
 2406SOL     OW 8116   4.939   0.975   1.207
 2406SOL    HW1 8117   4.981   1.031   1.278
 2406SOL    HW2 8118   4.860   0.927   1.244
 2407SOL     OW 8119   5.229   0.060   3.419
 2407SOL    HW1 8120   5.138   0.074   3.457
 2407SOL    HW2 8121   5.294   0.043   3.493
 2408SOL     OW 8122   4.519   4.805   2.070
 2408SOL    HW1 8123   4.547   4.711   2.054
 2408SOL    HW2 8124   4.595   4.856   2.111
 2409SOL     OW 8125   1.153   4.684   0.661
 2409SOL    HW1 8126   1.083   4.617   0.686
 2409SOL    HW2 8127   1.243   4.650   0.688
 2410SOL     OW 8128   3.633   2.876   2.706
 2410SOL    HW1 8129   3.684   2.858   2.790
 2410SOL    HW2 8130   3.674   2.954   2.659
 2411SOL     OW 8131   4.266   0.762   4.302
 2411SOL    HW1 8132   4.258   0.704   4.221
 2411SOL    HW2 8133   4.207   0.726   4.374
 2412SOL     OW 8134   4.127   3.616   1.187
 2412SOL    HW1 8135   4.169   3.576   1.105
 2412SOL    HW2 8136   4.190   3.609   1.264
 2413SOL     OW 8137   4.031   0.392   3.354
 2413SOL    HW1 8138   4.100   0.464   3.341
 2413SOL    HW2 8139   4.077   0.303   3.357
 2414SOL     OW 8140   5.139   3.051   4.259
 2414SOL    HW1 8141   5.153   2.953   4.270
 2414SOL    HW2 8142   5.086   3.068   4.176
 2415SOL     OW 8143   4.449   0.457   3.574
 2415SOL    HW1 8144   4.399   0.508   3.504
 2415SOL    HW2 8145   4.536   0.504   3.593
 2416SOL     OW 8146   5.676   1.723   6.576
 2416SOL    HW1 8147   5.672   1.787   6.653
 2416SOL    HW2 8148   5.725   1.766   6.500
 2417SOL     OW 8149   3.102   3.998   5.447
 2417SOL    HW1 8150   3.201   3.987   5.445
 2417SOL    HW2 8151   3.077   4.051   5.528
 2418SOL     OW 8152   3.008   3.346   2.611
 2418SOL    HW1 8153   3.069   3.388   2.544
 2418SOL    HW2 8154   2.950   3.279   2.565
 2419SOL     OW 8155   6.789   0.882   3.918
 2419SOL    HW1 8156   6.874   0.830   3.930
 2419SOL    HW2 8157   6.762   0.923   4.005
 2420SOL     OW 8158   2.269   0.191   1.913
 2420SOL    HW1 8159   2.273   0.283   1.875
 2420SOL    HW2 8160   2.356   0.144   1.898
 2421SOL     OW 8161   3.761   1.860   3.308
 2421SOL    HW1 8162   3.791   1.843   3.214
 2421SOL    HW2 8163   3.838   1.852   3.370
 2422SOL     OW 8164   5.283   1.769   1.100
 2422SOL    HW1 8165   5.273   1.707   1.177
 2422SOL    HW2 8166   5.346   1.843   1.124
 2423SOL     OW 8167   1.829   4.808   2.682
 2423SOL    HW1 8168   1.830   4.767   2.591
 2423SOL    HW2 8169   1.777   4.893   2.680
 2424SOL     OW 8170   6.650   0.146   0.386
 2424SOL    HW1 8171   6.557   0.125   0.415
 2424SOL    HW2 8172   6.704   0.062   0.385
 2425SOL     OW 8173   6.948   7.013   4.220
 2425SOL    HW1 8174   6.890   0.024   4.295
 2425SOL    HW2 8175   6.894   6.952   4.162
 2426SOL     OW 8176   2.132   5.199   4.340
 2426SOL    HW1 8177   2.183   5.120   4.374
 2426SOL    HW2 8178   2.195   5.262   4.294
 2427SOL     OW 8179   6.447   0.214   5.742
 2427SOL    HW1 8180   6.426   0.256   5.830
 2427SOL    HW2 8181   6.545   0.193   5.738
 2428SOL     OW 8182   5.457   1.488   0.435
 2428SOL    HW1 8183   5.498   1.496   0.526
 2428SOL    HW2 8184   5.528   1.465   0.369
 2429SOL     OW 8185   4.677   5.221   2.642
 2429SOL    HW1 8186   4.726   5.267   2.567
 2429SOL    HW2 8187   4.579   5.235   2.629
 2430SOL     OW 8188   4.299   0.033   2.733
 2430SOL    HW1 8189   4.217   0.085   2.710
 2430SOL    HW2 8190   4.367   0.093   2.774
 2431SOL     OW 8191   4.310   0.023   2.380
 2431SOL    HW1 8192   4.251   6.969   2.406
 2431SOL    HW2 8193   4.269   0.108   2.410
 2432SOL     OW 8194   2.349   5.854   2.260
 2432SOL    HW1 8195   2.390   5.784   2.203
 2432SOL    HW2 8196   2.261   5.822   2.296
 2433SOL     OW 8197   4.696   0.152   0.672
 2433SOL    HW1 8198   4.609   0.114   0.640
 2433SOL    HW2 8199   4.721   0.109   0.759
 2434SOL     OW 8200   3.166   3.004   4.328
 2434SOL    HW1 8201   3.171   2.921   4.272
 2434SOL    HW2 8202   3.252   3.017   4.377
 2435SOL     OW 8203   5.931   6.106   6.381
 2435SOL    HW1 8204   6.019   6.059   6.388
 2435SOL    HW2 8205   5.928   6.180   6.449
 2436SOL     OW 8206   3.020   4.556   0.852
 2436SOL    HW1 8207   2.993   4.546   0.756
 2436SOL    HW2 8208   2.939   4.575   0.907
 2437SOL     OW 8209   0.183   0.854   5.808
 2437SOL    HW1 8210   0.112   0.913   5.772
 2437SOL    HW2 8211   0.236   0.815   5.733
 2438SOL     OW 8212   3.671   3.350   0.706
 2438SOL    HW1 8213   3.607   3.273   0.706
 2438SOL    HW2 8214   3.620   3.436   0.701
 2439SOL     OW 8215   6.037   4.355   5.913
 2439SOL    HW1 8216   6.082   4.303   5.986
 2439SOL    HW2 8217   6.083   4.443   5.902
 2440SOL     OW 8218   6.205   5.219   5.715
 2440SOL    HW1 8219   6.116   5.265   5.712
 2440SOL    HW2 8220   6.219   5.171   5.629
 2441SOL     OW 8221   6.495   2.029   0.568
 2441SOL    HW1 8222   6.543   1.979   0.640
 2441SOL    HW2 8223   6.435   2.098   0.610
 2442SOL     OW 8224   6.679   2.152   4.414
 2442SOL    HW1 8225   6.582   2.172   4.409
 2442SOL    HW2 8226   6.695   2.057   4.386
 2443SOL     OW 8227   2.820   4.715   5.519
 2443SOL    HW1 8228   2.888   4.736   5.449
 2443SOL    HW2 8229   2.768   4.634   5.492
 2444SOL     OW 8230   3.708   2.410   5.924
 2444SOL    HW1 8231   3.662   2.336   5.974
 2444SOL    HW2 8232   3.802   2.420   5.958
 2445SOL     OW 8233   1.218   0.201   1.043
 2445SOL    HW1 8234   1.210   0.295   1.011
 2445SOL    HW2 8235   1.246   0.201   1.139
 2446SOL     OW 8236   4.464   2.739   6.620
 2446SOL    HW1 8237   4.489   2.826   6.577
 2446SOL    HW2 8238   4.374   2.710   6.589
 2447SOL     OW 8239   1.258   3.800   6.433
 2447SOL    HW1 8240   1.272   3.703   6.414
 2447SOL    HW2 8241   1.275   3.819   6.529
 2448SOL     OW 8242   6.558   0.759   4.780
 2448SOL    HW1 8243   6.477   0.750   4.839
 2448SOL    HW2 8244   6.633   0.704   4.818
 2449SOL     OW 8245   6.949   2.881   5.537
 2449SOL    HW1 8246   6.934   2.973   5.573
 2449SOL    HW2 8247   0.001   2.837   5.588
 2450SOL     OW 8248   2.102   3.384   1.549
 2450SOL    HW1 8249   2.185   3.334   1.572
 2450SOL    HW2 8250   2.028   3.357   1.611
 2451SOL     OW 8251   1.830   5.771   3.752
 2451SOL    HW1 8252   1.827   5.860   3.796
 2451SOL    HW2 8253   1.782   5.704   3.809
 2452SOL     OW 8254   2.615   2.133   4.940
 2452SOL    HW1 8255   2.648   2.195   4.868
 2452SOL    HW2 8256   2.534   2.085   4.908
 2453SOL     OW 8257   0.323   4.330   1.082
 2453SOL    HW1 8258   0.374   4.416   1.075
 2453SOL    HW2 8259   0.378   4.256   1.044
 2454SOL     OW 8260   1.048   6.730   2.350
 2454SOL    HW1 8261   1.095   6.643   2.363
 2454SOL    HW2 8262   0.984   6.722   2.273
 2455SOL     OW 8263   5.476   3.551   1.323
 2455SOL    HW1 8264   5.477   3.609   1.404
 2455SOL    HW2 8265   5.529   3.468   1.340
 2456SOL     OW 8266   2.682   6.714   1.479
 2456SOL    HW1 8267   2.643   6.650   1.546
 2456SOL    HW2 8268   2.740   6.780   1.527
 2457SOL     OW 8269   5.328   5.652   1.130
 2457SOL    HW1 8270   5.345   5.702   1.215
 2457SOL    HW2 8271   5.231   5.628   1.124
 2458SOL     OW 8272   0.749   6.381   1.739
 2458SOL    HW1 8273   0.650   6.381   1.724
 2458SOL    HW2 8274   0.780   6.290   1.765
 2459SOL     OW 8275   1.355   1.870   0.295
 2459SOL    HW1 8276   1.266   1.855   0.338
 2459SOL    HW2 8277   1.371   1.798   0.227
 2460SOL     OW 8278   2.396   4.437   0.775
 2460SOL    HW1 8279   2.309   4.467   0.813
 2460SOL    HW2 8280   2.435   4.511   0.719
 2461SOL     OW 8281   4.495   1.554   3.070
 2461SOL    HW1 8282   4.521   1.620   3.140
 2461SOL    HW2 8283   4.398   1.532   3.079
 2462SOL     OW 8284   3.028   4.176   6.085
 2462SOL    HW1 8285   2.994   4.257   6.037
 2462SOL    HW2 8286   3.042   4.102   6.019
 2463SOL     OW 8287   0.935   3.076   5.105
 2463SOL    HW1 8288   0.923   3.141   5.180
 2463SOL    HW2 8289   0.996   3.115   5.036
 2464SOL     OW 8290   1.390   3.636   0.626
 2464SOL    HW1 8291   1.378   3.711   0.691
 2464SOL    HW2 8292   1.477   3.648   0.578
 2465SOL     OW 8293   6.127   4.182   2.687
 2465SOL    HW1 8294   6.114   4.120   2.764
 2465SOL    HW2 8295   6.129   4.129   2.602
 2466SOL     OW 8296   4.021   1.696   1.587
 2466SOL    HW1 8297   3.961   1.619   1.607
 2466SOL    HW2 8298   3.986   1.778   1.631
 2467SOL     OW 8299   0.555   1.272   4.990
 2467SOL    HW1 8300   0.547   1.269   4.890
 2467SOL    HW2 8301   0.646   1.240   5.017
 2468SOL     OW 8302   6.254   5.296   6.290
 2468SOL    HW1 8303   6.187   5.233   6.329
 2468SOL    HW2 8304   6.276   5.267   6.197
 2469SOL     OW 8305   2.689   2.495   6.048
 2469SOL    HW1 8306   2.744   2.473   5.968
 2469SOL    HW2 8307   2.596   2.521   6.020
 2470SOL     OW 8308   5.340   2.794   1.409
 2470SOL    HW1 8309   5.335   2.769   1.506
 2470SOL    HW2 8310   5.383   2.719   1.359
 2471SOL     OW 8311   0.184   1.206   3.158
 2471SOL    HW1 8312   0.120   1.279   3.134
 2471SOL    HW2 8313   0.141   1.145   3.224
 2472SOL     OW 8314   6.348   0.626   3.802
 2472SOL    HW1 8315   6.299   0.551   3.847
 2472SOL    HW2 8316   6.349   0.706   3.863
 2473SOL     OW 8317   0.621   5.859   4.899
 2473SOL    HW1 8318   0.678   5.932   4.859
 2473SOL    HW2 8319   0.617   5.870   4.998
 2474SOL     OW 8320   5.977   6.656   4.564
 2474SOL    HW1 8321   5.993   6.690   4.657
 2474SOL    HW2 8322   5.970   6.733   4.501
 2475SOL     OW 8323   3.427   2.665   6.134
 2475SOL    HW1 8324   3.349   2.698   6.080
 2475SOL    HW2 8325   3.508   2.720   6.112
 2476SOL     OW 8326   1.089   1.238   3.506
 2476SOL    HW1 8327   1.020   1.295   3.462
 2476SOL    HW2 8328   1.055   1.209   3.596
 2477SOL     OW 8329   4.589   4.487   2.152
 2477SOL    HW1 8330   4.583   4.396   2.111
 2477SOL    HW2 8331   4.646   4.546   2.093
 2478SOL     OW 8332   6.564   0.672   2.503
 2478SOL    HW1 8333   6.621   0.601   2.543
 2478SOL    HW2 8334   6.467   0.651   2.519
 2479SOL     OW 8335   1.318   3.297   0.040
 2479SOL    HW1 8336   1.406   3.285   7.018
 2479SOL    HW2 8337   1.324   3.372   0.107
 2480SOL     OW 8338   6.672   4.818   1.475
 2480SOL    HW1 8339   6.749   4.759   1.499
 2480SOL    HW2 8340   6.694   4.912   1.502
 2481SOL     OW 8341   4.228   4.715   2.391
 2481SOL    HW1 8342   4.306   4.656   2.370
 2481SOL    HW2 8343   4.156   4.699   2.324
 2482SOL     OW 8344   4.363   2.327   4.463
 2482SOL    HW1 8345   4.373   2.410   4.519
 2482SOL    HW2 8346   4.348   2.248   4.523
 2483SOL     OW 8347   1.129   3.667   0.340
 2483SOL    HW1 8348   1.060   3.681   0.269
 2483SOL    HW2 8349   1.211   3.719   0.317
 2484SOL     OW 8350   3.437   4.388   6.089
 2484SOL    HW1 8351   3.372   4.440   6.144
 2484SOL    HW2 8352   3.419   4.291   6.099
 2485SOL     OW 8353   0.718   5.040   6.848
 2485SOL    HW1 8354   0.774   4.998   6.920
 2485SOL    HW2 8355   0.635   4.985   6.836
 2486SOL     OW 8356   0.743   5.000   3.684
 2486SOL    HW1 8357   0.789   4.937   3.621
 2486SOL    HW2 8358   0.738   5.091   3.643
 2487SOL     OW 8359   2.961   1.451   1.049
 2487SOL    HW1 8360   2.864   1.436   1.028
 2487SOL    HW2 8361   2.970   1.528   1.112
 2488SOL     OW 8362   3.034   5.650   6.604
 2488SOL    HW1 8363   3.081   5.723   6.653
 2488SOL    HW2 8364   2.955   5.618   6.657
 2489SOL     OW 8365   6.876   5.441   4.426
 2489SOL    HW1 8366   6.909   5.389   4.347
 2489SOL    HW2 8367   6.953   5.473   4.480
 2490SOL     OW 8368   5.744   2.676   1.206
 2490SOL    HW1 8369   5.707   2.713   1.292
 2490SOL    HW2 8370   5.672   2.677   1.137
 2491SOL     OW 8371   6.375   3.966   2.632
 2491SOL    HW1 8372   6.305   3.994   2.565
 2491SOL    HW2 8373   6.404   4.046   2.685
 2492SOL     OW 8374   3.785   1.924   7.005
 2492SOL    HW1 8375   3.835   1.861   6.945
 2492SOL    HW2 8376   3.740   1.873   0.055
 2493SOL     OW 8377   6.830   0.591   5.557
 2493SOL    HW1 8378   6.907   0.577   5.619
 2493SOL    HW2 8379   6.744   0.577   5.606
 2494SOL     OW 8380   5.264   5.163   0.581
 2494SOL    HW1 8381   5.259   5.114   0.668
 2494SOL    HW2 8382   5.172   5.169   0.541
 2495SOL     OW 8383   6.716   1.188   2.491
 2495SOL    HW1 8384   6.730   1.089   2.499
 2495SOL    HW2 8385   6.760   1.234   2.569
 2496SOL     OW 8386   1.862   4.606   0.423
 2496SOL    HW1 8387   1.913   4.624   0.507
 2496SOL    HW2 8388   1.924   4.568   0.355
 2497SOL     OW 8389   6.144   1.147   6.592
 2497SOL    HW1 8390   6.226   1.203   6.574
 2497SOL    HW2 8391   6.066   1.187   6.545
 2498SOL     OW 8392   1.177   3.179   4.272
 2498SOL    HW1 8393   1.185   3.143   4.179
 2498SOL    HW2 8394   1.086   3.219   4.285
 2499SOL     OW 8395   5.234   0.471   6.984
 2499SOL    HW1 8396   5.173   0.444   6.910
 2499SOL    HW2 8397   5.190   0.542   0.017
 2500SOL     OW 8398   5.148   3.149   5.625
 2500SOL    HW1 8399   5.078   3.097   5.675
 2500SOL    HW2 8400   5.236   3.138   5.671
 2501SOL     OW 8401   6.477   4.909   0.928
 2501SOL    HW1 8402   6.529   4.824   0.934
 2501SOL    HW2 8403   6.518   4.977   0.989
 2502SOL     OW 8404   1.271   6.674   3.213
 2502SOL    HW1 8405   1.328   6.603   3.254
 2502SOL    HW2 8406   1.325   6.758   3.203
 2503SOL     OW 8407   5.484   6.373   3.893
 2503SOL    HW1 8408   5.508   6.468   3.875
 2503SOL    HW2 8409   5.568   6.317   3.894
 2504SOL     OW 8410   2.538   4.878   3.200
 2504SOL    HW1 8411   2.467   4.925   3.148
 2504SOL    HW2 8412   2.509   4.871   3.296
 2505SOL     OW 8413   5.232   3.867   4.173
 2505SOL    HW1 8414   5.189   3.779   4.194
 2505SOL    HW2 8415   5.302   3.855   4.102
 2506SOL     OW 8416   1.143   1.461   0.257
 2506SOL    HW1 8417   1.084   1.541   0.270
 2506SOL    HW2 8418   1.094   1.390   0.206
 2507SOL     OW 8419   7.014   6.055   0.651
 2507SOL    HW1 8420   6.962   6.138   0.674
 2507SOL    HW2 8421   6.966   5.975   0.686
 2508SOL     OW 8422   1.718   1.727   1.483
 2508SOL    HW1 8423   1.717   1.722   1.383
 2508SOL    HW2 8424   1.624   1.739   1.517
 2509SOL     OW 8425   5.911   6.586   3.737
 2509SOL    HW1 8426   5.977   6.633   3.678
 2509SOL    HW2 8427   5.956   6.508   3.782
 2510SOL     OW 8428   3.717   5.795   2.522
 2510SOL    HW1 8429   3.739   5.875   2.466
 2510SOL    HW2 8430   3.727   5.818   2.619
 2511SOL     OW 8431   0.902   5.321   4.384
 2511SOL    HW1 8432   0.814   5.307   4.339
 2511SOL    HW2 8433   0.887   5.351   4.478
 2512SOL     OW 8434   6.197   3.202   4.472
 2512SOL    HW1 8435   6.276   3.213   4.412
 2512SOL    HW2 8436   6.134   3.279   4.460
 2513SOL     OW 8437   6.996   5.202   1.184
 2513SOL    HW1 8438   6.925   5.269   1.202
 2513SOL    HW2 8439   6.960   5.130   1.124
 2514SOL     OW 8440   0.102   2.123   4.605
 2514SOL    HW1 8441   0.081   2.218   4.627
 2514SOL    HW2 8442   0.116   2.114   4.506
 2515SOL     OW 8443   0.751   4.806   6.170
 2515SOL    HW1 8444   0.819   4.733   6.161
 2515SOL    HW2 8445   0.793   4.894   6.151
 2516SOL     OW 8446   4.214   6.949   4.570
 2516SOL    HW1 8447   4.283   6.877   4.580
 2516SOL    HW2 8448   4.205   6.999   4.657
 2517SOL     OW 8449   2.735   5.683   0.711
 2517SOL    HW1 8450   2.714   5.698   0.807
 2517SOL    HW2 8451   2.719   5.768   0.660
 2518SOL     OW 8452   1.928   1.911   0.053
 2518SOL    HW1 8453   1.968   2.000   0.034
 2518SOL    HW2 8454   1.976   1.869   0.130
 2519SOL     OW 8455   6.325   4.208   4.678
 2519SOL    HW1 8456   6.355   4.117   4.650
 2519SOL    HW2 8457   6.357   4.276   4.613
 2520SOL     OW 8458   4.247   5.866   0.764
 2520SOL    HW1 8459   4.190   5.916   0.829
 2520SOL    HW2 8460   4.331   5.837   0.809
 2521SOL     OW 8461   5.777   6.558   5.725
 2521SOL    HW1 8462   5.685   6.517   5.727
 2521SOL    HW2 8463   5.770   6.655   5.748
 2522SOL     OW 8464   2.971   5.229   5.362
 2522SOL    HW1 8465   3.055   5.196   5.319
 2522SOL    HW2 8466   2.962   5.188   5.453
 2523SOL     OW 8467   0.551   1.943   6.787
 2523SOL    HW1 8468   0.561   1.956   6.689
 2523SOL    HW2 8469   0.635   1.903   6.824
 2524SOL     OW 8470   1.748   0.204   4.483
 2524SOL    HW1 8471   1.748   0.192   4.384
 2524SOL    HW2 8472   1.688   0.280   4.508
 2525SOL     OW 8473   2.765   4.761   2.205
 2525SOL    HW1 8474   2.787   4.683   2.146
 2525SOL    HW2 8475   2.694   4.816   2.163
 2526SOL     OW 8476   1.474   2.863   4.277
 2526SOL    HW1 8477   1.492   2.780   4.330
 2526SOL    HW2 8478   1.451   2.937   4.339
 2527SOL     OW 8479   6.884   6.657   3.875
 2527SOL    HW1 8480   6.837   6.616   3.954
 2527SOL    HW2 8481   6.875   6.596   3.796
 2528SOL     OW 8482   5.261   5.211   1.349
 2528SOL    HW1 8483   5.289   5.128   1.301
 2528SOL    HW2 8484   5.284   5.291   1.294
 2529SOL     OW 8485   5.099   4.831   4.971
 2529SOL    HW1 8486   5.196   4.821   4.946
 2529SOL    HW2 8487   5.090   4.909   5.034
 2530SOL     OW 8488   1.141   6.353   3.501
 2530SOL    HW1 8489   1.067   6.419   3.491
 2530SOL    HW2 8490   1.167   6.318   3.411
 2531SOL     OW 8491   5.710   2.469   6.142
 2531SOL    HW1 8492   5.745   2.468   6.049
 2531SOL    HW2 8493   5.782   2.500   6.205
 2532SOL     OW 8494   0.502   5.672   6.588
 2532SOL    HW1 8495   0.501   5.694   6.491
 2532SOL    HW2 8496   0.596   5.666   6.620
 2533SOL     OW 8497   5.515   0.971   4.397
 2533SOL    HW1 8498   5.516   0.872   4.412
 2533SOL    HW2 8499   5.423   1.006   4.414
 2534SOL     OW 8500   6.543   1.457   2.776
 2534SOL    HW1 8501   6.497   1.525   2.834
 2534SOL    HW2 8502   6.549   1.370   2.824
 2535SOL     OW 8503   2.980   0.916   1.760
 2535SOL    HW1 8504   3.008   0.872   1.845
 2535SOL    HW2 8505   3.023   0.869   1.682
 2536SOL     OW 8506   0.910   0.407   3.205
 2536SOL    HW1 8507   0.993   0.360   3.236
 2536SOL    HW2 8508   0.852   0.428   3.283
 2537SOL     OW 8509   1.878   6.142   2.189
 2537SOL    HW1 8510   1.950   6.211   2.196
 2537SOL    HW2 8511   1.859   6.105   2.280
 2538SOL     OW 8512   6.753   5.551   5.178
 2538SOL    HW1 8513   6.788   5.606   5.103
 2538SOL    HW2 8514   6.653   5.550   5.175
 2539SOL     OW 8515   1.168   0.189   5.303
 2539SOL    HW1 8516   1.265   0.190   5.327
 2539SOL    HW2 8517   1.114   0.165   5.384
 2540SOL     OW 8518   5.216   2.579   1.980
 2540SOL    HW1 8519   5.214   2.481   1.999
 2540SOL    HW2 8520   5.268   2.595   1.896
 2541SOL     OW 8521   1.511   0.792   0.327
 2541SOL    HW1 8522   1.466   0.876   0.297
 2541SOL    HW2 8523   1.584   0.815   0.392
 2542SOL     OW 8524   4.211   1.793   2.365
 2542SOL    HW1 8525   4.265   1.716   2.398
 2542SOL    HW2 8526   4.134   1.760   2.311
 2543SOL     OW 8527   5.946   6.423   5.057
 2543SOL    HW1 8528   5.918   6.331   5.084
 2543SOL    HW2 8529   5.970   6.476   5.139
 2544SOL     OW 8530   0.246   0.218   0.126
 2544SOL    HW1 8531   0.334   0.259   0.103
 2544SOL    HW2 8532   0.234   0.218   0.225
 2545SOL     OW 8533   6.887   1.796   0.472
 2545SOL    HW1 8534   6.864   1.841   0.558
 2545SOL    HW2 8535   6.860   1.854   0.395
 2546SOL     OW 8536   6.010   3.548   2.692
 2546SOL    HW1 8537   6.003   3.461   2.642
 2546SOL    HW2 8538   5.946   3.547   2.769
 2547SOL     OW 8539   5.653   3.931   0.976
 2547SOL    HW1 8540   5.629   4.024   1.003
 2547SOL    HW2 8541   5.742   3.907   1.014
 2548SOL     OW 8542   6.474   0.412   5.139
 2548SOL    HW1 8543   6.422   0.335   5.174
 2548SOL    HW2 8544   6.455   0.423   5.041
 2549SOL     OW 8545   2.542   4.507   6.655
 2549SOL    HW1 8546   2.628   4.469   6.620
 2549SOL    HW2 8547   2.550   4.606   6.662
 2550SOL     OW 8548   3.709   0.857   0.948
 2550SOL    HW1 8549   3.761   0.790   0.895
 2550SOL    HW2 8550   3.756   0.877   1.033
 2551SOL     OW 8551   3.184   4.524   1.079
 2551SOL    HW1 8552   3.124   4.504   1.156
 2551SOL    HW2 8553   3.133   4.515   0.993
 2552SOL     OW 8554   2.751   5.492   1.040
 2552SOL    HW1 8555   2.818   5.516   0.969
 2552SOL    HW2 8556   2.786   5.416   1.094
 2553SOL     OW 8557   4.324   1.729   1.329
 2553SOL    HW1 8558   4.318   1.804   1.395
 2553SOL    HW2 8559   4.258   1.658   1.354
 2554SOL     OW 8560   1.289   6.379   1.096
 2554SOL    HW1 8561   1.197   6.380   1.134
 2554SOL    HW2 8562   1.290   6.324   1.013
 2555SOL     OW 8563   0.501   6.567   4.794
 2555SOL    HW1 8564   0.456   6.494   4.744
 2555SOL    HW2 8565   0.589   6.534   4.829
 2556SOL     OW 8566   5.662   0.473   1.076
 2556SOL    HW1 8567   5.695   0.567   1.069
 2556SOL    HW2 8568   5.639   0.440   0.984
 2557SOL     OW 8569   2.514   1.538   0.153
 2557SOL    HW1 8570   2.514   1.568   0.248
 2557SOL    HW2 8571   2.523   1.439   0.148
 2558SOL     OW 8572   5.993   2.823   1.256
 2558SOL    HW1 8573   6.068   2.768   1.292
 2558SOL    HW2 8574   5.908   2.772   1.263
 2559SOL     OW 8575   6.544   5.482   3.487
 2559SOL    HW1 8576   6.579   5.504   3.578
 2559SOL    HW2 8577   6.456   5.434   3.496
 2560SOL     OW 8578   4.284   2.588   1.559
 2560SOL    HW1 8579   4.214   2.621   1.622
 2560SOL    HW2 8580   4.374   2.621   1.588
 2561SOL     OW 8581   3.723   0.607   4.768
 2561SOL    HW1 8582   3.766   0.691   4.734
 2561SOL    HW2 8583   3.758   0.586   4.859
 2562SOL     OW 8584   1.805   6.545   4.788
 2562SOL    HW1 8585   1.770   6.487   4.715
 2562SOL    HW2 8586   1.899   6.521   4.808
 2563SOL     OW 8587   4.438   2.661   6.892
 2563SOL    HW1 8588   4.484   2.697   6.810
 2563SOL    HW2 8589   4.358   2.718   6.912
 2564SOL     OW 8590   1.677   1.189   1.550
 2564SOL    HW1 8591   1.586   1.162   1.581
 2564SOL    HW2 8592   1.744   1.170   1.622
 2565SOL     OW 8593   0.019   0.123   0.722
 2565SOL    HW1 8594   6.992   0.206   0.698
 2565SOL    HW2 8595   6.982   0.065   0.779
 2566SOL     OW 8596   2.340   0.915   0.357
 2566SOL    HW1 8597   2.308   1.009   0.366
 2566SOL    HW2 8598   2.262   0.853   0.347
 2567SOL     OW 8599   1.888   0.842   6.161
 2567SOL    HW1 8600   1.919   0.913   6.224
 2567SOL    HW2 8601   1.804   0.873   6.115
 2568SOL     OW 8602   3.192   6.443   0.513
 2568SOL    HW1 8603   3.118   6.382   0.541
 2568SOL    HW2 8604   3.162   6.538   0.522
 2569SOL     OW 8605   2.753   6.404   6.667
 2569SOL    HW1 8606   2.747   6.482   6.605
 2569SOL    HW2 8607   2.662   6.380   6.700
 2570SOL     OW 8608   0.011   0.183   3.431
 2570SOL    HW1 8609   6.950   0.171   3.486
 2570SOL    HW2 8610   0.069   0.102   3.442
 2571SOL     OW 8611   3.570   3.396   2.398
 2571SOL    HW1 8612   3.663   3.401   2.361
 2571SOL    HW2 8613   3.556   3.470   2.463
 2572SOL     OW 8614   3.139   6.261   1.965
 2572SOL    HW1 8615   3.081   6.334   1.999
 2572SOL    HW2 8616   3.235   6.281   1.986
 2573SOL     OW 8617   6.180   0.724   2.791
 2573SOL    HW1 8618   6.193   0.627   2.815
 2573SOL    HW2 8619   6.268   0.770   2.791
 2574SOL     OW 8620   0.430   4.390   2.233
 2574SOL    HW1 8621   0.466   4.428   2.147
 2574SOL    HW2 8622   0.387   4.463   2.286
 2575SOL     OW 8623   4.557   3.483   5.353
 2575SOL    HW1 8624   4.574   3.513   5.259
 2575SOL    HW2 8625   4.621   3.410   5.377
 2576SOL     OW 8626   6.987   0.595   3.098
 2576SOL    HW1 8627   6.987   0.508   3.048
 2576SOL    HW2 8628   6.900   0.606   3.145
 2577SOL     OW 8629   1.537   4.819   0.725
 2577SOL    HW1 8630   1.633   4.835   0.748
 2577SOL    HW2 8631   1.506   4.893   0.665
 2578SOL     OW 8632   4.594   1.749   5.023
 2578SOL    HW1 8633   4.668   1.705   5.074
 2578SOL    HW2 8634   4.549   1.681   4.966
 2579SOL     OW 8635   6.997   2.005   6.414
 2579SOL    HW1 8636   6.922   1.953   6.374
 2579SOL    HW2 8637   6.996   1.995   6.513
 2580SOL     OW 8638   1.353   2.272   5.490
 2580SOL    HW1 8639   1.276   2.209   5.478
 2580SOL    HW2 8640   1.319   2.358   5.529
 2581SOL     OW 8641   4.654   6.215   4.311
 2581SOL    HW1 8642   4.579   6.254   4.257
 2581SOL    HW2 8643   4.619   6.141   4.368
 2582SOL     OW 8644   6.551   4.187   3.024
 2582SOL    HW1 8645   6.581   4.253   3.092
 2582SOL    HW2 8646   6.613   4.190   2.945
 2583SOL     OW 8647   2.475   1.062   0.155
 2583SOL    HW1 8648   2.429   1.122   0.220
 2583SOL    HW2 8649   2.462   0.967   0.182
 2584SOL     OW 8650   3.641   0.095   3.102
 2584SOL    HW1 8651   3.559   0.062   3.148
 2584SOL    HW2 8652   3.696   0.150   3.165
 2585SOL     OW 8653   3.780   0.960   2.734
 2585SOL    HW1 8654   3.850   0.888   2.734
 2585SOL    HW2 8655   3.716   0.943   2.658
 2586SOL     OW 8656   0.869   1.929   4.166
 2586SOL    HW1 8657   0.959   1.886   4.167
 2586SOL    HW2 8658   0.863   1.997   4.238
 2587SOL     OW 8659   6.288   4.540   3.269
 2587SOL    HW1 8660   6.240   4.600   3.334
 2587SOL    HW2 8661   6.225   4.511   3.197
 2588SOL     OW 8662   3.331   6.828   2.616
 2588SOL    HW1 8663   3.401   6.877   2.668
 2588SOL    HW2 8664   3.245   6.830   2.666
 2589SOL     OW 8665   4.151   6.685   1.885
 2589SOL    HW1 8666   4.188   6.598   1.852
 2589SOL    HW2 8667   4.056   6.672   1.913
 2590SOL     OW 8668   4.247   6.176   4.022
 2590SOL    HW1 8669   4.163   6.171   4.077
 2590SOL    HW2 8670   4.318   6.220   4.077
 2591SOL     OW 8671   6.028   0.638   0.982
 2591SOL    HW1 8672   5.934   0.651   1.014
 2591SOL    HW2 8673   6.091   0.673   1.051
 2592SOL     OW 8674   2.886   4.780   1.650
 2592SOL    HW1 8675   2.880   4.682   1.668
 2592SOL    HW2 8676   2.916   4.796   1.556
 2593SOL     OW 8677   2.692   0.219   4.060
 2593SOL    HW1 8678   2.640   0.275   4.124
 2593SOL    HW2 8679   2.785   0.209   4.094
 2594SOL     OW 8680   2.256   5.958   5.989
 2594SOL    HW1 8681   2.235   5.909   5.904
 2594SOL    HW2 8682   2.190   5.931   6.059
 2595SOL     OW 8683   6.717   3.122   4.968
 2595SOL    HW1 8684   6.788   3.064   5.007
 2595SOL    HW2 8685   6.681   3.079   4.885
 2596SOL     OW 8686   4.874   1.514   0.708
 2596SOL    HW1 8687   4.927   1.562   0.778
 2596SOL    HW2 8688   4.890   1.415   0.716
 2597SOL     OW 8689   2.260   2.402   6.269
 2597SOL    HW1 8690   2.174   2.422   6.315
 2597SOL    HW2 8691   2.249   2.321   6.211
 2598SOL     OW 8692   6.287   0.993   3.089
 2598SOL    HW1 8693   6.380   0.992   3.053
 2598SOL    HW2 8694   6.238   0.911   3.061
 2599SOL     OW 8695   4.992   5.691   6.403
 2599SOL    HW1 8696   5.077   5.724   6.360
 2599SOL    HW2 8697   4.920   5.685   6.334
 2600SOL     OW 8698   0.203   2.757   4.394
 2600SOL    HW1 8699   0.192   2.844   4.347
 2600SOL    HW2 8700   0.281   2.707   4.355
 2601SOL     OW 8701   4.138   4.589   5.349
 2601SOL    HW1 8702   4.155   4.562   5.443
 2601SOL    HW2 8703   4.189   4.529   5.287
 2602SOL     OW 8704   5.798   6.542   6.987
 2602SOL    HW1 8705   5.715   6.490   7.006
 2602SOL    HW2 8706   5.851   6.495   6.916
 2603SOL     OW 8707   1.698   1.718   0.086
 2603SOL    HW1 8708   1.757   1.797   0.069
 2603SOL    HW2 8709   1.743   1.635   0.052
 2604SOL     OW 8710   5.686   1.383   0.595
 2604SOL    HW1 8711   5.681   1.349   0.689
 2604SOL    HW2 8712   5.715   1.478   0.595
 2605SOL     OW 8713   5.353   2.489   5.214
 2605SOL    HW1 8714   5.375   2.472   5.118
 2605SOL    HW2 8715   5.382   2.581   5.239
 2606SOL     OW 8716   6.344   4.391   1.561
 2606SOL    HW1 8717   6.334   4.334   1.643
 2606SOL    HW2 8718   6.441   4.405   1.543
 2607SOL     OW 8719   0.705   0.982   3.471
 2607SOL    HW1 8720   0.759   0.985   3.555
 2607SOL    HW2 8721   0.694   1.074   3.435
 2608SOL     OW 8722   4.406   0.788   0.181
 2608SOL    HW1 8723   4.335   0.786   0.252
 2608SOL    HW2 8724   4.490   0.825   0.220
 2609SOL     OW 8725   0.842   3.914   3.482
 2609SOL    HW1 8726   0.830   3.994   3.541
 2609SOL    HW2 8727   0.915   3.857   3.518
 2610SOL     OW 8728   5.653   5.583   4.905
 2610SOL    HW1 8729   5.574   5.644   4.915
 2610SOL    HW2 8730   5.648   5.511   4.974
 2611SOL     OW 8731   2.623   6.357   2.087
 2611SOL    HW1 8732   2.530   6.371   2.120
 2611SOL    HW2 8733   2.622   6.284   2.018
 2612SOL     OW 8734   0.992   6.898   4.527
 2612SOL    HW1 8735   1.052   6.819   4.514
 2612SOL    HW2 8736   1.047   6.976   4.559
 2613SOL     OW 8737   4.281   1.484   0.151
 2613SOL    HW1 8738   4.365   1.435   0.174
 2613SOL    HW2 8739   4.243   1.527   0.234
 2614SOL     OW 8740   6.507   6.433   6.464
 2614SOL    HW1 8741   6.464   6.454   6.552
 2614SOL    HW2 8742   6.492   6.508   6.401
 2615SOL     OW 8743   0.002   3.847   1.345
 2615SOL    HW1 8744   0.012   3.769   1.407
 2615SOL    HW2 8745   6.957   3.911   1.382
 2616SOL     OW 8746   3.628   4.190   1.964
 2616SOL    HW1 8747   3.592   4.270   2.012
 2616SOL    HW2 8748   3.610   4.108   2.019
 2617SOL     OW 8749   2.897   6.439   1.418
 2617SOL    HW1 8750   2.806   6.434   1.458
 2617SOL    HW2 8751   2.935   6.531   1.431
 2618SOL     OW 8752   1.094   5.903   0.397
 2618SOL    HW1 8753   1.054   5.814   0.377
 2618SOL    HW2 8754   1.029   5.975   0.372
 2619SOL     OW 8755   6.441   0.862   1.902
 2619SOL    HW1 8756   6.366   0.906   1.952
 2619SOL    HW2 8757   6.522   0.859   1.960
 2620SOL     OW 8758   1.661   5.622   3.921
 2620SOL    HW1 8759   1.595   5.547   3.908
 2620SOL    HW2 8760   1.635   5.674   4.002
 2621SOL     OW 8761   1.321   5.922   4.105
 2621SOL    HW1 8762   1.241   5.863   4.093
 2621SOL    HW2 8763   1.291   6.017   4.116
 2622SOL     OW 8764   2.429   2.658   4.315
 2622SOL    HW1 8765   2.510   2.627   4.365
 2622SOL    HW2 8766   2.416   2.600   4.235
 2623SOL     OW 8767   2.994   6.874   5.727
 2623SOL    HW1 8768   2.985   6.937   5.804
 2623SOL    HW2 8769   3.071   6.901   5.670
 2624SOL     OW 8770   5.085   1.963   4.744
 2624SOL    HW1 8771   5.039   2.004   4.665
 2624SOL    HW2 8772   5.088   1.864   4.732
 2625SOL     OW 8773   2.384   6.940   6.336
 2625SOL    HW1 8774   2.422   7.009   6.274
 2625SOL    HW2 8775   2.324   6.985   6.402
 2626SOL     OW 8776   2.396   6.668   3.163
 2626SOL    HW1 8777   2.426   6.763   3.148
 2626SOL    HW2 8778   2.345   6.663   3.248
 2627SOL     OW 8779   0.659   0.205   4.814
 2627SOL    HW1 8780   0.579   0.213   4.755
 2627SOL    HW2 8781   0.658   0.115   4.859
 2628SOL     OW 8782   5.125   5.404   0.066
 2628SOL    HW1 8783   5.028   5.386   0.052
 2628SOL    HW2 8784   5.178   5.322   0.047
 2629SOL     OW 8785   2.780   3.583   1.846
 2629SOL    HW1 8786   2.746   3.489   1.848
 2629SOL    HW2 8787   2.835   3.600   1.928
 2630SOL     OW 8788   3.581   1.969   2.024
 2630SOL    HW1 8789   3.529   1.970   1.939
 2630SOL    HW2 8790   3.666   2.020   2.011
 2631SOL     OW 8791   3.212   6.746   4.527
 2631SOL    HW1 8792   3.210   6.736   4.427
 2631SOL    HW2 8793   3.121   6.731   4.564
 2632SOL     OW 8794   4.966   1.571   1.345
 2632SOL    HW1 8795   4.949   1.666   1.371
 2632SOL    HW2 8796   4.889   1.515   1.373
 2633SOL     OW 8797   6.937   2.452   0.307
 2633SOL    HW1 8798   6.872   2.391   0.262
 2633SOL    HW2 8799   0.004   2.443   0.264
 2634SOL     OW 8800   2.659   5.027   0.144
 2634SOL    HW1 8801   2.724   5.027   0.068
 2634SOL    HW2 8802   2.568   5.006   0.110
 2635SOL     OW 8803   6.764   4.290   3.639
 2635SOL    HW1 8804   6.664   4.295   3.636
 2635SOL    HW2 8805   6.800   4.296   3.546
 2636SOL     OW 8806   5.448   5.146   5.378
 2636SOL    HW1 8807   5.468   5.138   5.476
 2636SOL    HW2 8808   5.448   5.243   5.352
 2637SOL     OW 8809   5.391   5.588   2.219
 2637SOL    HW1 8810   5.371   5.558   2.126
 2637SOL    HW2 8811   5.356   5.680   2.232
 2638SOL     OW 8812   5.164   5.742   0.235
 2638SOL    HW1 8813   5.245   5.743   0.176
 2638SOL    HW2 8814   5.172   5.667   0.300
 2639SOL     OW 8815   6.685   0.541   0.073
 2639SOL    HW1 8816   6.696   0.481   0.153
 2639SOL    HW2 8817   6.668   0.634   0.103
 2640SOL     OW 8818   6.491   6.061   0.301
 2640SOL    HW1 8819   6.585   6.050   0.332
 2640SOL    HW2 8820   6.449   5.971   0.288
 2641SOL     OW 8821   6.955   5.669   1.296
 2641SOL    HW1 8822   0.019   5.637   1.334
 2641SOL    HW2 8823   6.961   5.670   1.196
 2642SOL     OW 8824   6.388   0.258   4.430
 2642SOL    HW1 8825   6.305   0.302   4.396
 2642SOL    HW2 8826   6.443   0.228   4.352
 2643SOL     OW 8827   2.030   0.581   2.371
 2643SOL    HW1 8828   1.997   0.612   2.461
 2643SOL    HW2 8829   2.094   0.649   2.335
 2644SOL     OW 8830   6.033   6.364   4.591
 2644SOL    HW1 8831   6.015   6.461   4.607
 2644SOL    HW2 8832   5.950   6.311   4.610
 2645SOL     OW 8833   5.017   5.760   6.865
 2645SOL    HW1 8834   5.074   5.818   6.922
 2645SOL    HW2 8835   5.059   5.670   6.856
 2646SOL     OW 8836   5.571   5.882   5.707
 2646SOL    HW1 8837   5.620   5.915   5.627
 2646SOL    HW2 8838   5.539   5.959   5.762
 2647SOL     OW 8839   3.395   4.296   0.418
 2647SOL    HW1 8840   3.363   4.329   0.329
 2647SOL    HW2 8841   3.337   4.334   0.491
 2648SOL     OW 8842   4.276   1.545   3.473
 2648SOL    HW1 8843   4.204   1.485   3.437
 2648SOL    HW2 8844   4.276   1.540   3.573
 2649SOL     OW 8845   2.875   3.894   5.072
 2649SOL    HW1 8846   2.822   3.842   5.005
 2649SOL    HW2 8847   2.830   3.891   5.161
 2650SOL     OW 8848   0.400   6.882   2.789
 2650SOL    HW1 8849   0.402   6.798   2.843
 2650SOL    HW2 8850   0.410   6.961   2.850
 2651SOL     OW 8851   1.397   0.116   2.943
 2651SOL    HW1 8852   1.478   0.058   2.930
 2651SOL    HW2 8853   1.315   0.058   2.944
 2652SOL     OW 8854   3.267   2.975   2.197
 2652SOL    HW1 8855   3.318   3.052   2.236
 2652SOL    HW2 8856   3.285   2.892   2.249
 2653SOL     OW 8857   6.336   6.683   1.169
 2653SOL    HW1 8858   6.267   6.666   1.099
 2653SOL    HW2 8859   6.352   6.782   1.176
 2654SOL     OW 8860   6.895   2.865   5.848
 2654SOL    HW1 8861   6.845   2.918   5.779
 2654SOL    HW2 8862   6.894   2.768   5.822
 2655SOL     OW 8863   5.766   5.036   4.138
 2655SOL    HW1 8864   5.716   4.951   4.150
 2655SOL    HW2 8865   5.827   5.049   4.216
 2656SOL     OW 8866   5.962   3.262   5.206
 2656SOL    HW1 8867   5.978   3.172   5.166
 2656SOL    HW2 8868   5.893   3.255   5.278
 2657SOL     OW 8869   4.060   2.354   5.530
 2657SOL    HW1 8870   4.049   2.412   5.611
 2657SOL    HW2 8871   4.018   2.399   5.451
 2658SOL     OW 8872   6.783   3.823   5.281
 2658SOL    HW1 8873   6.753   3.850   5.189
 2658SOL    HW2 8874   6.710   3.842   5.346
 2659SOL     OW 8875   6.621   1.260   3.935
 2659SOL    HW1 8876   6.665   1.350   3.937
 2659SOL    HW2 8877   6.656   1.204   4.011
 2660SOL     OW 8878   0.971   2.032   3.609
 2660SOL    HW1 8879   1.014   2.039   3.699
 2660SOL    HW2 8880   0.991   1.943   3.569
 2661SOL     OW 8881   3.535   6.919   3.663
 2661SOL    HW1 8882   3.436   6.920   3.646
 2661SOL    HW2 8883   3.583   6.893   3.580
 2662SOL     OW 8884   3.835   1.012   4.013
 2662SOL    HW1 8885   3.878   1.100   3.991
 2662SOL    HW2 8886   3.878   0.973   4.094
 2663SOL     OW 8887   0.983   3.862   2.755
 2663SOL    HW1 8888   1.046   3.797   2.713
 2663SOL    HW2 8889   1.013   3.881   2.849
 2664SOL     OW 8890   4.776   4.276   1.864
 2664SOL    HW1 8891   4.691   4.245   1.907
 2664SOL    HW2 8892   4.756   4.318   1.776
 2665SOL     OW 8893   4.554   0.784   5.073
 2665SOL    HW1 8894   4.553   0.817   5.167
 2665SOL    HW2 8895   4.631   0.825   5.025
 2666SOL     OW 8896   5.124   5.848   1.986
 2666SOL    HW1 8897   5.028   5.826   2.005
 2666SOL    HW2 8898   5.171   5.868   2.072
 2667SOL     OW 8899   2.142   4.511   2.596
 2667SOL    HW1 8900   2.059   4.498   2.650
 2667SOL    HW2 8901   2.212   4.445   2.626
 2668SOL     OW 8902   6.816   2.735   5.345
 2668SOL    HW1 8903   6.816   2.760   5.441
 2668SOL    HW2 8904   6.894   2.675   5.326
 2669SOL     OW 8905   3.823   6.000   4.600
 2669SOL    HW1 8906   3.810   6.086   4.650
 2669SOL    HW2 8907   3.872   6.019   4.515
 2670SOL     OW 8908   2.313   6.491   4.353
 2670SOL    HW1 8909   2.343   6.399   4.328
 2670SOL    HW2 8910   2.276   6.537   4.272
 2671SOL     OW 8911   3.074   3.603   6.940
 2671SOL    HW1 8912   3.049   3.619   0.013
 2671SOL    HW2 8913   3.004   3.642   6.880
 2672SOL     OW 8914   0.734   4.663   0.862
 2672SOL    HW1 8915   0.692   4.575   0.839
 2672SOL    HW2 8916   0.675   4.713   0.924
 2673SOL     OW 8917   3.593   1.821   2.981
 2673SOL    HW1 8918   3.505   1.853   3.015
 2673SOL    HW2 8919   3.620   1.738   3.030
 2674SOL     OW 8920   5.054   6.052   4.875
 2674SOL    HW1 8921   5.017   5.961   4.895
 2674SOL    HW2 8922   5.140   6.065   4.925
 2675SOL     OW 8923   0.123   5.119   5.795
 2675SOL    HW1 8924   0.092   5.211   5.819
 2675SOL    HW2 8925   0.186   5.124   5.717
 2676SOL     OW 8926   4.530   0.254   1.570
 2676SOL    HW1 8927   4.551   0.220   1.662
 2676SOL    HW2 8928   4.615   0.258   1.516
 2677SOL     OW 8929   2.392   4.789   1.858
 2677SOL    HW1 8930   2.486   4.757   1.870
 2677SOL    HW2 8931   2.392   4.887   1.836
 2678SOL     OW 8932   0.727   6.682   6.636
 2678SOL    HW1 8933   0.795   6.650   6.703
 2678SOL    HW2 8934   0.733   6.781   6.627
 2679SOL     OW 8935   2.094   5.005   1.396
 2679SOL    HW1 8936   2.154   4.990   1.474
 2679SOL    HW2 8937   2.095   5.101   1.371
 2680SOL     OW 8938   6.630   2.182   1.194
 2680SOL    HW1 8939   6.694   2.258   1.203
 2680SOL    HW2 8940   6.540   2.217   1.168
 2681SOL     OW 8941   1.891   2.055   1.885
 2681SOL    HW1 8942   1.876   2.034   1.788
 2681SOL    HW2 8943   1.831   2.129   1.914
 2682SOL     OW 8944   0.385   2.781   3.948
 2682SOL    HW1 8945   0.393   2.685   3.976
 2682SOL    HW2 8946   0.312   2.789   3.880
 2683SOL     OW 8947   1.576   0.118   0.412
 2683SOL    HW1 8948   1.643   0.113   0.486
 2683SOL    HW2 8949   1.495   0.065   0.438
 2684SOL     OW 8950   2.366   5.028   3.063
 2684SOL    HW1 8951   2.381   5.126   3.074
 2684SOL    HW2 8952   2.271   5.006   3.086
 2685SOL     OW 8953   5.264   4.900   5.854
 2685SOL    HW1 8954   5.167   4.910   5.834
 2685SOL    HW2 8955   5.307   4.843   5.783
 2686SOL     OW 8956   1.229   3.453   4.662
 2686SOL    HW1 8957   1.306   3.488   4.715
 2686SOL    HW2 8958   1.250   3.361   4.629
 2687SOL     OW 8959   4.815   5.140   3.091
 2687SOL    HW1 8960   4.776   5.132   2.999
 2687SOL    HW2 8961   4.802   5.054   3.140
 2688SOL     OW 8962   3.463   4.563   5.543
 2688SOL    HW1 8963   3.479   4.604   5.633
 2688SOL    HW2 8964   3.371   4.587   5.512
 2689SOL     OW 8965   6.208   2.076   3.901
 2689SOL    HW1 8966   6.302   2.044   3.891
 2689SOL    HW2 8967   6.197   2.121   3.990
 2690SOL     OW 8968   3.692   4.110   3.408
 2690SOL    HW1 8969   3.746   4.036   3.449
 2690SOL    HW2 8970   3.617   4.135   3.470
 2691SOL     OW 8971   1.474   5.892   1.420
 2691SOL    HW1 8972   1.376   5.900   1.433
 2691SOL    HW2 8973   1.514   5.984   1.414
 2692SOL     OW 8974   6.932   4.322   3.837
 2692SOL    HW1 8975   6.871   4.298   3.761
 2692SOL    HW2 8976   0.004   4.318   3.807
 2693SOL     OW 8977   2.096   3.843   2.409
 2693SOL    HW1 8978   2.164   3.878   2.344
 2693SOL    HW2 8979   2.028   3.914   2.427
 2694SOL     OW 8980   2.064   1.421   2.963
 2694SOL    HW1 8981   2.097   1.341   3.013
 2694SOL    HW2 8982   2.106   1.424   2.873
 2695SOL     OW 8983   4.176   2.279   2.035
 2695SOL    HW1 8984   4.202   2.336   1.957
 2695SOL    HW2 8985   4.099   2.221   2.010
 2696SOL     OW 8986   3.362   3.496   6.235
 2696SOL    HW1 8987   3.461   3.511   6.226
 2696SOL    HW2 8988   3.336   3.413   6.186
 2697SOL     OW 8989   2.348   0.961   5.243
 2697SOL    HW1 8990   2.416   0.889   5.256
 2697SOL    HW2 8991   2.299   0.944   5.157
 2698SOL     OW 8992   1.674   1.502   6.887
 2698SOL    HW1 8993   1.766   1.471   6.911
 2698SOL    HW2 8994   1.607   1.433   6.917
 2699SOL     OW 8995   1.270   4.889   3.848
 2699SOL    HW1 8996   1.176   4.918   3.836
 2699SOL    HW2 8997   1.292   4.817   3.782
 2700SOL     OW 8998   2.420   4.351   2.671
 2700SOL    HW1 8999   2.423   4.295   2.754
 2700SOL    HW2 9000   2.398   4.293   2.593
 2701SOL     OW 9001   2.102   0.753   4.982
 2701SOL    HW1 9002   2.124   0.831   5.040
 2701SOL    HW2 9003   2.176   0.736   4.917
 2702SOL     OW 9004   5.893   6.322   2.841
 2702SOL    HW1 9005   5.941   6.260   2.779
 2702SOL    HW2 9006   5.960   6.373   2.896
 2703SOL     OW 9007   1.997   2.764   2.413
 2703SOL    HW1 9008   2.092   2.732   2.414
 2703SOL    HW2 9009   1.938   2.691   2.447
 2704SOL     OW 9010   0.647   6.418   0.582
 2704SOL    HW1 9011   0.713   6.447   0.513
 2704SOL    HW2 9012   0.690   6.350   0.642
 2705SOL     OW 9013   0.434   3.152   2.625
 2705SOL    HW1 9014   0.428   3.247   2.594
 2705SOL    HW2 9015   0.440   3.091   2.545
 2706SOL     OW 9016   6.627   2.531   3.686
 2706SOL    HW1 9017   6.568   2.481   3.750
 2706SOL    HW2 9018   6.576   2.609   3.649
 2707SOL     OW 9019   3.413   0.949   0.104
 2707SOL    HW1 9020   3.412   0.972   0.201
 2707SOL    HW2 9021   3.436   1.030   0.051
 2708SOL     OW 9022   1.535   4.933   6.479
 2708SOL    HW1 9023   1.505   5.020   6.441
 2708SOL    HW2 9024   1.474   4.860   6.448
 2709SOL     OW 9025   3.910   0.176   1.797
 2709SOL    HW1 9026   3.873   0.252   1.743
 2709SOL    HW2 9027   3.836   0.131   1.847
 2710SOL     OW 9028   5.755   3.888   3.422
 2710SOL    HW1 9029   5.824   3.960   3.425
 2710SOL    HW2 9030   5.787   3.814   3.363
 2711SOL     OW 9031   0.868   6.582   2.119
 2711SOL    HW1 9032   0.796   6.625   2.173
 2711SOL    HW2 9033   0.855   6.603   2.022
 2712SOL     OW 9034   2.790   5.498   2.622
 2712SOL    HW1 9035   2.739   5.484   2.707
 2712SOL    HW2 9036   2.739   5.459   2.546
 2713SOL     OW 9037   2.237   2.833   5.526
 2713SOL    HW1 9038   2.310   2.872   5.469
 2713SOL    HW2 9039   2.153   2.826   5.472
 2714SOL     OW 9040   5.774   0.611   0.315
 2714SOL    HW1 9041   5.731   0.701   0.312
 2714SOL    HW2 9042   5.707   0.540   0.295
 2715SOL     OW 9043   5.980   0.581   0.490
 2715SOL    HW1 9044   5.958   0.602   0.585
 2715SOL    HW2 9045   5.896   0.579   0.436
 2716SOL     OW 9046   5.973   6.328   2.251
 2716SOL    HW1 9047   6.021   6.262   2.193
 2716SOL    HW2 9048   5.920   6.390   2.194
 2717SOL     OW 9049   0.547   0.066   3.367
 2717SOL    HW1 9050   0.475   0.009   3.326
 2717SOL    HW2 9051   0.611   0.095   3.295
 2718SOL     OW 9052   6.705   3.705   3.242
 2718SOL    HW1 9053   6.739   3.741   3.328
 2718SOL    HW2 9054   6.636   3.767   3.205
 2719SOL     OW 9055   4.337   4.548   2.816
 2719SOL    HW1 9056   4.267   4.585   2.756
 2719SOL    HW2 9057   4.314   4.570   2.911
 2720SOL     OW 9058   0.887   6.587   4.266
 2720SOL    HW1 9059   0.812   6.614   4.206
 2720SOL    HW2 9060   0.870   6.622   4.358
 2721SOL     OW 9061   4.918   6.329   3.155
 2721SOL    HW1 9062   4.893   6.385   3.077
 2721SOL    HW2 9063   4.970   6.385   3.220
 2722SOL     OW 9064   0.734   5.838   2.424
 2722SOL    HW1 9065   0.777   5.753   2.454
 2722SOL    HW2 9066   0.805   5.906   2.407
 2723SOL     OW 9067   1.696   2.398   4.060
 2723SOL    HW1 9068   1.623   2.423   3.996
 2723SOL    HW2 9069   1.763   2.472   4.066
 2724SOL     OW 9070   4.716   5.766   5.888
 2724SOL    HW1 9071   4.674   5.793   5.801
 2724SOL    HW2 9072   4.726   5.847   5.946
 2725SOL     OW 9073   2.146   4.684   3.139
 2725SOL    HW1 9074   2.130   4.681   3.237
 2725SOL    HW2 9075   2.244   4.672   3.120
 2726SOL     OW 9076   3.886   6.282   2.733
 2726SOL    HW1 9077   3.981   6.284   2.703
 2726SOL    HW2 9078   3.879   6.321   2.825
 2727SOL     OW 9079   2.299   5.355   4.212
 2727SOL    HW1 9080   2.283   5.374   4.115
 2727SOL    HW2 9081   2.379   5.296   4.222
 2728SOL     OW 9082   2.367   6.750   5.594
 2728SOL    HW1 9083   2.383   6.848   5.607
 2728SOL    HW2 9084   2.417   6.699   5.664
 2729SOL     OW 9085   0.184   4.691   2.600
 2729SOL    HW1 9086   0.187   4.785   2.634
 2729SOL    HW2 9087   0.104   4.644   2.639
 2730SOL     OW 9088   1.901   3.691   1.292
 2730SOL    HW1 9089   1.827   3.703   1.225
 2730SOL    HW2 9090   1.922   3.594   1.302
 2731SOL     OW 9091   2.288   3.209   0.141
 2731SOL    HW1 9092   2.293   3.226   0.240
 2731SOL    HW2 9093   2.247   3.120   0.125
 2732SOL     OW 9094   6.029   3.429   4.508
 2732SOL    HW1 9095   5.981   3.517   4.510
 2732SOL    HW2 9096   6.048   3.399   4.602
 2733SOL     OW 9097   2.055   0.547   0.485
 2733SOL    HW1 9098   2.007   0.487   0.421
 2733SOL    HW2 9099   2.153   0.530   0.479
 2734SOL     OW 9100   1.904   0.062   4.071
 2734SOL    HW1 9101   1.927   7.012   4.006
 2734SOL    HW2 9102   1.954   0.045   4.157
 2735SOL     OW 9103   1.505   5.380   1.490
 2735SOL    HW1 9104   1.456   5.378   1.577
 2735SOL    HW2 9105   1.470   5.454   1.433
 2736SOL     OW 9106   4.340   0.492   6.847
 2736SOL    HW1 9107   4.261   0.436   6.823
 2736SOL    HW2 9108   4.387   0.521   6.763
 2737SOL     OW 9109   4.459   3.994   5.627
 2737SOL    HW1 9110   4.548   3.954   5.647
 2737SOL    HW2 9111   4.453   4.085   5.668
 2738SOL     OW 9112   6.780   4.171   4.744
 2738SOL    HW1 9113   6.758   4.254   4.794
 2738SOL    HW2 9114   6.763   4.091   4.803
 2739SOL     OW 9115   4.645   3.821   6.635
 2739SOL    HW1 9116   4.547   3.832   6.618
 2739SOL    HW2 9117   4.660   3.809   6.733
 2740SOL     OW 9118   5.843   2.656   4.519
 2740SOL    HW1 9119   5.922   2.676   4.577
 2740SOL    HW2 9120   5.875   2.620   4.431
 2741SOL     OW 9121   2.201   3.504   5.571
 2741SOL    HW1 9122   2.200   3.406   5.553
 2741SOL    HW2 9123   2.284   3.529   5.621
 2742SOL     OW 9124   2.756   6.427   5.322
 2742SOL    HW1 9125   2.699   6.509   5.328
 2742SOL    HW2 9126   2.707   6.349   5.359
 2743SOL     OW 9127   6.178   3.793   6.203
 2743SOL    HW1 9128   6.269   3.758   6.227
 2743SOL    HW2 9129   6.117   3.717   6.183
 2744SOL     OW 9130   4.887   6.813   0.858
 2744SOL    HW1 9131   4.936   6.857   0.934
 2744SOL    HW2 9132   4.922   6.719   0.847
 2745SOL     OW 9133   3.098   5.903   2.152
 2745SOL    HW1 9134   3.108   5.926   2.055
 2745SOL    HW2 9135   3.001   5.902   2.176
 2746SOL     OW 9136   1.279   2.414   6.957
 2746SOL    HW1 9137   1.364   2.460   6.984
 2746SOL    HW2 9138   1.201   2.471   6.981
 2747SOL     OW 9139   4.827   6.046   3.824
 2747SOL    HW1 9140   4.890   6.119   3.853
 2747SOL    HW2 9141   4.750   6.086   3.774
 2748SOL     OW 9142   5.396   1.245   4.501
 2748SOL    HW1 9143   5.485   1.230   4.545
 2748SOL    HW2 9144   5.407   1.310   4.425
 2749SOL     OW 9145   5.541   5.056   3.262
 2749SOL    HW1 9146   5.447   5.092   3.257
 2749SOL    HW2 9147   5.539   4.956   3.260
 2750SOL     OW 9148   0.817   0.012   0.329
 2750SOL    HW1 9149   0.803   6.960   0.394
 2750SOL    HW2 9150   0.787   0.098   0.370
 2751SOL     OW 9151   1.059   0.373   6.584
 2751SOL    HW1 9152   1.011   0.445   6.533
 2751SOL    HW2 9153   1.030   0.376   6.679
 2752SOL     OW 9154   0.598   6.431   6.165
 2752SOL    HW1 9155   0.601   6.351   6.225
 2752SOL    HW2 9156   0.516   6.426   6.107
 2753SOL     OW 9157   3.324   5.340   4.385
 2753SOL    HW1 9158   3.267   5.415   4.419
 2753SOL    HW2 9159   3.345   5.278   4.460
 2754SOL     OW 9160   1.065   5.282   4.153
 2754SOL    HW1 9161   1.145   5.223   4.166
 2754SOL    HW2 9162   1.031   5.311   4.243
 2755SOL     OW 9163   4.447   6.674   2.886
 2755SOL    HW1 9164   4.497   6.761   2.887
 2755SOL    HW2 9165   4.369   6.681   2.824
 2756SOL     OW 9166   6.946   2.946   5.035
 2756SOL    HW1 9167   6.993   2.928   5.121
 2756SOL    HW2 9168   6.939   2.861   4.983
 2757SOL     OW 9169   5.011   4.069   5.633
 2757SOL    HW1 9170   4.994   4.019   5.548
 2757SOL    HW2 9171   4.940   4.046   5.700
 2758SOL     OW 9172   0.480   6.630   1.909
 2758SOL    HW1 9173   0.467   6.534   1.884
 2758SOL    HW2 9174   0.512   6.681   1.829
 2759SOL     OW 9175   3.944   3.839   4.952
 2759SOL    HW1 9176   4.013   3.778   4.992
 2759SOL    HW2 9177   3.962   3.933   4.981
 2760SOL     OW 9178   5.193   5.241   2.710
 2760SOL    HW1 9179   5.252   5.165   2.739
 2760SOL    HW2 9180   5.203   5.317   2.773
 2761SOL     OW 9181   2.113   3.306   3.697
 2761SOL    HW1 9182   2.112   3.326   3.795
 2761SOL    HW2 9183   2.208   3.302   3.665
 2762SOL     OW 9184   4.374   1.566   2.172
 2762SOL    HW1 9185   4.394   1.640   2.107
 2762SOL    HW2 9186   4.398   1.596   2.264
 2763SOL     OW 9187   5.345   1.053   3.904
 2763SOL    HW1 9188   5.247   1.070   3.889
 2763SOL    HW2 9189   5.379   1.116   3.974
 2764SOL     OW 9190   0.099   2.302   2.806
 2764SOL    HW1 9191   0.059   2.301   2.714
 2764SOL    HW2 9192   0.087   2.393   2.846
 2765SOL     OW 9193   6.952   6.654   0.030
 2765SOL    HW1 9194   6.903   6.733   7.016
 2765SOL    HW2 9195   7.000   6.607   6.978
 2766SOL     OW 9196   4.996   0.439   0.283
 2766SOL    HW1 9197   4.960   0.360   0.232
 2766SOL    HW2 9198   5.085   0.414   0.322
 2767SOL     OW 9199   0.710   5.948   5.915
 2767SOL    HW1 9200   0.612   5.964   5.900
 2767SOL    HW2 9201   0.752   6.030   5.952
 2768SOL     OW 9202   4.026   0.042   1.582
 2768SOL    HW1 9203   4.120   0.068   1.561
 2768SOL    HW2 9204   3.994   0.094   1.661
 2769SOL     OW 9205   0.651   4.891   5.854
 2769SOL    HW1 9206   0.612   4.941   5.931
 2769SOL    HW2 9207   0.714   4.822   5.888
 2770SOL     OW 9208   2.444   6.462   0.672
 2770SOL    HW1 9209   2.391   6.547   0.668
 2770SOL    HW2 9210   2.382   6.385   0.689
 2771SOL     OW 9211   3.948   6.229   5.693
 2771SOL    HW1 9212   3.885   6.255   5.767
 2771SOL    HW2 9213   4.033   6.195   5.732
 2772SOL     OW 9214   6.037   1.634   2.890
 2772SOL    HW1 9215   6.059   1.542   2.856
 2772SOL    HW2 9216   6.063   1.701   2.821
 2773SOL     OW 9217   5.365   1.767   6.128
 2773SOL    HW1 9218   5.339   1.748   6.222
 2773SOL    HW2 9219   5.369   1.865   6.113
 2774SOL     OW 9220   6.253   0.153   3.772
 2774SOL    HW1 9221   6.243   0.160   3.871
 2774SOL    HW2 9222   6.186   0.212   3.728
 2775SOL     OW 9223   6.860   2.187   4.894
 2775SOL    HW1 9224   6.861   2.283   4.920
 2775SOL    HW2 9225   6.808   2.135   4.962
 2776SOL     OW 9226   4.913   3.795   6.009
 2776SOL    HW1 9227   4.917   3.708   6.057
 2776SOL    HW2 9228   4.866   3.783   5.922
 2777SOL     OW 9229   1.589   1.692   0.537
 2777SOL    HW1 9230   1.623   1.630   0.467
 2777SOL    HW2 9231   1.662   1.754   0.566
 2778SOL     OW 9232   2.280   6.229   5.888
 2778SOL    HW1 9233   2.345   6.276   5.946
 2778SOL    HW2 9234   2.276   6.132   5.914
 2779SOL     OW 9235   5.085   1.052   3.510
 2779SOL    HW1 9236   5.148   1.111   3.460
 2779SOL    HW2 9237   5.137   0.986   3.565
 2780SOL     OW 9238   0.769   0.237   5.560
 2780SOL    HW1 9239   0.790   0.320   5.507
 2780SOL    HW2 9240   0.742   0.263   5.653
 2781SOL     OW 9241   6.693   0.170   3.058
 2781SOL    HW1 9242   6.608   0.185   3.108
 2781SOL    HW2 9243   6.737   0.258   3.040
 2782SOL     OW 9244   5.750   6.717   4.793
 2782SOL    HW1 9245   5.755   6.626   4.835
 2782SOL    HW2 9246   5.655   6.738   4.771
 2783SOL     OW 9247   6.535   2.544   1.724
 2783SOL    HW1 9248   6.488   2.504   1.645
 2783SOL    HW2 9249   6.483   2.524   1.807
 2784SOL     OW 9250   1.090   2.046   1.917
 2784SOL    HW1 9251   1.086   2.069   1.819
 2784SOL    HW2 9252   1.085   2.130   1.971
 2785SOL     OW 9253   5.169   3.518   3.825
 2785SOL    HW1 9254   5.079   3.559   3.838
 2785SOL    HW2 9255   5.204   3.486   3.913
 2786SOL     OW 9256   0.139   5.864   0.839
 2786SOL    HW1 9257   0.234   5.859   0.871
 2786SOL    HW2 9258   0.137   5.856   0.739
 2787SOL     OW 9259   0.419   6.965   6.080
 2787SOL    HW1 9260   0.433   0.036   6.045
 2787SOL    HW2 9261   0.507   6.922   6.097
 2788SOL     OW 9262   3.041   6.531   0.200
 2788SOL    HW1 9263   2.957   6.481   0.218
 2788SOL    HW2 9264   3.113   6.468   0.172
 2789SOL     OW 9265   2.181   2.127   3.532
 2789SOL    HW1 9266   2.141   2.215   3.507
 2789SOL    HW2 9267   2.125   2.083   3.602
 2790SOL     OW 9268   0.715   4.894   1.454
 2790SOL    HW1 9269   0.732   4.875   1.551
 2790SOL    HW2 9270   0.793   4.864   1.400
 2791SOL     OW 9271   0.189   3.402   5.460
 2791SOL    HW1 9272   0.145   3.491   5.473
 2791SOL    HW2 9273   0.127   3.341   5.410
 2792SOL     OW 9274   3.048   2.509   6.787
 2792SOL    HW1 9275   3.026   2.475   6.696
 2792SOL    HW2 9276   2.964   2.533   6.835
 2793SOL     OW 9277   4.203   3.505   6.220
 2793SOL    HW1 9278   4.163   3.443   6.287
 2793SOL    HW2 9279   4.255   3.576   6.267
 2794SOL     OW 9280   1.310   1.880   6.709
 2794SOL    HW1 9281   1.263   1.938   6.775
 2794SOL    HW2 9282   1.371   1.817   6.758
 2795SOL     OW 9283   1.347   7.001   0.544
 2795SOL    HW1 9284   1.343   6.901   0.541
 2795SOL    HW2 9285   1.359   0.009   0.639
 2796SOL     OW 9286   2.997   5.737   0.093
 2796SOL    HW1 9287   2.919   5.800   0.095
 2796SOL    HW2 9288   3.071   5.777   0.038
 2797SOL     OW 9289   5.028   3.934   4.602
 2797SOL    HW1 9290   4.954   3.932   4.669
 2797SOL    HW2 9291   5.046   3.841   4.570
 2798SOL     OW 9292   5.413   2.804   1.714
 2798SOL    HW1 9293   5.387   2.884   1.767
 2798SOL    HW2 9294   5.339   2.737   1.718
 2799SOL     OW 9295   3.331   0.280   4.584
 2799SOL    HW1 9296   3.324   0.181   4.573
 2799SOL    HW2 9297   3.424   0.304   4.612
 2800SOL     OW 9298   4.985   1.168   0.000
 2800SOL    HW1 9299   4.914   1.180   0.069
 2800SOL    HW2 9300   5.074   1.161   0.045
 2801SOL     OW 9301   7.015   4.275   3.066
 2801SOL    HW1 9302   6.935   4.233   3.108
 2801SOL    HW2 9303   0.076   4.230   3.100
 2802SOL     OW 9304   1.998   4.491   4.253
 2802SOL    HW1 9305   1.901   4.469   4.264
 2802SOL    HW2 9306   2.040   4.500   4.344
 2803SOL     OW 9307   3.372   2.747   6.619
 2803SOL    HW1 9308   3.354   2.693   6.537
 2803SOL    HW2 9309   3.313   2.828   6.619
 2804SOL     OW 9310   5.606   2.149   3.584
 2804SOL    HW1 9311   5.567   2.157   3.675
 2804SOL    HW2 9312   5.533   2.147   3.516
 2805SOL     OW 9313   3.955   5.626   0.324
 2805SOL    HW1 9314   4.010   5.697   0.368
 2805SOL    HW2 9315   3.875   5.668   0.280
 2806SOL     OW 9316   0.667   2.881   4.820
 2806SOL    HW1 9317   0.700   2.787   4.813
 2806SOL    HW2 9318   0.628   2.909   4.732
 2807SOL     OW 9319   4.584   1.535   3.757
 2807SOL    HW1 9320   4.549   1.456   3.807
 2807SOL    HW2 9321   4.560   1.619   3.807
 2808SOL     OW 9322   1.060   5.868   6.658
 2808SOL    HW1 9323   1.034   5.795   6.721
 2808SOL    HW2 9324   1.031   5.956   6.695
 2809SOL     OW 9325   1.379   6.562   0.771
 2809SOL    HW1 9326   1.397   6.464   0.764
 2809SOL    HW2 9327   1.447   6.604   0.831
 2810SOL     OW 9328   0.134   6.386   2.412
 2810SOL    HW1 9329   0.170   6.421   2.499
 2810SOL    HW2 9330   0.042   6.421   2.398
 2811SOL     OW 9331   0.956   0.103   0.696
 2811SOL    HW1 9332   0.981   0.066   0.785
 2811SOL    HW2 9333   0.942   0.027   0.632
 2812SOL     OW 9334   1.575   0.795   1.425
 2812SOL    HW1 9335   1.643   0.725   1.451
 2812SOL    HW2 9336   1.514   0.811   1.502
 2813SOL     OW 9337   6.015   1.984   1.489
 2813SOL    HW1 9338   6.055   2.019   1.574
 2813SOL    HW2 9339   6.087   1.957   1.426
 2814SOL     OW 9340   1.939   4.411   6.625
 2814SOL    HW1 9341   1.963   4.332   6.570
 2814SOL    HW2 9342   2.007   4.483   6.613
 2815SOL     OW 9343   6.337   6.326   4.704
 2815SOL    HW1 9344   6.247   6.288   4.683
 2815SOL    HW2 9345   6.351   6.328   4.803
 2816SOL     OW 9346   0.683   5.261   5.149
 2816SOL    HW1 9347   0.780   5.234   5.151
 2816SOL    HW2 9348   0.626   5.179   5.143
 2817SOL     OW 9349   2.709   0.891   1.800
 2817SOL    HW1 9350   2.806   0.911   1.788
 2817SOL    HW2 9351   2.691   0.872   1.897
 2818SOL     OW 9352   1.805   1.088   0.479
 2818SOL    HW1 9353   1.754   1.009   0.514
 2818SOL    HW2 9354   1.799   1.090   0.379
 2819SOL     OW 9355   6.174   0.283   6.667
 2819SOL    HW1 9356   6.126   0.195   6.663
 2819SOL    HW2 9357   6.158   0.334   6.582
 2820SOL     OW 9358   1.767   1.632   0.332
 2820SOL    HW1 9359   1.822   1.552   0.307
 2820SOL    HW2 9360   1.730   1.674   0.249
 2821SOL     OW 9361   3.610   2.174   6.095
 2821SOL    HW1 9362   3.579   2.161   6.189
 2821SOL    HW2 9363   3.574   2.101   6.037
 2822SOL     OW 9364   4.453   2.839   1.390
 2822SOL    HW1 9365   4.527   2.777   1.361
 2822SOL    HW2 9366   4.468   2.866   1.485
 2823SOL     OW 9367   5.598   4.126   2.971
 2823SOL    HW1 9368   5.651   4.046   2.944
 2823SOL    HW2 9369   5.509   4.124   2.926
 2824SOL     OW 9370   0.509   4.333   5.200
 2824SOL    HW1 9371   0.466   4.269   5.264
 2824SOL    HW2 9372   0.605   4.310   5.188
 2825SOL     OW 9373   4.970   2.598   5.538
 2825SOL    HW1 9374   5.044   2.609   5.604
 2825SOL    HW2 9375   5.004   2.615   5.446
 2826SOL     OW 9376   3.129   3.275   6.631
 2826SOL    HW1 9377   3.199   3.333   6.589
 2826SOL    HW2 9378   3.130   3.289   6.730
 2827SOL     OW 9379   6.508   1.788   0.168
 2827SOL    HW1 9380   6.471   1.720   0.231
 2827SOL    HW2 9381   6.438   1.855   0.145
 2828SOL     OW 9382   1.844   4.248   0.173
 2828SOL    HW1 9383   1.867   4.345   0.185
 2828SOL    HW2 9384   1.834   4.205   0.263
 2829SOL     OW 9385   3.588   4.274   1.267
 2829SOL    HW1 9386   3.528   4.326   1.207
 2829SOL    HW2 9387   3.536   4.204   1.315
 2830SOL     OW 9388   3.129   5.519   4.442
 2830SOL    HW1 9389   3.170   5.590   4.384
 2830SOL    HW2 9390   3.030   5.517   4.428
 2831SOL     OW 9391   6.082   1.656   2.024
 2831SOL    HW1 9392   6.182   1.648   2.030
 2831SOL    HW2 9393   6.050   1.603   1.946
 2832SOL     OW 9394   1.788   3.873   1.465
 2832SOL    HW1 9395   1.756   3.961   1.429
 2832SOL    HW2 9396   1.858   3.836   1.404
 2833SOL     OW 9397   6.479   1.979   3.611
 2833SOL    HW1 9398   6.412   2.047   3.641
 2833SOL    HW2 9399   6.444   1.887   3.632
 2834SOL     OW 9400   2.899   0.840   4.538
 2834SOL    HW1 9401   2.877   0.935   4.512
 2834SOL    HW2 9402   2.828   0.779   4.503
 2835SOL     OW 9403   6.520   1.451   0.683
 2835SOL    HW1 9404   6.447   1.436   0.749
 2835SOL    HW2 9405   6.592   1.384   0.697
 2836SOL     OW 9406   3.219   6.009   1.907
 2836SOL    HW1 9407   3.257   5.978   1.820
 2836SOL    HW2 9408   3.211   6.108   1.907
 2837SOL     OW 9409   5.176   3.983   3.092
 2837SOL    HW1 9410   5.097   3.972   3.032
 2837SOL    HW2 9411   5.152   4.041   3.169
 2838SOL     OW 9412   0.012   4.159   5.956
 2838SOL    HW1 9413   0.080   4.149   6.028
 2838SOL    HW2 9414   6.978   4.240   5.973
 2839SOL     OW 9415   5.279   2.536   6.329
 2839SOL    HW1 9416   5.374   2.537   6.298
 2839SOL    HW2 9417   5.228   2.611   6.285
 2840SOL     OW 9418   6.556   5.937   4.995
 2840SOL    HW1 9419   6.466   5.948   4.954
 2840SOL    HW2 9420   6.603   5.859   4.953
 2841SOL     OW 9421   5.773   3.279   3.223
 2841SOL    HW1 9422   5.709   3.351   3.198
 2841SOL    HW2 9423   5.773   3.268   3.322
 2842SOL     OW 9424   0.886   6.414   3.566
 2842SOL    HW1 9425   0.937   6.404   3.651
 2842SOL    HW2 9426   0.806   6.472   3.582
 2843SOL     OW 9427   0.758   2.517   4.247
 2843SOL    HW1 9428   0.660   2.498   4.255
 2843SOL    HW2 9429   0.773   2.616   4.243
 2844SOL     OW 9430   5.806   3.939   0.179
 2844SOL    HW1 9431   5.729   3.994   0.213
 2844SOL    HW2 9432   5.770   3.856   0.136
 2845SOL     OW 9433   3.653   1.715   1.135
 2845SOL    HW1 9434   3.729   1.687   1.076
 2845SOL    HW2 9435   3.613   1.634   1.178
 2846SOL     OW 9436   5.006   0.458   6.471
 2846SOL    HW1 9437   4.955   0.411   6.398
 2846SOL    HW2 9438   4.997   0.557   6.460
 2847SOL     OW 9439   5.678   4.687   2.464
 2847SOL    HW1 9440   5.752   4.742   2.503
 2847SOL    HW2 9441   5.643   4.731   2.382
 2848SOL     OW 9442   0.494   3.217   0.263
 2848SOL    HW1 9443   0.537   3.305   0.282
 2848SOL    HW2 9444   0.557   3.159   0.211
 2849SOL     OW 9445   5.369   0.800   1.040
 2849SOL    HW1 9446   5.417   0.792   0.953
 2849SOL    HW2 9447   5.293   0.865   1.030
 2850SOL     OW 9448   0.019   1.529   0.747
 2850SOL    HW1 9449   0.042   1.540   0.650
 2850SOL    HW2 9450   0.012   1.432   0.768
 2851SOL     OW 9451   3.301   3.405   2.220
 2851SOL    HW1 9452   3.208   3.377   2.246
 2851SOL    HW2 9453   3.363   3.328   2.231
 2852SOL     OW 9454   0.567   4.987   5.145
 2852SOL    HW1 9455   0.585   5.006   5.049
 2852SOL    HW2 9456   0.634   4.920   5.179
 2853SOL     OW 9457   0.234   4.719   5.744
 2853SOL    HW1 9458   0.295   4.644   5.770
 2853SOL    HW2 9459   0.215   4.776   5.825
 2854SOL     OW 9460   3.180   0.226   6.506
 2854SOL    HW1 9461   3.095   0.180   6.482
 2854SOL    HW2 9462   3.181   0.244   6.604
 2855SOL     OW 9463   2.701   2.401   4.309
 2855SOL    HW1 9464   2.706   2.301   4.304
 2855SOL    HW2 9465   2.642   2.428   4.385
 2856SOL     OW 9466   1.541   5.364   4.884
 2856SOL    HW1 9467   1.606   5.398   4.816
 2856SOL    HW2 9468   1.583   5.367   4.975
 2857SOL     OW 9469   0.945   4.480   6.945
 2857SOL    HW1 9470   0.950   4.579   6.961
 2857SOL    HW2 9471   1.021   4.435   6.991
 2858SOL     OW 9472   5.651   4.804   4.135
 2858SOL    HW1 9473   5.558   4.802   4.099
 2858SOL    HW2 9474   5.701   4.724   4.103
 2859SOL     OW 9475   0.551   4.979   2.077
 2859SOL    HW1 9476   0.480   4.953   2.012
 2859SOL    HW2 9477   0.626   5.024   2.029
 2860SOL     OW 9478   1.375   6.410   2.852
 2860SOL    HW1 9479   1.329   6.329   2.816
 2860SOL    HW2 9480   1.306   6.471   2.892
 2861SOL     OW 9481   5.619   3.168   5.165
 2861SOL    HW1 9482   5.552   3.242   5.167
 2861SOL    HW2 9483   5.631   3.131   5.258
 2862SOL     OW 9484   4.678   1.182   0.637
 2862SOL    HW1 9485   4.637   1.153   0.723
 2862SOL    HW2 9486   4.776   1.162   0.639
 2863SOL     OW 9487   5.699   1.392   6.354
 2863SOL    HW1 9488   5.667   1.324   6.288
 2863SOL    HW2 9489   5.621   1.426   6.406
 2864SOL     OW 9490   4.510   4.750   1.017
 2864SOL    HW1 9491   4.548   4.784   0.931
 2864SOL    HW2 9492   4.437   4.685   0.997
 2865SOL     OW 9493   5.978   3.985   6.262
 2865SOL    HW1 9494   5.998   4.065   6.319
 2865SOL    HW2 9495   6.054   3.919   6.269
 2866SOL     OW 9496   4.551   5.762   1.215
 2866SOL    HW1 9497   4.508   5.723   1.296
 2866SOL    HW2 9498   4.560   5.861   1.227
 2867SOL     OW 9499   0.301   5.796   3.415
 2867SOL    HW1 9500   0.371   5.855   3.374
 2867SOL    HW2 9501   0.336   5.757   3.501
 2868SOL     OW 9502   6.806   0.330   5.445
 2868SOL    HW1 9503   6.884   0.284   5.404
 2868SOL    HW2 9504   6.838   0.400   5.510
 2869SOL     OW 9505   5.739   4.436   5.129
 2869SOL    HW1 9506   5.799   4.416   5.052
 2869SOL    HW2 9507   5.644   4.435   5.098
 2870SOL     OW 9508   0.364   1.149   1.411
 2870SOL    HW1 9509   0.293   1.084   1.385
 2870SOL    HW2 9510   0.384   1.209   1.333
 2871SOL     OW 9511   4.591   1.272   3.122
 2871SOL    HW1 9512   4.516   1.337   3.105
 2871SOL    HW2 9513   4.657   1.313   3.186
 2872SOL     OW 9514   3.534   1.507   2.555
 2872SOL    HW1 9515   3.588   1.579   2.597
 2872SOL    HW2 9516   3.581   1.473   2.474
 2873SOL     OW 9517   6.885   0.215   2.761
 2873SOL    HW1 9518   6.915   0.146   2.694
 2873SOL    HW2 9519   6.791   0.240   2.742
 2874SOL     OW 9520   1.594   0.926   2.194
 2874SOL    HW1 9521   1.666   0.875   2.240
 2874SOL    HW2 9522   1.634   0.993   2.132
 2875SOL     OW 9523   3.118   0.344   2.278
 2875SOL    HW1 9524   3.115   0.278   2.203
 2875SOL    HW2 9525   3.179   0.311   2.349
 2876SOL     OW 9526   1.515   0.133   1.133
 2876SOL    HW1 9527   1.460   0.177   1.062
 2876SOL    HW2 9528   1.456   0.112   1.212
 2877SOL     OW 9529   1.010   3.517   6.940
 2877SOL    HW1 9530   0.967   3.527   6.851
 2877SOL    HW2 9531   1.010   3.420   6.967
 2878SOL     OW 9532   3.682   3.742   4.910
 2878SOL    HW1 9533   3.635   3.793   4.838
 2878SOL    HW2 9534   3.762   3.793   4.940
 2879SOL     OW 9535   6.128   5.834   0.270
 2879SOL    HW1 9536   6.208   5.806   0.323
 2879SOL    HW2 9537   6.144   5.924   0.230
 2880SOL     OW 9538   1.489   1.876   2.897
 2880SOL    HW1 9539   1.414   1.810   2.891
 2880SOL    HW2 9540   1.467   1.957   2.842
 2881SOL     OW 9541   5.366   4.932   6.959
 2881SOL    HW1 9542   5.429   4.881   7.018
 2881SOL    HW2 9543   5.416   4.972   6.882
 2882SOL     OW 9544   4.983   6.545   6.935
 2882SOL    HW1 9545   5.033   6.631   6.927
 2882SOL    HW2 9546   5.030   6.485   7.000
 2883SOL     OW 9547   5.115   6.527   3.208
 2883SOL    HW1 9548   5.065   6.557   3.126
 2883SOL    HW2 9549   5.208   6.563   3.205
 2884SOL     OW 9550   6.618   5.512   3.761
 2884SOL    HW1 9551   6.532   5.483   3.805
 2884SOL    HW2 9552   6.689   5.522   3.831
 2885SOL     OW 9553   0.513   3.980   3.209
 2885SOL    HW1 9554   0.560   3.981   3.121
 2885SOL    HW2 9555   0.465   4.067   3.222
 2886SOL     OW 9556   2.035   4.472   5.134
 2886SOL    HW1 9557   1.937   4.482   5.149
 2886SOL    HW2 9558   2.058   4.376   5.120
 2887SOL     OW 9559   6.850   4.722   3.070
 2887SOL    HW1 9560   6.912   4.654   3.031
 2887SOL    HW2 9561   6.869   4.733   3.168
 2888SOL     OW 9562   4.384   5.980   6.813
 2888SOL    HW1 9563   4.399   6.012   6.907
 2888SOL    HW2 9564   4.460   5.922   6.785
 2889SOL     OW 9565   4.022   5.096   3.656
 2889SOL    HW1 9566   3.947   5.029   3.662
 2889SOL    HW2 9567   4.103   5.059   3.702
 2890SOL     OW 9568   1.225   1.793   0.782
 2890SOL    HW1 9569   1.178   1.874   0.746
 2890SOL    HW2 9570   1.159   1.730   0.821
 2891SOL     OW 9571   1.367   1.744   5.467
 2891SOL    HW1 9572   1.390   1.652   5.436
 2891SOL    HW2 9573   1.441   1.780   5.524
 2892SOL     OW 9574   5.847   3.906   2.275
 2892SOL    HW1 9575   5.753   3.880   2.252
 2892SOL    HW2 9576   5.874   3.860   2.360
 2893SOL     OW 9577   6.644   6.177   5.085
 2893SOL    HW1 9578   6.596   6.092   5.065
 2893SOL    HW2 9579   6.597   6.226   5.157
 2894SOL     OW 9580   1.779   5.482   1.461
 2894SOL    HW1 9581   1.692   5.445   1.493
 2894SOL    HW2 9582   1.764   5.568   1.414
 2895SOL     OW 9583   4.663   6.273   6.351
 2895SOL    HW1 9584   4.676   6.329   6.433
 2895SOL    HW2 9585   4.738   6.290   6.287
 2896SOL     OW 9586   6.765   6.757   6.198
 2896SOL    HW1 9587   6.686   6.702   6.225
 2896SOL    HW2 9588   6.745   6.854   6.213
 2897SOL     OW 9589   2.857   6.307   3.603
 2897SOL    HW1 9590   2.929   6.277   3.540
 2897SOL    HW2 9591   2.821   6.227   3.651
 2898SOL     OW 9592   5.323   2.391   2.510
 2898SOL    HW1 9593   5.243   2.350   2.554
 2898SOL    HW2 9594   5.328   2.359   2.415
 2899SOL     OW 9595   6.582   2.553   1.148
 2899SOL    HW1 9596   6.559   2.482   1.081
 2899SOL    HW2 9597   6.679   2.577   1.139
 2900SOL     OW 9598   3.206   2.965   5.031
 2900SOL    HW1 9599   3.229   2.868   5.031
 2900SOL    HW2 9600   3.126   2.981   5.089
 2901SOL     OW 9601   1.182   3.454   1.198
 2901SOL    HW1 9602   1.275   3.491   1.191
 2901SOL    HW2 9603   1.175   3.371   1.143
 2902SOL     OW 9604   5.178   6.109   3.450
 2902SOL    HW1 9605   5.107   6.169   3.486
 2902SOL    HW2 9606   5.219   6.057   3.526
 2903SOL     OW 9607   0.739   5.493   1.638
 2903SOL    HW1 9608   0.645   5.460   1.626
 2903SOL    HW2 9609   0.790   5.430   1.697
 2904SOL     OW 9610   2.997   4.814   4.078
 2904SOL    HW1 9611   3.053   4.839   4.157
 2904SOL    HW2 9612   3.049   4.752   4.019
 2905SOL     OW 9613   1.298   4.615   1.594
 2905SOL    HW1 9614   1.332   4.709   1.603
 2905SOL    HW2 9615   1.332   4.561   1.671
 2906SOL     OW 9616   6.665   6.279   6.182
 2906SOL    HW1 9617   6.694   6.194   6.137
 2906SOL    HW2 9618   6.643   6.259   6.278
 2907SOL     OW 9619   6.760   1.165   5.901
 2907SOL    HW1 9620   6.821   1.128   5.830
 2907SOL    HW2 9621   6.673   1.117   5.898
 2908SOL     OW 9622   3.665   5.983   3.611
 2908SOL    HW1 9623   3.692   6.063   3.665
 2908SOL    HW2 9624   3.742   5.919   3.603
 2909SOL     OW 9625   0.290   6.347   1.087
 2909SOL    HW1 9626   0.360   6.356   1.017
 2909SOL    HW2 9627   0.242   6.434   1.098
 2910SOL     OW 9628   1.162   0.078   4.610
 2910SOL    HW1 9629   1.229   0.141   4.570
 2910SOL    HW2 9630   1.198   0.042   4.697
 2911SOL     OW 9631   6.827   3.435   3.496
 2911SOL    HW1 9632   6.851   3.531   3.481
 2911SOL    HW2 9633   6.891   3.377   3.447
 2912SOL     OW 9634   0.344   1.449   3.057
 2912SOL    HW1 9635   0.246   1.440   3.071
 2912SOL    HW2 9636   0.361   1.505   2.976
 2913SOL     OW 9637   1.140   6.667   4.274
 2913SOL    HW1 9638   1.042   6.646   4.283
 2913SOL    HW2 9639   1.180   6.680   4.364
 2914SOL     OW 9640   4.030   4.481   1.023
 2914SOL    HW1 9641   4.053   4.454   1.116
 2914SOL    HW2 9642   3.935   4.456   1.003
 2915SOL     OW 9643   2.330   0.658   3.864
 2915SOL    HW1 9644   2.374   0.727   3.807
 2915SOL    HW2 9645   2.357   0.567   3.834
 2916SOL     OW 9646   0.576   5.754   6.323
 2916SOL    HW1 9647   0.672   5.754   6.353
 2916SOL    HW2 9648   0.539   5.847   6.332
 2917SOL     OW 9649   1.748   1.214   3.630
 2917SOL    HW1 9650   1.785   1.283   3.568
 2917SOL    HW2 9651   1.726   1.131   3.579
 2918SOL     OW 9652   5.155   1.321   1.163
 2918SOL    HW1 9653   5.220   1.245   1.168
 2918SOL    HW2 9654   5.183   1.384   1.091
 2919SOL     OW 9655   0.726   5.617   4.972
 2919SOL    HW1 9656   0.657   5.546   4.967
 2919SOL    HW2 9657   0.697   5.696   4.918
 2920SOL     OW 9658   2.870   2.269   1.678
 2920SOL    HW1 9659   2.878   2.327   1.760
 2920SOL    HW2 9660   2.934   2.193   1.685
 2921SOL     OW 9661   0.075   5.349   3.505
 2921SOL    HW1 9662   0.140   5.416   3.470
 2921SOL    HW2 9663   7.012   5.356   3.453
 2922SOL     OW 9664   4.288   4.946   3.432
 2922SOL    HW1 9665   4.198   4.913   3.404
 2922SOL    HW2 9666   4.285   5.046   3.441
 2923SOL     OW 9667   1.537   4.696   3.721
 2923SOL    HW1 9668   1.571   4.779   3.676
 2923SOL    HW2 9669   1.571   4.692   3.815
 2924SOL     OW 9670   5.153   1.433   0.147
 2924SOL    HW1 9671   5.165   1.472   0.056
 2924SOL    HW2 9672   5.185   1.500   0.216
 2925SOL     OW 9673   5.472   6.726   4.788
 2925SOL    HW1 9674   5.454   6.820   4.759
 2925SOL    HW2 9675   5.471   6.665   4.708
 2926SOL     OW 9676   6.920   2.445   4.899
 2926SOL    HW1 9677   6.861   2.485   4.829
 2926SOL    HW2 9678   7.016   2.459   4.874
 2927SOL     OW 9679   0.933   1.989   2.221
 2927SOL    HW1 9680   0.908   1.945   2.135
 2927SOL    HW2 9681   1.025   1.962   2.247
 2928SOL     OW 9682   5.117   4.919   0.287
 2928SOL    HW1 9683   5.148   4.829   0.320
 2928SOL    HW2 9684   5.057   4.906   0.208
 2929SOL     OW 9685   1.729   1.743   2.946
 2929SOL    HW1 9686   1.644   1.788   2.918
 2929SOL    HW2 9687   1.803   1.771   2.885
 2930SOL     OW 9688   0.502   3.180   4.344
 2930SOL    HW1 9689   0.471   3.098   4.296
 2930SOL    HW2 9690   0.468   3.261   4.298
 2931SOL     OW 9691   5.668   3.816   5.661
 2931SOL    HW1 9692   5.762   3.850   5.670
 2931SOL    HW2 9693   5.604   3.892   5.673
 2932SOL     OW 9694   6.875   6.664   0.671
 2932SOL    HW1 9695   6.961   6.673   0.720
 2932SOL    HW2 9696   6.808   6.619   0.729
 2933SOL     OW 9697   0.789   0.608   6.868
 2933SOL    HW1 9698   0.719   0.569   6.928
 2933SOL    HW2 9699   0.784   0.708   6.871
 2934SOL     OW 9700   6.063   5.181   2.609
 2934SOL    HW1 9701   6.065   5.148   2.703
 2934SOL    HW2 9702   6.037   5.106   2.548
 2935SOL     OW 9703   0.905   4.568   6.089
 2935SOL    HW1 9704   0.940   4.475   6.103
 2935SOL    HW2 9705   0.893   4.585   5.992
 2936SOL     OW 9706   4.430   6.439   2.736
 2936SOL    HW1 9707   4.406   6.489   2.819
 2936SOL    HW2 9708   4.398   6.344   2.744
 2937SOL     OW 9709   6.263   3.270   3.325
 2937SOL    HW1 9710   6.171   3.309   3.316
 2937SOL    HW2 9711   6.255   3.173   3.351
 2938SOL     OW 9712   0.436   5.458   1.606
 2938SOL    HW1 9713   0.403   5.533   1.549
 2938SOL    HW2 9714   0.402   5.371   1.570
 2939SOL     OW 9715   5.580   6.233   2.222
 2939SOL    HW1 9716   5.548   6.276   2.306
 2939SOL    HW2 9717   5.614   6.141   2.243
 2940SOL     OW 9718   4.876   5.637   3.500
 2940SOL    HW1 9719   4.786   5.680   3.510
 2940SOL    HW2 9720   4.935   5.697   3.446
 2941SOL     OW 9721   2.903   5.184   2.355
 2941SOL    HW1 9722   2.846   5.157   2.433
 2941SOL    HW2 9723   2.987   5.129   2.354
 2942SOL     OW 9724   3.315   1.733   1.310
 2942SOL    HW1 9725   3.345   1.718   1.216
 2942SOL    HW2 9726   3.272   1.650   1.345
 2943SOL     OW 9727   0.417   4.149   3.947
 2943SOL    HW1 9728   0.345   4.082   3.965
 2943SOL    HW2 9729   0.412   4.222   4.016
 2944SOL     OW 9730   0.793   5.269   3.256
 2944SOL    HW1 9731   0.794   5.260   3.356
 2944SOL    HW2 9732   0.773   5.180   3.216
 2945SOL     OW 9733   5.853   3.736   0.468
 2945SOL    HW1 9734   5.928   3.733   0.403
 2945SOL    HW2 9735   5.787   3.664   0.447
 2946SOL     OW 9736   3.115   4.026   4.524
 2946SOL    HW1 9737   3.062   4.106   4.498
 2946SOL    HW2 9738   3.111   4.013   4.623
 2947SOL     OW 9739   6.571   6.313   0.518
 2947SOL    HW1 9740   6.559   6.244   0.447
 2947SOL    HW2 9741   6.669   6.330   0.530
 2948SOL     OW 9742   5.972   4.252   0.680
 2948SOL    HW1 9743   6.054   4.229   0.627
 2948SOL    HW2 9744   5.995   4.321   0.749
 2949SOL     OW 9745   1.872   5.834   1.138
 2949SOL    HW1 9746   1.949   5.845   1.202
 2949SOL    HW2 9747   1.795   5.793   1.185
 2950SOL     OW 9748   5.733   5.276   1.998
 2950SOL    HW1 9749   5.704   5.354   2.054
 2950SOL    HW2 9750   5.833   5.274   1.994
 2951SOL     OW 9751   0.697   2.378   0.954
 2951SOL    HW1 9752   0.785   2.330   0.952
 2951SOL    HW2 9753   0.713   2.475   0.972
 2952SOL     OW 9754   0.738   1.718   4.739
 2952SOL    HW1 9755   0.693   1.804   4.713
 2952SOL    HW2 9756   0.697   1.683   4.823
 2953SOL     OW 9757   1.468   5.662   3.053
 2953SOL    HW1 9758   1.444   5.740   2.996
 2953SOL    HW2 9759   1.430   5.578   3.013
 2954SOL     OW 9760   0.577   4.456   6.098
 2954SOL    HW1 9761   0.518   4.523   6.143
 2954SOL    HW2 9762   0.614   4.495   6.014
 2955SOL     OW 9763   1.535   4.695   5.984
 2955SOL    HW1 9764   1.626   4.717   5.947
 2955SOL    HW2 9765   1.506   4.768   6.046
 2956SOL     OW 9766   5.972   3.668   5.003
 2956SOL    HW1 9767   5.993   3.628   4.914
 2956SOL    HW2 9768   6.019   3.755   5.012
 2957SOL     OW 9769   1.743   4.977   1.975
 2957SOL    HW1 9770   1.727   4.973   2.073
 2957SOL    HW2 9771   1.801   4.901   1.946
 2958SOL     OW 9772   2.095   3.929   1.068
 2958SOL    HW1 9773   2.028   3.940   1.141
 2958SOL    HW2 9774   2.154   4.009   1.064
 2959SOL     OW 9775   0.332   4.274   4.233
 2959SOL    HW1 9776   0.426   4.305   4.234
 2959SOL    HW2 9777   0.271   4.351   4.252
 2960SOL     OW 9778   4.918   6.420   0.731
 2960SOL    HW1 9779   4.831   6.418   0.682
 2960SOL    HW2 9780   4.908   6.473   0.815
 2961SOL     OW 9781   5.913   2.037   0.873
 2961SOL    HW1 9782   5.909   2.136   0.867
 2961SOL    HW2 9783   5.946   2.010   0.964
 2962SOL     OW 9784   6.787   0.515   4.013
 2962SOL    HW1 9785   6.833   0.438   4.058
 2962SOL    HW2 9786   6.706   0.483   3.965
 2963SOL     OW 9787   2.034   1.995   6.007
 2963SOL    HW1 9788   1.953   2.023   5.955
 2963SOL    HW2 9789   2.101   1.955   5.944
 2964SOL     OW 9790   0.841   1.019   5.841
 2964SOL    HW1 9791   0.895   1.058   5.766
 2964SOL    HW2 9792   0.900   1.003   5.920
 2965SOL     OW 9793   5.777   0.357   6.088
 2965SOL    HW1 9794   5.832   0.381   6.009
 2965SOL    HW2 9795   5.835   0.314   6.158
 2966SOL     OW 9796   3.243   6.819   3.118
 2966SOL    HW1 9797   3.294   6.739   3.147
 2966SOL    HW2 9798   3.265   6.896   3.178
 2967SOL     OW 9799   5.820   6.975   5.318
 2967SOL    HW1 9800   5.809   6.958   5.220
 2967SOL    HW2 9801   5.772   6.905   5.370
 2968SOL     OW 9802   1.403   3.688   1.697
 2968SOL    HW1 9803   1.440   3.761   1.755
 2968SOL    HW2 9804   1.444   3.600   1.723
 2969SOL     OW 9805   4.244   1.952   4.939
 2969SOL    HW1 9806   4.335   1.958   4.980
 2969SOL    HW2 9807   4.195   2.038   4.955
 2970SOL     OW 9808   3.253   2.204   6.070
 2970SOL    HW1 9809   3.273   2.289   6.022
 2970SOL    HW2 9810   3.328   2.183   6.133
 2971SOL     OW 9811   4.407   3.339   5.529
 2971SOL    HW1 9812   4.467   3.377   5.459
 2971SOL    HW2 9813   4.330   3.400   5.544
 2972SOL     OW 9814   0.834   5.826   6.343
 2972SOL    HW1 9815   0.893   5.746   6.334
 2972SOL    HW2 9816   0.890   5.908   6.346
 2973SOL     OW 9817   5.711   0.234   4.074
 2973SOL    HW1 9818   5.680   0.143   4.046
 2973SOL    HW2 9819   5.789   0.262   4.019
 2974SOL     OW 9820   4.881   5.757   2.488
 2974SOL    HW1 9821   4.915   5.663   2.496
 2974SOL    HW2 9822   4.800   5.758   2.429
 2975SOL     OW 9823   0.368   3.415   4.571
 2975SOL    HW1 9824   0.449   3.432   4.514
 2975SOL    HW2 9825   0.395   3.367   4.654
 2976SOL     OW 9826   3.951   0.501   1.107
 2976SOL    HW1 9827   3.978   0.587   1.064
 2976SOL    HW2 9828   3.928   0.434   1.036
 2977SOL     OW 9829   1.600   1.378   2.553
 2977SOL    HW1 9830   1.557   1.322   2.482
 2977SOL    HW2 9831   1.676   1.328   2.594
 2978SOL     OW 9832   3.223   5.988   0.416
 2978SOL    HW1 9833   3.240   5.892   0.439
 2978SOL    HW2 9834   3.220   6.042   0.500
 2979SOL     OW 9835   2.191   1.698   5.721
 2979SOL    HW1 9836   2.200   1.672   5.817
 2979SOL    HW2 9837   2.116   1.648   5.680
 2980SOL     OW 9838   2.875   3.509   3.402
 2980SOL    HW1 9839   2.869   3.525   3.304
 2980SOL    HW2 9840   2.951   3.447   3.421
 2981SOL     OW 9841   2.856   1.936   1.878
 2981SOL    HW1 9842   2.848   1.893   1.788
 2981SOL    HW2 9843   2.923   2.010   1.874
 2982SOL     OW 9844   0.932   0.223   2.755
 2982SOL    HW1 9845   0.993   0.212   2.677
 2982SOL    HW2 9846   0.884   0.137   2.772
 2983SOL     OW 9847   6.097   2.545   6.389
 2983SOL    HW1 9848   6.183   2.571   6.344
 2983SOL    HW2 9849   6.053   2.627   6.427
 2984SOL     OW 9850   1.046   6.411   1.242
 2984SOL    HW1 9851   1.044   6.505   1.207
 2984SOL    HW2 9852   0.960   6.365   1.220
 2985SOL     OW 9853   6.939   6.948   5.572
 2985SOL    HW1 9854   6.885   6.941   5.655
 2985SOL    HW2 9855   7.001   0.004   5.579
 2986SOL     OW 9856   4.147   3.402   2.794
 2986SOL    HW1 9857   4.098   3.463   2.732
 2986SOL    HW2 9858   4.221   3.356   2.745
 2987SOL     OW 9859   2.551   6.619   5.325
 2987SOL    HW1 9860   2.580   6.715   5.323
 2987SOL    HW2 9861   2.451   6.615   5.323
 2988SOL     OW 9862   0.724   2.078   6.580
 2988SOL    HW1 9863   0.815   2.061   6.617
 2988SOL    HW2 9864   0.701   2.175   6.593
 2989SOL     OW 9865   5.563   3.630   6.176
 2989SOL    HW1 9866   5.562   3.726   6.148
 2989SOL    HW2 9867   5.654   3.607   6.212
 2990SOL     OW 9868   4.734   1.484   4.862
 2990SOL    HW1 9869   4.756   1.388   4.874
 2990SOL    HW2 9870   4.767   1.536   4.941
 2991SOL     OW 9871   6.577   2.691   0.177
 2991SOL    HW1 9872   6.555   2.617   0.240
 2991SOL    HW2 9873   6.496   2.745   0.160
 2992SOL     OW 9874   1.990   3.777   4.883
 2992SOL    HW1 9875   2.015   3.873   4.894
 2992SOL    HW2 9876   1.927   3.750   4.957
 2993SOL     OW 9877   3.876   5.144   6.535
 2993SOL    HW1 9878   3.949   5.175   6.595
 2993SOL    HW2 9879   3.846   5.053   6.563
 2994SOL     OW 9880   2.747   5.025   4.307
 2994SOL    HW1 9881   2.738   4.933   4.270
 2994SOL    HW2 9882   2.691   5.033   4.390
 2995SOL     OW 9883   4.949   0.377   2.235
 2995SOL    HW1 9884   4.962   0.277   2.237
 2995SOL    HW2 9885   4.935   0.410   2.329
 2996SOL     OW 9886   0.326   0.615   3.815
 2996SOL    HW1 9887   0.289   0.578   3.901
 2996SOL    HW2 9888   0.318   0.714   3.815
 2997SOL     OW 9889   4.915   5.766   3.966
 2997SOL    HW1 9890   4.847   5.810   3.907
 2997SOL    HW2 9891   4.900   5.667   3.965
 2998SOL     OW 9892   2.913   0.157   1.918
 2998SOL    HW1 9893   2.833   0.129   1.866
 2998SOL    HW2 9894   2.921   0.257   1.914
 2999SOL     OW 9895   2.005   5.206   0.374
 2999SOL    HW1 9896   2.092   5.254   0.365
 2999SOL    HW2 9897   1.932   5.260   0.331
 3000SOL     OW 9898   1.888   4.026   6.451
 3000SOL    HW1 9899   1.865   3.929   6.449
 3000SOL    HW2 9900   1.960   4.045   6.384
 3001SOL     OW 9901   3.446   0.273   6.323
 3001SOL    HW1 9902   3.373   0.334   6.292
 3001SOL    HW2 9903   3.422   0.235   6.413
 3002SOL     OW 9904   1.282   1.883   2.050
 3002SOL    HW1 9905   1.283   1.902   2.149
 3002SOL    HW2 9906   1.202   1.924   2.009
 3003SOL     OW 9907   1.893   6.295   0.158
 3003SOL    HW1 9908   1.875   6.222   0.092
 3003SOL    HW2 9909   1.814   6.356   0.162
 3004SOL     OW 9910   2.993   0.675   5.030
 3004SOL    HW1 9911   2.980   0.685   4.931
 3004SOL    HW2 9912   3.081   0.632   5.048
 3005SOL     OW 9913   2.703   1.681   0.008
 3005SOL    HW1 9914   2.792   1.688   0.054
 3005SOL    HW2 9915   2.642   1.623   0.063
 3006SOL     OW 9916   5.783   0.793   5.828
 3006SOL    HW1 9917   5.851   0.740   5.877
 3006SOL    HW2 9918   5.825   0.877   5.792
 3007SOL     OW 9919   6.171   5.666   5.599
 3007SOL    HW1 9920   6.233   5.670   5.520
 3007SOL    HW2 9921   6.203   5.595   5.662
 3008SOL     OW 9922   5.569   3.939   5.359
 3008SOL    HW1 9923   5.563   3.918   5.261
 3008SOL    HW2 9924   5.661   3.917   5.392
 3009SOL     OW 9925   5.375   3.473   1.674
 3009SOL    HW1 9926   5.296   3.452   1.732
 3009SOL    HW2 9927   5.347   3.469   1.578
 3010SOL     OW 9928   4.299   4.463   1.493
 3010SOL    HW1 9929   4.394   4.488   1.477
 3010SOL    HW2 9930   4.284   4.447   1.591
 3011SOL     OW 9931   6.108   0.047   0.724
 3011SOL    HW1 9932   6.090   0.138   0.686
 3011SOL    HW2 9933   6.055   0.035   0.807
 3012SOL     OW 9934   1.893   1.809   4.668
 3012SOL    HW1 9935   1.871   1.902   4.695
 3012SOL    HW2 9936   1.928   1.809   4.574
 3013SOL     OW 9937   0.238   5.379   5.036
 3013SOL    HW1 9938   0.331   5.397   5.003
 3013SOL    HW2 9939   0.194   5.312   4.976
 3014SOL     OW 9940   4.016   0.307   0.465
 3014SOL    HW1 9941   4.024   0.300   0.366
 3014SOL    HW2 9942   4.030   0.217   0.506
 3015SOL     OW 9943   2.253   6.718   6.428
 3015SOL    HW1 9944   2.298   6.796   6.386
 3015SOL    HW2 9945   2.316   6.640   6.430
 3016SOL     OW 9946   3.151   0.823   4.716
 3016SOL    HW1 9947   3.055   0.798   4.702
 3016SOL    HW2 9948   3.184   0.777   4.799
 3017SOL     OW 9949   1.604   6.220   0.369
 3017SOL    HW1 9950   1.677   6.237   0.435
 3017SOL    HW2 9951   1.605   6.124   0.341
 3018SOL     OW 9952   2.347   2.791   1.921
 3018SOL    HW1 9953   2.318   2.821   2.012
 3018SOL    HW2 9954   2.295   2.710   1.895
 3019SOL     OW 9955   0.726   1.329   5.577
 3019SOL    HW1 9956   0.801   1.388   5.545
 3019SOL    HW2 9957   0.764   1.250   5.624
 3020SOL     OW 9958   5.810   3.856   6.459
 3020SOL    HW1 9959   5.853   3.920   6.396
 3020SOL    HW2 9960   5.714   3.883   6.473
 3021SOL     OW 9961   4.394   6.730   4.571
 3021SOL    HW1 9962   4.426   6.667   4.500
 3021SOL    HW2 9963   4.342   6.679   4.640
 3022SOL     OW 9964   3.726   6.658   2.416
 3022SOL    HW1 9965   3.759   6.568   2.444
 3022SOL    HW2 9966   3.626   6.657   2.413
 3023SOL     OW 9967   4.940   4.335   4.877
 3023SOL    HW1 9968   4.967   4.403   4.944
 3023SOL    HW2 9969   4.943   4.375   4.785
 3024SOL     OW 9970   6.191   1.464   6.543
 3024SOL    HW1 9971   6.100   1.475   6.503
 3024SOL    HW2 9972   6.196   1.516   6.629
 3025SOL     OW 9973   4.015   5.359   0.808
 3025SOL    HW1 9974   3.970   5.448   0.795
 3025SOL    HW2 9975   4.079   5.365   0.884
 3026SOL     OW 9976   0.140   6.816   2.683
 3026SOL    HW1 9977   0.217   6.847   2.739
 3026SOL    HW2 9978   0.159   6.835   2.587
 3027SOL     OW 9979   4.268   0.128   0.749
 3027SOL    HW1 9980   4.298   0.208   0.801
 3027SOL    HW2 9981   4.334   0.110   0.676
 3028SOL     OW 9982   4.141   3.530   3.892
 3028SOL    HW1 9983   4.187   3.615   3.918
 3028SOL    HW2 9984   4.121   3.477   3.975
 3029SOL     OW 9985   0.251   2.434   4.900
 3029SOL    HW1 9986   0.310   2.507   4.934
 3029SOL    HW2 9987   0.277   2.412   4.806
 3030SOL     OW 9988   0.345   3.829   6.467
 3030SOL    HW1 9989   0.246   3.824   6.473
 3030SOL    HW2 9990   0.374   3.810   6.373
 3031SOL     OW 9991   0.487   4.894   6.797
 3031SOL    HW1 9992   0.428   4.825   6.838
 3031SOL    HW2 9993   0.478   4.892   6.698
 3032SOL     OW 9994   3.877   6.800   3.796
 3032SOL    HW1 9995   3.862   6.772   3.701
 3032SOL    HW2 9996   3.974   6.815   3.811
 3033SOL     OW 9997   2.096   0.707   6.831
 3033SOL    HW1 9998   2.151   0.633   6.793
 3033SOL    HW2 9999   2.153   0.789   6.841
 3034SOL     OW10000   5.038   3.382   3.162
 3034SOL    HW110001   4.993   3.314   3.105
 3034SOL    HW210002   5.037   3.470   3.116
 3035SOL     OW10003   6.772   4.357   6.661
 3035SOL    HW110004   6.708   4.376   6.736
 3035SOL    HW210005   6.824   4.274   6.682
 3036SOL     OW10006   2.763   2.579   6.525
 3036SOL    HW110007   2.837   2.631   6.482
 3036SOL    HW210008   2.751   2.492   6.478
 3037SOL     OW10009   0.372   5.322   5.994
 3037SOL    HW110010   0.455   5.295   5.945
 3037SOL    HW210011   0.389   5.315   6.093
 3038SOL     OW10012   5.707   4.833   5.171
 3038SOL    HW110013   5.737   4.749   5.217
 3038SOL    HW210014   5.741   4.834   5.077
 3039SOL     OW10015   6.344   3.267   6.558
 3039SOL    HW110016   6.279   3.297   6.488
 3039SOL    HW210017   6.369   3.345   6.616
 3040SOL     OW10018   3.835   6.508   6.502
 3040SOL    HW110019   3.841   6.438   6.430
 3040SOL    HW210020   3.748   6.499   6.551
 3041SOL     OW10021   2.483   5.962   6.378
 3041SOL    HW110022   2.505   5.984   6.283
 3041SOL    HW210023   2.387   5.936   6.385
 3042SOL     OW10024   0.612   5.303   4.274
 3042SOL    HW110025   0.543   5.284   4.203
 3042SOL    HW210026   0.604   5.235   4.347
 3043SOL     OW10027   2.332   3.514   0.949
 3043SOL    HW110028   2.385   3.516   1.034
 3043SOL    HW210029   2.235   3.523   0.970
 3044SOL     OW10030   4.078   3.798   3.981
 3044SOL    HW110031   4.029   3.886   3.986
 3044SOL    HW210032   4.030   3.731   4.037
 3045SOL     OW10033   5.824   0.181   3.372
 3045SOL    HW110034   5.777   0.216   3.290
 3045SOL    HW210035   5.764   0.115   3.419
 3046SOL     OW10036   6.757   5.584   1.502
 3046SOL    HW110037   6.675   5.641   1.491
 3046SOL    HW210038   6.826   5.612   1.435
 3047SOL     OW10039   4.301   1.889   3.767
 3047SOL    HW110040   4.213   1.871   3.810
 3047SOL    HW210041   4.299   1.858   3.672
 3048SOL     OW10042   4.290   4.766   1.193
 3048SOL    HW110043   4.279   4.848   1.249
 3048SOL    HW210044   4.381   4.766   1.153
 3049SOL     OW10045   0.327   0.869   1.091
 3049SOL    HW110046   0.298   0.955   1.049
 3049SOL    HW210047   0.425   0.856   1.075
 3050SOL     OW10048   3.746   2.647   5.429
 3050SOL    HW110049   3.668   2.607   5.382
 3050SOL    HW210050   3.718   2.681   5.519
 3051SOL     OW10051   2.090   4.084   6.260
 3051SOL    HW110052   2.109   3.998   6.213
 3051SOL    HW210053   2.129   4.160   6.208
 3052SOL     OW10054   6.279   6.145   3.974
 3052SOL    HW110055   6.206   6.106   4.030
 3052SOL    HW210056   6.309   6.231   4.014
 3053SOL     OW10057   0.361   5.651   5.901
 3053SOL    HW110058   0.334   5.584   5.970
 3053SOL    HW210059   0.285   5.711   5.880
 3054SOL     OW10060   6.113   6.715   3.411
 3054SOL    HW110061   6.173   6.795   3.407
 3054SOL    HW210062   6.020   6.745   3.435
 3055SOL     OW10063   5.588   6.594   0.696
 3055SOL    HW110064   5.580   6.499   0.668
 3055SOL    HW210065   5.538   6.652   0.632
 3056SOL     OW10066   4.663   2.007   0.964
 3056SOL    HW110067   4.698   2.071   1.033
 3056SOL    HW210068   4.740   1.962   0.919
 3057SOL     OW10069   6.850   2.647   3.144
 3057SOL    HW110070   6.890   2.693   3.224
 3057SOL    HW210071   6.890   2.555   3.136
 3058SOL     OW10072   5.376   3.514   6.713
 3058SOL    HW110073   5.338   3.432   6.669
 3058SOL    HW210074   5.433   3.563   6.647
 3059SOL     OW10075   1.934   2.765   3.278
 3059SOL    HW110076   1.980   2.733   3.362
 3059SOL    HW210077   1.913   2.862   3.287
 3060SOL     OW10078   6.197   3.178   3.968
 3060SOL    HW110079   6.214   3.170   4.066
 3060SOL    HW210080   6.109   3.137   3.946
 3061SOL     OW10081   5.160   5.978   2.977
 3061SOL    HW110082   5.144   5.998   3.073
 3061SOL    HW210083   5.167   6.064   2.926
 3062SOL     OW10084   3.855   5.252   7.010
 3062SOL    HW110085   3.844   5.173   6.950
 3062SOL    HW210086   3.823   5.229   0.080
 3063SOL     OW10087   6.205   5.616   1.182
 3063SOL    HW110088   6.268   5.595   1.107
 3063SOL    HW210089   6.258   5.640   1.264
 3064SOL     OW10090   5.067   1.001   5.986
 3064SOL    HW110091   5.121   1.054   6.052
 3064SOL    HW210092   5.128   0.939   5.936
 3065SOL     OW10093   5.092   1.016   6.486
 3065SOL    HW110094   5.167   1.074   6.454
 3065SOL    HW210095   5.006   1.065   6.477
 3066SOL     OW10096   5.247   6.902   5.485
 3066SOL    HW110097   5.293   6.933   5.402
 3066SOL    HW210098   5.155   6.939   5.489
 3067SOL     OW10099   1.304   2.404   4.675
 3067SOL    HW110100   1.215   2.372   4.644
 3067SOL    HW210101   1.376   2.356   4.625
 3068SOL     OW10102   6.191   0.382   1.023
 3068SOL    HW110103   6.213   0.403   1.118
 3068SOL    HW210104   6.162   0.465   0.976
 3069SOL     OW10105   5.354   5.575   3.677
 3069SOL    HW110106   5.259   5.583   3.644
 3069SOL    HW210107   5.355   5.525   3.763
 3070SOL     OW10108   2.967   1.403   0.689
 3070SOL    HW110109   2.877   1.402   0.733
 3070SOL    HW210110   3.038   1.411   0.759
 3071SOL     OW10111   6.410   4.453   4.596
 3071SOL    HW110112   6.373   4.537   4.556
 3071SOL    HW210113   6.484   4.418   4.538
 3072SOL     OW10114   1.828   6.422   4.305
 3072SOL    HW110115   1.899   6.455   4.243
 3072SOL    HW210116   1.850   6.449   4.399
 3073SOL     OW10117   0.343   4.878   3.245
 3073SOL    HW110118   0.294   4.862   3.331
 3073SOL    HW210119   0.278   4.876   3.169
 3074SOL     OW10120   2.993   3.312   2.144
 3074SOL    HW110121   2.965   3.259   2.064
 3074SOL    HW210122   2.974   3.260   2.227
 3075SOL     OW10123   3.837   4.512   0.552
 3075SOL    HW110124   3.786   4.458   0.485
 3075SOL    HW210125   3.917   4.553   0.508
 3076SOL     OW10126   2.188   1.384   4.185
 3076SOL    HW110127   2.147   1.297   4.214
 3076SOL    HW210128   2.141   1.416   4.102
 3077SOL     OW10129   6.549   3.808   2.472
 3077SOL    HW110130   6.628   3.790   2.530
 3077SOL    HW210131   6.485   3.868   2.520
 3078SOL     OW10132   6.367   4.668   1.152
 3078SOL    HW110133   6.395   4.748   1.206
 3078SOL    HW210134   6.316   4.699   1.071
 3079SOL     OW10135   0.255   4.176   2.256
 3079SOL    HW110136   0.321   4.245   2.227
 3079SOL    HW210137   0.245   4.180   2.356
 3080SOL     OW10138   3.665   4.744   1.340
 3080SOL    HW110139   3.687   4.832   1.383
 3080SOL    HW210140   3.716   4.671   1.385
 3081SOL     OW10141   1.821   2.641   6.354
 3081SOL    HW110142   1.819   2.659   6.256
 3081SOL    HW210143   1.870   2.715   6.401
 3082SOL     OW10144   6.079   3.913   5.039
 3082SOL    HW110145   6.049   3.986   4.979
 3082SOL    HW210146   6.150   3.947   5.101
 3083SOL     OW10147   4.137   5.727   1.409
 3083SOL    HW110148   4.081   5.780   1.345
 3083SOL    HW210149   4.226   5.772   1.420
 3084SOL     OW10150   0.420   5.232   4.059
 3084SOL    HW110151   0.355   5.264   3.990
 3084SOL    HW210152   0.400   5.137   4.081
 3085SOL     OW10153   6.887   5.629   5.783
 3085SOL    HW110154   6.861   5.545   5.735
 3085SOL    HW210155   6.922   5.695   5.717
 3086SOL     OW10156   5.958   6.098   6.068
 3086SOL    HW110157   5.979   6.102   6.166
 3086SOL    HW210158   5.978   6.187   6.027
 3087SOL     OW10159   3.272   0.012   1.437
 3087SOL    HW110160   3.322   6.980   1.504
 3087SOL    HW210161   3.277   0.109   1.462
 3088SOL     OW10162   2.398   3.052   5.419
 3088SOL    HW110163   2.439   3.141   5.436
 3088SOL    HW210164   2.434   3.014   5.334
 3089SOL     OW10165   3.858   6.730   0.299
 3089SOL    HW110166   3.887   6.672   0.224
 3089SOL    HW210167   3.931   6.736   0.367
 3090SOL     OW10168   1.705   2.207   2.451
 3090SOL    HW110169   1.704   2.307   2.453
 3090SOL    HW210170   1.746   2.176   2.365
 3091SOL     OW10171   1.068   2.103   6.223
 3091SOL    HW110172   1.139   2.068   6.284
 3091SOL    HW210173   1.105   2.114   6.131
 3092SOL     OW10174   5.145   1.869   3.437
 3092SOL    HW110175   5.070   1.888   3.375
 3092SOL    HW210176   5.232   1.871   3.387
 3093SOL     OW10177   6.456   5.253   6.940
 3093SOL    HW110178   6.504   5.275   6.856
 3093SOL    HW210179   6.453   5.335   6.999
 3094SOL     OW10180   2.237   0.877   6.277
 3094SOL    HW110181   2.334   0.884   6.300
 3094SOL    HW210182   2.195   0.968   6.278
 3095SOL     OW10183   1.737   3.216   5.942
 3095SOL    HW110184   1.710   3.122   5.961
 3095SOL    HW210185   1.791   3.220   5.858
 3096SOL     OW10186   1.812   3.279   3.794
 3096SOL    HW110187   1.910   3.284   3.813
 3096SOL    HW210188   1.763   3.338   3.858
 3097SOL     OW10189   5.069   2.167   6.452
 3097SOL    HW110190   5.058   2.238   6.522
 3097SOL    HW210191   5.122   2.204   6.376
 3098SOL     OW10192   1.851   3.971   2.415
 3098SOL    HW110193   1.778   3.948   2.479
 3098SOL    HW210194   1.822   3.949   2.322
 3099SOL     OW10195   0.187   0.493   5.918
 3099SOL    HW110196   0.104   0.446   5.947
 3099SOL    HW210197   0.175   0.592   5.925
 3100SOL     OW10198   6.186   3.998   2.945
 3100SOL    HW110199   6.148   3.973   3.034
 3100SOL    HW210200   6.189   3.917   2.886
 3101SOL     OW10201   5.394   0.742   4.006
 3101SOL    HW110202   5.353   0.832   3.991
 3101SOL    HW210203   5.322   0.674   4.018
 3102SOL     OW10204   6.028   3.294   3.019
 3102SOL    HW110205   6.013   3.230   3.094
 3102SOL    HW210206   5.940   3.317   2.977
 3103SOL     OW10207   1.362   1.117   2.740
 3103SOL    HW110208   1.321   1.028   2.761
 3103SOL    HW210209   1.300   1.169   2.680
 3104SOL     OW10210   5.694   1.042   6.171
 3104SOL    HW110211   5.638   1.122   6.149
 3104SOL    HW210212   5.647   0.985   6.239
 3105SOL     OW10213   5.542   4.343   0.302
 3105SOL    HW110214   5.606   4.391   0.363
 3105SOL    HW210215   5.472   4.298   0.357
 3106SOL     OW10216   5.389   2.021   5.711
 3106SOL    HW110217   5.304   1.971   5.696
 3106SOL    HW210218   5.413   2.073   5.629
 3107SOL     OW10219   4.440   2.147   4.669
 3107SOL    HW110220   4.481   2.073   4.723
 3107SOL    HW210221   4.409   2.220   4.730
 3108SOL     OW10222   2.458   4.442   4.067
 3108SOL    HW110223   2.418   4.534   4.070
 3108SOL    HW210224   2.452   4.406   3.974
 3109SOL     OW10225   0.201   5.331   3.848
 3109SOL    HW110226   0.113   5.340   3.800
 3109SOL    HW210227   0.227   5.420   3.885
 3110SOL     OW10228   1.559   5.746   4.149
 3110SOL    HW110229   1.507   5.686   4.209
 3110SOL    HW210230   1.505   5.827   4.127
 3111SOL     OW10231   6.913   3.727   4.144
 3111SOL    HW110232   6.977   3.776   4.204
 3111SOL    HW210233   6.904   3.633   4.177
 3112SOL     OW10234   4.314   0.418   1.072
 3112SOL    HW110235   4.368   0.356   1.016
 3112SOL    HW210236   4.247   0.365   1.124
 3113SOL     OW10237   1.404   6.815   3.750
 3113SOL    HW110238   1.369   6.762   3.672
 3113SOL    HW210239   1.370   6.909   3.744
 3114SOL     OW10240   4.890   5.502   5.637
 3114SOL    HW110241   4.961   5.563   5.671
 3114SOL    HW210242   4.833   5.471   5.713
 3115SOL     OW10243   4.848   5.429   4.810
 3115SOL    HW110244   4.942   5.463   4.819
 3115SOL    HW210245   4.843   5.336   4.844
 3116SOL     OW10246   0.825   2.631   6.811
 3116SOL    HW110247   0.737   2.675   6.792
 3116SOL    HW210248   0.816   2.571   6.890
 3117SOL     OW10249   4.433   0.098   1.900
 3117SOL    HW110250   4.374   0.034   1.852
 3117SOL    HW210251   4.528   0.085   1.869
 3118SOL     OW10252   1.013   2.419   3.229
 3118SOL    HW110253   0.990   2.473   3.149
 3118SOL    HW210254   0.982   2.466   3.311
 3119SOL     OW10255   4.433   6.422   3.777
 3119SOL    HW110256   4.491   6.435   3.697
 3119SOL    HW210257   4.490   6.415   3.859
 3120SOL     OW10258   3.598   6.162   6.425
 3120SOL    HW110259   3.502   6.191   6.419
 3120SOL    HW210260   3.624   6.153   6.521
 3121SOL     OW10261   3.899   1.804   3.073
 3121SOL    HW110262   3.878   1.825   2.977
 3121SOL    HW210263   3.994   1.774   3.080
 3122SOL     OW10264   5.355   3.292   6.434
 3122SOL    HW110265   5.407   3.244   6.364
 3122SOL    HW210266   5.356   3.390   6.415
 3123SOL     OW10267   1.644   3.089   2.389
 3123SOL    HW110268   1.740   3.079   2.411
 3123SOL    HW210269   1.622   3.186   2.377
 3124SOL     OW10270   4.995   6.784   5.529
 3124SOL    HW110271   5.021   6.764   5.434
 3124SOL    HW210272   5.010   6.703   5.585
 3125SOL     OW10273   1.774   1.825   4.921
 3125SOL    HW110274   1.691   1.817   4.866
 3125SOL    HW210275   1.833   1.896   4.882
 3126SOL     OW10276   5.029   4.357   5.392
 3126SOL    HW110277   4.935   4.353   5.360
 3126SOL    HW210278   5.059   4.266   5.421
 3127SOL     OW10279   6.210   2.194   5.921
 3127SOL    HW110280   6.121   2.212   5.965
 3127SOL    HW210281   6.202   2.112   5.864
 3128SOL     OW10282   4.684   1.767   1.491
 3128SOL    HW110283   4.656   1.677   1.457
 3128SOL    HW210284   4.625   1.794   1.567
 3129SOL     OW10285   4.426   4.870   0.691
 3129SOL    HW110286   4.515   4.829   0.711
 3129SOL    HW210287   4.386   4.827   0.610
 3130SOL     OW10288   6.383   5.543   2.522
 3130SOL    HW110289   6.473   5.584   2.537
 3130SOL    HW210290   6.389   5.478   2.446
 3131SOL     OW10291   0.368   2.737   3.338
 3131SOL    HW110292   0.402   2.698   3.253
 3131SOL    HW210293   0.440   2.790   3.382
 3132SOL     OW10294   4.618   3.711   6.201
 3132SOL    HW110295   4.608   3.627   6.149
 3132SOL    HW210296   4.705   3.709   6.251
 3133SOL     OW10297   6.115   6.466   4.216
 3133SOL    HW110298   6.109   6.564   4.199
 3133SOL    HW210299   6.160   6.450   4.304
 3134SOL     OW10300   4.240   5.072   3.116
 3134SOL    HW110301   4.205   5.132   3.189
 3134SOL    HW210302   4.284   4.992   3.157
 3135SOL     OW10303   3.973   0.920   6.237
 3135SOL    HW110304   3.940   0.955   6.149
 3135SOL    HW210305   4.019   0.833   6.223
 3136SOL     OW10306   6.338   6.231   2.084
 3136SOL    HW110307   6.325   6.329   2.101
 3136SOL    HW210308   6.309   6.179   2.163
 3137SOL     OW10309   5.292   4.346   6.724
 3137SOL    HW110310   5.271   4.297   6.639
 3137SOL    HW210311   5.276   4.444   6.710
 3138SOL     OW10312   0.077   6.627   4.911
 3138SOL    HW110313   0.020   6.623   4.829
 3138SOL    HW210314   0.086   6.535   4.950
 3139SOL     OW10315   1.459   4.957   2.321
 3139SOL    HW110316   1.471   4.943   2.419
 3139SOL    HW210317   1.363   4.978   2.302
 3140SOL     OW10318   5.258   5.582   6.923
 3140SOL    HW110319   5.203   5.520   6.979
 3140SOL    HW210320   5.307   5.646   6.983
 3141SOL     OW10321   5.847   2.099   0.376
 3141SOL    HW110322   5.762   2.050   0.395
 3141SOL    HW210323   5.834   2.157   0.295
 3142SOL     OW10324   4.216   0.905   4.010
 3142SOL    HW110325   4.300   0.851   4.019
 3142SOL    HW210326   4.197   0.951   4.097
 3143SOL     OW10327   6.388   1.599   0.297
 3143SOL    HW110328   6.486   1.586   0.314
 3143SOL    HW210329   6.337   1.520   0.332
 3144SOL     OW10330   3.727   5.219   6.277
 3144SOL    HW110331   3.726   5.230   6.376
 3144SOL    HW210332   3.764   5.301   6.234
 3145SOL     OW10333   0.618   6.339   5.624
 3145SOL    HW110334   0.713   6.311   5.630
 3145SOL    HW210335   0.608   6.431   5.662
 3146SOL     OW10336   0.052   1.629   4.301
 3146SOL    HW110337   7.013   1.648   4.378
 3146SOL    HW210338   0.124   1.699   4.298
 3147SOL     OW10339   4.597   6.923   0.456
 3147SOL    HW110340   4.666   6.958   0.393
 3147SOL    HW210341   4.537   6.998   0.484
 3148SOL     OW10342   5.818   5.033   0.466
 3148SOL    HW110343   5.785   5.100   0.533
 3148SOL    HW210344   5.908   4.999   0.494
 3149SOL     OW10345   4.126   3.165   0.167
 3149SOL    HW110346   4.040   3.126   0.200
 3149SOL    HW210347   4.168   3.220   0.239
 3150SOL     OW10348   0.176   0.332   5.381
 3150SOL    HW110349   0.267   0.341   5.339
 3150SOL    HW210350   0.107   0.323   5.309
 3151SOL     OW10351   0.120   1.738   6.529
 3151SOL    HW110352   0.183   1.789   6.470
 3151SOL    HW210353   0.084   1.799   6.599
 3152SOL     OW10354   2.658   1.906   6.214
 3152SOL    HW110355   2.721   1.929   6.288
 3152SOL    HW210356   2.574   1.959   6.224
 3153SOL     OW10357   5.682   6.012   2.012
 3153SOL    HW110358   5.700   6.109   1.997
 3153SOL    HW210359   5.760   5.959   1.979
 3154SOL     OW10360   3.431   2.272   0.966
 3154SOL    HW110361   3.517   2.227   0.942
 3154SOL    HW210362   3.391   2.313   0.885
 3155SOL     OW10363   0.338   6.232   6.793
 3155SOL    HW110364   0.275   6.159   6.821
 3155SOL    HW210365   0.304   6.274   6.709
 3156SOL     OW10366   3.227   4.149   0.808
 3156SOL    HW110367   3.248   4.234   0.760
 3156SOL    HW210368   3.252   4.159   0.905
 3157SOL     OW10369   1.299   0.970   3.511
 3157SOL    HW110370   1.287   1.025   3.428
 3157SOL    HW210371   1.390   0.986   3.549
 3158SOL     OW10372   2.122   0.423   5.961
 3158SOL    HW110373   2.124   0.325   5.977
 3158SOL    HW210374   2.148   0.472   6.045
 3159SOL     OW10375   4.465   5.838   1.629
 3159SOL    HW110376   4.403   5.826   1.706
 3159SOL    HW210377   4.415   5.875   1.551
 3160SOL     OW10378   2.318   1.148   5.613
 3160SOL    HW110379   2.311   1.048   5.617
 3160SOL    HW210380   2.289   1.179   5.522
 3161SOL     OW10381   1.910   2.478   1.728
 3161SOL    HW110382   1.898   2.426   1.643
 3161SOL    HW210383   2.007   2.480   1.752
 3162SOL     OW10384   1.475   5.736   2.067
 3162SOL    HW110385   1.388   5.786   2.066
 3162SOL    HW210386   1.498   5.710   2.161
 3163SOL     OW10387   5.432   4.443   1.996
 3163SOL    HW110388   5.501   4.375   1.973
 3163SOL    HW210389   5.450   4.480   2.087
 3164SOL     OW10390   2.395   0.441   3.708
 3164SOL    HW110391   2.477   0.460   3.653
 3164SOL    HW210392   2.390   0.342   3.727
 3165SOL     OW10393   0.559   5.722   0.134
 3165SOL    HW110394   0.620   5.696   0.208
 3165SOL    HW210395   0.510   5.806   0.159
 3166SOL     OW10396   3.855   2.150   4.712
 3166SOL    HW110397   3.942   2.108   4.688
 3166SOL    HW210398   3.838   2.230   4.654
 3167SOL     OW10399   6.562   3.021   2.493
 3167SOL    HW110400   6.506   3.096   2.526
 3167SOL    HW210401   6.625   2.992   2.565
 3168SOL     OW10402   5.486   1.595   0.744
 3168SOL    HW110403   5.583   1.622   0.746
 3168SOL    HW210404   5.428   1.676   0.752
 3169SOL     OW10405   1.011   2.690   1.608
 3169SOL    HW110406   0.940   2.759   1.615
 3169SOL    HW210407   1.015   2.656   1.514
 3170SOL     OW10408   2.403   4.379   3.800
 3170SOL    HW110409   2.361   4.342   3.718
 3170SOL    HW210410   2.459   4.459   3.777
 3171SOL     OW10411   5.812   1.599   4.707
 3171SOL    HW110412   5.759   1.683   4.715
 3171SOL    HW210413   5.777   1.545   4.630
 3172SOL     OW10414   5.507   4.211   1.463
 3172SOL    HW110415   5.423   4.265   1.464
 3172SOL    HW210416   5.570   4.249   1.395
 3173SOL     OW10417   4.968   3.970   0.084
 3173SOL    HW110418   4.880   4.016   0.077
 3173SOL    HW210419   5.040   4.031   0.051
 3174SOL     OW10420   2.916   3.152   7.005
 3174SOL    HW110421   2.871   3.190   6.924
 3174SOL    HW210422   2.894   3.055   7.013
 3175SOL     OW10423   6.048   5.895   5.405
 3175SOL    HW110424   6.034   5.810   5.355
 3175SOL    HW210425   6.046   5.877   5.503
 3176SOL     OW10426   6.877   5.039   3.748
 3176SOL    HW110427   6.962   5.052   3.798
 3176SOL    HW210428   6.845   5.127   3.712
 3177SOL     OW10429   5.232   2.603   1.692
 3177SOL    HW110430   5.141   2.579   1.728
 3177SOL    HW210431   5.261   2.533   1.627
 3178SOL     OW10432   1.487   0.724   2.891
 3178SOL    HW110433   1.553   0.789   2.854
 3178SOL    HW210434   1.455   0.663   2.818
 3179SOL     OW10435   0.716   3.844   2.697
 3179SOL    HW110436   0.815   3.841   2.702
 3179SOL    HW210437   0.679   3.751   2.703
 3180SOL     OW10438   5.853   0.085   6.435
 3180SOL    HW110439   5.845   0.124   6.527
 3180SOL    HW210440   5.762   0.078   6.394
 3181SOL     OW10441   0.214   6.479   4.498
 3181SOL    HW110442   0.201   6.575   4.518
 3181SOL    HW210443   0.125   6.434   4.489
 3182SOL     OW10444   1.310   0.015   1.540
 3182SOL    HW110445   1.325   6.943   1.509
 3182SOL    HW210446   1.385   0.042   1.601
 3183SOL     OW10447   4.305   4.290   0.458
 3183SOL    HW110448   4.211   4.272   0.428
 3183SOL    HW210449   4.328   4.229   0.534
 3184SOL     OW10450   6.251   0.552   4.574
 3184SOL    HW110451   6.185   0.507   4.636
 3184SOL    HW210452   6.343   0.523   4.597
 3185SOL     OW10453   1.583   0.439   6.122
 3185SOL    HW110454   1.531   0.365   6.079
 3185SOL    HW210455   1.542   0.460   6.211
 3186SOL     OW10456   0.883   2.066   5.926
 3186SOL    HW110457   0.913   2.157   5.957
 3186SOL    HW210458   0.821   2.076   5.849
 3187SOL     OW10459   4.970   0.553   3.116
 3187SOL    HW110460   4.900   0.485   3.140
 3187SOL    HW210461   5.035   0.562   3.191
 3188SOL     OW10462   1.566   6.183   1.431
 3188SOL    HW110463   1.544   6.276   1.400
 3188SOL    HW210464   1.579   6.184   1.531
 3189SOL     OW10465   2.559   1.928   5.525
 3189SOL    HW110466   2.640   1.907   5.470
 3189SOL    HW210467   2.516   1.843   5.554
 3190SOL     OW10468   6.294   6.009   4.462
 3190SOL    HW110469   6.196   6.000   4.445
 3190SOL    HW210470   6.325   6.098   4.431
 3191SOL     OW10471   4.084   5.156   0.657
 3191SOL    HW110472   4.048   5.225   0.720
 3191SOL    HW210473   4.112   5.075   0.709
 3192SOL     OW10474   5.767   0.913   3.345
 3192SOL    HW110475   5.864   0.917   3.321
 3192SOL    HW210476   5.750   0.973   3.423
 3193SOL     OW10477   3.637   5.867   4.457
 3193SOL    HW110478   3.682   5.866   4.367
 3193SOL    HW210479   3.698   5.910   4.524
 3194SOL     OW10480   2.192   6.385   5.621
 3194SOL    HW110481   2.188   6.285   5.624
 3194SOL    HW210482   2.273   6.417   5.671
 3195SOL     OW10483   0.662   5.734   1.527
 3195SOL    HW110484   0.716   5.812   1.558
 3195SOL    HW210485   0.689   5.653   1.578
 3196SOL     OW10486   5.707   0.218   3.133
 3196SOL    HW110487   5.645   0.164   3.076
 3196SOL    HW210488   5.708   0.313   3.101
 3197SOL     OW10489   2.922   1.140   6.975
 3197SOL    HW110490   2.904   1.201   6.898
 3197SOL    HW210491   2.946   1.049   6.940
 3198SOL     OW10492   5.738   4.163   4.134
 3198SOL    HW110493   5.723   4.207   4.222
 3198SOL    HW210494   5.731   4.064   4.144
 3199SOL     OW10495   4.877   3.542   3.821
 3199SOL    HW110496   4.828   3.589   3.894
 3199SOL    HW210497   4.891   3.604   3.744
 3200SOL     OW10498   6.367   3.069   4.653
 3200SOL    HW110499   6.305   3.086   4.576
 3200SOL    HW210500   6.442   3.010   4.622
 3201SOL     OW10501   6.396   3.588   2.613
 3201SOL    HW110502   6.328   3.601   2.541
 3201SOL    HW210503   6.367   3.637   2.696
 3202SOL     OW10504   2.983   2.908   5.950
 3202SOL    HW110505   2.933   2.861   6.023
 3202SOL    HW210506   2.986   3.006   5.970
 3203SOL     OW10507   3.498   6.300   1.734
 3203SOL    HW110508   3.463   6.335   1.820
 3203SOL    HW210509   3.509   6.200   1.740
 3204SOL     OW10510   4.905   0.657   3.627
 3204SOL    HW110511   4.845   0.704   3.562
 3204SOL    HW210512   4.958   0.725   3.677
 3205SOL     OW10513   4.911   2.916   0.270
 3205SOL    HW110514   4.813   2.907   0.284
 3205SOL    HW210515   4.932   3.011   0.244
 3206SOL     OW10516   3.613   5.021   0.099
 3206SOL    HW110517   3.571   5.102   0.058
 3206SOL    HW210518   3.546   4.947   0.105
 3207SOL     OW10519   2.044   6.488   3.295
 3207SOL    HW110520   1.956   6.519   3.331
 3207SOL    HW210521   2.037   6.479   3.196
 3208SOL     OW10522   6.987   3.842   6.788
 3208SOL    HW110523   6.943   3.828   6.700
 3208SOL    HW210524   0.063   3.827   6.778
 3209SOL     OW10525   5.387   0.226   5.134
 3209SOL    HW110526   5.410   0.263   5.224
 3209SOL    HW210527   5.448   0.265   5.066
 3210SOL     OW10528   5.036   5.009   2.362
 3210SOL    HW110529   5.090   5.085   2.397
 3210SOL    HW210530   4.954   4.998   2.419
 3211SOL     OW10531   2.429   0.057   6.922
 3211SOL    HW110532   2.485   0.078   7.002
 3211SOL    HW210533   2.427   0.136   6.861
 3212SOL     OW10534   3.545   6.826   4.456
 3212SOL    HW110535   3.534   6.742   4.510
 3212SOL    HW210536   3.569   6.802   4.362
 3213SOL     OW10537   1.282   0.276   5.802
 3213SOL    HW110538   1.193   0.282   5.757
 3213SOL    HW210539   1.355   0.287   5.734
 3214SOL     OW10540   2.875   0.548   2.984
 3214SOL    HW110541   2.955   0.508   3.029
 3214SOL    HW210542   2.888   0.548   2.885
 3215SOL     OW10543   2.254   3.187   1.748
 3215SOL    HW110544   2.302   3.263   1.791
 3215SOL    HW210545   2.164   3.177   1.790
 3216SOL     OW10546   6.246   4.195   0.865
 3216SOL    HW110547   6.320   4.154   0.917
 3216SOL    HW210548   6.158   4.171   0.906
 3217SOL     OW10549   6.350   5.761   3.795
 3217SOL    HW110550   6.377   5.667   3.815
 3217SOL    HW210551   6.266   5.761   3.741
 3218SOL     OW10552   5.845   1.404   3.514
 3218SOL    HW110553   5.844   1.443   3.606
 3218SOL    HW210554   5.937   1.414   3.475
 3219SOL     OW10555   4.725   2.004   4.511
 3219SOL    HW110556   4.730   2.043   4.419
 3219SOL    HW210557   4.707   1.906   4.504
 3220SOL     OW10558   0.358   3.200   5.556
 3220SOL    HW110559   0.342   3.217   5.653
 3220SOL    HW210560   0.314   3.271   5.501
 3221SOL     OW10561   4.240   1.994   2.100
 3221SOL    HW110562   4.247   2.085   2.058
 3221SOL    HW210563   4.148   1.982   2.137
 3222SOL     OW10564   3.321   0.929   3.363
 3222SOL    HW110565   3.251   0.857   3.362
 3222SOL    HW210566   3.403   0.894   3.409
 3223SOL     OW10567   1.873   5.655   0.601
 3223SOL    HW110568   1.849   5.670   0.697
 3223SOL    HW210569   1.819   5.580   0.564
 3224SOL     OW10570   4.488   2.549   3.458
 3224SOL    HW110571   4.516   2.634   3.414
 3224SOL    HW210572   4.529   2.543   3.549
 3225SOL     OW10573   4.255   0.849   5.174
 3225SOL    HW110574   4.341   0.894   5.149
 3225SOL    HW210575   4.188   0.864   5.101
 3226SOL     OW10576   6.035   0.957   0.582
 3226SOL    HW110577   6.131   0.980   0.595
 3226SOL    HW210578   6.015   0.872   0.631
 3227SOL     OW10579   5.817   4.142   5.666
 3227SOL    HW110580   5.725   4.131   5.627
 3227SOL    HW210581   5.861   4.052   5.674
 3228SOL     OW10582   2.039   4.430   0.674
 3228SOL    HW110583   2.099   4.400   0.599
 3228SOL    HW210584   2.030   4.529   0.673
 3229SOL     OW10585   0.771   0.812   0.815
 3229SOL    HW110586   0.855   0.848   0.857
 3229SOL    HW210587   0.724   0.886   0.767
 3230SOL     OW10588   3.441   6.554   5.439
 3230SOL    HW110589   3.407   6.484   5.376
 3230SOL    HW210590   3.372   6.625   5.450
 3231SOL     OW10591   2.642   2.061   2.612
 3231SOL    HW110592   2.545   2.042   2.625
 3231SOL    HW210593   2.694   1.976   2.625
 3232SOL     OW10594   2.976   4.804   3.747
 3232SOL    HW110595   2.995   4.789   3.650
 3232SOL    HW210596   2.884   4.771   3.768
 3233SOL     OW10597   2.456   0.270   5.569
 3233SOL    HW110598   2.512   0.295   5.490
 3233SOL    HW210599   2.513   0.271   5.652
 3234SOL     OW10600   3.505   3.603   0.681
 3234SOL    HW110601   3.420   3.579   0.728
 3234SOL    HW210602   3.538   3.691   0.716
 3235SOL     OW10603   0.491   1.912   2.550
 3235SOL    HW110604   0.575   1.965   2.556
 3235SOL    HW210605   0.453   1.899   2.642
 3236SOL     OW10606   5.829   6.718   0.656
 3236SOL    HW110607   5.793   6.808   0.633
 3236SOL    HW210608   5.756   6.662   0.695
 3237SOL     OW10609   6.179   1.778   5.571
 3237SOL    HW110610   6.242   1.700   5.575
 3237SOL    HW210611   6.159   1.799   5.476
 3238SOL     OW10612   6.877   4.976   0.996
 3238SOL    HW110613   6.940   4.981   0.918
 3238SOL    HW210614   6.868   4.881   1.025
 3239SOL     OW10615   5.969   0.923   5.006
 3239SOL    HW110616   6.006   0.900   4.916
 3239SOL    HW210617   5.991   0.851   5.071
 3240SOL     OW10618   0.799   1.779   1.612
 3240SOL    HW110619   0.720   1.819   1.566
 3240SOL    HW210620   0.821   1.832   1.694
 3241SOL     OW10621   0.524   2.990   5.887
 3241SOL    HW110622   0.588   3.063   5.911
 3241SOL    HW210623   0.575   2.906   5.871
 3242SOL     OW10624   0.144   5.113   5.328
 3242SOL    HW110625   0.155   5.095   5.230
 3242SOL    HW210626   0.213   5.061   5.379
 3243SOL     OW10627   6.018   5.493   5.120
 3243SOL    HW110628   6.016   5.521   5.025
 3243SOL    HW210629   6.067   5.406   5.128
 3244SOL     OW10630   4.626   0.409   6.865
 3244SOL    HW110631   4.530   0.436   6.870
 3244SOL    HW210632   4.655   0.408   6.769
 3245SOL     OW10633   2.474   6.246   4.226
 3245SOL    HW110634   2.523   6.300   4.158
 3245SOL    HW210635   2.426   6.171   4.181
 3246SOL     OW10636   6.833   5.631   2.934
 3246SOL    HW110637   6.852   5.711   2.991
 3246SOL    HW210638   6.743   5.641   2.891
 3247SOL     OW10639   2.279   4.432   4.729
 3247SOL    HW110640   2.288   4.480   4.816
 3247SOL    HW210641   2.263   4.334   4.746
 3248SOL     OW10642   6.488   2.427   3.925
 3248SOL    HW110643   6.403   2.453   3.879
 3248SOL    HW210644   6.469   2.359   3.995
 3249SOL     OW10645   3.896   4.024   4.058
 3249SOL    HW110646   3.882   4.086   3.981
 3249SOL    HW210647   3.859   4.064   4.141
 3250SOL     OW10648   4.812   5.506   3.889
 3250SOL    HW110649   4.719   5.539   3.870
 3250SOL    HW210650   4.843   5.447   3.815
 3251SOL     OW10651   2.364   1.993   2.560
 3251SOL    HW110652   2.277   1.947   2.547
 3251SOL    HW210653   2.388   2.042   2.476
 3252SOL     OW10654   1.567   1.648   2.656
 3252SOL    HW110655   1.505   1.640   2.734
 3252SOL    HW210656   1.558   1.568   2.598
 3253SOL     OW10657   6.606   3.399   1.068
 3253SOL    HW110658   6.576   3.307   1.044
 3253SOL    HW210659   6.643   3.399   1.161
 3254SOL     OW10660   6.385   6.864   0.862
 3254SOL    HW110661   6.421   6.843   0.771
 3254SOL    HW210662   6.292   6.827   0.871
 3255SOL     OW10663   3.788   4.866   2.173
 3255SOL    HW110664   3.750   4.829   2.088
 3255SOL    HW210665   3.742   4.825   2.252
 3256SOL     OW10666   5.356   2.780   2.102
 3256SOL    HW110667   5.405   2.837   2.035
 3256SOL    HW210668   5.313   2.703   2.055
 3257SOL     OW10669   2.603   1.042   2.728
 3257SOL    HW110670   2.593   1.031   2.826
 3257SOL    HW210671   2.545   1.117   2.696
 3258SOL     OW10672   0.728   5.036   3.960
 3258SOL    HW110673   0.720   5.128   3.997
 3258SOL    HW210674   0.708   5.038   3.862
 3259SOL     OW10675   6.147   5.012   3.337
 3259SOL    HW110676   6.158   4.974   3.245
 3259SOL    HW210677   6.170   5.110   3.335
 3260SOL     OW10678   2.532   4.614   3.629
 3260SOL    HW110679   2.446   4.662   3.643
 3260SOL    HW210680   2.608   4.673   3.655
 3261SOL     OW10681   6.188   6.917   3.762
 3261SOL    HW110682   6.089   6.912   3.756
 3261SOL    HW210683   6.216   7.013   3.768
 3262SOL     OW10684   3.361   1.886   3.050
 3262SOL    HW110685   3.355   1.974   3.097
 3262SOL    HW210686   3.328   1.814   3.110
 3263SOL     OW10687   5.512   6.966   1.804
 3263SOL    HW110688   5.529   0.034   1.764
 3263SOL    HW210689   5.598   6.915   1.809
 3264SOL     OW10690   1.072   4.862   6.008
 3264SOL    HW110691   1.022   4.945   5.984
 3264SOL    HW210692   1.075   4.853   6.108
 3265SOL     OW10693   0.186   6.128   5.922
 3265SOL    HW110694   0.275   6.172   5.908
 3265SOL    HW210695   0.118   6.172   5.863
 3266SOL     OW10696   3.988   4.832   6.427
 3266SOL    HW110697   3.916   4.790   6.372
 3266SOL    HW210698   4.055   4.762   6.452
 3267SOL     OW10699   2.958   0.276   0.875
 3267SOL    HW110700   3.016   0.199   0.902
 3267SOL    HW210701   3.014   0.357   0.859
 3268SOL     OW10702   5.294   4.269   2.199
 3268SOL    HW110703   5.380   4.220   2.216
 3268SOL    HW210704   5.220   4.222   2.247
 3269SOL     OW10705   2.106   5.511   0.879
 3269SOL    HW110706   2.013   5.514   0.918
 3269SOL    HW210707   2.173   5.512   0.953
 3270SOL     OW10708   1.718   3.036   6.580
 3270SOL    HW110709   1.798   2.985   6.550
 3270SOL    HW210710   1.644   3.025   6.514
 3271SOL     OW10711   0.817   3.967   1.467
 3271SOL    HW110712   0.874   3.916   1.402
 3271SOL    HW210713   0.876   4.026   1.523
 3272SOL     OW10714   3.739   0.224   0.680
 3272SOL    HW110715   3.789   0.181   0.605
 3272SOL    HW210716   3.689   0.155   0.731
 3273SOL     OW10717   4.318   3.578   6.555
 3273SOL    HW110718   4.266   3.494   6.540
 3273SOL    HW210719   4.370   3.600   6.472
 3274SOL     OW10720   4.279   0.451   2.196
 3274SOL    HW110721   4.193   0.490   2.164
 3274SOL    HW210722   4.312   0.383   2.130
 3275SOL     OW10723   5.207   0.515   1.450
 3275SOL    HW110724   5.222   0.596   1.394
 3275SOL    HW210725   5.271   0.515   1.527
 3276SOL     OW10726   5.666   5.521   6.995
 3276SOL    HW110727   5.706   5.431   7.013
 3276SOL    HW210728   5.708   5.589   0.032
 3277SOL     OW10729   3.994   1.211   2.139
 3277SOL    HW110730   4.000   1.307   2.166
 3277SOL    HW210731   4.081   1.182   2.099
 3278SOL     OW10732   5.161   1.464   6.810
 3278SOL    HW110733   5.092   1.408   6.765
 3278SOL    HW210734   5.159   1.557   6.773
 3279SOL     OW10735   4.168   0.591   2.572
 3279SOL    HW110736   4.126   0.542   2.495
 3279SOL    HW210737   4.265   0.568   2.577
 3280SOL     OW10738   6.503   2.881   4.296
 3280SOL    HW110739   6.508   2.798   4.241
 3280SOL    HW210740   6.570   2.947   4.263
 3281SOL     OW10741   6.026   2.720   2.187
 3281SOL    HW110742   6.001   2.812   2.217
 3281SOL    HW210743   5.969   2.693   2.110
 3282SOL     OW10744   6.784   4.613   5.325
 3282SOL    HW110745   6.859   4.580   5.267
 3282SOL    HW210746   6.745   4.536   5.375
 3283SOL     OW10747   3.371   1.253   0.412
 3283SOL    HW110748   3.274   1.270   0.394
 3283SOL    HW210749   3.421   1.339   0.409
 3284SOL     OW10750   1.749   1.107   5.217
 3284SOL    HW110751   1.669   1.048   5.209
 3284SOL    HW210752   1.800   1.083   5.300
 3285SOL     OW10753   3.757   1.804   4.000
 3285SOL    HW110754   3.772   1.817   3.902
 3285SOL    HW210755   3.663   1.774   4.016
 3286SOL     OW10756   1.250   3.984   3.357
 3286SOL    HW110757   1.258   4.049   3.282
 3286SOL    HW210758   1.239   4.034   3.443
 3287SOL     OW10759   2.829   1.299   0.458
 3287SOL    HW110760   2.880   1.332   0.538
 3287SOL    HW210761   2.773   1.220   0.485
 3288SOL     OW10762   3.222   5.061   1.874
 3288SOL    HW110763   3.190   4.967   1.859
 3288SOL    HW210764   3.300   5.059   1.937
 3289SOL     OW10765   4.906   0.216   0.092
 3289SOL    HW110766   4.807   0.205   0.099
 3289SOL    HW210767   4.930   0.252   0.002
 3290SOL     OW10768   0.767   4.926   0.077
 3290SOL    HW110769   0.705   4.850   0.055
 3290SOL    HW210770   0.717   4.997   0.126
 3291SOL     OW10771   5.221   6.229   5.827
 3291SOL    HW110772   5.269   6.180   5.755
 3291SOL    HW210773   5.189   6.318   5.793
 3292SOL     OW10774   0.291   3.423   1.026
 3292SOL    HW110775   0.390   3.425   1.037
 3292SOL    HW210776   0.249   3.478   1.099
 3293SOL     OW10777   6.661   4.417   2.576
 3293SOL    HW110778   6.743   4.471   2.560
 3293SOL    HW210779   6.586   4.476   2.607
 3294SOL     OW10780   3.916   2.887   5.241
 3294SOL    HW110781   3.996   2.829   5.259
 3294SOL    HW210782   3.838   2.852   5.293
 3295SOL     OW10783   1.273   3.338   3.492
 3295SOL    HW110784   1.330   3.274   3.441
 3295SOL    HW210785   1.206   3.381   3.430
 3296SOL     OW10786   2.033   0.612   0.077
 3296SOL    HW110787   2.111   0.644   0.131
 3296SOL    HW210788   2.040   0.648   7.007
 3297SOL     OW10789   3.005   0.399   5.859
 3297SOL    HW110790   2.942   0.348   5.801
 3297SOL    HW210791   2.998   0.497   5.838
 3298SOL     OW10792   3.760   4.081   6.143
 3298SOL    HW110793   3.736   4.001   6.089
 3298SOL    HW210794   3.693   4.153   6.127
 3299SOL     OW10795   2.700   6.948   4.390
 3299SOL    HW110796   2.636   6.901   4.451
 3299SOL    HW210797   2.717   6.891   4.310
 3300SOL     OW10798   1.855   0.985   3.402
 3300SOL    HW110799   1.818   1.067   3.358
 3300SOL    HW210800   1.839   0.906   3.343
 3301SOL     OW10801   1.106   0.955   2.262
 3301SOL    HW110802   1.014   0.974   2.295
 3301SOL    HW210803   1.156   0.903   2.331
 3302SOL     OW10804   1.268   4.530   4.808
 3302SOL    HW110805   1.234   4.477   4.885
 3302SOL    HW210806   1.342   4.479   4.763
 3303SOL     OW10807   4.466   3.766   0.625
 3303SOL    HW110808   4.530   3.841   0.639
 3303SOL    HW210809   4.482   3.695   0.695
 3304SOL     OW10810   2.439   3.927   1.017
 3304SOL    HW110811   2.508   3.942   1.088
 3304SOL    HW210812   2.352   3.904   1.059
 3305SOL     OW10813   3.251   2.729   6.882
 3305SOL    HW110814   3.252   2.727   6.782
 3305SOL    HW210815   3.240   2.636   6.917
 3306SOL     OW10816   2.573   0.658   1.060
 3306SOL    HW110817   2.583   0.613   1.148
 3306SOL    HW210818   2.554   0.590   0.989
 3307SOL     OW10819   2.034   5.420   5.003
 3307SOL    HW110820   2.065   5.437   4.909
 3307SOL    HW210821   2.106   5.373   5.053
 3308SOL     OW10822   5.043   5.561   1.320
 3308SOL    HW110823   5.109   5.572   1.394
 3308SOL    HW210824   4.991   5.476   1.334
 3309SOL     OW10825   6.123   3.737   4.266
 3309SOL    HW110826   6.165   3.739   4.356
 3309SOL    HW210827   6.115   3.830   4.230
 3310SOL     OW10828   6.529   4.286   6.435
 3310SOL    HW110829   6.585   4.360   6.397
 3310SOL    HW210830   6.556   4.269   6.530
 3311SOL     OW10831   2.023   2.732   0.140
 3311SOL    HW110832   2.089   2.772   0.204
 3311SOL    HW210833   2.072   2.678   0.072
 3312SOL     OW10834   5.042   3.615   0.472
 3312SOL    HW110835   4.971   3.682   0.450
 3312SOL    HW210836   5.066   3.564   0.389
 3313SOL     OW10837   1.036   6.774   3.659
 3313SOL    HW110838   0.971   6.799   3.731
 3313SOL    HW210839   1.013   6.824   3.575
 3314SOL     OW10840   3.056   6.322   3.418
 3314SOL    HW110841   3.094   6.397   3.365
 3314SOL    HW210842   3.128   6.255   3.437
 3315SOL     OW10843   1.066   6.403   3.828
 3315SOL    HW110844   1.128   6.388   3.752
 3315SOL    HW210845   1.118   6.431   3.909
 3316SOL     OW10846   3.285   1.564   0.301
 3316SOL    HW110847   3.217   1.511   0.352
 3316SOL    HW210848   3.377   1.534   0.328
 3317SOL     OW10849   5.570   2.209   1.052
 3317SOL    HW110850   5.485   2.239   1.096
 3317SOL    HW210851   5.550   2.170   0.962
 3318SOL     OW10852   3.864   2.496   0.825
 3318SOL    HW110853   3.774   2.523   0.860
 3318SOL    HW210854   3.883   2.546   0.741
 3319SOL     OW10855   6.406   6.682   3.572
 3319SOL    HW110856   6.336   6.749   3.547
 3319SOL    HW210857   6.430   6.628   3.491
 3320SOL     OW10858   6.038   0.628   2.302
 3320SOL    HW110859   6.081   0.713   2.333
 3320SOL    HW210860   6.044   0.559   2.375
 3321SOL     OW10861   4.676   1.781   0.030
 3321SOL    HW110862   4.757   1.803   6.997
 3321SOL    HW210863   4.599   1.761   6.992
 3322SOL     OW10864   6.081   3.608   1.531
 3322SOL    HW110865   5.989   3.596   1.495
 3322SOL    HW210866   6.148   3.580   1.462
 3323SOL     OW10867   1.291   0.509   2.240
 3323SOL    HW110868   1.268   0.419   2.203
 3323SOL    HW210869   1.382   0.536   2.209
 3324SOL     OW10870   6.244   5.475   5.791
 3324SOL    HW110871   6.236   5.376   5.780
 3324SOL    HW210872   6.294   5.495   5.875
 3325SOL     OW10873   2.559   5.319   6.178
 3325SOL    HW110874   2.556   5.255   6.254
 3325SOL    HW210875   2.551   5.269   6.092
 3326SOL     OW10876   4.138   1.852   1.837
 3326SOL    HW110877   4.129   1.874   1.934
 3326SOL    HW210878   4.116   1.755   1.823
 3327SOL     OW10879   1.485   6.276   6.010
 3327SOL    HW110880   1.461   6.199   6.069
 3327SOL    HW210881   1.513   6.241   5.920
 3328SOL     OW10882   4.733   3.017   5.059
 3328SOL    HW110883   4.738   3.095   5.122
 3328SOL    HW210884   4.662   2.954   5.090
 3329SOL     OW10885   6.749   6.426   5.785
 3329SOL    HW110886   6.771   6.446   5.880
 3329SOL    HW210887   6.662   6.469   5.760
 3330SOL     OW10888   6.709   2.655   2.570
 3330SOL    HW110889   6.750   2.730   2.622
 3330SOL    HW210890   6.728   2.568   2.615
 3331SOL     OW10891   1.777   3.083   0.349
 3331SOL    HW110892   1.732   3.121   0.268
 3331SOL    HW210893   1.741   2.991   0.367
 3332SOL     OW10894   0.206   4.054   1.820
 3332SOL    HW110895   0.252   4.041   1.908
 3332SOL    HW210896   0.197   3.965   1.775
 3333SOL     OW10897   3.143   5.989   5.184
 3333SOL    HW110898   3.231   5.962   5.225
 3333SOL    HW210899   3.110   5.917   5.124
 3334SOL     OW10900   1.308   3.199   1.085
 3334SOL    HW110901   1.314   3.243   0.996
 3334SOL    HW210902   1.360   3.113   1.083
 3335SOL     OW10903   5.416   4.336   4.378
 3335SOL    HW110904   5.345   4.275   4.342
 3335SOL    HW210905   5.417   4.421   4.324
 3336SOL     OW10906   3.363   6.522   5.949
 3336SOL    HW110907   3.263   6.517   5.957
 3336SOL    HW210908   3.404   6.509   6.039
 3337SOL     OW10909   3.519   1.499   0.421
 3337SOL    HW110910   3.607   1.516   0.376
 3337SOL    HW210911   3.520   1.538   0.513
 3338SOL     OW10912   6.651   5.321   0.253
 3338SOL    HW110913   6.745   5.295   0.274
 3338SOL    HW210914   6.592   5.240   0.256
 3339SOL     OW10915   0.509   4.686   6.243
 3339SOL    HW110916   0.598   4.727   6.223
 3339SOL    HW210917   0.438   4.735   6.193
 3340SOL     OW10918   4.260   0.170   1.519
 3340SOL    HW110919   4.184   0.235   1.533
 3340SOL    HW210920   4.347   0.216   1.537
 3341SOL     OW10921   0.969   0.409   6.843
 3341SOL    HW110922   1.021   0.435   6.924
 3341SOL    HW210923   0.888   0.467   6.835
 3342SOL     OW10924   1.772   6.534   5.475
 3342SOL    HW110925   1.695   6.590   5.444
 3342SOL    HW210926   1.845   6.537   5.407
 3343SOL     OW10927   0.087   2.266   1.057
 3343SOL    HW110928   0.041   2.322   0.988
 3343SOL    HW210929   0.019   2.216   1.110
 3344SOL     OW10930   1.604   2.687   6.508
 3344SOL    HW110931   1.681   2.682   6.444
 3344SOL    HW210932   1.524   2.645   6.466
 3345SOL     OW10933   2.635   3.288   6.080
 3345SOL    HW110934   2.656   3.284   5.983
 3345SOL    HW210935   2.604   3.198   6.111
 3346SOL     OW10936   2.108   5.654   2.958
 3346SOL    HW110937   2.061   5.718   2.897
 3346SOL    HW210938   2.192   5.696   2.992
 3347SOL     OW10939   6.398   4.096   4.235
 3347SOL    HW110940   6.459   4.045   4.295
 3347SOL    HW210941   6.317   4.040   4.215
 3348SOL     OW10942   4.040   3.803   3.716
 3348SOL    HW110943   4.060   3.770   3.808
 3348SOL    HW210944   3.999   3.729   3.663
 3349SOL     OW10945   4.701   2.653   0.304
 3349SOL    HW110946   4.686   2.751   0.317
 3349SOL    HW210947   4.666   2.626   0.214
 3350SOL     OW10948   2.521   3.044   1.152
 3350SOL    HW110949   2.511   3.119   1.218
 3350SOL    HW210950   2.430   3.008   1.129
 3351SOL     OW10951   6.154   2.583   0.721
 3351SOL    HW110952   6.128   2.675   0.694
 3351SOL    HW210953   6.075   2.535   0.757
 3352SOL     OW10954   0.074   3.610   0.107
 3352SOL    HW110955   0.052   3.572   0.197
 3352SOL    HW210956   0.116   3.539   0.050
 3353SOL     OW10957   1.427   6.706   6.538
 3353SOL    HW110958   1.459   6.788   6.584
 3353SOL    HW210959   1.414   6.725   6.441
 3354SOL     OW10960   1.046   0.128   2.214
 3354SOL    HW110961   1.073   0.053   2.276
 3354SOL    HW210962   0.992   0.195   2.265
 3355SOL     OW10963   5.996   0.940   2.409
 3355SOL    HW110964   5.966   0.923   2.503
 3355SOL    HW210965   5.918   0.932   2.347
 3356SOL     OW10966   1.312   3.789   6.696
 3356SOL    HW110967   1.318   3.701   6.742
 3356SOL    HW210968   1.357   3.859   6.751
 3357SOL     OW10969   2.260   5.514   2.415
 3357SOL    HW110970   2.351   5.495   2.450
 3357SOL    HW210971   2.222   5.594   2.462
 3358SOL     OW10972   6.879   3.701   3.480
 3358SOL    HW110973   6.945   3.761   3.436
 3358SOL    HW210974   6.900   3.694   3.578
 3359SOL     OW10975   2.162   1.120   1.945
 3359SOL    HW110976   2.093   1.184   1.911
 3359SOL    HW210977   2.119   1.054   2.006
 3360SOL     OW10978   2.761   1.232   6.379
 3360SOL    HW110979   2.754   1.221   6.280
 3360SOL    HW210980   2.841   1.182   6.413
 3361SOL     OW10981   2.345   1.308   2.916
 3361SOL    HW110982   2.273   1.264   2.969
 3361SOL    HW210983   2.317   1.400   2.890
 3362SOL     OW10984   3.083   2.054   4.673
 3362SOL    HW110985   3.040   2.112   4.742
 3362SOL    HW210986   3.019   1.983   4.645
 3363SOL     OW10987   6.582   0.780   0.164
 3363SOL    HW110988   6.496   0.733   0.185
 3363SOL    HW210989   6.635   0.793   0.248
 3364SOL     OW10990   1.826   5.353   5.281
 3364SOL    HW110991   1.919   5.346   5.317
 3364SOL    HW210992   1.766   5.290   5.330
 3365SOL     OW10993   6.382   2.457   5.147
 3365SOL    HW110994   6.462   2.406   5.178
 3365SOL    HW210995   6.396   2.555   5.161
 3366SOL     OW10996   5.664   0.362   0.318
 3366SOL    HW110997   5.586   0.394   0.371
 3366SOL    HW210998   5.730   0.316   0.378
 3367SOL     OW10999   2.363   0.078   2.523
 3367SOL    HW111000   2.441   0.090   2.462
 3367SOL    HW211001   2.280   0.113   2.479
 3368SOL     OW11002   6.204   1.208   4.551
 3368SOL    HW111003   6.230   1.304   4.534
 3368SOL    HW211004   6.106   1.202   4.566
 3369SOL     OW11005   4.034   5.199   6.749
 3369SOL    HW111006   4.070   5.264   6.816
 3369SOL    HW211007   4.066   5.107   6.771
 3370SOL     OW11008   6.137   0.642   5.531
 3370SOL    HW111009   6.065   0.712   5.530
 3370SOL    HW211010   6.142   0.600   5.621
 3371SOL     OW11011   6.882   4.586   1.256
 3371SOL    HW111012   6.945   4.514   1.286
 3371SOL    HW211013   6.925   4.675   1.268
 3372SOL     OW11014   1.646   2.844   2.822
 3372SOL    HW111015   1.736   2.803   2.841
 3372SOL    HW211016   1.657   2.916   2.754
 3373SOL     OW11017   0.956   2.863   6.132
 3373SOL    HW111018   0.875   2.845   6.075
 3373SOL    HW211019   0.938   2.832   6.225
 3374SOL     OW11020   3.785   6.241   5.408
 3374SOL    HW111021   3.861   6.286   5.362
 3374SOL    HW211022   3.757   6.295   5.487
 3375SOL     OW11023   3.341   3.840   4.678
 3375SOL    HW111024   3.341   3.932   4.718
 3375SOL    HW211025   3.419   3.831   4.616
 3376SOL     OW11026   3.410   2.922   1.685
 3376SOL    HW111027   3.432   2.986   1.759
 3376SOL    HW211028   3.317   2.888   1.697
 3377SOL     OW11029   2.960   5.435   5.714
 3377SOL    HW111030   2.927   5.351   5.756
 3377SOL    HW211031   2.891   5.471   5.652
 3378SOL     OW11032   6.738   1.201   1.165
 3378SOL    HW111033   6.779   1.179   1.076
 3378SOL    HW211034   6.660   1.262   1.152
 3379SOL     OW11035   5.958   5.326   5.679
 3379SOL    HW111036   5.951   5.407   5.737
 3379SOL    HW211037   5.872   5.312   5.630
 3380SOL     OW11038   0.712   4.018   5.566
 3380SOL    HW111039   0.625   3.974   5.543
 3380SOL    HW211040   0.705   4.116   5.550
 3381SOL     OW11041   3.250   2.336   1.419
 3381SOL    HW111042   3.335   2.374   1.456
 3381SOL    HW211043   3.271   2.281   1.338
 3382SOL     OW11044   0.385   6.471   0.583
 3382SOL    HW111045   0.482   6.451   0.580
 3382SOL    HW211046   0.361   6.534   0.509
 3383SOL     OW11047   0.606   4.107   1.362
 3383SOL    HW111048   0.682   4.061   1.407
 3383SOL    HW211049   0.616   4.206   1.372
 3384SOL     OW11050   3.521   3.718   3.354
 3384SOL    HW111051   3.473   3.640   3.313
 3384SOL    HW211052   3.610   3.730   3.308
 3385SOL     OW11053   6.966   4.055   3.914
 3385SOL    HW111054   6.874   4.017   3.924
 3385SOL    HW211055   6.960   4.155   3.909
 3386SOL     OW11056   5.924   4.150   4.567
 3386SOL    HW111057   5.839   4.186   4.527
 3386SOL    HW211058   6.001   4.172   4.507
 3387SOL     OW11059   3.366   1.685   2.359
 3387SOL    HW111060   3.459   1.659   2.331
 3387SOL    HW211061   3.320   1.606   2.399
 3388SOL     OW11062   5.835   2.034   1.298
 3388SOL    HW111063   5.867   2.017   1.392
 3388SOL    HW211064   5.763   2.104   1.300
 3389SOL     OW11065   3.840   5.887   2.794
 3389SOL    HW111066   3.930   5.904   2.755
 3389SOL    HW211067   3.823   5.788   2.797
 3390SOL     OW11068   4.429   1.296   5.532
 3390SOL    HW111069   4.399   1.391   5.535
 3390SOL    HW211070   4.469   1.272   5.621
 3391SOL     OW11071   3.146   1.983   4.210
 3391SOL    HW111072   3.236   2.022   4.230
 3391SOL    HW211073   3.106   1.945   4.294
 3392SOL     OW11074   5.229   6.563   3.934
 3392SOL    HW111075   5.206   6.507   4.014
 3392SOL    HW211076   5.158   6.632   3.920
 3393SOL     OW11077   0.041   6.898   6.846
 3393SOL    HW111078   0.089   6.830   6.789
 3393SOL    HW211079   6.988   6.854   6.894
 3394SOL     OW11080   5.252   1.350   2.011
 3394SOL    HW111081   5.295   1.305   1.933
 3394SOL    HW211082   5.269   1.448   2.007
 3395SOL     OW11083   1.795   3.876   5.057
 3395SOL    HW111084   1.701   3.886   5.091
 3395SOL    HW211085   1.824   3.962   5.015
 3396SOL     OW11086   6.518   3.815   4.324
 3396SOL    HW111087   6.468   3.734   4.294
 3396SOL    HW211088   6.533   3.811   4.423
 3397SOL     OW11089   3.405   5.506   6.209
 3397SOL    HW111090   3.321   5.473   6.251
 3397SOL    HW211091   3.431   5.445   6.134
 3398SOL     OW11092   0.610   1.239   3.357
 3398SOL    HW111093   0.526   1.280   3.392
 3398SOL    HW211094   0.619   1.258   3.259
 3399SOL     OW11095   4.282   5.967   4.311
 3399SOL    HW111096   4.240   5.929   4.394
 3399SOL    HW211097   4.250   5.915   4.232
 3400SOL     OW11098   5.099   2.306   0.444
 3400SOL    HW111099   5.024   2.332   0.383
 3400SOL    HW211100   5.108   2.375   0.516
 3401SOL     OW11101   6.790   4.384   6.368
 3401SOL    HW111102   6.746   4.459   6.318
 3401SOL    HW211103   6.762   4.387   6.464
 3402SOL     OW11104   4.292   4.639   2.019
 3402SOL    HW111105   4.343   4.587   1.951
 3402SOL    HW211106   4.342   4.640   2.105
 3403SOL     OW11107   4.100   1.722   6.124
 3403SOL    HW111108   4.029   1.657   6.152
 3403SOL    HW211109   4.060   1.790   6.064
 3404SOL     OW11110   4.720   5.925   1.729
 3404SOL    HW111111   4.714   6.007   1.786
 3404SOL    HW211112   4.628   5.897   1.702
 3405SOL     OW11113   6.166   4.196   6.790
 3405SOL    HW111114   6.077   4.194   6.744
 3405SOL    HW211115   6.160   4.145   6.876
 3406SOL     OW11116   1.433   3.604   1.352
 3406SOL    HW111117   1.525   3.639   1.336
 3406SOL    HW211118   1.368   3.652   1.293
 3407SOL     OW11119   1.355   5.401   2.872
 3407SOL    HW111120   1.325   5.374   2.964
 3407SOL    HW211121   1.274   5.425   2.817
 3408SOL     OW11122   5.560   3.521   2.735
 3408SOL    HW111123   5.576   3.593   2.667
 3408SOL    HW211124   5.464   3.518   2.759
 3409SOL     OW11125   2.514   1.206   6.451
 3409SOL    HW111126   2.614   1.210   6.445
 3409SOL    HW211127   2.477   1.298   6.438
 3410SOL     OW11128   0.035   2.147   0.115
 3410SOL    HW111129   7.010   2.113   0.196
 3410SOL    HW211130   0.129   2.112   0.115
 3411SOL     OW11131   5.104   2.019   2.312
 3411SOL    HW111132   5.045   2.084   2.361
 3411SOL    HW211133   5.049   1.969   2.245
 3412SOL     OW11134   4.698   5.354   6.803
 3412SOL    HW111135   4.611   5.308   6.817
 3412SOL    HW211136   4.687   5.452   6.819
 3413SOL     OW11137   5.097   1.178   2.367
 3413SOL    HW111138   5.058   1.131   2.447
 3413SOL    HW211139   5.038   1.163   2.288
 3414SOL     OW11140   3.822   0.513   5.387
 3414SOL    HW111141   3.749   0.524   5.455
 3414SOL    HW211142   3.893   0.453   5.424
 3415SOL     OW11143   1.371   5.776   5.258
 3415SOL    HW111144   1.311   5.792   5.336
 3415SOL    HW211145   1.349   5.687   5.217
 3416SOL     OW11146   2.152   4.338   5.413
 3416SOL    HW111147   2.209   4.405   5.461
 3416SOL    HW211148   2.211   4.274   5.364
 3417SOL     OW11149   5.251   0.707   1.287
 3417SOL    HW111150   5.160   0.681   1.254
 3417SOL    HW211151   5.305   0.744   1.211
 3418SOL     OW11152   3.059   2.132   5.890
 3418SOL    HW111153   3.120   2.153   5.966
 3418SOL    HW211154   3.085   2.188   5.811
 3419SOL     OW11155   4.791   3.352   6.429
 3419SOL    HW111156   4.830   3.262   6.411
 3419SOL    HW211157   4.715   3.369   6.367
 3420SOL     OW11158   3.574   1.019   4.794
 3420SOL    HW111159   3.522   1.085   4.848
 3420SOL    HW211160   3.511   0.963   4.740
 3421SOL     OW11161   0.266   6.308   2.915
 3421SOL    HW111162   0.190   6.371   2.898
 3421SOL    HW211163   0.231   6.216   2.932
 3422SOL     OW11164   3.426   2.077   2.650
 3422SOL    HW111165   3.474   2.110   2.732
 3422SOL    HW211166   3.426   1.977   2.650
 3423SOL     OW11167   3.518   0.823   1.752
 3423SOL    HW111168   3.560   0.798   1.839
 3423SOL    HW211169   3.460   0.903   1.765
 3424SOL     OW11170   4.938   1.840   1.591
 3424SOL    HW111171   4.999   1.890   1.528
 3424SOL    HW211172   4.846   1.838   1.553
 3425SOL     OW11173   4.255   3.894   1.532
 3425SOL    HW111174   4.351   3.888   1.560
 3425SOL    HW211175   4.210   3.966   1.584
 3426SOL     OW11176   4.964   3.902   0.987
 3426SOL    HW111177   4.968   3.806   0.958
 3426SOL    HW211178   5.027   3.956   0.931
 3427SOL     OW11179   0.795   1.689   0.643
 3427SOL    HW111180   0.820   1.786   0.643
 3427SOL    HW211181   0.705   1.678   0.685
 3428SOL     OW11182   4.426   4.834   3.154
 3428SOL    HW111183   4.379   4.831   3.243
 3428SOL    HW211184   4.406   4.750   3.104
 3429SOL     OW11185   0.450   3.092   1.029
 3429SOL    HW111186   0.519   3.062   1.096
 3429SOL    HW211187   0.421   3.185   1.051
 3430SOL     OW11188   0.810   5.277   6.571
 3430SOL    HW111189   0.786   5.319   6.658
 3430SOL    HW211190   0.782   5.181   6.572
 3431SOL     OW11191   1.717   5.964   6.589
 3431SOL    HW111192   1.733   6.060   6.569
 3431SOL    HW211193   1.757   5.907   6.517
 3432SOL     OW11194   3.695   1.764   6.267
 3432SOL    HW111195   3.629   1.838   6.278
 3432SOL    HW211196   3.689   1.703   6.346
 3433SOL     OW11197   4.492   0.826   4.062
 3433SOL    HW111198   4.509   0.924   4.054
 3433SOL    HW211199   4.528   0.793   4.150
 3434SOL     OW11200   4.314   1.797   3.534
 3434SOL    HW111201   4.393   1.846   3.498
 3434SOL    HW211202   4.312   1.704   3.498
 3435SOL     OW11203   0.982   1.312   0.098
 3435SOL    HW111204   0.894   1.358   0.090
 3435SOL    HW211205   1.014   1.284   0.008
 3436SOL     OW11206   4.117   6.886   2.149
 3436SOL    HW111207   4.217   6.877   2.141
 3436SOL    HW211208   4.090   6.979   2.126
 3437SOL     OW11209   4.465   0.503   0.160
 3437SOL    HW111210   4.412   0.588   0.149
 3437SOL    HW211211   4.559   0.518   0.131
 3438SOL     OW11212   0.631   5.140   6.343
 3438SOL    HW111213   0.653   5.109   6.436
 3438SOL    HW211214   0.694   5.212   6.316
 3439SOL     OW11215   2.161   0.681   4.067
 3439SOL    HW111216   2.177   0.589   4.103
 3439SOL    HW211217   2.210   0.692   3.981
 3440SOL     OW11218   3.433   2.038   0.196
 3440SOL    HW111219   3.453   2.116   0.136
 3440SOL    HW211220   3.380   1.970   0.145
 3441SOL     OW11221   4.705   0.214   4.340
 3441SOL    HW111222   4.669   0.256   4.257
 3441SOL    HW211223   4.641   0.227   4.416
 3442SOL     OW11224   0.932   5.005   3.085
 3442SOL    HW111225   0.972   5.012   2.994
 3442SOL    HW211226   0.834   5.022   3.080
 3443SOL     OW11227   5.733   6.495   4.486
 3443SOL    HW111228   5.757   6.454   4.398
 3443SOL    HW211229   5.815   6.537   4.527
 3444SOL     OW11230   3.949   5.511   0.054
 3444SOL    HW111231   3.923   5.423   0.015
 3444SOL    HW211232   3.872   5.549   0.105
 3445SOL     OW11233   5.700   5.010   5.380
 3445SOL    HW111234   5.617   5.065   5.376
 3445SOL    HW211235   5.711   4.959   5.294
 3446SOL     OW11236   2.319   6.498   1.876
 3446SOL    HW111237   2.319   6.401   1.855
 3446SOL    HW211238   2.271   6.513   1.963
 3447SOL     OW11239   6.218   4.488   5.445
 3447SOL    HW111240   6.187   4.414   5.505
 3447SOL    HW211241   6.228   4.572   5.499
 3448SOL     OW11242   4.110   3.288   0.766
 3448SOL    HW111243   4.073   3.281   0.859
 3448SOL    HW211244   4.044   3.334   0.707
 3449SOL     OW11245   6.526   6.171   3.368
 3449SOL    HW111246   6.481   6.258   3.387
 3449SOL    HW211247   6.624   6.179   3.389
 3450SOL     OW11248   0.817   2.014   1.332
 3450SOL    HW111249   0.768   1.952   1.393
 3450SOL    HW211250   0.751   2.068   1.280
 3451SOL     OW11251   1.966   4.825   4.672
 3451SOL    HW111252   1.919   4.912   4.688
 3451SOL    HW211253   1.920   4.775   4.598
 3452SOL     OW11254   6.742   1.854   0.729
 3452SOL    HW111255   6.775   1.777   0.784
 3452SOL    HW211256   6.746   1.938   0.783
 3453SOL     OW11257   5.631   5.945   5.458
 3453SOL    HW111258   5.617   5.996   5.373
 3453SOL    HW211259   5.709   5.883   5.447
 3454SOL     OW11260   0.398   1.092   0.765
 3454SOL    HW111261   0.395   1.191   0.747
 3454SOL    HW211262   0.452   1.074   0.846
 3455SOL     OW11263   1.488   2.879   3.336
 3455SOL    HW111264   1.420   2.818   3.376
 3455SOL    HW211265   1.509   2.849   3.243
 3456SOL     OW11266   6.764   0.399   0.308
 3456SOL    HW111267   6.709   0.317   0.326
 3456SOL    HW211268   6.860   0.373   0.298
 3457SOL     OW11269   2.181   6.819   3.561
 3457SOL    HW111270   2.201   6.765   3.643
 3457SOL    HW211271   2.082   6.831   3.552
 3458SOL     OW11272   5.360   5.049   0.346
 3458SOL    HW111273   5.288   4.987   0.316
 3458SOL    HW211274   5.333   5.092   0.433
 3459SOL     OW11275   6.054   0.182   3.221
 3459SOL    HW111276   6.074   0.272   3.181
 3459SOL    HW211277   5.970   0.187   3.275
 3460SOL     OW11278   4.152   2.752   0.176
 3460SOL    HW111279   4.133   2.795   0.264
 3460SOL    HW211280   4.123   2.656   0.178
 3461SOL     OW11281   2.713   6.148   2.958
 3461SOL    HW111282   2.702   6.100   2.871
 3461SOL    HW211283   2.751   6.086   3.027
 3462SOL     OW11284   4.820   2.481   2.736
 3462SOL    HW111285   4.773   2.560   2.774
 3462SOL    HW211286   4.895   2.511   2.677
 3463SOL     OW11287   1.329   3.310   0.845
 3463SOL    HW111288   1.417   3.357   0.852
 3463SOL    HW211289   1.286   3.332   0.757
 3464SOL     OW11290   5.499   1.534   6.031
 3464SOL    HW111291   5.411   1.578   6.051
 3464SOL    HW211292   5.556   1.596   5.978
 3465SOL     OW11293   1.702   4.728   1.653
 3465SOL    HW111294   1.726   4.806   1.596
 3465SOL    HW211295   1.753   4.733   1.739
 3466SOL     OW11296   6.444   3.973   4.604
 3466SOL    HW111297   6.528   3.980   4.552
 3466SOL    HW211298   6.451   3.898   4.670
 3467SOL     OW11299   3.824   3.143   0.532
 3467SOL    HW111300   3.788   3.233   0.557
 3467SOL    HW211301   3.752   3.089   0.489
 3468SOL     OW11302   4.119   1.407   1.307
 3468SOL    HW111303   4.066   1.327   1.278
 3468SOL    HW211304   4.201   1.377   1.355
 3469SOL     OW11305   3.787   5.411   5.137
 3469SOL    HW111306   3.717   5.345   5.164
 3469SOL    HW211307   3.750   5.503   5.142
 3470SOL     OW11308   1.390   2.654   1.896
 3470SOL    HW111309   1.400   2.627   1.992
 3470SOL    HW211310   1.398   2.573   1.838
 3471SOL     OW11311   5.171   3.094   4.769
 3471SOL    HW111312   5.082   3.052   4.751
 3471SOL    HW211313   5.162   3.193   4.768
 3472SOL     OW11314   5.033   1.845   2.500
 3472SOL    HW111315   5.072   1.887   2.419
 3472SOL    HW211316   5.077   1.757   2.518
 3473SOL     OW11317   6.092   4.602   1.798
 3473SOL    HW111318   6.126   4.613   1.705
 3473SOL    HW211319   5.998   4.568   1.796
 3474SOL     OW11320   4.570   4.369   3.663
 3474SOL    HW111321   4.516   4.446   3.696
 3474SOL    HW211322   4.622   4.328   3.738
 3475SOL     OW11323   0.227   4.030   4.302
 3475SOL    HW111324   0.255   4.126   4.300
 3475SOL    HW211325   0.309   3.972   4.308
 3476SOL     OW11326   1.713   2.104   3.043
 3476SOL    HW111327   1.670   2.131   2.956
 3476SOL    HW211328   1.772   2.025   3.027
 3477SOL     OW11329   0.895   4.338   1.788
 3477SOL    HW111330   0.985   4.297   1.774
 3477SOL    HW211331   0.865   4.322   1.882
 3478SOL     OW11332   2.607   0.545   1.300
 3478SOL    HW111333   2.591   0.446   1.300
 3478SOL    HW211334   2.557   0.586   1.376
 3479SOL     OW11335   0.773   4.221   5.203
 3479SOL    HW111336   0.848   4.194   5.142
 3479SOL    HW211337   0.807   4.229   5.296
 3480SOL     OW11338   1.373   4.731   6.406
 3480SOL    HW111339   1.341   4.675   6.330
 3480SOL    HW211340   1.388   4.673   6.486
 3481SOL     OW11341   5.987   0.585   4.721
 3481SOL    HW111342   5.973   0.567   4.819
 3481SOL    HW211343   6.031   0.674   4.710
 3482SOL     OW11344   6.036   3.090   6.825
 3482SOL    HW111345   6.030   3.062   6.729
 3482SOL    HW211346   5.944   3.097   6.863
 3483SOL     OW11347   5.089   2.650   5.276
 3483SOL    HW111348   5.092   2.739   5.230
 3483SOL    HW211349   5.163   2.593   5.242
 3484SOL     OW11350   1.349   3.059   4.441
 3484SOL    HW111351   1.281   3.002   4.488
 3484SOL    HW211352   1.301   3.128   4.385
 3485SOL     OW11353   6.876   3.241   0.116
 3485SOL    HW111354   6.873   3.171   0.188
 3485SOL    HW211355   6.790   3.292   0.116
 3486SOL     OW11356   1.980   6.644   5.045
 3486SOL    HW111357   1.930   6.561   5.068
 3486SOL    HW211358   1.951   6.719   5.104
 3487SOL     OW11359   4.173   1.766   7.007
 3487SOL    HW111360   4.125   1.853   6.991
 3487SOL    HW211361   4.112   1.690   6.985
 3488SOL     OW11362   5.357   6.560   4.988
 3488SOL    HW111363   5.410   6.606   4.917
 3488SOL    HW211364   5.310   6.628   5.044
 3489SOL     OW11365   3.233   6.139   0.658
 3489SOL    HW111366   3.247   6.235   0.682
 3489SOL    HW211367   3.316   6.087   0.680
 3490SOL     OW11368   3.497   6.542   1.088
 3490SOL    HW111369   3.450   6.573   1.006
 3490SOL    HW211370   3.588   6.507   1.063
 3491SOL     OW11371   4.470   4.644   6.051
 3491SOL    HW111372   4.565   4.611   6.048
 3491SOL    HW211373   4.412   4.581   5.999
 3492SOL     OW11374   6.013   4.139   3.381
 3492SOL    HW111375   5.979   4.228   3.353
 3492SOL    HW211376   6.111   4.145   3.399
 3493SOL     OW11377   0.094   3.386   5.822
 3493SOL    HW111378   0.014   3.356   5.769
 3493SOL    HW211379   0.153   3.442   5.764
 3494SOL     OW11380   3.690   1.378   2.030
 3494SOL    HW111381   3.770   1.320   2.042
 3494SOL    HW211382   3.712   1.455   1.970
 3495SOL     OW11383   1.605   3.984   3.592
 3495SOL    HW111384   1.576   3.957   3.683
 3495SOL    HW211385   1.688   3.934   3.566
 3496SOL     OW11386   6.361   5.245   1.059
 3496SOL    HW111387   6.342   5.147   1.066
 3496SOL    HW211388   6.391   5.279   1.149
 3497SOL     OW11389   3.245   0.223   1.756
 3497SOL    HW111390   3.180   0.149   1.772
 3497SOL    HW211391   3.332   0.201   1.800
 3498SOL     OW11392   2.762   2.583   1.595
 3498SOL    HW111393   2.718   2.502   1.555
 3498SOL    HW211394   2.713   2.609   1.679
 3499SOL     OW11395   5.844   6.163   4.695
 3499SOL    HW111396   5.859   6.072   4.734
 3499SOL    HW211397   5.749   6.189   4.708
 3500SOL     OW11398   3.092   2.181   4.025
 3500SOL    HW111399   3.133   2.157   3.937
 3500SOL    HW211400   3.131   2.121   4.096
 3501SOL     OW11401   1.195   6.568   6.128
 3501SOL    HW111402   1.259   6.524   6.065
 3501SOL    HW211403   1.150   6.645   6.082
 3502SOL     OW11404   4.789   2.288   1.756
 3502SOL    HW111405   4.731   2.337   1.820
 3502SOL    HW211406   4.738   2.269   1.672
 3503SOL     OW11407   1.019   5.624   6.324
 3503SOL    HW111408   1.108   5.646   6.284
 3503SOL    HW211409   1.028   5.546   6.386
 3504SOL     OW11410   1.793   1.028   0.155
 3504SOL    HW111411   1.888   1.009   0.180
 3504SOL    HW211412   1.746   0.942   0.134
 3505SOL     OW11413   4.731   3.023   5.577
 3505SOL    HW111414   4.698   2.929   5.585
 3505SOL    HW211415   4.780   3.047   5.661
 3506SOL     OW11416   4.373   4.796   5.102
 3506SOL    HW111417   4.284   4.840   5.097
 3506SOL    HW211418   4.362   4.697   5.101
 3507SOL     OW11419   3.377   1.070   0.627
 3507SOL    HW111420   3.344   1.115   0.545
 3507SOL    HW211421   3.407   1.139   0.694
 3508SOL     OW11422   3.684   1.475   6.002
 3508SOL    HW111423   3.759   1.497   6.064
 3508SOL    HW211424   3.637   1.559   5.976
 3509SOL     OW11425   4.162   5.529   6.629
 3509SOL    HW111426   4.121   5.483   6.708
 3509SOL    HW211427   4.139   5.626   6.631
 3510SOL     OW11428   2.395   1.427   1.578
 3510SOL    HW111429   2.439   1.420   1.488
 3510SOL    HW211430   2.351   1.340   1.601
 3511SOL     OW11431   2.569   4.572   1.790
 3511SOL    HW111432   2.528   4.482   1.806
 3511SOL    HW211433   2.654   4.579   1.842
 3512SOL     OW11434   0.041   5.435   6.224
 3512SOL    HW111435   0.079   5.525   6.199
 3512SOL    HW211436   7.015   5.396   6.146
 3513SOL     OW11437   5.929   1.884   0.630
 3513SOL    HW111438   5.970   1.939   0.557
 3513SOL    HW211439   5.889   1.945   0.699
 3514SOL     OW11440   3.057   1.541   1.827
 3514SOL    HW111441   3.105   1.620   1.788
 3514SOL    HW211442   3.017   1.566   1.915
 3515SOL     OW11443   0.350   4.825   4.735
 3515SOL    HW111444   0.347   4.808   4.833
 3515SOL    HW211445   0.445   4.834   4.706
 3516SOL     OW11446   4.856   0.577   1.438
 3516SOL    HW111447   4.890   0.572   1.533
 3516SOL    HW211448   4.788   0.650   1.431
 3517SOL     OW11449   4.931   0.904   1.577
 3517SOL    HW111450   4.847   0.905   1.523
 3517SOL    HW211451   4.909   0.879   1.672
 3518SOL     OW11452   5.545   1.179   4.953
 3518SOL    HW111453   5.498   1.265   4.936
 3518SOL    HW211454   5.636   1.182   4.911
 3519SOL     OW11455   3.421   1.400   0.989
 3519SOL    HW111456   3.462   1.489   1.008
 3519SOL    HW211457   3.400   1.354   1.076
 3520SOL     OW11458   2.710   6.045   4.221
 3520SOL    HW111459   2.634   6.102   4.253
 3520SOL    HW211460   2.796   6.079   4.259
 3521SOL     OW11461   2.662   2.765   6.279
 3521SOL    HW111462   2.620   2.729   6.195
 3521SOL    HW211463   2.637   2.706   6.356
 3522SOL     OW11464   1.155   6.347   6.573
 3522SOL    HW111465   1.221   6.420   6.554
 3522SOL    HW211466   1.185   6.263   6.529
 3523SOL     OW11467   3.299   5.843   0.077
 3523SOL    HW111468   3.310   5.937   0.108
 3523SOL    HW211469   3.385   5.812   0.035
 3524SOL     OW11470   4.673   1.067   3.725
 3524SOL    HW111471   4.673   0.975   3.766
 3524SOL    HW211472   4.724   1.130   3.783
 3525SOL     OW11473   0.204   3.037   3.293
 3525SOL    HW111474   0.211   3.096   3.213
 3525SOL    HW211475   0.281   2.974   3.296
 3526SOL     OW11476   0.484   6.685   2.187
 3526SOL    HW111477   0.389   6.700   2.217
 3526SOL    HW211478   0.484   6.632   2.103
 3527SOL     OW11479   6.769   2.824   6.626
 3527SOL    HW111480   6.738   2.880   6.702
 3527SOL    HW211481   6.741   2.865   6.539
 3528SOL     OW11482   2.067   5.054   5.052
 3528SOL    HW111483   2.165   5.062   5.038
 3528SOL    HW211484   2.042   4.957   5.060
 3529SOL     OW11485   4.664   4.755   0.762
 3529SOL    HW111486   4.669   4.656   0.777
 3529SOL    HW211487   4.755   4.789   0.736
 3530SOL     OW11488   6.710   6.979   0.578
 3530SOL    HW111489   6.770   6.924   0.519
 3530SOL    HW211490   6.615   6.964   0.550
 3531SOL     OW11491   4.514   2.080   0.481
 3531SOL    HW111492   4.441   2.031   0.434
 3531SOL    HW211493   4.572   2.015   0.530
 3532SOL     OW11494   2.417   0.642   1.498
 3532SOL    HW111495   2.506   0.672   1.534
 3532SOL    HW211496   2.345   0.702   1.533
 3533SOL     OW11497   1.685   2.599   3.273
 3533SOL    HW111498   1.772   2.648   3.270
 3533SOL    HW211499   1.696   2.509   3.231
 3534SOL     OW11500   0.559   1.102   1.000
 3534SOL    HW111501   0.525   1.145   1.084
 3534SOL    HW211502   0.599   1.013   1.023
 3535SOL     OW11503   3.407   6.617   3.737
 3535SOL    HW111504   3.401   6.533   3.684
 3535SOL    HW211505   3.435   6.595   3.831
 3536SOL     OW11506   4.059   1.848   3.413
 3536SOL    HW111507   4.143   1.822   3.461
 3536SOL    HW211508   4.058   1.804   3.323
 3537SOL     OW11509   1.887   0.058   3.158
 3537SOL    HW111510   1.904   0.062   3.256
 3537SOL    HW211511   1.885   6.985   3.128
 3538SOL     OW11512   3.176   5.318   1.787
 3538SOL    HW111513   3.113   5.339   1.862
 3538SOL    HW211514   3.219   5.229   1.804
 3539SOL     OW11515   3.329   4.049   4.395
 3539SOL    HW111516   3.252   4.033   4.457
 3539SOL    HW211517   3.346   3.966   4.341
 3540SOL     OW11518   1.543   2.356   3.484
 3540SOL    HW111519   1.543   2.257   3.473
 3540SOL    HW211520   1.601   2.398   3.415
 3541SOL     OW11521   3.925   3.827   4.667
 3541SOL    HW111522   3.993   3.757   4.646
 3541SOL    HW211523   3.914   3.835   4.766
 3542SOL     OW11524   6.680   5.359   1.130
 3542SOL    HW111525   6.600   5.416   1.151
 3542SOL    HW211526   6.735   5.403   1.059
 3543SOL     OW11527   5.414   2.457   4.386
 3543SOL    HW111528   5.367   2.426   4.304
 3543SOL    HW211529   5.451   2.548   4.371
 3544SOL     OW11530   2.736   6.728   0.173
 3544SOL    HW111531   2.735   6.634   0.141
 3544SOL    HW211532   2.824   6.771   0.150
 3545SOL     OW11533   3.101   5.319   0.578
 3545SOL    HW111534   3.008   5.355   0.591
 3545SOL    HW211535   3.105   5.225   0.612
 3546SOL     OW11536   0.947   4.596   2.559
 3546SOL    HW111537   0.905   4.625   2.645
 3546SOL    HW211538   1.036   4.641   2.549
 3547SOL     OW11539   5.231   4.810   4.495
 3547SOL    HW111540   5.209   4.888   4.555
 3547SOL    HW211541   5.232   4.726   4.549
 3548SOL     OW11542   4.726   3.371   5.722
 3548SOL    HW111543   4.629   3.360   5.700
 3548SOL    HW211544   4.754   3.465   5.701
 3549SOL     OW11545   4.882   3.632   2.379
 3549SOL    HW111546   4.858   3.638   2.282
 3549SOL    HW211547   4.962   3.572   2.390
 3550SOL     OW11548   4.935   1.603   3.448
 3550SOL    HW111549   4.909   1.578   3.355
 3550SOL    HW211550   5.035   1.615   3.452
 3551SOL     OW11551   1.926   6.618   2.501
 3551SOL    HW111552   1.942   6.638   2.598
 3551SOL    HW211553   1.887   6.526   2.492
 3552SOL     OW11554   6.417   4.216   2.731
 3552SOL    HW111555   6.320   4.240   2.719
 3552SOL    HW211556   6.474   4.278   2.677
 3553SOL     OW11557   6.318   1.640   3.274
 3553SOL    HW111558   6.323   1.545   3.304
 3553SOL    HW211559   6.224   1.662   3.249
 3554SOL     OW11560   4.289   5.669   6.923
 3554SOL    HW111561   4.314   5.573   6.909
 3554SOL    HW211562   4.354   5.711   6.987
 3555SOL     OW11563   1.000   2.269   3.866
 3555SOL    HW111564   1.015   2.276   3.965
 3555SOL    HW211565   1.056   2.195   3.830
 3556SOL     OW11566   4.275   1.589   6.532
 3556SOL    HW111567   4.289   1.678   6.489
 3556SOL    HW211568   4.338   1.579   6.609
 3557SOL     OW11569   0.716   0.153   4.143
 3557SOL    HW111570   0.654   0.230   4.133
 3557SOL    HW211571   0.677   0.087   4.208
 3558SOL     OW11572   0.504   6.581   1.302
 3558SOL    HW111573   0.499   6.487   1.268
 3558SOL    HW211574   0.600   6.611   1.301
 3559SOL     OW11575   0.938   0.452   5.940
 3559SOL    HW111576   0.917   0.549   5.932
 3559SOL    HW211577   1.002   0.425   5.868
 3560SOL     OW11578   7.013   0.221   1.623
 3560SOL    HW111579   0.022   0.173   1.704
 3560SOL    HW211580   0.012   0.167   1.541
 3561SOL     OW11581   5.557   4.536   3.866
 3561SOL    HW111582   5.529   4.448   3.828
 3561SOL    HW211583   5.475   4.588   3.892
 3562SOL     OW11584   4.022   2.154   2.474
 3562SOL    HW111585   4.098   2.211   2.443
 3562SOL    HW211586   3.967   2.125   2.395
 3563SOL     OW11587   4.535   6.408   1.789
 3563SOL    HW111588   4.568   6.377   1.700
 3563SOL    HW211589   4.436   6.425   1.784
 3564SOL     OW11590   6.359   4.468   2.551
 3564SOL    HW111591   6.351   4.549   2.610
 3564SOL    HW211592   6.340   4.494   2.456
 3565SOL     OW11593   1.088   0.887   5.451
 3565SOL    HW111594   1.174   0.835   5.451
 3565SOL    HW211595   1.044   0.879   5.362
 3566SOL     OW11596   1.077   4.303   5.661
 3566SOL    HW111597   1.141   4.376   5.638
 3566SOL    HW211598   1.034   4.323   5.749
 3567SOL     OW11599   0.096   2.261   1.443
 3567SOL    HW111600   0.070   2.201   1.368
 3567SOL    HW211601   0.080   2.215   1.530
 3568SOL     OW11602   4.726   4.325   3.437
 3568SOL    HW111603   4.815   4.360   3.465
 3568SOL    HW211604   4.664   4.326   3.515
 3569SOL     OW11605   4.116   3.445   3.646
 3569SOL    HW111606   4.115   3.493   3.734
 3569SOL    HW211607   4.125   3.347   3.662
 3570SOL     OW11608   0.427   2.187   5.441
 3570SOL    HW111609   0.501   2.249   5.467
 3570SOL    HW211610   0.387   2.147   5.523
 3571SOL     OW11611   3.073   0.376   4.718
 3571SOL    HW111612   3.149   0.346   4.661
 3571SOL    HW211613   2.995   0.315   4.705
 3572SOL     OW11614   5.024   4.268   2.530
 3572SOL    HW111615   5.082   4.348   2.538
 3572SOL    HW211616   4.932   4.290   2.563
 3573SOL     OW11617   0.320   4.967   4.086
 3573SOL    HW111618   0.300   4.931   3.995
 3573SOL    HW211619   0.385   4.906   4.132
 3574SOL     OW11620   1.841   1.704   6.031
 3574SOL    HW111621   1.871   1.731   6.122
 3574SOL    HW211622   1.782   1.624   6.038
 3575SOL     OW11623   4.840   0.696   6.439
 3575SOL    HW111624   4.885   0.718   6.525
 3575SOL    HW211625   4.756   0.749   6.430
 3576SOL     OW11626   1.179   2.731   0.657
 3576SOL    HW111627   1.211   2.809   0.710
 3576SOL    HW211628   1.083   2.743   0.633
 3577SOL     OW11629   1.801   3.395   4.664
 3577SOL    HW111630   1.762   3.383   4.756
 3577SOL    HW211631   1.817   3.305   4.623
 3578SOL     OW11632   4.359   2.601   0.342
 3578SOL    HW111633   4.377   2.601   0.440
 3578SOL    HW211634   4.438   2.639   0.294
 3579SOL     OW11635   1.076   3.500   1.918
 3579SOL    HW111636   1.131   3.555   1.980
 3579SOL    HW211637   1.122   3.495   1.829
 3580SOL     OW11638   6.966   4.114   1.890
 3580SOL    HW111639   0.041   4.133   1.876
 3580SOL    HW211640   6.936   4.156   1.975
 3581SOL     OW11641   1.874   0.197   2.420
 3581SOL    HW111642   1.816   0.115   2.412
 3581SOL    HW211643   1.843   0.252   2.498
 3582SOL     OW11644   4.736   6.214   6.911
 3582SOL    HW111645   4.779   6.239   6.998
 3582SOL    HW211646   4.675   6.136   6.925
 3583SOL     OW11647   1.698   5.722   1.309
 3583SOL    HW111648   1.670   5.794   1.372
 3583SOL    HW211649   1.618   5.666   1.285
 3584SOL     OW11650   5.749   4.789   4.892
 3584SOL    HW111651   5.742   4.692   4.866
 3584SOL    HW211652   5.804   4.837   4.824
 3585SOL     OW11653   4.122   2.138   3.790
 3585SOL    HW111654   4.194   2.187   3.741
 3585SOL    HW211655   4.053   2.106   3.725
 3586SOL     OW11656   6.342   2.702   5.592
 3586SOL    HW111657   6.338   2.796   5.559
 3586SOL    HW211658   6.437   2.670   5.593
 3587SOL     OW11659   2.437   0.599   6.187
 3587SOL    HW111660   2.453   0.659   6.266
 3587SOL    HW211661   2.470   0.644   6.104
 3588SOL     OW11662   5.865   3.340   3.844
 3588SOL    HW111663   5.817   3.393   3.775
 3588SOL    HW211664   5.930   3.399   3.892
 3589SOL     OW11665   0.441   0.899   6.300
 3589SOL    HW111666   0.453   0.920   6.397
 3589SOL    HW211667   0.420   0.802   6.290
 3590SOL     OW11668   6.214   5.040   5.494
 3590SOL    HW111669   6.284   4.970   5.481
 3590SOL    HW211670   6.138   5.023   5.430
 3591SOL     OW11671   4.968   2.021   0.686
 3591SOL    HW111672   5.032   1.944   0.679
 3591SOL    HW211673   4.918   2.031   0.601
 3592SOL     OW11674   1.491   6.449   1.389
 3592SOL    HW111675   1.488   6.473   1.292
 3592SOL    HW211676   1.405   6.476   1.433
 3593SOL     OW11677   4.311   3.097   5.609
 3593SOL    HW111678   4.383   3.161   5.582
 3593SOL    HW211679   4.225   3.124   5.565
 3594SOL     OW11680   4.625   4.528   5.119
 3594SOL    HW111681   4.631   4.552   5.215
 3594SOL    HW211682   4.528   4.523   5.092
 3595SOL     OW11683   4.371   6.925   5.401
 3595SOL    HW111684   4.438   6.999   5.405
 3595SOL    HW211685   4.286   6.960   5.361
 3596SOL     OW11686   3.521   1.490   2.217
 3596SOL    HW111687   3.568   1.578   2.216
 3596SOL    HW211688   3.580   1.421   2.175
 3597SOL     OW11689   4.040   4.515   5.626
 3597SOL    HW111690   3.975   4.506   5.551
 3597SOL    HW211691   4.000   4.476   5.709
 3598SOL     OW11692   6.912   5.257   4.695
 3598SOL    HW111693   6.918   5.196   4.616
 3598SOL    HW211694   6.862   5.210   4.769
 3599SOL     OW11695   2.224   1.255   4.999
 3599SOL    HW111696   2.188   1.166   5.027
 3599SOL    HW211697   2.301   1.280   5.057
 3600SOL     OW11698   2.468   4.282   1.013
 3600SOL    HW111699   2.478   4.380   1.029
 3600SOL    HW211700   2.458   4.265   0.915
 3601SOL     OW11701   3.563   0.589   5.200
 3601SOL    HW111702   3.637   0.655   5.186
 3601SOL    HW211703   3.537   0.589   5.296
 3602SOL     OW11704   1.824   2.135   1.045
 3602SOL    HW111705   1.759   2.099   0.978
 3602SOL    HW211706   1.820   2.235   1.044
 3603SOL     OW11707   1.539   0.029   6.135
 3603SOL    HW111708   1.587   0.058   6.218
 3603SOL    HW211709   1.548   6.953   6.124
 3604SOL     OW11710   6.644   0.958   4.137
 3604SOL    HW111711   6.631   0.860   4.122
 3604SOL    HW211712   6.587   0.987   4.213
 3605SOL     OW11713   1.322   0.173   4.952
 3605SOL    HW111714   1.349   0.211   4.863
 3605SOL    HW211715   1.246   0.225   4.989
 3606SOL     OW11716   2.770   0.291   2.999
 3606SOL    HW111717   2.826   0.220   3.042
 3606SOL    HW211718   2.819   0.378   3.001
 3607SOL     OW11719   6.090   1.430   3.849
 3607SOL    HW111720   6.112   1.395   3.940
 3607SOL    HW211721   6.080   1.353   3.786
 3608SOL     OW11722   3.853   2.074   5.676
 3608SOL    HW111723   3.873   2.169   5.650
 3608SOL    HW211724   3.858   2.015   5.595
 3609SOL     OW11725   3.119   6.908   4.969
 3609SOL    HW111726   3.131   6.886   4.872
 3609SOL    HW211727   3.190   6.863   5.023
 3610SOL     OW11728   1.764   0.287   5.755
 3610SOL    HW111729   1.802   0.232   5.680
 3610SOL    HW211730   1.806   0.378   5.753
 3611SOL     OW11731   5.430   3.446   3.411
 3611SOL    HW111732   5.399   3.520   3.351
 3611SOL    HW211733   5.357   3.423   3.476
 3612SOL     OW11734   4.662   1.815   0.494
 3612SOL    HW111735   4.657   1.745   0.566
 3612SOL    HW211736   4.627   1.777   0.408
 3613SOL     OW11737   3.802   0.581   2.867
 3613SOL    HW111738   3.807   0.483   2.887
 3613SOL    HW211739   3.849   0.632   2.939
 3614SOL     OW11740   3.521   5.718   0.296
 3614SOL    HW111741   3.436   5.665   0.293
 3614SOL    HW211742   3.599   5.656   0.294
 3615SOL     OW11743   5.601   2.505   4.848
 3615SOL    HW111744   5.623   2.414   4.814
 3615SOL    HW211745   5.685   2.560   4.852
 3616SOL     OW11746   1.448   1.535   1.188
 3616SOL    HW111747   1.451   1.484   1.102
 3616SOL    HW211748   1.433   1.472   1.264
 3617SOL     OW11749   4.116   5.160   4.712
 3617SOL    HW111750   4.023   5.196   4.715
 3617SOL    HW211751   4.120   5.072   4.759
 3618SOL     OW11752   1.137   5.383   4.678
 3618SOL    HW111753   1.037   5.383   4.669
 3618SOL    HW211754   1.174   5.301   4.635
 3619SOL     OW11755   6.693   2.152   2.785
 3619SOL    HW111756   6.772   2.098   2.756
 3619SOL    HW211757   6.703   2.246   2.751
 3620SOL     OW11758   4.959   6.281   5.564
 3620SOL    HW111759   4.910   6.350   5.510
 3620SOL    HW211760   5.039   6.250   5.513
 3621SOL     OW11761   3.065   3.329   3.446
 3621SOL    HW111762   3.121   3.342   3.528
 3621SOL    HW211763   3.111   3.267   3.384
 3622SOL     OW11764   2.709   5.807   6.326
 3622SOL    HW111765   2.671   5.729   6.276
 3622SOL    HW211766   2.635   5.867   6.355
 3623SOL     OW11767   1.441   5.995   5.733
 3623SOL    HW111768   1.476   6.086   5.752
 3623SOL    HW211769   1.345   6.002   5.703
 3624SOL     OW11770   2.915   1.713   2.823
 3624SOL    HW111771   2.898   1.740   2.918
 3624SOL    HW211772   2.927   1.614   2.818
 3625SOL     OW11773   5.857   2.621   1.986
 3625SOL    HW111774   5.881   2.525   2.006
 3625SOL    HW211775   5.791   2.624   1.911
 3626SOL     OW11776   0.954   3.265   5.714
 3626SOL    HW111777   0.902   3.209   5.649
 3626SOL    HW211778   1.013   3.206   5.769
 3627SOL     OW11779   3.256   1.496   2.553
 3627SOL    HW111780   3.353   1.499   2.574
 3627SOL    HW211781   3.211   1.429   2.612
 3628SOL     OW11782   6.938   0.839   1.672
 3628SOL    HW111783   6.978   0.864   1.760
 3628SOL    HW211784   6.847   0.799   1.687
 3629SOL     OW11785   1.457   0.886   4.503
 3629SOL    HW111786   1.388   0.814   4.499
 3629SOL    HW211787   1.519   0.869   4.580
 3630SOL     OW11788   6.451   2.260   2.469
 3630SOL    HW111789   6.454   2.168   2.508
 3630SOL    HW211790   6.397   2.260   2.386
 3631SOL     OW11791   2.062   5.348   2.872
 3631SOL    HW111792   2.073   5.297   2.957
 3631SOL    HW211793   2.051   5.445   2.893
 3632SOL     OW11794   5.204   3.048   2.505
 3632SOL    HW111795   5.116   3.094   2.494
 3632SOL    HW211796   5.273   3.115   2.533
 3633SOL     OW11797   4.394   5.122   5.883
 3633SOL    HW111798   4.433   5.212   5.901
 3633SOL    HW211799   4.323   5.130   5.813
 3634SOL     OW11800   2.824   5.376   6.115
 3634SOL    HW111801   2.859   5.420   6.198
 3634SOL    HW211802   2.730   5.344   6.132
 3635SOL     OW11803   1.960   0.086   2.857
 3635SOL    HW111804   1.883   0.051   2.805
 3635SOL    HW211805   1.934   0.096   2.953
 3636SOL     OW11806   6.689   6.138   4.615
 3636SOL    HW111807   6.650   6.057   4.659
 3636SOL    HW211808   6.615   6.201   4.590
 3637SOL     OW11809   5.207   2.509   6.651
 3637SOL    HW111810   5.213   2.512   6.551
 3637SOL    HW211811   5.131   2.450   6.678
 3638SOL     OW11812   0.796   2.383   3.757
 3638SOL    HW111813   0.873   2.334   3.796
 3638SOL    HW211814   0.761   2.333   3.678
 3639SOL     OW11815   3.730   3.611   4.082
 3639SOL    HW111816   3.737   3.605   4.181
 3639SOL    HW211817   3.792   3.544   4.040
 3640SOL     OW11818   4.820   1.429   2.212
 3640SOL    HW111819   4.726   1.406   2.186
 3640SOL    HW211820   4.870   1.461   2.131
 3641SOL     OW11821   0.591   3.453   1.684
 3641SOL    HW111822   0.654   3.472   1.608
 3641SOL    HW211823   0.601   3.524   1.754
 3642SOL     OW11824   4.659   4.179   6.421
 3642SOL    HW111825   4.595   4.213   6.491
 3642SOL    HW211826   4.670   4.248   6.350
 3643SOL     OW11827   4.349   5.670   4.805
 3643SOL    HW111828   4.296   5.650   4.887
 3643SOL    HW211829   4.389   5.585   4.771
 3644SOL     OW11830   3.558   1.243   1.629
 3644SOL    HW111831   3.514   1.325   1.666
 3644SOL    HW211832   3.495   1.196   1.568
 3645SOL     OW11833   2.047   3.857   3.304
 3645SOL    HW111834   2.086   3.772   3.340
 3645SOL    HW211835   2.049   3.854   3.204
 3646SOL     OW11836   2.530   4.907   5.074
 3646SOL    HW111837   2.598   4.864   5.133
 3646SOL    HW211838   2.458   4.948   5.130
 3647SOL     OW11839   3.318   0.240   0.746
 3647SOL    HW111840   3.386   0.296   0.699
 3647SOL    HW211841   3.266   0.298   0.810
 3648SOL     OW11842   5.481   4.682   3.501
 3648SOL    HW111843   5.548   4.687   3.574
 3648SOL    HW211844   5.527   4.661   3.415
 3649SOL     OW11845   5.828   2.763   0.168
 3649SOL    HW111846   5.833   2.712   0.082
 3649SOL    HW211847   5.898   2.834   0.169
 3650SOL     OW11848   5.262   6.651   0.265
 3650SOL    HW111849   5.340   6.621   0.320
 3650SOL    HW211850   5.286   6.647   0.168
 3651SOL     OW11851   1.316   1.772   5.901
 3651SOL    HW111852   1.233   1.828   5.892
 3651SOL    HW211853   1.297   1.680   5.865
 3652SOL     OW11854   5.743   2.210   2.399
 3652SOL    HW111855   5.797   2.129   2.378
 3652SOL    HW211856   5.797   2.272   2.456
 3653SOL     OW11857   2.444   1.798   0.783
 3653SOL    HW111858   2.376   1.749   0.729
 3653SOL    HW211859   2.449   1.893   0.752
 3654SOL     OW11860   4.098   6.041   0.912
 3654SOL    HW111861   4.083   6.013   1.007
 3654SOL    HW211862   4.010   6.045   0.864
 3655SOL     OW11863   1.122   0.308   4.335
 3655SOL    HW111864   1.180   0.323   4.415
 3655SOL    HW211865   1.118   0.210   4.315
 3656SOL     OW11866   0.352   0.601   0.924
 3656SOL    HW111867   0.332   0.688   0.969
 3656SOL    HW211868   0.436   0.610   0.870
 3657SOL     OW11869   6.341   4.675   6.285
 3657SOL    HW111870   6.244   4.651   6.291
 3657SOL    HW211871   6.357   4.761   6.333
 3658SOL     OW11872   1.301   4.740   5.538
 3658SOL    HW111873   1.308   4.758   5.636
 3658SOL    HW211874   1.390   4.751   5.495
 3659SOL     OW11875   0.992   1.937   0.081
 3659SOL    HW111876   1.064   1.980   0.027
 3659SOL    HW211877   0.984   1.984   0.169
 3660SOL     OW11878   4.265   4.741   4.671
 3660SOL    HW111879   4.332   4.680   4.715
 3660SOL    HW211880   4.302   4.833   4.665
 3661SOL     OW11881   1.206   1.146   5.234
 3661SOL    HW111882   1.109   1.171   5.241
 3661SOL    HW211883   1.243   1.180   5.147
 3662SOL     OW11884   3.743   2.367   5.624
 3662SOL    HW111885   3.706   2.376   5.716
 3662SOL    HW211886   3.813   2.437   5.609
 3663SOL     OW11887   1.323   2.530   5.632
 3663SOL    HW111888   1.316   2.617   5.682
 3663SOL    HW211889   1.307   2.547   5.534
 3664SOL     OW11890   2.314   1.922   1.094
 3664SOL    HW111891   2.294   1.849   1.028
 3664SOL    HW211892   2.299   1.888   1.187
 3665SOL     OW11893   7.009   6.724   4.631
 3665SOL    HW111894   0.084   6.723   4.608
 3665SOL    HW211895   6.956   6.716   4.546
 3666SOL     OW11896   1.965   3.513   5.014
 3666SOL    HW111897   2.013   3.538   4.930
 3666SOL    HW211898   2.031   3.503   5.089
 3667SOL     OW11899   2.340   6.708   1.561
 3667SOL    HW111900   2.357   6.794   1.512
 3667SOL    HW211901   2.426   6.671   1.595
 3668SOL     OW11902   4.938   1.154   0.599
 3668SOL    HW111903   5.013   1.150   0.665
 3668SOL    HW211904   4.924   1.064   0.558
 3669SOL     OW11905   6.848   0.798   2.097
 3669SOL    HW111906   6.784   0.839   2.162
 3669SOL    HW211907   6.931   0.854   2.092
 3670SOL     OW11908   2.278   6.742   2.418
 3670SOL    HW111909   2.213   6.813   2.390
 3670SOL    HW211910   2.304   6.757   2.513
 3671SOL     OW11911   0.411   0.496   5.570
 3671SOL    HW111912   0.428   0.476   5.474
 3671SOL    HW211913   0.415   0.411   5.623
 3672SOL     OW11914   2.964   0.488   3.926
 3672SOL    HW111915   2.979   0.542   3.843
 3672SOL    HW211916   2.959   0.549   4.005
 3673SOL     OW11917   3.304   1.297   1.219
 3673SOL    HW111918   3.241   1.238   1.169
 3673SOL    HW211919   3.255   1.376   1.255
 3674SOL     OW11920   6.829   4.898   6.112
 3674SOL    HW111921   6.907   4.872   6.169
 3674SOL    HW211922   6.761   4.825   6.113
 3675SOL     OW11923   6.009   0.303   5.034
 3675SOL    HW111924   5.963   0.389   5.057
 3675SOL    HW211925   6.075   0.280   5.105
 3676SOL     OW11926   1.866   1.037   5.450
 3676SOL    HW111927   1.950   0.998   5.412
 3676SOL    HW211928   1.860   1.014   5.548
 3677SOL     OW11929   1.074   0.889   4.880
 3677SOL    HW111930   1.168   0.863   4.897
 3677SOL    HW211931   1.060   0.985   4.904
 3678SOL     OW11932   2.762   0.825   3.743
 3678SOL    HW111933   2.682   0.846   3.798
 3678SOL    HW211934   2.800   0.910   3.705
 3679SOL     OW11935   3.247   0.640   2.016
 3679SOL    HW111936   3.216   0.680   1.929
 3679SOL    HW211937   3.216   0.697   2.092
 3680SOL     OW11938   4.186   1.606   3.965
 3680SOL    HW111939   4.124   1.674   3.926
 3680SOL    HW211940   4.195   1.622   4.064
 3681SOL     OW11941   1.188   5.353   3.389
 3681SOL    HW111942   1.208   5.446   3.420
 3681SOL    HW211943   1.219   5.288   3.458
 3682SOL     OW11944   5.326   1.243   1.766
 3682SOL    HW111945   5.293   1.220   1.675
 3682SOL    HW211946   5.350   1.159   1.815
 3683SOL     OW11947   6.502   1.970   1.303
 3683SOL    HW111948   6.546   2.039   1.246
 3683SOL    HW211949   6.571   1.908   1.341
 3684SOL     OW11950   2.956   6.027   5.666
 3684SOL    HW111951   3.041   6.032   5.614
 3684SOL    HW211952   2.951   5.940   5.715
 3685SOL     OW11953   1.776   6.813   3.188
 3685SOL    HW111954   1.764   6.720   3.154
 3685SOL    HW211955   1.690   6.863   3.181
 3686SOL     OW11956   1.036   5.209   0.871
 3686SOL    HW111957   1.130   5.217   0.839
 3686SOL    HW211958   1.035   5.162   0.959
 3687SOL     OW11959   0.240   4.759   4.452
 3687SOL    HW111960   0.220   4.717   4.540
 3687SOL    HW211961   0.234   4.690   4.380
 3688SOL     OW11962   6.950   3.204   1.746
 3688SOL    HW111963   0.017   3.178   1.781
 3688SOL    HW211964   6.888   3.222   1.823
 3689SOL     OW11965   2.256   2.418   5.074
 3689SOL    HW111966   2.173   2.441   5.023
 3689SOL    HW211967   2.313   2.357   5.019
 3690SOL     OW11968   0.227   5.472   2.251
 3690SOL    HW111969   0.297   5.523   2.301
 3690SOL    HW211970   0.157   5.535   2.217
 3691SOL     OW11971   2.076   1.902   0.287
 3691SOL    HW111972   2.097   1.993   0.324
 3691SOL    HW211973   2.157   1.843   0.295
 3692SOL     OW11974   0.804   2.844   5.595
 3692SOL    HW111975   0.796   2.943   5.585
 3692SOL    HW211976   0.901   2.820   5.603
 3693SOL     OW11977   0.408   1.580   2.784
 3693SOL    HW111978   0.324   1.529   2.805
 3693SOL    HW211979   0.384   1.672   2.755
 3694SOL     OW11980   6.939   6.705   2.008
 3694SOL    HW111981   6.963   6.709   2.105
 3694SOL    HW211982   6.907   6.613   1.985
 3695SOL     OW11983   5.867   3.639   4.521
 3695SOL    HW111984   5.846   3.728   4.479
 3695SOL    HW211985   5.786   3.581   4.518
 3696SOL     OW11986   4.216   0.169   4.054
 3696SOL    HW111987   4.245   0.229   4.129
 3696SOL    HW211988   4.229   0.216   3.967
 3697SOL     OW11989   6.627   4.776   2.902
 3697SOL    HW111990   6.567   4.702   2.933
 3697SOL    HW211991   6.702   4.789   2.967
 3698SOL     OW11992   1.186   0.232   3.931
 3698SOL    HW111993   1.087   0.234   3.917
 3698SOL    HW211994   1.209   0.157   3.993
 3699SOL     OW11995   3.075   1.907   3.232
 3699SOL    HW111996   3.021   1.912   3.316
 3699SOL    HW211997   3.110   1.998   3.210
 3700SOL     OW11998   0.896   5.175   4.827
 3700SOL    HW111999   0.896   5.171   4.926
 3700SOL    HW212000   0.990   5.164   4.793
 3701SOL     OW12001   6.481   0.459   2.289
 3701SOL    HW112002   6.455   0.366   2.262
 3701SOL    HW212003   6.529   0.503   2.214
 3702SOL     OW12004   6.478   4.345   3.648
 3702SOL    HW112005   6.452   4.404   3.571
 3702SOL    HW212006   6.464   4.394   3.734
 3703SOL     OW12007   0.735   2.159   3.519
 3703SOL    HW112008   0.726   2.202   3.429
 3703SOL    HW212009   0.826   2.117   3.527
 3704SOL     OW12010   6.476   6.357   1.208
 3704SOL    HW112011   6.566   6.398   1.224
 3704SOL    HW212012   6.407   6.411   1.257
 3705SOL     OW12013   6.670   4.001   3.822
 3705SOL    HW112014   6.660   4.060   3.742
 3705SOL    HW212015   6.636   4.049   3.903
 3706SOL     OW12016   0.511   5.865   6.843
 3706SOL    HW112017   0.464   5.887   6.928
 3706SOL    HW212018   0.550   5.773   6.848
 3707SOL     OW12019   6.833   4.044   3.121
 3707SOL    HW112020   6.920   3.996   3.133
 3707SOL    HW212021   6.769   3.985   3.072
 3708SOL     OW12022   1.320   5.787   0.489
 3708SOL    HW112023   1.229   5.821   0.515
 3708SOL    HW212024   1.310   5.720   0.415
 3709SOL     OW12025   0.669   1.683   1.079
 3709SOL    HW112026   0.667   1.703   1.177
 3709SOL    HW212027   0.611   1.605   1.059
 3710SOL     OW12028   1.941   3.582   5.490
 3710SOL    HW112029   1.886   3.639   5.551
 3710SOL    HW212030   2.034   3.576   5.525
 3711SOL     OW12031   1.554   4.762   5.451
 3711SOL    HW112032   1.590   4.689   5.510
 3711SOL    HW212033   1.536   4.726   5.360
 3712SOL     OW12034   3.081   5.044   3.797
 3712SOL    HW112035   3.046   4.954   3.773
 3712SOL    HW212036   3.015   5.091   3.856
 3713SOL     OW12037   6.421   0.274   6.020
 3713SOL    HW112038   6.501   0.258   6.078
 3713SOL    HW212039   6.373   0.356   6.051
 3714SOL     OW12040   0.500   5.340   1.035
 3714SOL    HW112041   0.589   5.385   1.020
 3714SOL    HW212042   0.469   5.301   0.949
 3715SOL     OW12043   6.001   4.312   2.449
 3715SOL    HW112044   6.087   4.337   2.405
 3715SOL    HW212045   6.016   4.297   2.547
 3716SOL     OW12046   5.417   5.693   5.575
 3716SOL    HW112047   5.462   5.618   5.526
 3716SOL    HW212048   5.487   5.752   5.616
 3717SOL     OW12049   4.674   0.101   0.953
 3717SOL    HW112050   4.651   0.006   0.932
 3717SOL    HW212051   4.773   0.110   0.962
 3718SOL     OW12052   5.218   6.352   0.001
 3718SOL    HW112053   5.263   6.408   6.953
 3718SOL    HW212054   5.165   6.280   6.980
 3719SOL     OW12055   2.662   4.130   0.066
 3719SOL    HW112056   2.569   4.093   0.071
 3719SOL    HW212057   2.673   4.201   0.135
 3720SOL     OW12058   0.695   2.124   0.466
 3720SOL    HW112059   0.717   2.195   0.532
 3720SOL    HW212060   0.605   2.141   0.427
 3721SOL     OW12061   6.702   0.187   5.771
 3721SOL    HW112062   6.729   0.102   5.816
 3721SOL    HW212063   6.728   0.184   5.674
 3722SOL     OW12064   5.424   6.457   1.405
 3722SOL    HW112065   5.380   6.494   1.487
 3722SOL    HW212066   5.443   6.531   1.341
 3723SOL     OW12067   4.456   4.137   5.946
 3723SOL    HW112068   4.508   4.087   6.016
 3723SOL    HW212069   4.375   4.177   5.988
 3724SOL     OW12070   6.326   3.975   5.174
 3724SOL    HW112071   6.371   4.022   5.099
 3724SOL    HW212072   6.320   4.037   5.253
 3725SOL     OW12073   0.310   6.036   0.999
 3725SOL    HW112074   0.270   6.088   0.923
 3725SOL    HW212075   0.373   6.095   1.050
 3726SOL     OW12076   5.783   3.629   5.351
 3726SOL    HW112077   5.789   3.729   5.354
 3726SOL    HW212078   5.746   3.601   5.262
 3727SOL     OW12079   6.686   1.875   4.371
 3727SOL    HW112080   6.774   1.861   4.326
 3727SOL    HW212081   6.649   1.787   4.401
 3728SOL     OW12082   1.883   5.006   0.512
 3728SOL    HW112083   1.928   5.080   0.461
 3728SOL    HW212084   1.831   4.949   0.449
 3729SOL     OW12085   6.942   6.986   6.516
 3729SOL    HW112086   6.924   6.888   6.505
 3729SOL    HW212087   7.003   7.017   6.443
 3730SOL     OW12088   5.543   4.397   4.628
 3730SOL    HW112089   5.573   4.320   4.685
 3730SOL    HW212090   5.500   4.362   4.545
 3731SOL     OW12091   6.552   1.549   1.735
 3731SOL    HW112092   6.473   1.546   1.674
 3731SOL    HW212093   6.596   1.639   1.727
 3732SOL     OW12094   4.147   2.706   6.752
 3732SOL    HW112095   4.145   2.766   6.832
 3732SOL    HW212096   4.100   2.620   6.773
 3733SOL     OW12097   1.437   1.384   3.289
 3733SOL    HW112098   1.453   1.288   3.263
 3733SOL    HW212099   1.426   1.389   3.388
 3734SOL     OW12100   4.157   0.874   1.791
 3734SOL    HW112101   4.126   0.916   1.706
 3734SOL    HW212102   4.240   0.820   1.774
 3735SOL     OW12103   4.010   0.879   2.439
 3735SOL    HW112104   3.997   0.800   2.500
 3735SOL    HW212105   4.006   0.848   2.344
 3736SOL     OW12106   0.727   1.372   0.074
 3736SOL    HW112107   0.639   1.412   0.096
 3736SOL    HW212108   0.720   1.317   7.014
 3737SOL     OW12109   5.029   1.717   4.348
 3737SOL    HW112110   5.058   1.674   4.434
 3737SOL    HW212111   5.070   1.808   4.341
 3738SOL     OW12112   0.668   1.128   0.445
 3738SOL    HW112113   0.578   1.095   0.416
 3738SOL    HW212114   0.729   1.131   0.366
 3739SOL     OW12115   3.456   4.823   6.710
 3739SOL    HW112116   3.502   4.887   6.648
 3739SOL    HW212117   3.520   4.749   6.735
 3740SOL     OW12118   6.413   6.531   6.734
 3740SOL    HW112119   6.350   6.582   6.793
 3740SOL    HW212120   6.417   6.436   6.765
 3741SOL     OW12121   6.587   4.718   6.664
 3741SOL    HW112122   6.622   4.811   6.676
 3741SOL    HW212123   6.622   4.660   6.739
 3742SOL     OW12124   5.095   5.357   1.923
 3742SOL    HW112125   5.065   5.389   1.834
 3742SOL    HW212126   5.080   5.258   1.930
 3743SOL     OW12127   2.427   4.032   1.311
 3743SOL    HW112128   2.490   3.989   1.376
 3743SOL    HW212129   2.344   4.061   1.360
 3744SOL     OW12130   6.265   6.120   2.345
 3744SOL    HW112131   6.221   6.092   2.431
 3744SOL    HW212132   6.359   6.087   2.344
 3745SOL     OW12133   6.319   0.967   2.735
 3745SOL    HW112134   6.231   1.005   2.762
 3745SOL    HW212135   6.335   0.985   2.638
 3746SOL     OW12136   5.045   0.155   5.380
 3746SOL    HW112137   4.952   0.124   5.403
 3746SOL    HW212138   5.075   0.223   5.446
 3747SOL     OW12139   2.350   5.077   5.430
 3747SOL    HW112140   2.333   4.983   5.400
 3747SOL    HW212141   2.297   5.096   5.513
 3748SOL     OW12142   5.402   2.114   3.397
 3748SOL    HW112143   5.349   2.128   3.313
 3748SOL    HW212144   5.341   2.083   3.470
 3749SOL     OW12145   5.721   5.376   1.327
 3749SOL    HW112146   5.692   5.297   1.273
 3749SOL    HW212147   5.742   5.452   1.266
 3750SOL     OW12148   6.697   3.978   1.289
 3750SOL    HW112149   6.642   3.895   1.297
 3750SOL    HW212150   6.743   3.996   1.377
 3751SOL     OW12151   1.686   5.146   0.670
 3751SOL    HW112152   1.597   5.101   0.666
 3751SOL    HW212153   1.754   5.090   0.622
 3752SOL     OW12154   1.161   0.026   6.202
 3752SOL    HW112155   1.235   0.057   6.141
 3752SOL    HW212156   1.140   0.099   6.267
 3753SOL     OW12157   0.629   1.200   5.939
 3753SOL    HW112158   0.624   1.169   6.034
 3753SOL    HW212159   0.709   1.160   5.896
 3754SOL     OW12160   6.758   6.652   1.718
 3754SOL    HW112161   6.697   6.721   1.756
 3754SOL    HW212162   6.788   6.590   1.790
 3755SOL     OW12163   4.475   2.435   3.036
 3755SOL    HW112164   4.545   2.493   3.078
 3755SOL    HW212165   4.467   2.456   2.939
 3756SOL     OW12166   3.534   6.992   0.430
 3756SOL    HW112167   3.552   6.932   0.353
 3756SOL    HW212168   3.502   6.937   0.508
 3757SOL     OW12169   3.095   4.046   5.118
 3757SOL    HW112170   3.161   3.991   5.169
 3757SOL    HW212171   3.017   3.988   5.092
 3758SOL     OW12172   0.140   0.667   1.973
 3758SOL    HW112173   0.201   0.728   1.923
 3758SOL    HW212174   0.071   0.720   2.022
 3759SOL     OW12175   5.172   4.053   0.452
 3759SOL    HW112176   5.077   4.068   0.423
 3759SOL    HW212177   5.201   3.962   0.423
 3760SOL     OW12178   1.789   1.918   5.835
 3760SOL    HW112179   1.689   1.917   5.835
 3760SOL    HW212180   1.823   1.862   5.910
 3761SOL     OW12181   0.150   6.204   4.246
 3761SOL    HW112182   0.075   6.152   4.287
 3761SOL    HW212183   0.237   6.173   4.286
 3762SOL     OW12184   0.422   3.655   0.867
 3762SOL    HW112185   0.394   3.740   0.823
 3762SOL    HW212186   0.340   3.600   0.886
 3763SOL     OW12187   0.361   2.680   4.699
 3763SOL    HW112188   0.433   2.649   4.637
 3763SOL    HW212189   0.274   2.637   4.674
 3764SOL     OW12190   2.396   0.253   3.161
 3764SOL    HW112191   2.297   0.253   3.173
 3764SOL    HW212192   2.419   0.211   3.073
 3765SOL     OW12193   6.056   1.178   3.705
 3765SOL    HW112194   6.070   1.194   3.607
 3765SOL    HW212195   6.124   1.112   3.738
 3766SOL     OW12196   2.322   1.541   4.622
 3766SOL    HW112197   2.377   1.523   4.540
 3766SOL    HW212198   2.376   1.521   4.704
 3767SOL     OW12199   6.968   4.296   1.354
 3767SOL    HW112200   6.909   4.281   1.275
 3767SOL    HW212201   6.913   4.301   1.437
 3768SOL     OW12202   4.872   6.564   0.972
 3768SOL    HW112203   4.781   6.529   0.993
 3768SOL    HW212204   4.940   6.519   1.030
 3769SOL     OW12205   4.242   6.558   4.749
 3769SOL    HW112206   4.223   6.461   4.730
 3769SOL    HW212207   4.209   6.581   4.840
 3770SOL     OW12208   1.861   2.966   0.001
 3770SOL    HW112209   1.872   2.899   0.074
 3770SOL    HW212210   1.933   2.953   6.955
 3771SOL     OW12211   5.014   1.554   5.641
 3771SOL    HW112212   5.016   1.605   5.727
 3771SOL    HW212213   4.980   1.613   5.568
 3772SOL     OW12214   5.321   0.502   2.935
 3772SOL    HW112215   5.392   0.491   2.865
 3772SOL    HW212216   5.232   0.508   2.891
 3773SOL     OW12217   6.546   2.391   0.933
 3773SOL    HW112218   6.474   2.461   0.936
 3773SOL    HW212219   6.568   2.371   0.838
 3774SOL     OW12220   1.357   1.382   1.679
 3774SOL    HW112221   1.449   1.422   1.681
 3774SOL    HW212222   1.292   1.446   1.719
 3775SOL     OW12223   5.973   2.656   3.136
 3775SOL    HW112224   5.923   2.571   3.122
 3775SOL    HW212225   5.951   2.720   3.062
 3776SOL     OW12226   2.735   2.154   6.626
 3776SOL    HW112227   2.647   2.137   6.580
 3776SOL    HW212228   2.728   2.129   6.722
 3777SOL     OW12229   1.246   4.395   3.488
 3777SOL    HW112230   1.301   4.314   3.511
 3777SOL    HW212231   1.304   4.476   3.489
 3778SOL     OW12232   1.914   0.399   1.920
 3778SOL    HW112233   1.903   0.311   1.967
 3778SOL    HW212234   1.949   0.467   1.984
 3779SOL     OW12235   1.653   4.974   6.715
 3779SOL    HW112236   1.697   4.893   6.755
 3779SOL    HW212237   1.619   4.951   6.624
 3780SOL     OW12238   2.427   0.286   4.262
 3780SOL    HW112239   2.496   0.254   4.327
 3780SOL    HW212240   2.380   0.207   4.223
 3781SOL     OW12241   3.086   5.293   4.613
 3781SOL    HW112242   3.126   5.370   4.564
 3781SOL    HW212243   3.062   5.221   4.548
 3782SOL     OW12244   2.667   1.030   2.370
 3782SOL    HW112245   2.677   1.051   2.273
 3782SOL    HW212246   2.755   1.040   2.416
 3783SOL     OW12247   5.465   4.732   4.914
 3783SOL    HW112248   5.450   4.757   5.009
 3783SOL    HW212249   5.561   4.744   4.891
 3784SOL     OW12250   4.581   2.546   4.418
 3784SOL    HW112251   4.559   2.508   4.328
 3784SOL    HW212252   4.608   2.472   4.480
 3785SOL     OW12253   0.482   0.090   2.225
 3785SOL    HW112254   0.427   0.111   2.144
 3785SOL    HW212255   0.578   0.105   2.204
 3786SOL     OW12256   2.434   6.370   1.433
 3786SOL    HW112257   2.496   6.292   1.445
 3786SOL    HW212258   2.340   6.337   1.424
 3787SOL     OW12259   4.503   1.015   3.524
 3787SOL    HW112260   4.569   1.043   3.595
 3787SOL    HW212261   4.489   1.090   3.460
 3788SOL     OW12262   0.009   3.147   2.508
 3788SOL    HW112263   6.968   3.110   2.577
 3788SOL    HW212264   0.084   3.082   2.494
 3789SOL     OW12265   2.259   5.240   2.427
 3789SOL    HW112266   2.258   5.336   2.398
 3789SOL    HW212267   2.236   5.235   2.524
 3790SOL     OW12268   1.703   3.397   2.325
 3790SOL    HW112269   1.658   3.480   2.358
 3790SOL    HW212270   1.756   3.419   2.243
 3791SOL     OW12271   6.550   0.604   2.855
 3791SOL    HW112272   6.603   0.678   2.895
 3791SOL    HW212273   6.507   0.550   2.927
 3792SOL     OW12274   1.242   5.563   6.109
 3792SOL    HW112275   1.283   5.484   6.156
 3792SOL    HW212276   1.261   5.646   6.160
 3793SOL     OW12277   6.902   5.942   2.763
 3793SOL    HW112278   6.869   5.912   2.853
 3793SOL    HW212279   6.871   6.036   2.746
 3794SOL     OW12280   4.273   6.934   4.103
 3794SOL    HW112281   4.257   0.007   4.076
 3794SOL    HW212282   4.355   6.929   4.159
 3795SOL     OW12283   5.963   0.281   0.691
 3795SOL    HW112284   6.013   0.367   0.707
 3795SOL    HW212285   5.883   0.277   0.751
 3796SOL     OW12286   0.121   2.892   1.636
 3796SOL    HW112287   0.081   2.930   1.719
 3796SOL    HW212288   0.088   2.799   1.622
 3797SOL     OW12289   6.885   5.770   2.535
 3797SOL    HW112290   6.980   5.763   2.504
 3797SOL    HW212291   6.883   5.813   2.626
 3798SOL     OW12292   1.342   4.533   0.101
 3798SOL    HW112293   1.423   4.489   0.140
 3798SOL    HW212294   1.370   4.612   0.046
 3799SOL     OW12295   0.862   0.479   5.456
 3799SOL    HW112296   0.926   0.493   5.381
 3799SOL    HW212297   0.862   0.559   5.516
 3800SOL     OW12298   4.933   2.369   4.494
 3800SOL    HW112299   4.925   2.460   4.536
 3800SOL    HW212300   4.975   2.378   4.404
 3801SOL     OW12301   6.756   0.418   5.930
 3801SOL    HW112302   6.716   0.342   5.879
 3801SOL    HW212303   6.852   0.397   5.950
 3802SOL     OW12304   1.771   2.467   4.898
 3802SOL    HW112305   1.732   2.559   4.903
 3802SOL    HW212306   1.870   2.474   4.885
 3803SOL     OW12307   4.512   1.078   1.350
 3803SOL    HW112308   4.418   1.044   1.345
 3803SOL    HW212309   4.551   1.058   1.440
 3804SOL     OW12310   5.097   3.789   4.984
 3804SOL    HW112311   5.076   3.697   5.016
 3804SOL    HW212312   5.016   3.829   4.942
 3805SOL     OW12313   2.164   3.969   1.413
 3805SOL    HW112314   2.192   4.033   1.485
 3805SOL    HW212315   2.199   3.878   1.433
 3806SOL     OW12316   3.551   0.760   6.950
 3806SOL    HW112317   3.556   0.822   6.872
 3806SOL    HW212318   3.494   0.800   7.021
 3807SOL     OW12319   1.813   6.696   2.789
 3807SOL    HW112320   1.827   6.648   2.875
 3807SOL    HW212321   1.743   6.650   2.735
 3808SOL     OW12322   4.025   0.969   0.625
 3808SOL    HW112323   4.030   0.869   0.614
 3808SOL    HW212324   3.933   1.000   0.602
 3809SOL     OW12325   4.235   1.086   0.463
 3809SOL    HW112326   4.191   1.072   0.551
 3809SOL    HW212327   4.295   1.009   0.443
 3810SOL     OW12328   1.813   3.657   0.102
 3810SOL    HW112329   1.809   3.561   0.075
 3810SOL    HW212330   1.726   3.701   0.084
 3811SOL     OW12331   6.940   0.341   6.267
 3811SOL    HW112332   6.913   0.292   6.349
 3811SOL    HW212333   6.879   0.418   6.251
 3812SOL     OW12334   4.291   0.752   6.073
 3812SOL    HW112335   4.310   0.845   6.104
 3812SOL    HW212336   4.206   0.719   6.115
 3813SOL     OW12337   3.809   4.935   1.824
 3813SOL    HW112338   3.750   4.876   1.878
 3813SOL    HW212339   3.767   4.953   1.735
 3814SOL     OW12340   2.197   0.430   1.788
 3814SOL    HW112341   2.263   0.484   1.840
 3814SOL    HW212342   2.107   0.473   1.795
 3815SOL     OW12343   5.532   2.127   2.101
 3815SOL    HW112344   5.592   2.196   2.141
 3815SOL    HW212345   5.494   2.163   2.015
 3816SOL     OW12346   0.475   6.155   0.747
 3816SOL    HW112347   0.376   6.146   0.756
 3816SOL    HW212348   0.506   6.236   0.797
 3817SOL     OW12349   5.524   1.958   5.243
 3817SOL    HW112350   5.514   1.916   5.153
 3817SOL    HW212351   5.613   1.932   5.282
 3818SOL     OW12352   3.420   6.306   3.314
 3818SOL    HW112353   3.340   6.296   3.254
 3818SOL    HW212354   3.456   6.216   3.337
 3819SOL     OW12355   5.069   3.413   6.531
 3819SOL    HW112356   5.093   3.317   6.540
 3819SOL    HW212357   5.024   3.444   6.616
 3820SOL     OW12358   4.341   5.950   3.280
 3820SOL    HW112359   4.254   5.919   3.242
 3820SOL    HW212360   4.338   5.945   3.380
 3821SOL     OW12361   0.205   4.597   1.442
 3821SOL    HW112362   0.185   4.502   1.416
 3821SOL    HW212363   0.274   4.597   1.515
 3822SOL     OW12364   0.977   3.808   1.314
 3822SOL    HW112365   1.000   3.778   1.222
 3822SOL    HW212366   1.056   3.796   1.374
 3823SOL     OW12367   2.549   3.272   5.504
 3823SOL    HW112368   2.618   3.304   5.439
 3823SOL    HW212369   2.482   3.343   5.520
 3824SOL     OW12370   0.719   2.744   6.077
 3824SOL    HW112371   0.667   2.723   5.994
 3824SOL    HW212372   0.663   2.725   6.158
 3825SOL     OW12373   0.755   6.163   6.099
 3825SOL    HW112374   0.684   6.149   6.168
 3825SOL    HW212375   0.812   6.241   6.125
 3826SOL     OW12376   6.318   1.880   1.802
 3826SOL    HW112377   6.315   1.816   1.879
 3826SOL    HW212378   6.400   1.937   1.809
 3827SOL     OW12379   5.197   1.887   2.039
 3827SOL    HW112380   5.236   1.802   2.005
 3827SOL    HW212381   5.260   1.928   2.105
 3828SOL     OW12382   3.757   1.200   1.396
 3828SOL    HW112383   3.755   1.293   1.433
 3828SOL    HW212384   3.679   1.149   1.431
 3829SOL     OW12385   0.900   4.849   3.511
 3829SOL    HW112386   0.927   4.921   3.447
 3829SOL    HW212387   0.970   4.777   3.513
 3830SOL     OW12388   2.174   0.165   5.396
 3830SOL    HW112389   2.256   0.187   5.343
 3830SOL    HW212390   2.179   0.208   5.486
 3831SOL     OW12391   4.961   1.808   2.107
 3831SOL    HW112392   5.039   1.844   2.056
 3831SOL    HW212393   4.985   1.719   2.147
 3832SOL     OW12394   5.900   0.121   2.073
 3832SOL    HW112395   5.881   0.163   1.984
 3832SOL    HW212396   5.814   0.106   2.122
 3833SOL     OW12397   1.570   6.595   2.685
 3833SOL    HW112398   1.505   6.533   2.641
 3833SOL    HW212399   1.521   6.668   2.731
 3834SOL     OW12400   3.373   2.974   0.521
 3834SOL    HW112401   3.382   2.904   0.450
 3834SOL    HW212402   3.295   3.033   0.499
 3835SOL     OW12403   2.934   4.757   2.994
 3835SOL    HW112404   2.873   4.723   3.065
 3835SOL    HW212405   2.883   4.772   2.910
 3836SOL     OW12406   1.181   2.768   6.463
 3836SOL    HW112407   1.084   2.752   6.442
 3836SOL    HW212408   1.189   2.845   6.526
 3837SOL     OW12409   2.948   4.193   6.359
 3837SOL    HW112410   2.941   4.169   6.262
 3837SOL    HW212411   2.857   4.200   6.399
 3838SOL     OW12412   0.009   3.177   4.907
 3838SOL    HW112413   7.011   3.090   4.951
 3838SOL    HW212414   0.047   3.161   4.816
 3839SOL     OW12415   0.808   6.065   0.324
 3839SOL    HW112416   0.734   6.074   0.258
 3839SOL    HW212417   0.770   6.042   0.414
 3840SOL     OW12418   3.119   2.194   3.252
 3840SOL    HW112419   3.199   2.204   3.193
 3840SOL    HW212420   3.057   2.272   3.236
 3841SOL     OW12421   1.147   3.119   3.586
 3841SOL    HW112422   1.220   3.182   3.559
 3841SOL    HW212423   1.076   3.120   3.516
 3842SOL     OW12424   1.069   5.052   6.650
 3842SOL    HW112425   1.016   5.107   6.714
 3842SOL    HW212426   1.048   4.955   6.665
 3843SOL     OW12427   6.944   4.852   6.758
 3843SOL    HW112428   6.986   4.890   6.675
 3843SOL    HW212429   6.927   4.754   6.745
 3844SOL     OW12430   2.834   4.349   5.651
 3844SOL    HW112431   2.933   4.359   5.663
 3844SOL    HW212432   2.816   4.266   5.596
 3845SOL     OW12433   3.096   3.633   4.134
 3845SOL    HW112434   3.014   3.587   4.168
 3845SOL    HW212435   3.132   3.583   4.055
 3846SOL     OW12436   6.689   4.354   4.931
 3846SOL    HW112437   6.664   4.320   5.021
 3846SOL    HW212438   6.610   4.401   4.890
 3847SOL     OW12439   1.560   6.899   1.021
 3847SOL    HW112440   1.467   6.879   0.992
 3847SOL    HW212441   1.573   6.998   1.023
 3848SOL     OW12442   2.848   6.395   2.237
 3848SOL    HW112443   2.907   6.446   2.174
 3848SOL    HW212444   2.757   6.385   2.196
 3849SOL     OW12445   2.642   1.444   5.299
 3849SOL    HW112446   2.593   1.361   5.275
 3849SOL    HW212447   2.739   1.432   5.279
 3850SOL     OW12448   1.460   3.316   1.339
 3850SOL    HW112449   1.476   3.412   1.364
 3850SOL    HW212450   1.476   3.304   1.241
 3851SOL     OW12451   2.643   2.909   0.740
 3851SOL    HW112452   2.564   2.848   0.738
 3851SOL    HW212453   2.643   2.961   0.825
 3852SOL     OW12454   4.550   0.835   5.354
 3852SOL    HW112455   4.538   0.931   5.378
 3852SOL    HW212456   4.474   0.781   5.392
 3853SOL     OW12457   0.323   3.463   2.307
 3853SOL    HW112458   0.281   3.511   2.230
 3853SOL    HW212459   0.421   3.484   2.309
 3854SOL     OW12460   1.499   3.667   4.302
 3854SOL    HW112461   1.485   3.696   4.397
 3854SOL    HW212462   1.450   3.581   4.286
 3855SOL     OW12463   6.925   1.786   4.967
 3855SOL    HW112464   6.963   1.697   4.992
 3855SOL    HW212465   6.999   1.846   4.935
 3856SOL     OW12466   1.010   6.057   6.375
 3856SOL    HW112467   1.088   6.085   6.431
 3856SOL    HW212468   0.926   6.061   6.430
 3857SOL     OW12469   6.813   0.189   6.913
 3857SOL    HW112470   6.910   0.180   6.890
 3857SOL    HW212471   6.787   0.285   6.911
 3858SOL     OW12472   4.179   4.971   6.787
 3858SOL    HW112473   4.187   4.984   6.688
 3858SOL    HW212474   4.166   4.874   6.806
 3859SOL     OW12475   6.442   2.726   2.499
 3859SOL    HW112476   6.438   2.694   2.405
 3859SOL    HW212477   6.538   2.733   2.528
 3860SOL     OW12478   2.223   6.140   4.759
 3860SOL    HW112479   2.303   6.195   4.784
 3860SOL    HW212480   2.208   6.070   4.828
 3861SOL     OW12481   3.199   3.951   0.287
 3861SOL    HW112482   3.193   3.993   0.378
 3861SOL    HW212483   3.221   3.854   0.297
 3862SOL     OW12484   0.925   6.340   5.305
 3862SOL    HW112485   0.895   6.422   5.354
 3862SOL    HW212486   0.904   6.260   5.361
 3863SOL     OW12487   2.341   2.859   0.560
 3863SOL    HW112488   2.424   2.864   0.504
 3863SOL    HW212489   2.350   2.784   0.626
 3864SOL     OW12490   3.590   2.062   1.481
 3864SOL    HW112491   3.626   1.977   1.442
 3864SOL    HW212492   3.637   2.082   1.567
 3865SOL     OW12493   4.210   1.080   1.984
 3865SOL    HW112494   4.169   1.017   1.919
 3865SOL    HW212495   4.260   1.029   2.054
 3866SOL     OW12496   4.312   6.120   0.071
 3866SOL    HW112497   4.358   6.204   0.099
 3866SOL    HW212498   4.286   6.068   0.152
 3867SOL     OW12499   1.562   4.959   3.079
 3867SOL    HW112500   1.555   5.053   3.114
 3867SOL    HW212501   1.648   4.949   3.029
 3868SOL     OW12502   2.056   5.224   3.109
 3868SOL    HW112503   2.042   5.255   3.203
 3868SOL    HW212504   2.067   5.124   3.109
 3869SOL     OW12505   0.988   1.169   3.772
 3869SOL    HW112506   0.903   1.120   3.791
 3869SOL    HW212507   1.065   1.114   3.803
 3870SOL     OW12508   4.032   3.789   0.148
 3870SOL    HW112509   4.025   3.705   0.096
 3870SOL    HW212510   3.963   3.854   0.117
 3871SOL     OW12511   3.094   0.688   4.392
 3871SOL    HW112512   3.031   0.748   4.441
 3871SOL    HW212513   3.167   0.659   4.453
 3872SOL     OW12514   4.765   4.119   0.634
 3872SOL    HW112515   4.834   4.052   0.607
 3872SOL    HW212516   4.689   4.072   0.680
 3873SOL     OW12517   6.529   4.727   1.919
 3873SOL    HW112518   6.591   4.784   1.973
 3873SOL    HW212519   6.478   4.786   1.855
 3874SOL     OW12520   5.532   6.338   5.996
 3874SOL    HW112521   5.576   6.335   6.086
 3874SOL    HW212522   5.481   6.424   5.987
 3875SOL     OW12523   2.990   3.606   0.167
 3875SOL    HW112524   2.952   3.516   0.189
 3875SOL    HW212525   3.061   3.629   0.234
 3876SOL     OW12526   5.548   3.759   2.574
 3876SOL    HW112527   5.591   3.750   2.484
 3876SOL    HW212528   5.510   3.851   2.584
 3877SOL     OW12529   4.465   1.764   1.697
 3877SOL    HW112530   4.515   1.831   1.751
 3877SOL    HW212531   4.477   1.673   1.738
 3878SOL     OW12532   5.902   5.970   5.011
 3878SOL    HW112533   5.891   5.970   5.111
 3878SOL    HW212534   5.956   6.049   4.984
 3879SOL     OW12535   2.364   5.958   0.676
 3879SOL    HW112536   2.368   5.881   0.741
 3879SOL    HW212537   2.436   6.024   0.699
 3880SOL     OW12538   6.004   1.452   4.379
 3880SOL    HW112539   6.037   1.453   4.473
 3880SOL    HW212540   5.910   1.419   4.377
 3881SOL     OW12541   0.341   6.372   5.577
 3881SOL    HW112542   0.282   6.368   5.496
 3881SOL    HW212543   0.425   6.320   5.559
 3882SOL     OW12544   0.038   6.047   7.019
 3882SOL    HW112545   0.093   5.990   0.058
 3882SOL    HW212546   0.078   6.046   6.928
 3883SOL     OW12547   4.136   1.765   0.258
 3883SOL    HW112548   4.127   1.673   0.295
 3883SOL    HW212549   4.152   1.759   0.159
 3884SOL     OW12550   2.987   5.825   5.869
 3884SOL    HW112551   3.084   5.832   5.894
 3884SOL    HW212552   2.960   5.728   5.868
 3885SOL     OW12553   0.202   1.275   3.926
 3885SOL    HW112554   0.168   1.365   3.950
 3885SOL    HW212555   0.271   1.283   3.854
 3886SOL     OW12556   6.859   6.313   4.730
 3886SOL    HW112557   6.803   6.348   4.805
 3886SOL    HW212558   6.808   6.243   4.680
 3887SOL     OW12559   0.026   2.963   5.283
 3887SOL    HW112560   0.123   2.958   5.309
 3887SOL    HW212561   6.992   2.928   5.358
 3888SOL     OW12562   4.967   1.934   3.252
 3888SOL    HW112563   4.891   1.891   3.203
 3888SOL    HW212564   4.997   2.016   3.203
 3889SOL     OW12565   6.531   5.679   0.600
 3889SOL    HW112566   6.604   5.746   0.612
 3889SOL    HW212567   6.487   5.660   0.688
 3890SOL     OW12568   5.946   2.799   3.528
 3890SOL    HW112569   6.003   2.882   3.525
 3890SOL    HW212570   5.850   2.824   3.520
 3891SOL     OW12571   3.900   4.318   6.111
 3891SOL    HW112572   3.816   4.359   6.148
 3891SOL    HW212573   3.893   4.219   6.113
 3892SOL     OW12574   5.096   5.999   3.841
 3892SOL    HW112575   4.999   5.996   3.821
 3892SOL    HW212576   5.114   5.950   3.927
 3893SOL     OW12577   2.628   6.107   4.816
 3893SOL    HW112578   2.684   6.105   4.899
 3893SOL    HW212579   2.648   6.027   4.760
 3894SOL     OW12580   5.445   5.791   6.114
 3894SOL    HW112581   5.533   5.799   6.161
 3894SOL    HW212582   5.399   5.880   6.113
 3895SOL     OW12583   1.402   1.854   5.159
 3895SOL    HW112584   1.479   1.917   5.167
 3895SOL    HW212585   1.371   1.827   5.250
 3896SOL     OW12586   6.725   2.560   0.454
 3896SOL    HW112587   6.721   2.659   0.444
 3896SOL    HW212588   6.803   2.525   0.401
 3897SOL     OW12589   2.757   0.403   3.398
 3897SOL    HW112590   2.727   0.319   3.354
 3897SOL    HW212591   2.707   0.481   3.359
 3898SOL     OW12592   3.617   4.107   3.142
 3898SOL    HW112593   3.644   4.133   3.234
 3898SOL    HW212594   3.685   4.044   3.104
 3899SOL     OW12595   4.918   1.664   6.212
 3899SOL    HW112596   4.943   1.594   6.279
 3899SOL    HW212597   4.824   1.650   6.183
 3900SOL     OW12598   0.937   2.334   4.133
 3900SOL    HW112599   0.920   2.244   4.174
 3900SOL    HW212600   0.873   2.401   4.170
 3901SOL     OW12601   3.673   6.315   4.324
 3901SOL    HW112602   3.693   6.388   4.389
 3901SOL    HW212603   3.715   6.335   4.236
 3902SOL     OW12604   2.714   5.112   3.228
 3902SOL    HW112605   2.712   5.132   3.326
 3902SOL    HW212606   2.638   5.051   3.205
 3903SOL     OW12607   2.722   4.038   6.187
 3903SOL    HW112608   2.697   4.119   6.240
 3903SOL    HW212609   2.762   4.066   6.100
 3904SOL     OW12610   2.767   6.404   1.167
 3904SOL    HW112611   2.811   6.419   1.255
 3904SOL    HW212612   2.693   6.470   1.154
 3905SOL     OW12613   4.085   6.439   5.550
 3905SOL    HW112614   4.130   6.408   5.466
 3905SOL    HW212615   4.020   6.370   5.581
 3906SOL     OW12616   6.668   5.998   4.205
 3906SOL    HW112617   6.737   5.927   4.190
 3906SOL    HW212618   6.632   6.028   4.117
 3907SOL     OW12619   1.346   1.094   4.972
 3907SOL    HW112620   1.374   0.998   4.973
 3907SOL    HW212621   1.325   1.122   4.879
 3908SOL     OW12622   2.433   1.955   4.875
 3908SOL    HW112623   2.466   1.885   4.938
 3908SOL    HW212624   2.334   1.951   4.868
 3909SOL     OW12625   6.508   3.517   2.353
 3909SOL    HW112626   6.556   3.594   2.309
 3909SOL    HW212627   6.494   3.539   2.450
 3910SOL     OW12628   1.961   2.278   0.197
 3910SOL    HW112629   1.897   2.322   0.260
 3910SOL    HW212630   2.019   2.214   0.248
 3911SOL     OW12631   6.225   0.915   2.071
 3911SOL    HW112632   6.247   0.897   2.167
 3911SOL    HW212633   6.152   0.853   2.041
 3912SOL     OW12634   4.932   4.809   0.713
 3912SOL    HW112635   4.958   4.713   0.706
 3912SOL    HW212636   5.004   4.860   0.761
 3913SOL     OW12637   4.136   4.593   1.310
 3913SOL    HW112638   4.191   4.642   1.242
 3913SOL    HW212639   4.196   4.554   1.380
 3914SOL     OW12640   0.390   1.023   0.462
 3914SOL    HW112641   0.382   1.029   0.561
 3914SOL    HW212642   0.344   0.941   0.429
 3915SOL     OW12643   5.446   7.010   4.788
 3915SOL    HW112644   5.391   6.960   4.855
 3915SOL    HW212645   5.484   0.069   4.831
 3916SOL     OW12646   2.253   2.855   2.180
 3916SOL    HW112647   2.280   2.799   2.258
 3916SOL    HW212648   2.226   2.946   2.212
 3917SOL     OW12649   3.955   5.679   2.440
 3917SOL    HW112650   3.862   5.704   2.467
 3917SOL    HW212651   3.977   5.588   2.474
 3918SOL     OW12652   3.642   6.546   0.164
 3918SOL    HW112653   3.734   6.531   0.201
 3918SOL    HW212654   3.631   6.493   0.080
 3919SOL     OW12655   5.049   4.634   3.236
 3919SOL    HW112656   4.968   4.630   3.177
 3919SOL    HW212657   5.126   4.672   3.186
 3920SOL     OW12658   4.179   1.211   5.775
 3920SOL    HW112659   4.088   1.174   5.794
 3920SOL    HW212660   4.178   1.263   5.691
 3921SOL     OW12661   0.996   3.927   5.879
 3921SOL    HW112662   0.961   3.862   5.947
 3921SOL    HW212663   0.990   3.885   5.788
 3922SOL     OW12664   5.368   1.897   4.137
 3922SOL    HW112665   5.427   1.978   4.136
 3922SOL    HW212666   5.288   1.915   4.193
 3923SOL     OW12667   5.814   1.027   1.275
 3923SOL    HW112668   5.815   1.010   1.374
 3923SOL    HW212669   5.720   1.029   1.243
 3924SOL     OW12670   5.399   5.166   3.659
 3924SOL    HW112671   5.482   5.113   3.677
 3924SOL    HW212672   5.419   5.239   3.593
 3925SOL     OW12673   3.803   4.201   1.734
 3925SOL    HW112674   3.723   4.180   1.791
 3925SOL    HW212675   3.835   4.294   1.756
 3926SOL     OW12676   0.680   5.898   5.175
 3926SOL    HW112677   0.607   5.946   5.223
 3926SOL    HW212678   0.714   5.824   5.232
 3927SOL     OW12679   6.093   6.297   4.866
 3927SOL    HW112680   6.049   6.279   4.779
 3927SOL    HW212681   6.044   6.369   4.915
 3928SOL     OW12682   4.304   5.507   2.652
 3928SOL    HW112683   4.333   5.412   2.645
 3928SOL    HW212684   4.227   5.524   2.591
 3929SOL     OW12685   1.892   1.110   4.970
 3929SOL    HW112686   1.899   1.181   4.900
 3929SOL    HW212687   1.831   1.141   5.043
 3930SOL     OW12688   2.016   5.734   4.246
 3930SOL    HW112689   1.919   5.750   4.259
 3930SOL    HW212690   2.035   5.721   4.148
 3931SOL     OW12691   0.408   2.161   0.399
 3931SOL    HW112692   0.399   2.237   0.335
 3931SOL    HW212693   0.323   2.150   0.450
 3932SOL     OW12694   1.640   4.620   1.922
 3932SOL    HW112695   1.737   4.645   1.921
 3932SOL    HW212696   1.601   4.643   2.012
 3933SOL     OW12697   1.381   6.775   1.426
 3933SOL    HW112698   1.477   6.751   1.412
 3933SOL    HW212699   1.324   6.693   1.418
 3934SOL     OW12700   1.458   6.957   2.106
 3934SOL    HW112701   1.420   6.987   2.194
 3934SOL    HW212702   1.384   6.926   2.047
 3935SOL     OW12703   0.280   1.158   4.746
 3935SOL    HW112704   0.203   1.115   4.792
 3935SOL    HW212705   0.338   1.088   4.705
 3936SOL     OW12706   6.370   4.937   4.043
 3936SOL    HW112707   6.328   4.890   3.965
 3936SOL    HW212708   6.450   4.887   4.073
 3937SOL     OW12709   1.480   6.350   0.144
 3937SOL    HW112710   1.401   6.302   0.106
 3937SOL    HW212711   1.529   6.290   0.207
 3938SOL     OW12712   1.108   4.875   6.306
 3938SOL    HW112713   1.067   4.784   6.312
 3938SOL    HW212714   1.200   4.873   6.344
 3939SOL     OW12715   2.125   6.282   4.174
 3939SOL    HW112716   2.070   6.202   4.152
 3939SOL    HW212717   2.132   6.291   4.274
 3940SOL     OW12718   2.722   6.086   6.766
 3940SOL    HW112719   2.772   6.165   6.801
 3940SOL    HW212720   2.626   6.110   6.753
 3941SOL     OW12721   5.591   5.419   2.524
 3941SOL    HW112722   5.557   5.495   2.580
 3941SOL    HW212723   5.514   5.373   2.481
 3942SOL     OW12724   0.775   6.579   0.268
 3942SOL    HW112725   0.681   6.558   0.243
 3942SOL    HW212726   0.827   6.494   0.276
 3943SOL     OW12727   0.449   5.224   0.508
 3943SOL    HW112728   0.454   5.308   0.453
 3943SOL    HW212729   0.370   5.171   0.480
 3944SOL     OW12730   5.315   3.197   0.330
 3944SOL    HW112731   5.315   3.101   0.360
 3944SOL    HW212732   5.341   3.256   0.406
 3945SOL     OW12733   0.188   0.773   2.972
 3945SOL    HW112734   0.145   0.684   2.989
 3945SOL    HW212735   0.234   0.804   3.055
 3946SOL     OW12736   5.154   1.165   0.890
 3946SOL    HW112737   5.112   1.240   0.942
 3946SOL    HW212738   5.231   1.201   0.837
 3947SOL     OW12739   5.344   0.072   0.986
 3947SOL    HW112740   5.320   0.082   1.083
 3947SOL    HW212741   5.434   0.028   0.979
 3948SOL     OW12742   1.630   1.488   3.933
 3948SOL    HW112743   1.558   1.519   3.995
 3948SOL    HW212744   1.662   1.566   3.878
 3949SOL     OW12745   5.808   6.875   2.832
 3949SOL    HW112746   5.875   6.826   2.887
 3949SOL    HW212747   5.732   6.814   2.810
 3950SOL     OW12748   2.436   4.706   1.577
 3950SOL    HW112749   2.377   4.627   1.564
 3950SOL    HW212750   2.477   4.702   1.669
 3951SOL     OW12751   0.110   2.305   3.216
 3951SOL    HW112752   0.165   2.353   3.148
 3951SOL    HW212753   0.076   2.370   3.283
 3952SOL     OW12754   6.191   5.257   7.000
 3952SOL    HW112755   6.288   5.270   6.979
 3952SOL    HW212756   6.151   5.193   6.935
 3953SOL     OW12757   3.590   2.914   4.510
 3953SOL    HW112758   3.617   2.872   4.423
 3953SOL    HW212759   3.507   2.968   4.496
 3954SOL     OW12760   1.022   4.644   5.566
 3954SOL    HW112761   1.119   4.670   5.562
 3954SOL    HW212762   1.006   4.567   5.503
 3955SOL     OW12763   6.006   3.511   6.874
 3955SOL    HW112764   5.947   3.554   6.806
 3955SOL    HW212765   5.955   3.439   6.922
 3956SOL     OW12766   6.958   2.875   4.708
 3956SOL    HW112767   7.007   2.807   4.763
 3956SOL    HW212768   7.003   2.964   4.718
 3957SOL     OW12769   1.950   2.842   1.704
 3957SOL    HW112770   1.911   2.769   1.648
 3957SOL    HW212771   2.022   2.805   1.763
 3958SOL     OW12772   5.178   5.566   0.820
 3958SOL    HW112773   5.116   5.538   0.748
 3958SOL    HW212774   5.127   5.612   0.893
 3959SOL     OW12775   3.447   5.096   0.701
 3959SOL    HW112776   3.426   5.175   0.758
 3959SOL    HW212777   3.450   5.014   0.758
 3960SOL     OW12778   5.785   3.140   1.303
 3960SOL    HW112779   5.877   3.101   1.308
 3960SOL    HW212780   5.729   3.086   1.241
 3961SOL     OW12781   6.615   1.064   1.406
 3961SOL    HW112782   6.663   1.105   1.329
 3961SOL    HW212783   6.546   1.128   1.440
 3962SOL     OW12784   0.345   6.710   6.413
 3962SOL    HW112785   0.443   6.702   6.393
 3962SOL    HW212786   0.297   6.632   6.374
 3963SOL     OW12787   5.888   2.967   4.783
 3963SOL    HW112788   5.861   3.044   4.840
 3963SOL    HW212789   5.833   2.966   4.699
 3964SOL     OW12790   6.005   4.642   6.819
 3964SOL    HW112791   6.086   4.700   6.808
 3964SOL    HW212792   6.033   4.547   6.829
 3965SOL     OW12793   2.830   4.805   1.342
 3965SOL    HW112794   2.743   4.759   1.358
 3965SOL    HW212795   2.831   4.845   1.250
 3966SOL     OW12796   0.038   3.710   5.807
 3966SOL    HW112797   0.007   3.642   5.740
 3966SOL    HW212798   0.016   3.802   5.774
 3967SOL     OW12799   2.290   0.529   0.757
 3967SOL    HW112800   2.199   0.566   0.778
 3967SOL    HW212801   2.308   0.539   0.659
 3968SOL     OW12802   4.867   2.951   0.708
 3968SOL    HW112803   4.791   2.968   0.646
 3968SOL    HW212804   4.864   2.857   0.741
 3969SOL     OW12805   6.318   6.528   1.373
 3969SOL    HW112806   6.312   6.585   1.291
 3969SOL    HW212807   6.374   6.575   1.441
 3970SOL     OW12808   6.208   4.248   3.982
 3970SOL    HW112809   6.225   4.310   4.059
 3970SOL    HW212810   6.116   4.264   3.947
 3971SOL     OW12811   0.239   5.748   4.095
 3971SOL    HW112812   0.217   5.819   4.029
 3971SOL    HW212813   0.183   5.760   4.177
 3972SOL     OW12814   1.061   0.955   6.508
 3972SOL    HW112815   1.091   0.896   6.433
 3972SOL    HW212816   1.097   0.921   6.594
 3973SOL     OW12817   4.130   2.946   1.749
 3973SOL    HW112818   4.064   2.897   1.806
 3973SOL    HW212819   4.105   2.935   1.653
 3974SOL     OW12820   5.529   0.765   0.100
 3974SOL    HW112821   5.454   0.788   0.161
 3974SOL    HW212822   5.493   0.738   0.011
 3975SOL     OW12823   0.193   6.541   3.890
 3975SOL    HW112824   0.149   6.453   3.905
 3975SOL    HW212825   0.177   6.571   3.796
 3976SOL     OW12826   0.657   3.045   5.022
 3976SOL    HW112827   0.743   3.097   5.018
 3976SOL    HW212828   0.659   2.973   4.953
 3977SOL     OW12829   2.301   4.852   5.906
 3977SOL    HW112830   2.397   4.838   5.882
 3977SOL    HW212831   2.295   4.895   5.996
 3978SOL     OW12832   4.492   3.121   6.163
 3978SOL    HW112833   4.474   3.105   6.066
 3978SOL    HW212834   4.429   3.066   6.218
 3979SOL     OW12835   0.152   5.428   2.634
 3979SOL    HW112836   0.182   5.405   2.727
 3979SOL    HW212837   0.227   5.473   2.586
 3980SOL     OW12838   5.474   4.142   3.950
 3980SOL    HW112839   5.539   4.170   4.022
 3980SOL    HW212840   5.474   4.042   3.943
 3981SOL     OW12841   7.006   0.789   6.690
 3981SOL    HW112842   6.941   0.865   6.681
 3981SOL    HW212843   0.005   0.776   6.786
 3982SOL     OW12844   2.043   3.147   4.142
 3982SOL    HW112845   1.969   3.080   4.135
 3982SOL    HW212846   2.008   3.230   4.186
 3983SOL     OW12847   2.605   1.304   2.906
 3983SOL    HW112848   2.505   1.293   2.909
 3983SOL    HW212849   2.635   1.358   2.984
 3984SOL     OW12850   1.304   5.866   2.553
 3984SOL    HW112851   1.372   5.936   2.531
 3984SOL    HW212852   1.225   5.909   2.597
 3985SOL     OW12853   1.737   2.600   1.341
 3985SOL    HW112854   1.775   2.679   1.389
 3985SOL    HW212855   1.763   2.516   1.390
 3986SOL     OW12856   0.728   1.344   3.118
 3986SOL    HW112857   0.674   1.324   3.036
 3986SOL    HW212858   0.776   1.431   3.107
 3987SOL     OW12859   1.335   4.475   5.242
 3987SOL    HW112860   1.423   4.515   5.216
 3987SOL    HW212861   1.318   4.493   5.339
 3988SOL     OW12862   5.046   5.946   2.397
 3988SOL    HW112863   5.050   6.013   2.472
 3988SOL    HW212864   4.999   5.863   2.429
 3989SOL     OW12865   4.425   0.614   6.320
 3989SOL    HW112866   4.410   0.624   6.222
 3989SOL    HW212867   4.342   0.641   6.370
 3990SOL     OW12868   6.215   6.708   3.945
 3990SOL    HW112869   6.235   6.784   3.882
 3990SOL    HW212870   6.298   6.653   3.957
 3991SOL     OW12871   6.696   2.467   4.198
 3991SOL    HW112872   6.764   2.532   4.231
 3991SOL    HW212873   6.741   2.381   4.175
 3992SOL     OW12874   5.690   3.532   5.737
 3992SOL    HW112875   5.674   3.631   5.731
 3992SOL    HW212876   5.629   3.485   5.675
 3993SOL     OW12877   1.642   0.878   4.288
 3993SOL    HW112878   1.611   0.817   4.215
 3993SOL    HW212879   1.568   0.890   4.354
 3994SOL     OW12880   3.160   2.107   3.782
 3994SOL    HW112881   3.212   2.136   3.702
 3994SOL    HW212882   3.102   2.028   3.758
 3995SOL     OW12883   1.514   3.641   2.030
 3995SOL    HW112884   1.492   3.552   1.991
 3995SOL    HW212885   1.602   3.673   1.994
 3996SOL     OW12886   0.425   6.136   4.917
 3996SOL    HW112887   0.446   6.184   4.832
 3996SOL    HW212888   0.366   6.058   4.898
 3997SOL     OW12889   6.011   3.333   4.796
 3997SOL    HW112890   5.992   3.431   4.796
 3997SOL    HW212891   5.939   3.285   4.846
 3998SOL     OW12892   4.351   2.093   2.694
 3998SOL    HW112893   4.360   2.174   2.634
 3998SOL    HW212894   4.272   2.039   2.666
 3999SOL     OW12895   4.812   3.416   1.196
 3999SOL    HW112896   4.846   3.482   1.262
 3999SOL    HW212897   4.735   3.455   1.146
 4000SOL     OW12898   2.362   4.536   2.364
 4000SOL    HW112899   2.279   4.553   2.417
 4000SOL    HW212900   2.376   4.611   2.299
 4001SOL     OW12901   0.793   5.814   3.945
 4001SOL    HW112902   0.817   5.862   4.029
 4001SOL    HW212903   0.744   5.876   3.884
 4002SOL     OW12904   3.711   4.141   4.825
 4002SOL    HW112905   3.650   4.120   4.901
 4002SOL    HW212906   3.658   4.183   4.751
 4003SOL     OW12907   2.753   1.623   4.205
 4003SOL    HW112908   2.796   1.536   4.183
 4003SOL    HW212909   2.669   1.633   4.153
 4004SOL     OW12910   1.704   3.576   5.072
 4004SOL    HW112911   1.794   3.534   5.060
 4004SOL    HW212912   1.689   3.643   4.998
 4005SOL     OW12913   5.822   2.507   1.432
 4005SOL    HW112914   5.749   2.472   1.490
 4005SOL    HW212915   5.848   2.599   1.462
 4006SOL     OW12916   0.476   5.869   2.358
 4006SOL    HW112917   0.575   5.878   2.373
 4006SOL    HW212918   0.439   5.956   2.326
 4007SOL     OW12919   0.467   1.579   1.509
 4007SOL    HW112920   0.557   1.540   1.491
 4007SOL    HW212921   0.396   1.510   1.496
 4008SOL     OW12922   3.970   0.765   1.418
 4008SOL    HW112923   4.042   0.722   1.472
 4008SOL    HW212924   3.925   0.835   1.473
 4009SOL     OW12925   3.638   2.594   0.944
 4009SOL    HW112926   3.689   2.613   1.027
 4009SOL    HW212927   3.541   2.582   0.966
 4010SOL     OW12928   1.380   5.093   1.095
 4010SOL    HW112929   1.383   5.006   1.046
 4010SOL    HW212930   1.465   5.105   1.146
 4011SOL     OW12931   5.835   6.639   6.636
 4011SOL    HW112932   5.816   6.733   6.665
 4011SOL    HW212933   5.875   6.640   6.544
 4012SOL     OW12934   5.594   4.606   1.572
 4012SOL    HW112935   5.676   4.661   1.554
 4012SOL    HW212936   5.561   4.568   1.486
 4013SOL     OW12937   6.969   1.907   6.686
 4013SOL    HW112938   6.893   1.850   6.717
 4013SOL    HW212939   0.009   1.923   6.763
 4014SOL     OW12940   3.607   6.174   2.762
 4014SOL    HW112941   3.698   6.190   2.723
 4014SOL    HW212942   3.537   6.211   2.701
 4015SOL     OW12943   3.703   6.464   4.601
 4015SOL    HW112944   3.717   6.368   4.628
 4015SOL    HW212945   3.609   6.490   4.620
 4016SOL     OW12946   4.824   4.974   4.393
 4016SOL    HW112947   4.728   4.947   4.384
 4016SOL    HW212948   4.879   4.922   4.329
 4017SOL     OW12949   1.625   6.194   5.769
 4017SOL    HW112950   1.694   6.164   5.834
 4017SOL    HW212951   1.669   6.223   5.684
 4018SOL     OW12952   5.013   5.515   0.601
 4018SOL    HW112953   4.925   5.482   0.633
 4018SOL    HW212954   5.027   5.486   0.506
 4019SOL     OW12955   0.569   2.273   2.776
 4019SOL    HW112956   0.472   2.298   2.768
 4019SOL    HW212957   0.598   2.226   2.692
 4020SOL     OW12958   6.931   5.728   4.543
 4020SOL    HW112959   6.847   5.774   4.515
 4020SOL    HW212960   6.976   5.782   4.614
 4021SOL     OW12961   4.578   5.187   6.118
 4021SOL    HW112962   4.670   5.199   6.080
 4021SOL    HW212963   4.512   5.240   6.064
 4022SOL     OW12964   3.516   0.246   1.385
 4022SOL    HW112965   3.422   0.258   1.419
 4022SOL    HW212966   3.550   0.156   1.413
 4023SOL     OW12967   0.599   1.858   4.243
 4023SOL    HW112968   0.592   1.758   4.245
 4023SOL    HW212969   0.695   1.884   4.235
 4024SOL     OW12970   0.875   6.432   6.147
 4024SOL    HW112971   0.931   6.453   6.227
 4024SOL    HW212972   0.779   6.430   6.173
 4025SOL     OW12973   0.957   4.321   4.465
 4025SOL    HW112974   0.897   4.277   4.399
 4025SOL    HW212975   0.902   4.377   4.527
 4026SOL     OW12976   0.537   6.725   4.594
 4026SOL    HW112977   0.479   6.806   4.590
 4026SOL    HW212978   0.524   6.679   4.682
 4027SOL     OW12979   3.080   5.792   5.006
 4027SOL    HW112980   3.002   5.817   4.948
 4027SOL    HW212981   3.061   5.705   5.052
 4028SOL     OW12982   4.321   1.336   4.771
 4028SOL    HW112983   4.267   1.346   4.687
 4028SOL    HW212984   4.307   1.416   4.829
 4029SOL     OW12985   1.931   6.688   0.630
 4029SOL    HW112986   1.846   6.641   0.605
 4029SOL    HW212987   1.909   6.774   0.676
 4030SOL     OW12988   0.833   1.443   1.839
 4030SOL    HW112989   0.874   1.498   1.766
 4030SOL    HW212990   0.904   1.416   1.904
 4031SOL     OW12991   6.004   5.701   0.671
 4031SOL    HW112992   5.927   5.723   0.731
 4031SOL    HW212993   6.089   5.732   0.713
 4032SOL     OW12994   4.924   2.210   2.007
 4032SOL    HW112995   4.907   2.128   2.062
 4032SOL    HW212996   4.897   2.193   1.913
 4033SOL     OW12997   1.602   3.761   2.831
 4033SOL    HW112998   1.573   3.667   2.850
 4033SOL    HW212999   1.524   3.823   2.846
 4034SOL     OW13000   2.270   2.243   4.558
 4034SOL    HW113001   2.303   2.294   4.479
 4034SOL    HW213002   2.233   2.155   4.527
 4035SOL     OW13003   3.636   2.579   1.782
 4035SOL    HW113004   3.661   2.487   1.810
 4035SOL    HW213005   3.537   2.584   1.766
 4036SOL     OW13006   4.212   6.505   3.393
 4036SOL    HW113007   4.264   6.439   3.448
 4036SOL    HW213008   4.272   6.550   3.328
 4037SOL     OW13009   1.821   1.365   5.640
 4037SOL    HW113010   1.823   1.463   5.658
 4037SOL    HW213011   1.878   1.345   5.561
 4038SOL     OW13012   4.051   4.870   5.732
 4038SOL    HW113013   3.965   4.827   5.705
 4038SOL    HW213014   4.040   4.969   5.735
 4039SOL     OW13015   6.028   4.446   1.503
 4039SOL    HW113016   5.946   4.418   1.555
 4039SOL    HW213017   6.101   4.380   1.519
 4040SOL     OW13018   2.235   6.544   5.007
 4040SOL    HW113019   2.231   6.460   5.062
 4040SOL    HW213020   2.143   6.581   4.997
 4041SOL     OW13021   1.604   6.193   1.715
 4041SOL    HW113022   1.629   6.102   1.747
 4041SOL    HW213023   1.679   6.257   1.734
 4042SOL     OW13024   1.199   1.537   3.940
 4042SOL    HW113025   1.124   1.473   3.961
 4042SOL    HW213026   1.267   1.533   4.014
 4043SOL     OW13027   3.412   2.693   5.756
 4043SOL    HW113028   3.351   2.668   5.681
 4043SOL    HW213029   3.492   2.740   5.719
 4044SOL     OW13030   4.741   4.286   3.163
 4044SOL    HW113031   4.680   4.359   3.133
 4044SOL    HW213032   4.727   4.269   3.261
 4045SOL     OW13033   4.442   1.277   5.136
 4045SOL    HW113034   4.390   1.206   5.088
 4045SOL    HW213035   4.382   1.355   5.155
 4046SOL     OW13036   5.074   1.088   3.855
 4046SOL    HW113037   5.036   1.169   3.810
 4046SOL    HW213038   5.046   1.006   3.806
 4047SOL     OW13039   2.784   2.244   6.234
 4047SOL    HW113040   2.727   2.307   6.286
 4047SOL    HW213041   2.737   2.219   6.149
 4048SOL     OW13042   4.857   2.142   3.431
 4048SOL    HW113043   4.873   2.069   3.364
 4048SOL    HW213044   4.832   2.101   3.519
 4049SOL     OW13045   3.931   3.980   2.662
 4049SOL    HW113046   4.008   3.999   2.601
 4049SOL    HW213047   3.914   3.881   2.665
 4050SOL     OW13048   6.895   4.721   3.342
 4050SOL    HW113049   6.827   4.783   3.382
 4050SOL    HW213050   6.873   4.627   3.367
 4051SOL     OW13051   5.994   1.088   4.076
 4051SOL    HW113052   5.899   1.057   4.071
 4051SOL    HW213053   5.998   1.179   4.117
 4052SOL     OW13054   4.652   1.154   4.358
 4052SOL    HW113055   4.725   1.127   4.421
 4052SOL    HW213056   4.565   1.153   4.407
 4053SOL     OW13057   0.898   4.128   2.988
 4053SOL    HW113058   0.818   4.096   2.937
 4053SOL    HW213059   0.900   4.085   3.078
 4054SOL     OW13060   5.223   3.764   1.694
 4054SOL    HW113061   5.267   3.791   1.780
 4054SOL    HW213062   5.145   3.705   1.713
 4055SOL     OW13063   0.340   4.679   6.893
 4055SOL    HW113064   0.350   4.608   6.962
 4055SOL    HW213065   0.294   4.642   6.813
 4056SOL     OW13066   4.670   4.021   0.082
 4056SOL    HW113067   4.635   4.114   0.068
 4056SOL    HW213068   4.596   3.963   0.117
 4057SOL     OW13069   6.896   4.397   5.932
 4057SOL    HW113070   6.946   4.426   5.850
 4057SOL    HW213071   6.931   4.446   6.011
 4058SOL     OW13072   3.739   0.758   4.461
 4058SOL    HW113073   3.652   0.764   4.413
 4058SOL    HW213074   3.770   0.663   4.463
 4059SOL     OW13075   1.379   1.175   3.832
 4059SOL    HW113076   1.363   1.079   3.807
 4059SOL    HW213077   1.477   1.189   3.848
 4060SOL     OW13078   0.099   6.579   4.183
 4060SOL    HW113079   0.149   6.515   4.242
 4060SOL    HW213080   0.125   6.563   4.088
 4061SOL     OW13081   1.555   4.244   2.174
 4061SOL    HW113082   1.591   4.194   2.095
 4061SOL    HW213083   1.543   4.180   2.250
 4062SOL     OW13084   2.678   4.371   0.243
 4062SOL    HW113085   2.775   4.347   0.250
 4062SOL    HW213086   2.647   4.405   0.332
 4063SOL     OW13087   3.574   0.918   0.710
 4063SOL    HW113088   3.591   0.946   0.805
 4063SOL    HW213089   3.489   0.959   0.677
 4064SOL     OW13090   2.488   0.187   4.667
 4064SOL    HW113091   2.418   0.192   4.596
 4064SOL    HW213092   2.458   0.238   4.748
 4065SOL     OW13093   2.325   1.578   0.976
 4065SOL    HW113094   2.346   1.579   1.073
 4065SOL    HW213095   2.396   1.627   0.926
 4066SOL     OW13096   0.638   3.638   4.524
 4066SOL    HW113097   0.693   3.563   4.562
 4066SOL    HW213098   0.676   3.725   4.556
 4067SOL     OW13099   6.189   4.434   1.262
 4067SOL    HW113100   6.131   4.471   1.335
 4067SOL    HW213101   6.251   4.506   1.229
 4068SOL     OW13102   1.947   2.840   5.824
 4068SOL    HW113103   1.982   2.746   5.817
 4068SOL    HW213104   1.964   2.888   5.738
 4069SOL     OW13105   4.303   7.008   6.009
 4069SOL    HW113106   4.386   6.954   5.996
 4069SOL    HW213107   4.304   0.027   6.100
 4070SOL     OW13108   1.813   4.134   4.208
 4070SOL    HW113109   1.805   4.190   4.125
 4070SOL    HW213110   1.814   4.193   4.288
 4071SOL     OW13111   1.290   0.413   5.216
 4071SOL    HW113112   1.347   0.438   5.294
 4071SOL    HW213113   1.231   0.336   5.240
 4072SOL     OW13114   2.988   6.576   2.757
 4072SOL    HW113115   2.965   6.486   2.721
 4072SOL    HW213116   2.984   6.644   2.683
 4073SOL     OW13117   4.490   5.166   6.848
 4073SOL    HW113118   4.446   5.185   6.761
 4073SOL    HW213119   4.554   5.090   6.837
 4074SOL     OW13120   1.547   5.715   2.324
 4074SOL    HW113121   1.567   5.682   2.416
 4074SOL    HW213122   1.542   5.815   2.324
 4075SOL     OW13123   5.920   0.571   6.879
 4075SOL    HW113124   5.904   0.489   6.933
 4075SOL    HW213125   5.866   0.647   6.917
 4076SOL     OW13126   2.250   6.301   3.663
 4076SOL    HW113127   2.188   6.264   3.594
 4076SOL    HW213128   2.254   6.239   3.741
 4077SOL     OW13129   2.295   2.092   1.800
 4077SOL    HW113130   2.320   2.142   1.717
 4077SOL    HW213131   2.366   2.104   1.868
 4078SOL     OW13132   4.437   5.043   1.889
 4078SOL    HW113133   4.514   5.067   1.829
 4078SOL    HW213134   4.369   5.116   1.888
 4079SOL     OW13135   0.803   1.901   3.895
 4079SOL    HW113136   0.845   1.914   3.985
 4079SOL    HW213137   0.777   1.990   3.858
 4080SOL     OW13138   5.946   1.927   4.270
 4080SOL    HW113139   5.982   2.021   4.268
 4080SOL    HW213140   5.846   1.930   4.272
 4081SOL     OW13141   6.744   3.331   2.720
 4081SOL    HW113142   6.732   3.415   2.667
 4081SOL    HW213143   6.820   3.343   2.784
 4082SOL     OW13144   0.216   3.341   0.257
 4082SOL    HW113145   0.204   3.402   0.336
 4082SOL    HW213146   0.293   3.279   0.275
 4083SOL     OW13147   6.781   3.253   5.297
 4083SOL    HW113148   6.750   3.168   5.255
 4083SOL    HW213149   6.880   3.261   5.288
 4084SOL     OW13150   5.232   0.924   4.245
 4084SOL    HW113151   5.293   0.986   4.196
 4084SOL    HW213152   5.280   0.837   4.262
 4085SOL     OW13153   3.144   5.105   6.791
 4085SOL    HW113154   3.203   5.143   6.720
 4085SOL    HW213155   3.176   5.136   6.881
 4086SOL     OW13156   0.526   2.494   1.562
 4086SOL    HW113157   0.438   2.535   1.536
 4086SOL    HW213158   0.581   2.479   1.480
 4087SOL     OW13159   2.207   1.547   3.175
 4087SOL    HW113160   2.245   1.609   3.107
 4087SOL    HW213161   2.137   1.490   3.133
 4088SOL     OW13162   0.021   2.434   6.765
 4088SOL    HW113163   0.076   2.423   6.682
 4088SOL    HW213164   6.965   2.372   6.762
 4089SOL     OW13165   0.347   1.572   5.821
 4089SOL    HW113166   0.413   1.505   5.787
 4089SOL    HW213167   0.264   1.525   5.852
 4090SOL     OW13168   3.189   5.381   6.347
 4090SOL    HW113169   3.097   5.345   6.360
 4090SOL    HW213170   3.248   5.352   6.422
 4091SOL     OW13171   4.498   6.552   1.413
 4091SOL    HW113172   4.401   6.575   1.423
 4091SOL    HW213173   4.552   6.635   1.411
 4092SOL     OW13174   0.836   1.043   4.114
 4092SOL    HW113175   0.758   1.021   4.173
 4092SOL    HW213176   0.805   1.056   4.021
 4093SOL     OW13177   4.880   6.325   4.170
 4093SOL    HW113178   4.853   6.272   4.251
 4093SOL    HW213179   4.846   6.419   4.179
 4094SOL     OW13180   3.384   3.433   6.522
 4094SOL    HW113181   3.368   3.475   6.433
 4094SOL    HW213182   3.466   3.376   6.518
 4095SOL     OW13183   1.569   3.575   5.806
 4095SOL    HW113184   1.477   3.607   5.829
 4095SOL    HW213185   1.637   3.628   5.858
 4096SOL     OW13186   4.661   4.815   1.713
 4096SOL    HW113187   4.662   4.741   1.780
 4096SOL    HW213188   4.719   4.790   1.635
 4097SOL     OW13189   3.959   3.970   3.288
 4097SOL    HW113190   4.001   4.056   3.259
 4097SOL    HW213191   3.939   3.974   3.386
 4098SOL     OW13192   1.270   3.337   2.192
 4098SOL    HW113193   1.243   3.293   2.106
 4098SOL    HW213194   1.195   3.396   2.223
 4099SOL     OW13195   2.355   6.251   1.851
 4099SOL    HW113196   2.336   6.221   1.757
 4099SOL    HW213197   2.450   6.228   1.874
 4100SOL     OW13198   3.507   6.959   2.773
 4100SOL    HW113199   3.571   6.890   2.808
 4100SOL    HW213200   3.469   7.010   2.850
 4101SOL     OW13201   4.469   1.723   6.887
 4101SOL    HW113202   4.374   1.744   6.912
 4101SOL    HW213203   4.470   1.671   6.802
 4102SOL     OW13204   4.309   1.257   6.330
 4102SOL    HW113205   4.360   1.320   6.271
 4102SOL    HW213206   4.247   1.310   6.389
 4103SOL     OW13207   0.088   0.498   1.672
 4103SOL    HW113208   0.092   0.531   1.767
 4103SOL    HW213209   0.030   0.417   1.668
 4104SOL     OW13210   2.189   4.196   2.040
 4104SOL    HW113211   2.103   4.230   2.079
 4104SOL    HW213212   2.253   4.272   2.029
 4105SOL     OW13213   6.288   5.420   0.556
 4105SOL    HW113214   6.302   5.321   0.556
 4105SOL    HW213215   6.256   5.450   0.646
 4106SOL     OW13216   0.433   3.826   4.341
 4106SOL    HW113217   0.499   3.858   4.409
 4106SOL    HW213218   0.370   3.760   4.382
 4107SOL     OW13219   0.198   1.073   0.945
 4107SOL    HW113220   0.253   1.063   0.862
 4107SOL    HW213221   0.107   1.035   0.930
 4108SOL     OW13222   6.109   2.470   5.030
 4108SOL    HW113223   6.040   2.411   5.073
 4108SOL    HW213224   6.197   2.457   5.075
 4109SOL     OW13225   2.234   6.863   3.946
 4109SOL    HW113226   2.300   6.849   3.872
 4109SOL    HW213227   2.242   6.790   4.014
 4110SOL     OW13228   4.819   3.305   5.157
 4110SOL    HW113229   4.919   3.304   5.152
 4110SOL    HW213230   4.785   3.395   5.131
 4111SOL     OW13231   3.986   3.136   6.333
 4111SOL    HW113232   3.961   3.180   6.419
 4111SOL    HW213233   3.946   3.188   6.257
 4112SOL     OW13234   4.608   0.567   5.710
 4112SOL    HW113235   4.552   0.619   5.645
 4112SOL    HW213236   4.587   0.598   5.803
 4113SOL     OW13237   3.798   5.291   4.424
 4113SOL    HW113238   3.750   5.317   4.508
 4113SOL    HW213239   3.775   5.356   4.352
 4114SOL     OW13240   3.523   1.903   3.615
 4114SOL    HW113241   3.567   1.813   3.618
 4114SOL    HW213242   3.572   1.966   3.675
 4115SOL     OW13243   4.883   3.928   3.187
 4115SOL    HW113244   4.843   3.960   3.273
 4115SOL    HW213245   4.880   4.000   3.119
 4116SOL     OW13246   2.929   0.984   2.164
 4116SOL    HW113247   2.846   1.037   2.145
 4116SOL    HW213248   2.934   0.907   2.101
 4117SOL     OW13249   1.221   6.067   1.908
 4117SOL    HW113250   1.285   6.001   1.869
 4117SOL    HW213251   1.231   6.155   1.861
 4118SOL     OW13252   1.534   0.321   6.802
 4118SOL    HW113253   1.501   0.348   6.711
 4118SOL    HW213254   1.457   0.290   6.858
 4119SOL     OW13255   5.556   1.764   3.309
 4119SOL    HW113256   5.575   1.804   3.398
 4119SOL    HW213257   5.599   1.674   3.302
 4120SOL     OW13258   5.548   1.222   2.234
 4120SOL    HW113259   5.638   1.230   2.279
 4120SOL    HW213260   5.501   1.141   2.269
 4121SOL     OW13261   6.099   2.488   4.072
 4121SOL    HW113262   6.127   2.578   4.039
 4121SOL    HW213263   6.076   2.429   3.995
 4122SOL     OW13264   2.349   5.010   7.003
 4122SOL    HW113265   2.309   5.089   0.026
 4122SOL    HW213266   2.393   5.039   6.918
 4123SOL     OW13267   4.171   4.119   5.447
 4123SOL    HW113268   4.254   4.078   5.409
 4123SOL    HW213269   4.113   4.047   5.486
 4124SOL     OW13270   4.611   6.516   3.064
 4124SOL    HW113271   4.656   6.430   3.041
 4124SOL    HW213272   4.597   6.570   2.981
 4125SOL     OW13273   4.638   1.315   1.642
 4125SOL    HW113274   4.563   1.263   1.682
 4125SOL    HW213275   4.657   1.395   1.699
 4126SOL     OW13276   2.126   3.571   4.804
 4126SOL    HW113277   2.220   3.601   4.821
 4126SOL    HW213278   2.063   3.648   4.816
 4127SOL     OW13279   5.405   4.585   4.263
 4127SOL    HW113280   5.350   4.669   4.260
 4127SOL    HW213281   5.390   4.533   4.179
 4128SOL     OW13282   0.054   1.721   1.849
 4128SOL    HW113283   7.001   1.686   1.794
 4128SOL    HW213284   0.139   1.717   1.796
 4129SOL     OW13285   6.855   3.054   6.937
 4129SOL    HW113286   6.874   3.131   6.998
 4129SOL    HW213287   6.907   3.064   6.853
 4130SOL     OW13288   6.181   1.728   1.604
 4130SOL    HW113289   6.203   1.804   1.543
 4130SOL    HW213290   6.231   1.738   1.690
 4131SOL     OW13291   0.187   3.266   2.886
 4131SOL    HW113292   0.278   3.274   2.927
 4131SOL    HW213293   0.177   3.174   2.846
 4132SOL     OW13294   4.642   1.688   4.489
 4132SOL    HW113295   4.584   1.679   4.570
 4132SOL    HW213296   4.584   1.690   4.407
 4133SOL     OW13297   2.542   2.397   1.047
 4133SOL    HW113298   2.587   2.310   1.070
 4133SOL    HW213299   2.580   2.470   1.103
 4134SOL     OW13300   2.042   1.041   0.264
 4134SOL    HW113301   2.036   1.133   0.304
 4134SOL    HW213302   2.018   0.973   0.333
 4135SOL     OW13303   1.809   0.203   0.833
 4135SOL    HW113304   1.801   0.149   0.749
 4135SOL    HW213305   1.728   0.260   0.845
 4136SOL     OW13306   1.022   1.840   3.407
 4136SOL    HW113307   0.954   1.873   3.341
 4136SOL    HW213308   1.040   1.743   3.389
 4137SOL     OW13309   4.023   3.141   5.156
 4137SOL    HW113310   3.960   3.064   5.146
 4137SOL    HW213311   3.987   3.220   5.105
 4138SOL     OW13312   4.797   5.594   1.643
 4138SOL    HW113313   4.792   5.667   1.574
 4138SOL    HW213314   4.892   5.579   1.669
 4139SOL     OW13315   2.967   1.999   0.268
 4139SOL    HW113316   2.966   2.099   0.259
 4139SOL    HW213317   3.013   1.959   0.189
 4140SOL     OW13318   4.835   2.332   5.189
 4140SOL    HW113319   4.811   2.242   5.153
 4140SOL    HW213320   4.895   2.321   5.268
 4141SOL     OW13321   4.985   6.150   1.224
 4141SOL    HW113322   5.009   6.053   1.224
 4141SOL    HW213323   4.962   6.179   1.131
 4142SOL     OW13324   5.916   3.257   1.814
 4142SOL    HW113325   6.000   3.203   1.805
 4142SOL    HW213326   5.937   3.353   1.800
 4143SOL     OW13327   1.673   2.662   1.650
 4143SOL    HW113328   1.675   2.563   1.646
 4143SOL    HW213329   1.672   2.692   1.746
 4144SOL     OW13330   4.057   0.778   2.173
 4144SOL    HW113331   4.142   0.829   2.167
 4144SOL    HW213332   4.070   0.687   2.134
 4145SOL     OW13333   2.801   0.319   3.735
 4145SOL    HW113334   2.799   0.328   3.635
 4145SOL    HW213335   2.830   0.406   3.775
 4146SOL     OW13336   5.046   4.374   0.418
 4146SOL    HW113337   4.998   4.306   0.474
 4146SOL    HW213338   5.103   4.327   0.351
 4147SOL     OW13339   2.443   2.062   5.850
 4147SOL    HW113340   2.474   1.990   5.911
 4147SOL    HW213341   2.404   2.022   5.767
 4148SOL     OW13342   6.966   0.099   2.516
 4148SOL    HW113343   6.894   0.128   2.452
 4148SOL    HW213344   6.977   7.022   2.511
 4149SOL     OW13345   4.750   4.147   2.238
 4149SOL    HW113346   4.661   4.187   2.213
 4149SOL    HW213347   4.747   4.118   2.334
 4150SOL     OW13348   3.814   0.478   5.016
 4150SOL    HW113349   3.909   0.468   4.988
 4150SOL    HW213350   3.803   0.561   5.071
 4151SOL     OW13351   0.659   5.567   0.388
 4151SOL    HW113352   0.559   5.566   0.391
 4151SOL    HW213353   0.695   5.580   0.480
 4152SOL     OW13354   3.315   3.812   0.782
 4152SOL    HW113355   3.278   3.861   0.861
 4152SOL    HW213356   3.415   3.803   0.792
 4153SOL     OW13357   6.388   5.797   5.904
 4153SOL    HW113358   6.454   5.736   5.860
 4153SOL    HW213359   6.307   5.745   5.930
 4154SOL     OW13360   4.593   2.489   4.864
 4154SOL    HW113361   4.673   2.522   4.913
 4154SOL    HW213362   4.618   2.468   4.770
 4155SOL     OW13363   1.662   2.815   0.351
 4155SOL    HW113364   1.574   2.780   0.320
 4155SOL    HW213365   1.733   2.747   0.333
 4156SOL     OW13366   5.887   0.550   5.052
 4156SOL    HW113367   5.933   0.610   5.117
 4156SOL    HW213368   5.797   0.587   5.029
 4157SOL     OW13369   3.523   0.877   3.539
 4157SOL    HW113370   3.509   0.868   3.638
 4157SOL    HW213371   3.562   0.967   3.519
 4158SOL     OW13372   0.827   0.622   3.552
 4158SOL    HW113373   0.735   0.628   3.591
 4158SOL    HW213374   0.826   0.658   3.459
 4159SOL     OW13375   0.321   4.538   5.519
 4159SOL    HW113376   0.301   4.607   5.589
 4159SOL    HW213377   0.419   4.539   5.498
 4160SOL     OW13378   0.077   0.504   0.938
 4160SOL    HW113379   0.170   0.534   0.917
 4160SOL    HW213380   0.081   0.420   0.992
 4161SOL     OW13381   6.286   1.623   1.318
 4161SOL    HW113382   6.218   1.550   1.315
 4161SOL    HW213383   6.342   1.620   1.235
 4162SOL     OW13384   1.039   6.899   5.455
 4162SOL    HW113385   1.118   6.890   5.394
 4162SOL    HW213386   1.058   6.852   5.542
 4163SOL     OW13387   6.821   1.662   5.634
 4163SOL    HW113388   6.785   1.688   5.724
 4163SOL    HW213389   6.770   1.584   5.599
 4164SOL     OW13390   2.718   6.560   5.595
 4164SOL    HW113391   2.631   6.597   5.629
 4164SOL    HW213392   2.733   6.470   5.633
 4165SOL     OW13393   1.806   6.370   1.734
 4165SOL    HW113394   1.881   6.422   1.774
 4165SOL    HW213395   1.790   6.401   1.641
 4166SOL     OW13396   6.198   2.104   2.404
 4166SOL    HW113397   6.207   2.095   2.503
 4166SOL    HW213398   6.140   2.183   2.383
 4167SOL     OW13399   1.893   2.663   1.106
 4167SOL    HW113400   1.847   2.647   1.193
 4167SOL    HW213401   1.985   2.623   1.108
 4168SOL     OW13402   2.176   5.938   1.090
 4168SOL    HW113403   2.245   5.991   1.140
 4168SOL    HW213404   2.154   5.855   1.141
 4169SOL     OW13405   6.477   3.475   6.728
 4169SOL    HW113406   6.576   3.482   6.736
 4169SOL    HW213407   6.443   3.544   6.664
 4170SOL     OW13408   3.007   0.643   5.785
 4170SOL    HW113409   2.972   0.647   5.692
 4170SOL    HW213410   3.105   0.662   5.785
 4171SOL     OW13411   6.130   3.079   1.836
 4171SOL    HW113412   6.129   3.028   1.923
 4171SOL    HW213413   6.217   3.125   1.825
 4172SOL     OW13414   2.958   0.743   1.275
 4172SOL    HW113415   2.965   0.644   1.267
 4172SOL    HW213416   2.987   0.786   1.189
 4173SOL     OW13417   4.242   3.731   5.680
 4173SOL    HW113418   4.248   3.795   5.757
 4173SOL    HW213419   4.334   3.712   5.646
 4174SOL     OW13420   4.731   0.793   3.474
 4174SOL    HW113421   4.664   0.809   3.546
 4174SOL    HW213422   4.743   0.877   3.421
 4175SOL     OW13423   2.596   1.312   2.505
 4175SOL    HW113424   2.646   1.261   2.435
 4175SOL    HW213425   2.544   1.249   2.562
 4176SOL     OW13426   5.940   4.733   3.114
 4176SOL    HW113427   5.863   4.679   3.146
 4176SOL    HW213428   5.907   4.817   3.071
 4177SOL     OW13429   6.815   5.385   3.067
 4177SOL    HW113430   6.794   5.474   3.027
 4177SOL    HW213431   6.852   5.397   3.158
 4178SOL     OW13432   4.301   2.458   5.455
 4178SOL    HW113433   4.290   2.501   5.365
 4178SOL    HW213434   4.222   2.400   5.474
 4179SOL     OW13435   6.755   1.706   0.027
 4179SOL    HW113436   6.670   1.746   0.063
 4179SOL    HW213437   6.771   1.618   0.071
 4180SOL     OW13438   5.477   3.736   1.529
 4180SOL    HW113439   5.512   3.820   1.570
 4180SOL    HW213440   5.404   3.698   1.586
 4181SOL     OW13441   6.205   1.157   0.792
 4181SOL    HW113442   6.149   1.217   0.734
 4181SOL    HW213443   6.269   1.212   0.845
 4182SOL     OW13444   6.032   0.893   3.533
 4182SOL    HW113445   5.939   0.856   3.533
 4182SOL    HW213446   6.031   0.985   3.494
 4183SOL     OW13447   1.259   0.652   1.977
 4183SOL    HW113448   1.335   0.718   1.981
 4183SOL    HW213449   1.239   0.618   2.069
 4184SOL     OW13450   4.286   4.633   6.274
 4184SOL    HW113451   4.209   4.574   6.247
 4184SOL    HW213452   4.345   4.649   6.195
 4185SOL     OW13453   0.192   0.539   4.052
 4185SOL    HW113454   0.119   0.604   4.072
 4185SOL    HW213455   0.177   0.455   4.104
 4186SOL     OW13456   3.546   4.122   1.592
 4186SOL    HW113457   3.550   4.210   1.641
 4186SOL    HW213458   3.637   4.081   1.591
 4187SOL     OW13459   4.175   5.123   5.696
 4187SOL    HW113460   4.224   5.097   5.613
 4187SOL    HW213461   4.159   5.222   5.696
 4188SOL     OW13462   5.004   5.747   3.269
 4188SOL    HW113463   4.976   5.842   3.252
 4188SOL    HW213464   4.992   5.693   3.185
 4189SOL     OW13465   1.217   3.407   3.016
 4189SOL    HW113466   1.269   3.322   3.002
 4189SOL    HW213467   1.127   3.399   2.972
 4190SOL     OW13468   2.223   6.766   1.810
 4190SOL    HW113469   2.235   6.779   1.711
 4190SOL    HW213470   2.281   6.692   1.841
 4191SOL     OW13471   0.355   2.051   3.766
 4191SOL    HW113472   0.301   2.126   3.803
 4191SOL    HW213473   0.380   1.989   3.841
 4192SOL     OW13474   6.015   6.382   3.889
 4192SOL    HW113475   6.082   6.416   3.954
 4192SOL    HW213476   5.993   6.287   3.909
 4193SOL     OW13477   1.530   6.934   3.984
 4193SOL    HW113478   1.486   6.869   3.922
 4193SOL    HW213479   1.611   6.973   3.941
 4194SOL     OW13480   5.292   0.247   3.000
 4194SOL    HW113481   5.386   0.215   2.989
 4194SOL    HW213482   5.290   0.347   3.000
 4195SOL     OW13483   4.754   0.276   3.520
 4195SOL    HW113484   4.736   0.350   3.584
 4195SOL    HW213485   4.668   0.248   3.476
 4196SOL     OW13486   4.947   2.542   3.136
 4196SOL    HW113487   4.949   2.461   3.077
 4196SOL    HW213488   4.857   2.586   3.128
 4197SOL     OW13489   5.277   4.051   4.359
 4197SOL    HW113490   5.355   4.027   4.417
 4197SOL    HW213491   5.274   3.990   4.280
 4198SOL     OW13492   5.920   3.433   5.746
 4198SOL    HW113493   5.824   3.456   5.731
 4198SOL    HW213494   5.977   3.500   5.698
 4199SOL     OW13495   3.121   4.198   5.680
 4199SOL    HW113496   3.129   4.261   5.603
 4199SOL    HW213497   3.161   4.239   5.761
 4200SOL     OW13498   3.229   0.476   6.426
 4200SOL    HW113499   3.195   0.527   6.505
 4200SOL    HW213500   3.237   0.379   6.449
 4201SOL     OW13501   6.651   0.146   4.811
 4201SOL    HW113502   6.677   0.238   4.784
 4201SOL    HW213503   6.637   0.143   4.910
 4202SOL     OW13504   5.793   3.209   4.964
 4202SOL    HW113505   5.884   3.183   4.998
 4202SOL    HW213506   5.726   3.195   5.037
 4203SOL     OW13507   3.776   5.632   4.542
 4203SOL    HW113508   3.704   5.667   4.483
 4203SOL    HW213509   3.750   5.543   4.578
 4204SOL     OW13510   1.785   4.178   0.438
 4204SOL    HW113511   1.869   4.150   0.485
 4204SOL    HW213512   1.734   4.241   0.496
 4205SOL     OW13513   2.491   6.612   3.560
 4205SOL    HW113514   2.414   6.599   3.496
 4205SOL    HW213515   2.536   6.524   3.576
 4206SOL     OW13516   4.767   6.401   3.818
 4206SOL    HW113517   4.718   6.325   3.775
 4206SOL    HW213518   4.859   6.370   3.844
 4207SOL     OW13519   1.240   6.315   0.046
 4207SOL    HW113520   1.276   6.388   7.009
 4207SOL    HW213521   1.178   6.257   7.015
 4208SOL     OW13522   0.900   2.373   1.472
 4208SOL    HW113523   0.961   2.296   1.453
 4208SOL    HW213524   0.880   2.375   1.570
 4209SOL     OW13525   2.649   0.126   5.731
 4209SOL    HW113526   2.674   0.036   5.694
 4209SOL    HW213527   2.665   0.126   5.830
 4210SOL     OW13528   3.530   3.296   0.318
 4210SOL    HW113529   3.476   3.312   0.400
 4210SOL    HW213530   3.541   3.197   0.304
 4211SOL     OW13531   5.787   3.486   4.084
 4211SOL    HW113532   5.694   3.479   4.119
 4211SOL    HW213533   5.838   3.404   4.109
 4212SOL     OW13534   5.967   0.078   1.740
 4212SOL    HW113535   5.928   7.008   1.738
 4212SOL    HW213536   6.041   0.081   1.807
 4213SOL     OW13537   0.806   6.642   1.310
 4213SOL    HW113538   0.862   6.658   1.229
 4213SOL    HW213539   0.834   6.705   1.382
 4214SOL     OW13540   2.609   5.855   3.443
 4214SOL    HW113541   2.595   5.762   3.476
 4214SOL    HW213542   2.707   5.873   3.432
 4215SOL     OW13543   1.383   6.046   6.873
 4215SOL    HW113544   1.385   5.967   6.812
 4215SOL    HW213545   1.476   6.076   6.893
 4216SOL     OW13546   2.556   2.738   5.289
 4216SOL    HW113547   2.517   2.825   5.259
 4216SOL    HW213548   2.558   2.674   5.213
 4217SOL     OW13549   6.326   0.765   4.458
 4217SOL    HW113550   6.273   0.704   4.517
 4217SOL    HW213551   6.362   0.841   4.512
 4218SOL     OW13552   3.001   5.469   2.877
 4218SOL    HW113553   2.938   5.492   2.952
 4218SOL    HW213554   3.037   5.377   2.892
 4219SOL     OW13555   5.008   0.155   2.853
 4219SOL    HW113556   5.082   0.173   2.788
 4219SOL    HW213557   5.024   0.207   2.937
 4220SOL     OW13558   0.333   4.585   2.950
 4220SOL    HW113559   0.383   4.671   2.957
 4220SOL    HW213560   0.366   4.533   2.871
 4221SOL     OW13561   5.185   6.371   6.342
 4221SOL    HW113562   5.167   6.307   6.267
 4221SOL    HW213563   5.147   6.334   6.427
 4222SOL     OW13564   2.441   2.654   0.191
 4222SOL    HW113565   2.410   2.614   0.277
 4222SOL    HW213566   2.530   2.697   0.204
 4223SOL     OW13567   3.876   3.486   2.991
 4223SOL    HW113568   3.915   3.394   2.989
 4223SOL    HW213569   3.777   3.481   2.977
 4224SOL     OW13570   3.465   2.231   5.681
 4224SOL    HW113571   3.502   2.138   5.679
 4224SOL    HW213572   3.529   2.293   5.635
 4225SOL     OW13573   5.198   6.746   4.570
 4225SOL    HW113574   5.277   6.795   4.532
 4225SOL    HW213575   5.200   6.650   4.540
 4226SOL     OW13576   2.700   1.994   2.260
 4226SOL    HW113577   2.713   2.052   2.180
 4226SOL    HW213578   2.774   2.011   2.326
 4227SOL     OW13579   5.379   4.236   0.484
 4227SOL    HW113580   5.309   4.165   0.475
 4227SOL    HW213581   5.359   4.293   0.563
 4228SOL     OW13582   4.255   5.552   3.256
 4228SOL    HW113583   4.306   5.618   3.201
 4228SOL    HW213584   4.286   5.557   3.351
 4229SOL     OW13585   4.046   4.871   4.845
 4229SOL    HW113586   4.063   4.876   4.943
 4229SOL    HW213587   4.113   4.808   4.803
 4230SOL     OW13588   1.873   1.260   6.108
 4230SOL    HW113589   1.972   1.253   6.092
 4230SOL    HW213590   1.825   1.203   6.042
 4231SOL     OW13591   4.015   6.217   6.239
 4231SOL    HW113592   4.058   6.212   6.149
 4231SOL    HW213593   4.086   6.223   6.310
 4232SOL     OW13594   1.283   4.026   1.610
 4232SOL    HW113595   1.349   4.053   1.540
 4232SOL    HW213596   1.314   4.060   1.699
 4233SOL     OW13597   5.167   5.210   1.616
 4233SOL    HW113598   5.223   5.142   1.664
 4233SOL    HW213599   5.203   5.223   1.523
 4234SOL     OW13600   3.836   3.604   5.778
 4234SOL    HW113601   3.917   3.550   5.798
 4234SOL    HW213602   3.781   3.616   5.860
 4235SOL     OW13603   0.728   4.096   4.720
 4235SOL    HW113604   0.715   4.195   4.711
 4235SOL    HW213605   0.791   4.078   4.796
 4236SOL     OW13606   0.990   3.714   4.434
 4236SOL    HW113607   1.046   3.643   4.391
 4236SOL    HW213608   1.045   3.796   4.448
 4237SOL     OW13609   5.298   3.785   5.669
 4237SOL    HW113610   5.344   3.769   5.582
 4237SOL    HW213611   5.235   3.710   5.688
 4238SOL     OW13612   4.800   4.805   5.235
 4238SOL    HW113613   4.878   4.867   5.227
 4238SOL    HW213614   4.821   4.719   5.187
 4239SOL     OW13615   5.122   5.432   5.470
 4239SOL    HW113616   5.149   5.338   5.487
 4239SOL    HW213617   5.036   5.452   5.516
 4240SOL     OW13618   2.674   4.562   6.074
 4240SOL    HW113619   2.707   4.632   6.012
 4240SOL    HW213620   2.713   4.473   6.049
 4241SOL     OW13621   3.266   2.168   1.159
 4241SOL    HW113622   3.313   2.103   1.220
 4241SOL    HW213623   3.334   2.218   1.105
 4242SOL     OW13624   2.891   0.464   1.888
 4242SOL    HW113625   2.975   0.464   1.833
 4242SOL    HW213626   2.914   0.485   1.983
 4243SOL     OW13627   1.750   1.675   2.141
 4243SOL    HW113628   1.716   1.755   2.092
 4243SOL    HW213629   1.676   1.636   2.195
 4244SOL     OW13630   2.934   6.922   0.952
 4244SOL    HW113631   2.900   6.910   0.858
 4244SOL    HW213632   2.984   7.008   0.958
 4245SOL     OW13633   0.439   1.531   1.030
 4245SOL    HW113634   0.420   1.625   1.059
 4245SOL    HW213635   0.374   1.505   0.958
 4246SOL     OW13636   3.960   2.080   3.553
 4246SOL    HW113637   3.981   1.996   3.502
 4246SOL    HW213638   3.995   2.159   3.503
 4247SOL     OW13639   2.309   5.584   6.846
 4247SOL    HW113640   2.231   5.541   6.892
 4247SOL    HW213641   2.392   5.568   6.899
 4248SOL     OW13642   2.908   0.040   2.576
 4248SOL    HW113643   2.914   0.095   2.492
 4248SOL    HW213644   2.842   0.083   2.638
 4249SOL     OW13645   6.056   0.732   5.215
 4249SOL    HW113646   6.155   0.735   5.203
 4249SOL    HW213647   6.033   0.761   5.308
 4250SOL     OW13648   0.861   5.430   4.648
 4250SOL    HW113649   0.836   5.527   4.646
 4250SOL    HW213650   0.803   5.383   4.715
 4251SOL     OW13651   4.770   2.066   5.130
 4251SOL    HW113652   4.746   1.992   5.194
 4251SOL    HW213653   4.860   2.048   5.091
 4252SOL     OW13654   0.727   6.886   6.334
 4252SOL    HW113655   0.826   6.875   6.325
 4252SOL    HW213656   0.685   6.797   6.352
 4253SOL     OW13657   3.947   6.844   2.745
 4253SOL    HW113658   3.985   6.753   2.729
 4253SOL    HW213659   3.932   6.890   2.658
 4254SOL     OW13660   0.987   0.766   5.205
 4254SOL    HW113661   0.960   0.807   5.118
 4254SOL    HW213662   0.984   0.666   5.197
 4255SOL     OW13663   1.242   3.076   4.045
 4255SOL    HW113664   1.181   3.093   3.968
 4255SOL    HW213665   1.289   2.988   4.032
 4256SOL     OW13666   5.758   6.205   0.852
 4256SOL    HW113667   5.814   6.134   0.809
 4256SOL    HW213668   5.704   6.164   0.926
 4257SOL     OW13669   0.332   1.202   2.249
 4257SOL    HW113670   0.403   1.259   2.209
 4257SOL    HW213671   0.295   1.247   2.330
 4258SOL     OW13672   2.594   6.161   1.121
 4258SOL    HW113673   2.629   6.115   1.040
 4258SOL    HW213674   2.662   6.225   1.156
 4259SOL     OW13675   0.881   6.787   0.148
 4259SOL    HW113676   0.840   6.722   0.211
 4259SOL    HW213677   0.896   6.874   0.195
 4260SOL     OW13678   0.097   0.628   5.308
 4260SOL    HW113679   0.146   0.708   5.343
 4260SOL    HW213680   0.087   0.560   5.381
 4261SOL     OW13681   2.416   6.997   3.382
 4261SOL    HW113682   2.408   6.970   3.286
 4261SOL    HW213683   2.334   6.969   3.432
 4262SOL     OW13684   1.499   3.829   4.844
 4262SOL    HW113685   1.411   3.835   4.795
 4262SOL    HW213686   1.488   3.867   4.936
 4263SOL     OW13687   3.506   0.737   2.752
 4263SOL    HW113688   3.567   0.688   2.814
 4263SOL    HW213689   3.446   0.797   2.805
 4264SOL     OW13690   4.227   1.848   6.708
 4264SOL    HW113691   4.201   1.924   6.648
 4264SOL    HW213692   4.263   1.885   6.794
 4265SOL     OW13693   3.149   6.554   6.813
 4265SOL    HW113694   3.050   6.547   6.823
 4265SOL    HW213695   3.194   6.500   6.884
 4266SOL     OW13696   1.260   4.231   2.851
 4266SOL    HW113697   1.216   4.314   2.818
 4266SOL    HW213698   1.334   4.255   2.914
 4267SOL     OW13699   1.901   3.940   3.553
 4267SOL    HW113700   1.975   3.891   3.600
 4267SOL    HW213701   1.921   3.943   3.455
 4268SOL     OW13702   1.376   3.958   6.060
 4268SOL    HW113703   1.435   3.968   6.141
 4268SOL    HW213704   1.298   3.899   6.083
 4269SOL     OW13705   1.701   1.558   4.278
 4269SOL    HW113706   1.739   1.467   4.292
 4269SOL    HW213707   1.767   1.615   4.231
 4270SOL     OW13708   4.067   4.197   1.159
 4270SOL    HW113709   3.980   4.147   1.158
 4270SOL    HW213710   4.074   4.250   1.243
 4271SOL     OW13711   6.127   0.431   0.327
 4271SOL    HW113712   6.159   0.379   0.406
 4271SOL    HW213713   6.068   0.505   0.358
 4272SOL     OW13714   6.392   1.607   5.561
 4272SOL    HW113715   6.461   1.535   5.552
 4272SOL    HW213716   6.437   1.696   5.561
 4273SOL     OW13717   3.433   5.885   3.841
 4273SOL    HW113718   3.354   5.845   3.794
 4273SOL    HW213719   3.512   5.887   3.779
 4274SOL     OW13720   6.796   0.455   1.728
 4274SOL    HW113721   6.857   0.411   1.795
 4274SOL    HW213722   6.783   0.551   1.754
 4275SOL     OW13723   5.758   1.387   4.476
 4275SOL    HW113724   5.694   1.462   4.459
 4275SOL    HW213725   5.719   1.324   4.543
 4276SOL     OW13726   1.729   0.819   2.772
 4276SOL    HW113727   1.681   0.905   2.788
 4276SOL    HW213728   1.797   0.804   2.843
 4277SOL     OW13729   6.452   5.206   3.117
 4277SOL    HW113730   6.373   5.230   3.060
 4277SOL    HW213731   6.534   5.249   3.080
 4278SOL     OW13732   0.510   0.026   1.786
 4278SOL    HW113733   0.467   0.103   1.739
 4278SOL    HW213734   0.443   7.007   1.848
 4279SOL     OW13735   1.231   3.666   3.107
 4279SOL    HW113736   1.142   3.710   3.091
 4279SOL    HW213737   1.234   3.579   3.057
 4280SOL     OW13738   2.685   6.467   6.250
 4280SOL    HW113739   2.617   6.398   6.276
 4280SOL    HW213740   2.700   6.529   6.328
 4281SOL     OW13741   6.806   6.791   2.735
 4281SOL    HW113742   6.871   6.715   2.741
 4281SOL    HW213743   6.717   6.762   2.768
 4282SOL     OW13744   5.065   4.818   2.128
 4282SOL    HW113745   5.099   4.740   2.181
 4282SOL    HW213746   5.028   4.887   2.190
 4283SOL     OW13747   6.100   1.506   5.255
 4283SOL    HW113748   6.131   1.432   5.315
 4283SOL    HW213749   6.089   1.471   5.162
 4284SOL     OW13750   4.952   6.174   0.167
 4284SOL    HW113751   5.008   6.176   0.084
 4284SOL    HW213752   4.948   6.081   0.203
 4285SOL     OW13753   2.817   1.511   6.415
 4285SOL    HW113754   2.734   1.565   6.402
 4285SOL    HW213755   2.794   1.414   6.417
 4286SOL     OW13756   5.580   6.353   0.088
 4286SOL    HW113757   5.492   6.353   0.134
 4286SOL    HW213758   5.653   6.355   0.156
 4287SOL     OW13759   4.470   0.261   0.895
 4287SOL    HW113760   4.526   0.183   0.919
 4287SOL    HW213761   4.503   0.302   0.810
 4288SOL     OW13762   6.980   6.689   2.280
 4288SOL    HW113763   6.946   6.603   2.317
 4288SOL    HW213764   6.963   6.763   2.346
 4289SOL     OW13765   0.355   4.205   5.868
 4289SOL    HW113766   0.322   4.175   5.958
 4289SOL    HW213767   0.431   4.147   5.840
 4290SOL     OW13768   0.132   1.125   2.898
 4290SOL    HW113769   0.085   1.037   2.890
 4290SOL    HW213770   0.168   1.136   2.991
 4291SOL     OW13771   4.655   4.905   5.930
 4291SOL    HW113772   4.749   4.911   5.963
 4291SOL    HW213773   4.655   4.871   5.836
 4292SOL     OW13774   6.496   6.918   0.422
 4292SOL    HW113775   6.432   6.856   0.467
 4292SOL    HW213776   6.544   6.869   0.348
 4293SOL     OW13777   3.923   2.575   5.768
 4293SOL    HW113778   3.945   2.671   5.782
 4293SOL    HW213779   3.962   2.520   5.842
 4294SOL     OW13780   3.223   2.287   0.149
 4294SOL    HW113781   3.125   2.272   0.165
 4294SOL    HW213782   3.271   2.293   0.236
 4295SOL     OW13783   4.178   6.549   2.465
 4295SOL    HW113784   4.266   6.586   2.495
 4295SOL    HW213785   4.188   6.452   2.442
 4296SOL     OW13786   2.214   5.600   1.925
 4296SOL    HW113787   2.296   5.598   1.983
 4296SOL    HW213788   2.149   5.531   1.957
 4297SOL     OW13789   5.092   4.526   6.959
 4297SOL    HW113790   4.994   4.525   6.975
 4297SOL    HW213791   5.119   4.615   6.922
 4298SOL     OW13792   2.226   6.274   0.751
 4298SOL    HW113793   2.265   6.217   0.823
 4298SOL    HW213794   2.162   6.340   0.791
 4299SOL     OW13795   6.769   3.251   6.714
 4299SOL    HW113796   6.702   3.227   6.784
 4299SOL    HW213797   6.725   3.248   6.624
 4300SOL     OW13798   3.693   0.601   1.890
 4300SOL    HW113799   3.701   0.675   1.956
 4300SOL    HW213800   3.761   0.531   1.910
 4301SOL     OW13801   1.834   6.010   4.679
 4301SOL    HW113802   1.847   5.911   4.673
 4301SOL    HW213803   1.816   6.035   4.775
 4302SOL     OW13804   4.347   5.182   0.206
 4302SOL    HW113805   4.315   5.267   0.249
 4302SOL    HW213806   4.272   5.143   0.152
 4303SOL     OW13807   4.758   4.904   3.211
 4303SOL    HW113808   4.668   4.892   3.253
 4303SOL    HW213809   4.787   4.818   3.170
 4304SOL     OW13810   3.270   4.293   1.701
 4304SOL    HW113811   3.233   4.342   1.623
 4304SOL    HW213812   3.366   4.319   1.715
 4305SOL     OW13813   1.082   6.744   5.699
 4305SOL    HW113814   1.153   6.799   5.744
 4305SOL    HW213815   0.998   6.749   5.752
 4306SOL     OW13816   6.117   3.837   5.400
 4306SOL    HW113817   6.109   3.753   5.347
 4306SOL    HW213818   6.188   3.895   5.360
 4307SOL     OW13819   6.987   1.657   4.565
 4307SOL    HW113820   0.004   1.594   4.631
 4307SOL    HW213821   6.899   1.691   4.599
 4308SOL     OW13822   4.299   5.574   5.762
 4308SOL    HW113823   4.364   5.617   5.700
 4308SOL    HW213824   4.348   5.532   5.839
 4309SOL     OW13825   2.762   2.132   0.644
 4309SOL    HW113826   2.819   2.098   0.719
 4309SOL    HW213827   2.765   2.067   0.568
 4310SOL     OW13828   6.415   1.037   4.529
 4310SOL    HW113829   6.476   1.072   4.458
 4310SOL    HW213830   6.338   1.099   4.541
 4311SOL     OW13831   1.054   6.594   1.638
 4311SOL    HW113832   0.974   6.587   1.697
 4311SOL    HW213833   1.081   6.690   1.629
 4312SOL     OW13834   0.742   2.827   2.517
 4312SOL    HW113835   0.740   2.926   2.504
 4312SOL    HW213836   0.659   2.797   2.562
 4313SOL     OW13837   0.879   3.412   0.482
 4313SOL    HW113838   0.949   3.433   0.550
 4313SOL    HW213839   0.857   3.496   0.431
 4314SOL     OW13840   2.411   1.689   5.557
 4314SOL    HW113841   2.330   1.691   5.617
 4314SOL    HW213842   2.383   1.703   5.462
 4315SOL     OW13843   2.582   2.311   5.375
 4315SOL    HW113844   2.560   2.391   5.320
 4315SOL    HW213845   2.680   2.294   5.370
 4316SOL     OW13846   4.461   4.188   1.399
 4316SOL    HW113847   4.401   4.131   1.343
 4316SOL    HW213848   4.471   4.278   1.357
 4317SOL     OW13849   5.175   0.261   3.708
 4317SOL    HW113850   5.214   0.220   3.791
 4317SOL    HW213851   5.114   0.194   3.664
 4318SOL     OW13852   2.285   5.615   4.329
 4318SOL    HW113853   2.310   5.537   4.273
 4318SOL    HW213854   2.188   5.635   4.316
 4319SOL     OW13855   2.255   4.878   1.131
 4319SOL    HW113856   2.303   4.953   1.084
 4319SOL    HW213857   2.202   4.915   1.207
 4320SOL     OW13858   4.159   1.585   1.916
 4320SOL    HW113859   4.171   1.595   2.014
 4320SOL    HW213860   4.200   1.499   1.886
 4321SOL     OW13861   6.486   5.989   3.182
 4321SOL    HW113862   6.500   6.063   3.248
 4321SOL    HW213863   6.446   5.910   3.229
 4322SOL     OW13864   2.634   2.064   4.421
 4322SOL    HW113865   2.536   2.064   4.402
 4322SOL    HW213866   2.671   1.971   4.408
 4323SOL     OW13867   5.454   4.104   1.997
 4323SOL    HW113868   5.514   4.055   1.934
 4323SOL    HW213869   5.452   4.057   2.085
 4324SOL     OW13870   6.626   3.860   5.512
 4324SOL    HW113871   6.631   3.929   5.584
 4324SOL    HW213872   6.536   3.817   5.514
 4325SOL     OW13873   1.348   0.757   1.272
 4325SOL    HW113874   1.431   0.791   1.316
 4325SOL    HW213875   1.366   0.666   1.235
 4326SOL     OW13876   5.119   2.879   2.255
 4326SOL    HW113877   5.126   2.892   2.353
 4326SOL    HW213878   5.202   2.833   2.221
 4327SOL     OW13879   3.114   6.643   4.047
 4327SOL    HW113880   3.111   6.726   3.991
 4327SOL    HW213881   3.057   6.573   4.005
 4328SOL     OW13882   5.534   0.168   2.167
 4328SOL    HW113883   5.616   0.207   2.209
 4328SOL    HW213884   5.459   0.168   2.234
 4329SOL     OW13885   6.055   4.019   0.149
 4329SOL    HW113886   5.967   3.973   0.160
 4329SOL    HW213887   6.084   4.058   0.237
 4330SOL     OW13888   2.771   5.995   5.394
 4330SOL    HW113889   2.705   6.071   5.400
 4330SOL    HW213890   2.859   6.031   5.364
 4331SOL     OW13891   5.706   1.454   2.644
 4331SOL    HW113892   5.763   1.535   2.627
 4331SOL    HW213893   5.682   1.450   2.741
 4332SOL     OW13894   6.784   5.907   1.355
 4332SOL    HW113895   6.830   5.828   1.315
 4332SOL    HW213896   6.747   5.964   1.283
 4333SOL     OW13897   4.070   3.208   5.496
 4333SOL    HW113898   4.004   3.215   5.421
 4333SOL    HW213899   4.107   3.299   5.516
 4334SOL     OW13900   0.749   1.756   3.664
 4334SOL    HW113901   0.725   1.798   3.751
 4334SOL    HW213902   0.765   1.827   3.595
 4335SOL     OW13903   2.216   2.771   1.526
 4335SOL    HW113904   2.230   2.684   1.479
 4335SOL    HW213905   2.300   2.797   1.574
 4336SOL     OW13906   2.295   5.635   5.155
 4336SOL    HW113907   2.222   5.650   5.089
 4336SOL    HW213908   2.370   5.586   5.111
 4337SOL     OW13909   0.425   4.749   4.179
 4337SOL    HW113910   0.502   4.721   4.120
 4337SOL    HW213911   0.346   4.691   4.159
 4338SOL     OW13912   3.432   3.155   5.254
 4338SOL    HW113913   3.505   3.184   5.317
 4338SOL    HW213914   3.473   3.110   5.175
 4339SOL     OW13915   3.407   3.965   5.364
 4339SOL    HW113916   3.477   4.035   5.378
 4339SOL    HW213917   3.438   3.901   5.293
 4340SOL     OW13918   6.888   4.508   0.209
 4340SOL    HW113919   6.899   4.494   0.307
 4340SOL    HW213920   6.829   4.587   0.193
 4341SOL     OW13921   5.927   6.282   1.528
 4341SOL    HW113922   5.905   6.344   1.603
 4341SOL    HW213923   6.017   6.242   1.543
 4342SOL     OW13924   4.921   3.269   2.233
 4342SOL    HW113925   4.860   3.312   2.166
 4342SOL    HW213926   4.975   3.198   2.189
 4343SOL     OW13927   4.592   6.599   6.067
 4343SOL    HW113928   4.659   6.561   6.002
 4343SOL    HW213929   4.624   6.585   6.160
 4344SOL     OW13930   1.358   4.125   1.852
 4344SOL    HW113931   1.379   4.222   1.865
 4344SOL    HW213932   1.437   4.070   1.877
 4345SOL     OW13933   4.108   3.442   2.295
 4345SOL    HW113934   4.180   3.389   2.251
 4345SOL    HW213935   4.102   3.532   2.252
 4346SOL     OW13936   0.966   3.267   2.292
 4346SOL    HW113937   1.008   3.243   2.204
 4346SOL    HW213938   1.022   3.335   2.338
 4347SOL     OW13939   5.877   6.457   0.827
 4347SOL    HW113940   5.833   6.368   0.822
 4347SOL    HW213941   5.974   6.448   0.805
 4348SOL     OW13942   6.307   4.131   6.338
 4348SOL    HW113943   6.320   4.034   6.361
 4348SOL    HW213944   6.389   4.182   6.364
 4349SOL     OW13945   0.732   3.621   3.686
 4349SOL    HW113946   0.782   3.685   3.745
 4349SOL    HW213947   0.635   3.626   3.706
 4350SOL     OW13948   5.281   6.872   3.844
 4350SOL    HW113949   5.272   6.968   3.870
 4350SOL    HW213950   5.192   6.827   3.847
 4351SOL     OW13951   0.257   6.311   1.399
 4351SOL    HW113952   0.348   6.277   1.423
 4351SOL    HW213953   0.248   6.312   1.299
 4352SOL     OW13954   3.555   4.471   1.456
 4352SOL    HW113955   3.606   4.401   1.406
 4352SOL    HW213956   3.571   4.560   1.413
 4353SOL     OW13957   2.074   4.101   0.515
 4353SOL    HW113958   2.090   4.017   0.463
 4353SOL    HW213959   2.121   4.177   0.470
 4354SOL     OW13960   5.797   4.962   2.229
 4354SOL    HW113961   5.864   4.890   2.243
 4354SOL    HW213962   5.829   5.047   2.271
 4355SOL     OW13963   1.854   5.015   3.813
 4355SOL    HW113964   1.896   5.051   3.730
 4355SOL    HW213965   1.910   4.940   3.849
 4356SOL     OW13966   5.966   1.810   5.884
 4356SOL    HW113967   5.977   1.711   5.873
 4356SOL    HW213968   5.980   1.835   5.980
 4357SOL     OW13969   4.941   5.941   2.707
 4357SOL    HW113970   5.039   5.959   2.696
 4357SOL    HW213971   4.910   5.880   2.635
 4358SOL     OW13972   3.064   0.263   1.283
 4358SOL    HW113973   3.012   0.345   1.258
 4358SOL    HW213974   3.123   0.285   1.361
 4359SOL     OW13975   2.873   3.406   1.623
 4359SOL    HW113976   2.790   3.425   1.571
 4359SOL    HW213977   2.887   3.477   1.692
 4360SOL     OW13978   2.551   6.466   4.034
 4360SOL    HW113979   2.648   6.486   4.045
 4360SOL    HW213980   2.536   6.419   3.947
 4361SOL     OW13981   1.906   0.936   6.571
 4361SOL    HW113982   1.831   0.894   6.623
 4361SOL    HW213983   1.964   0.864   6.533
 4362SOL     OW13984   6.499   6.010   2.102
 4362SOL    HW113985   6.581   6.022   2.046
 4362SOL    HW213986   6.445   6.093   2.100
 4363SOL     OW13987   3.798   0.298   2.476
 4363SOL    HW113988   3.705   0.303   2.512
 4363SOL    HW213989   3.822   0.202   2.457
 4364SOL     OW13990   3.193   4.050   2.900
 4364SOL    HW113991   3.177   4.027   2.996
 4364SOL    HW213992   3.285   4.089   2.890
 4365SOL     OW13993   2.328   1.308   0.734
 4365SOL    HW113994   2.292   1.332   0.824
 4365SOL    HW213995   2.342   1.209   0.729
 4366SOL     OW13996   4.609   5.913   4.828
 4366SOL    HW113997   4.693   5.872   4.792
 4366SOL    HW213998   4.571   5.854   4.899
 4367SOL     OW13999   2.043   0.118   1.721
 4367SOL    HW114000   2.102   0.054   1.771
 4367SOL    HW214001   2.067   0.212   1.745
 4368SOL     OW14002   5.203   5.352   4.539
 4368SOL    HW114003   5.123   5.408   4.517
 4368SOL    HW214004   5.258   5.339   4.456
 4369SOL     OW14005   7.022   4.078   4.627
 4369SOL    HW114006   0.082   4.113   4.673
 4369SOL    HW214007   6.943   4.094   4.686
 4370SOL     OW14008   5.279   4.346   1.473
 4370SOL    HW114009   5.276   4.392   1.561
 4370SOL    HW214010   5.214   4.270   1.473
 4371SOL     OW14011   3.522   0.577   3.469
 4371SOL    HW114012   3.572   0.532   3.543
 4371SOL    HW214013   3.519   0.675   3.486
 4372SOL     OW14014   1.749   4.485   5.178
 4372SOL    HW114015   1.684   4.430   5.126
 4372SOL    HW214016   1.752   4.452   5.273
 4373SOL     OW14017   4.704   0.774   0.274
 4373SOL    HW114018   4.705   0.753   0.176
 4373SOL    HW214019   4.761   0.708   0.323
 4374SOL     OW14020   2.129   6.213   0.519
 4374SOL    HW114021   2.174   6.217   0.609
 4374SOL    HW214022   2.196   6.229   0.447
 4375SOL     OW14023   4.518   0.711   5.930
 4375SOL    HW114024   4.502   0.806   5.904
 4375SOL    HW214025   4.446   0.681   5.992
 4376SOL     OW14026   3.045   4.885   0.118
 4376SOL    HW114027   3.137   4.864   0.085
 4376SOL    HW214028   3.022   4.823   0.193
 4377SOL     OW14029   5.778   6.398   0.259
 4377SOL    HW114030   5.860   6.351   0.225
 4377SOL    HW214031   5.805   6.481   0.308
 4378SOL     OW14032   3.120   4.902   1.517
 4378SOL    HW114033   3.175   4.821   1.540
 4378SOL    HW214034   3.181   4.979   1.499
 4379SOL     OW14035   6.386   6.190   0.805
 4379SOL    HW114036   6.346   6.144   0.726
 4379SOL    HW214037   6.316   6.206   0.874
 4380SOL     OW14038   1.733   6.083   4.918
 4380SOL    HW114039   1.771   6.026   4.991
 4380SOL    HW214040   1.719   6.176   4.952
 4381SOL     OW14041   3.380   6.459   4.209
 4381SOL    HW114042   3.430   6.423   4.288
 4381SOL    HW214043   3.329   6.541   4.236
 4382SOL     OW14044   5.727   3.666   3.835
 4382SOL    HW114045   5.785   3.613   3.773
 4382SOL    HW214046   5.776   3.682   3.921
 4383SOL     OW14047   1.267   0.408   6.788
 4383SOL    HW114048   1.195   0.405   6.719
 4383SOL    HW214049   1.234   0.366   6.873
 4384SOL     OW14050   3.906   6.620   1.954
 4384SOL    HW114051   3.844   6.653   1.883
 4384SOL    HW214052   3.869   6.644   2.044
 4385SOL     OW14053   5.915   2.277   4.316
 4385SOL    HW114054   5.836   2.271   4.255
 4385SOL    HW214055   5.949   2.371   4.318
 4386SOL     OW14056   1.866   5.684   0.064
 4386SOL    HW114057   1.877   5.777   0.099
 4386SOL    HW214058   1.889   5.682   6.989
 4387SOL     OW14059   6.028   1.996   1.133
 4387SOL    HW114060   6.114   1.987   1.183
 4387SOL    HW214061   5.953   2.009   1.198
 4388SOL     OW14062   4.399   1.316   5.952
 4388SOL    HW114063   4.305   1.289   5.932
 4388SOL    HW214064   4.400   1.372   6.035
 4389SOL     OW14065   1.326   2.629   2.586
 4389SOL    HW114066   1.353   2.561   2.518
 4389SOL    HW214067   1.227   2.639   2.586
 4390SOL     OW14068   4.736   3.983   1.155
 4390SOL    HW114069   4.652   3.941   1.121
 4390SOL    HW214070   4.813   3.958   1.095
 4391SOL     OW14071   0.508   5.664   1.055
 4391SOL    HW114072   0.472   5.587   1.003
 4391SOL    HW214073   0.432   5.716   1.094
 4392SOL     OW14074   5.083   5.233   5.028
 4392SOL    HW114075   5.092   5.331   5.014
 4392SOL    HW214076   5.173   5.190   5.022
 4393SOL     OW14077   4.756   6.868   2.580
 4393SOL    HW114078   4.662   6.887   2.552
 4393SOL    HW214079   4.785   6.934   2.649
 4394SOL     OW14080   4.752   1.039   2.474
 4394SOL    HW114081   4.843   1.037   2.515
 4394SOL    HW214082   4.755   0.996   2.383
 4395SOL     OW14083   4.844   2.676   0.791
 4395SOL    HW114084   4.793   2.702   0.873
 4395SOL    HW214085   4.780   2.649   0.719
 4396SOL     OW14086   1.635   1.352   2.238
 4396SOL    HW114087   1.579   1.407   2.300
 4396SOL    HW214088   1.593   1.262   2.225
 4397SOL     OW14089   3.918   1.706   6.877
 4397SOL    HW114090   3.865   1.622   6.889
 4397SOL    HW214091   3.934   1.722   6.779
 4398SOL     OW14092   0.848   4.911   4.745
 4398SOL    HW114093   0.879   5.005   4.763
 4398SOL    HW214094   0.917   4.863   4.690
 4399SOL     OW14095   2.886   0.285   1.583
 4399SOL    HW114096   2.940   0.220   1.529
 4399SOL    HW214097   2.947   0.341   1.639
 4400SOL     OW14098   3.171   4.843   2.870
 4400SOL    HW114099   3.135   4.811   2.782
 4400SOL    HW214100   3.108   4.817   2.943
 4401SOL     OW14101   4.841   6.427   4.469
 4401SOL    HW114102   4.853   6.511   4.520
 4401SOL    HW214103   4.744   6.416   4.445
 4402SOL     OW14104   0.062   6.441   1.703
 4402SOL    HW114105   0.077   6.479   1.612
 4402SOL    HW214106   0.107   6.498   1.772
 4403SOL     OW14107   6.564   1.663   3.630
 4403SOL    HW114108   6.530   1.569   3.634
 4403SOL    HW214109   6.599   1.682   3.539
 4404SOL     OW14110   1.627   3.854   2.511
 4404SOL    HW114111   1.600   3.780   2.450
 4404SOL    HW214112   1.619   3.823   2.606
 4405SOL     OW14113   2.706   3.933   6.576
 4405SOL    HW114114   2.776   3.890   6.633
 4405SOL    HW214115   2.719   3.905   6.481
 4406SOL     OW14116   5.882   2.603   2.396
 4406SOL    HW114117   5.792   2.613   2.353
 4406SOL    HW214118   5.950   2.652   2.341
 4407SOL     OW14119   0.836   0.540   0.270
 4407SOL    HW114120   0.891   0.486   0.335
 4407SOL    HW214121   0.839   0.637   0.297
 4408SOL     OW14122   4.356   5.952   1.411
 4408SOL    HW114123   4.318   6.017   1.478
 4408SOL    HW214124   4.398   6.003   1.336
 4409SOL     OW14125   3.520   1.989   3.362
 4409SOL    HW114126   3.513   1.970   3.459
 4409SOL    HW214127   3.606   1.952   3.326
 4410SOL     OW14128   2.130   5.886   0.820
 4410SOL    HW114129   2.199   5.920   0.756
 4410SOL    HW214130   2.150   5.920   0.912
 4411SOL     OW14131   3.469   3.192   2.252
 4411SOL    HW114132   3.503   3.263   2.313
 4411SOL    HW214133   3.525   3.110   2.261
 4412SOL     OW14134   3.897   1.573   6.226
 4412SOL    HW114135   3.912   1.504   6.297
 4412SOL    HW214136   3.827   1.637   6.256
 4413SOL     OW14137   3.583   5.456   3.585
 4413SOL    HW114138   3.566   5.368   3.632
 4413SOL    HW214139   3.646   5.510   3.640
 4414SOL     OW14140   3.482   4.944   1.716
 4414SOL    HW114141   3.509   4.858   1.759
 4414SOL    HW214142   3.500   5.020   1.779
 4415SOL     OW14143   4.531   0.936   1.617
 4415SOL    HW114144   4.541   1.014   1.679
 4415SOL    HW214145   4.458   0.876   1.649
 4416SOL     OW14146   2.923   2.241   4.810
 4416SOL    HW114147   2.963   2.327   4.777
 4416SOL    HW214148   2.968   2.215   4.895
 4417SOL     OW14149   5.627   6.855   1.261
 4417SOL    HW114150   5.721   6.859   1.229
 4417SOL    HW214151   5.574   6.930   1.222
 4418SOL     OW14152   4.516   0.149   2.854
 4418SOL    HW114153   4.607   0.169   2.890
 4418SOL    HW214154   4.448   0.208   2.899
 4419SOL     OW14155   6.352   5.497   6.034
 4419SOL    HW114156   6.284   5.456   6.094
 4419SOL    HW214157   6.434   5.520   6.087
 4420SOL     OW14158   5.444   0.820   0.792
 4420SOL    HW114159   5.454   0.793   0.696
 4420SOL    HW214160   5.433   0.920   0.797
 4421SOL     OW14161   0.530   1.861   3.051
 4421SOL    HW114162   0.523   1.878   3.149
 4421SOL    HW214163   0.611   1.908   3.015
 4422SOL     OW14164   1.476   4.101   5.849
 4422SOL    HW114165   1.445   4.053   5.932
 4422SOL    HW214166   1.407   4.090   5.777
 4423SOL     OW14167   6.699   1.780   5.853
 4423SOL    HW114168   6.668   1.874   5.866
 4423SOL    HW214169   6.725   1.741   5.942
 4424SOL     OW14170   1.705   5.568   3.343
 4424SOL    HW114171   1.780   5.596   3.282
 4424SOL    HW214172   1.646   5.504   3.295
 4425SOL     OW14173   5.125   4.011   2.043
 4425SOL    HW114174   5.092   4.057   2.125
 4425SOL    HW214175   5.050   4.000   1.978
 4426SOL     OW14176   0.599   6.634   6.352
 4426SOL    HW114177   0.602   6.556   6.290
 4426SOL    HW214178   0.640   6.609   6.440
 4427SOL     OW14179   0.675   5.227   3.574
 4427SOL    HW114180   0.748   5.292   3.551
 4427SOL    HW214181   0.604   5.274   3.626
 4428SOL     OW14182   1.593   0.152   2.646
 4428SOL    HW114183   1.571   0.116   2.555
 4428SOL    HW214184   1.634   0.079   2.701
 4429SOL     OW14185   2.795   7.000   2.225
 4429SOL    HW114186   2.775   7.016   2.128
 4429SOL    HW214187   2.795   0.065   2.274
 4430SOL     OW14188   1.908   0.164   2.090
 4430SOL    HW114189   1.871   0.076   2.060
 4430SOL    HW214190   1.999   0.150   2.129
 4431SOL     OW14191   1.820   1.715   2.613
 4431SOL    HW114192   1.879   1.635   2.615
 4431SOL    HW214193   1.725   1.687   2.623
 4432SOL     OW14194   3.536   4.200   4.597
 4432SOL    HW114195   3.576   4.280   4.553
 4432SOL    HW214196   3.511   4.133   4.528
 4433SOL     OW14197   6.531   0.383   1.778
 4433SOL    HW114198   6.625   0.398   1.746
 4433SOL    HW214199   6.489   0.471   1.800
 4434SOL     OW14200   5.582   1.901   5.858
 4434SOL    HW114201   5.549   1.945   5.775
 4434SOL    HW214202   5.605   1.805   5.838
 4435SOL     OW14203   3.649   2.833   1.763
 4435SOL    HW114204   3.556   2.852   1.731
 4435SOL    HW214205   3.665   2.734   1.762
 4436SOL     OW14206   5.791   6.966   0.477
 4436SOL    HW114207   5.695   6.981   0.452
 4436SOL    HW214208   5.836   0.032   0.490
 4437SOL     OW14209   3.249   6.704   5.506
 4437SOL    HW114210   3.279   6.755   5.587
 4437SOL    HW214211   3.187   6.760   5.452
 4438SOL     OW14212   3.615   2.605   6.746
 4438SOL    HW114213   3.529   2.647   6.715
 4438SOL    HW214214   3.684   2.615   6.675
 4439SOL     OW14215   1.148   4.728   3.401
 4439SOL    HW114216   1.205   4.764   3.327
 4439SOL    HW214217   1.130   4.631   3.385
 4440SOL     OW14218   6.442   1.209   0.399
 4440SOL    HW114219   6.508   1.227   0.471
 4440SOL    HW214220   6.367   1.274   0.406
 4441SOL     OW14221   6.415   0.544   4.252
 4441SOL    HW114222   6.389   0.623   4.307
 4441SOL    HW214223   6.375   0.461   4.292
 4442SOL     OW14224   2.041   5.854   2.350
 4442SOL    HW114225   1.975   5.789   2.312
 4442SOL    HW214226   1.997   5.943   2.361
 4443SOL     OW14227   1.693   1.027   1.332
 4443SOL    HW114228   1.650   0.938   1.347
 4443SOL    HW214229   1.682   1.083   1.414
 4444SOL     OW14230   4.771   1.821   3.107
 4444SOL    HW114231   4.706   1.777   3.169
 4444SOL    HW214232   4.762   1.780   3.016
 4445SOL     OW14233   0.949   2.553   6.222
 4445SOL    HW114234   0.906   2.628   6.271
 4445SOL    HW214235   0.879   2.490   6.187
 4446SOL     OW14236   6.829   4.817   4.419
 4446SOL    HW114237   6.866   4.835   4.328
 4446SOL    HW214238   6.888   4.751   4.466
 4447SOL     OW14239   4.877   3.865   4.830
 4447SOL    HW114240   4.834   3.780   4.862
 4447SOL    HW214241   4.816   3.942   4.848
 4448SOL     OW14242   2.501   3.290   6.462
 4448SOL    HW114243   2.580   3.326   6.411
 4448SOL    HW214244   2.493   3.191   6.444
 4449SOL     OW14245   6.657   1.458   5.474
 4449SOL    HW114246   6.671   1.380   5.535
 4449SOL    HW214247   6.626   1.426   5.385
 4450SOL     OW14248   3.686   3.137   3.239
 4450SOL    HW114249   3.649   3.151   3.147
 4450SOL    HW214250   3.677   3.222   3.292
 4451SOL     OW14251   0.657   5.171   1.408
 4451SOL    HW114252   0.680   5.173   1.310
 4451SOL    HW214253   0.675   5.080   1.445
 4452SOL     OW14254   0.786   3.910   6.835
 4452SOL    HW114255   0.877   3.951   6.829
 4452SOL    HW214256   0.740   3.918   6.746
 4453SOL     OW14257   5.771   0.425   1.321
 4453SOL    HW114258   5.724   0.439   1.233
 4453SOL    HW214259   5.842   0.355   1.310
 4454SOL     OW14260   6.241   3.504   1.904
 4454SOL    HW114261   6.197   3.457   1.981
 4454SOL    HW214262   6.176   3.511   1.828
 4455SOL     OW14263   4.483   2.358   2.515
 4455SOL    HW114264   4.573   2.384   2.481
 4455SOL    HW214265   4.427   2.323   2.440
 4456SOL     OW14266   0.217   5.742   2.611
 4456SOL    HW114267   0.287   5.672   2.622
 4456SOL    HW214268   0.213   5.772   2.516
 4457SOL     OW14269   4.474   2.478   6.111
 4457SOL    HW114270   4.464   2.423   6.194
 4457SOL    HW214271   4.494   2.573   6.135
 4458SOL     OW14272   4.792   1.817   1.229
 4458SOL    HW114273   4.748   1.752   1.166
 4458SOL    HW214274   4.745   1.814   1.317
 4459SOL     OW14275   5.971   5.382   6.063
 4459SOL    HW114276   6.002   5.448   6.132
 4459SOL    HW214277   5.928   5.431   5.987
 4460SOL     OW14278   1.521   0.941   0.725
 4460SOL    HW114279   1.575   0.999   0.786
 4460SOL    HW214280   1.439   0.991   0.696
 4461SOL     OW14281   1.903   0.733   2.975
 4461SOL    HW114282   1.971   0.729   3.048
 4461SOL    HW214283   1.931   0.673   2.900
 4462SOL     OW14284   7.016   3.484   0.699
 4462SOL    HW114285   0.082   3.447   0.729
 4462SOL    HW214286   6.946   3.464   0.768
 4463SOL     OW14287   0.496   4.306   6.850
 4463SOL    HW114288   0.552   4.283   6.770
 4463SOL    HW214289   0.399   4.295   6.827
 4464SOL     OW14290   6.915   2.953   0.201
 4464SOL    HW114291   6.925   2.854   0.205
 4464SOL    HW214292   6.884   2.980   0.110
 4465SOL     OW14293   5.978   5.267   1.140
 4465SOL    HW114294   5.937   5.195   1.196
 4465SOL    HW214295   6.031   5.226   1.066
 4466SOL     OW14296   6.566   3.404   4.029
 4466SOL    HW114297   6.518   3.331   3.979
 4466SOL    HW214298   6.608   3.366   4.111
 4467SOL     OW14299   1.112   0.447   4.629
 4467SOL    HW114300   1.015   0.421   4.627
 4467SOL    HW214301   1.144   0.449   4.724
 4468SOL     OW14302   0.942   0.967   0.573
 4468SOL    HW114303   0.843   0.976   0.583
 4468SOL    HW214304   0.988   1.027   0.638
 4469SOL     OW14305   4.551   6.662   0.293
 4469SOL    HW114306   4.590   6.616   0.213
 4469SOL    HW214307   4.584   6.757   0.297
 4470SOL     OW14308   5.043   4.454   1.352
 4470SOL    HW114309   5.134   4.424   1.380
 4470SOL    HW214310   4.974   4.408   1.408
 4471SOL     OW14311   5.628   2.457   1.616
 4471SOL    HW114312   5.633   2.523   1.690
 4471SOL    HW214313   5.654   2.367   1.650
 4472SOL     OW14314   2.373   5.164   1.333
 4472SOL    HW114315   2.280   5.199   1.347
 4472SOL    HW214316   2.388   5.086   1.394
 4473SOL     OW14317   6.118   0.514   0.736
 4473SOL    HW114318   6.167   0.586   0.688
 4473SOL    HW214319   6.076   0.552   0.819
 4474SOL     OW14320   6.228   1.023   5.198
 4474SOL    HW114321   6.268   1.112   5.177
 4474SOL    HW214322   6.240   0.962   5.120
 4475SOL     OW14323   1.549   3.243   0.203
 4475SOL    HW114324   1.579   3.280   0.115
 4475SOL    HW214325   1.559   3.313   0.274
 4476SOL     OW14326   3.947   6.561   2.758
 4476SOL    HW114327   3.983   6.496   2.690
 4476SOL    HW214328   3.953   6.521   2.849
 4477SOL     OW14329   2.128   2.210   0.919
 4477SOL    HW114330   2.086   2.136   0.971
 4477SOL    HW214331   2.057   2.258   0.866
 4478SOL     OW14332   1.117   4.810   1.124
 4478SOL    HW114333   1.200   4.780   1.171
 4478SOL    HW214334   1.057   4.731   1.110
 4479SOL     OW14335   1.791   6.444   6.081
 4479SOL    HW114336   1.878   6.404   6.109
 4479SOL    HW214337   1.777   6.427   5.983
 4480SOL     OW14338   6.714   3.635   2.943
 4480SOL    HW114339   6.755   3.598   3.027
 4480SOL    HW214340   6.744   3.729   2.931
 4481SOL     OW14341   1.038   0.989   4.498
 4481SOL    HW114342   0.991   0.900   4.498
 4481SOL    HW214343   1.108   0.989   4.426
 4482SOL     OW14344   0.279   4.029   3.004
 4482SOL    HW114345   0.271   4.073   3.093
 4482SOL    HW214346   0.324   3.941   3.014
 4483SOL     OW14347   5.737   3.853   1.299
 4483SOL    HW114348   5.801   3.865   1.223
 4483SOL    HW214349   5.644   3.847   1.264
 4484SOL     OW14350   2.942   3.612   6.583
 4484SOL    HW114351   2.885   3.621   6.665
 4484SOL    HW214352   2.883   3.594   6.504
 4485SOL     OW14353   4.506   0.267   6.146
 4485SOL    HW114354   4.428   0.225   6.193
 4485SOL    HW214355   4.557   0.324   6.210
 4486SOL     OW14356   6.169   3.503   4.148
 4486SOL    HW114357   6.095   3.443   4.177
 4486SOL    HW214358   6.162   3.591   4.194
 4487SOL     OW14359   3.220   2.801   5.957
 4487SOL    HW114360   3.273   2.764   5.880
 4487SOL    HW214361   3.138   2.846   5.922
 4488SOL     OW14362   0.185   2.309   6.528
 4488SOL    HW114363   0.183   2.261   6.441
 4488SOL    HW214364   0.206   2.244   6.602
 4489SOL     OW14365   0.484   1.189   3.034
 4489SOL    HW114366   0.451   1.174   2.941
 4489SOL    HW214367   0.450   1.277   3.067
 4490SOL     OW14368   7.002   2.484   4.279
 4490SOL    HW114369   6.956   2.410   4.229
 4490SOL    HW214370   0.078   2.481   4.259
 4491SOL     OW14371   1.925   4.585   2.248
 4491SOL    HW114372   1.963   4.553   2.161
 4491SOL    HW214373   1.853   4.522   2.278
 4492SOL     OW14374   5.301   3.851   5.955
 4492SOL    HW114375   5.321   3.811   5.866
 4492SOL    HW214376   5.265   3.780   6.016
 4493SOL     OW14377   5.783   4.444   3.437
 4493SOL    HW114378   5.709   4.447   3.505
 4493SOL    HW214379   5.855   4.507   3.465
 4494SOL     OW14380   4.975   2.510   1.773
 4494SOL    HW114381   4.950   2.556   1.858
 4494SOL    HW214382   4.933   2.419   1.771
 4495SOL     OW14383   6.008   5.289   1.958
 4495SOL    HW114384   6.052   5.208   1.998
 4495SOL    HW214385   6.017   5.287   1.859
 4496SOL     OW14386   5.713   3.216   6.145
 4496SOL    HW114387   5.723   3.290   6.211
 4496SOL    HW214388   5.763   3.238   6.062
 4497SOL     OW14389   6.741   6.454   1.224
 4497SOL    HW114390   6.805   6.419   1.155
 4497SOL    HW214391   6.763   6.414   1.313
 4498SOL     OW14392   1.237   4.196   6.033
 4498SOL    HW114393   1.283   4.111   6.057
 4498SOL    HW214394   1.299   4.254   5.979
 4499SOL     OW14395   5.577   3.903   0.541
 4499SOL    HW114396   5.584   3.970   0.468
 4499SOL    HW214397   5.665   3.894   0.587
 4500SOL     OW14398   3.477   4.147   2.258
 4500SOL    HW114399   3.535   4.148   2.339
 4500SOL    HW214400   3.392   4.197   2.278
 4501SOL     OW14401   1.793   5.528   5.068
 4501SOL    HW114402   1.728   5.456   5.093
 4501SOL    HW214403   1.885   5.490   5.064
 4502SOL     OW14404   5.857   2.678   0.433
 4502SOL    HW114405   5.772   2.626   0.425
 4502SOL    HW214406   5.875   2.726   0.347
 4503SOL     OW14407   0.962   3.424   2.904
 4503SOL    HW114408   0.895   3.498   2.899
 4503SOL    HW214409   0.956   3.367   2.822
 4504SOL     OW14410   4.388   2.058   3.974
 4504SOL    HW114411   4.365   2.004   3.893
 4504SOL    HW214412   4.304   2.098   4.011
 4505SOL     OW14413   2.396   5.567   0.282
 4505SOL    HW114414   2.486   5.529   0.259
 4505SOL    HW214415   2.351   5.508   0.349
 4506SOL     OW14416   3.551   6.809   5.597
 4506SOL    HW114417   3.575   6.750   5.674
 4506SOL    HW214418   3.567   6.761   5.511
 4507SOL     OW14419   6.226   3.795   2.760
 4507SOL    HW114420   6.270   3.860   2.698
 4507SOL    HW214421   6.158   3.742   2.710
 4508SOL     OW14422   2.001   4.051   0.792
 4508SOL    HW114423   2.067   4.063   0.718
 4508SOL    HW214424   2.050   4.042   0.879
 4509SOL     OW14425   0.978   2.720   3.397
 4509SOL    HW114426   0.945   2.690   3.487
 4509SOL    HW214427   1.077   2.726   3.398
 4510SOL     OW14428   2.609   6.830   6.466
 4510SOL    HW114429   2.628   6.835   6.368
 4510SOL    HW214430   2.536   6.894   6.490
 4511SOL     OW14431   0.769   2.399   0.206
 4511SOL    HW114432   0.695   2.465   0.196
 4511SOL    HW214433   0.733   2.306   0.195
 4512SOL     OW14434   2.253   4.166   0.131
 4512SOL    HW114435   2.281   4.261   0.138
 4512SOL    HW214436   2.311   4.117   0.067
 4513SOL     OW14437   6.168   1.410   2.755
 4513SOL    HW114438   6.146   1.317   2.785
 4513SOL    HW214439   6.266   1.425   2.763
 4514SOL     OW14440   1.965   0.506   4.623
 4514SOL    HW114441   1.952   0.412   4.653
 4514SOL    HW214442   2.001   0.507   4.530
 4515SOL     OW14443   7.015   4.765   0.474
 4515SOL    HW114444   7.021   4.666   0.475
 4515SOL    HW214445   6.963   4.797   0.553
 4516SOL     OW14446   0.609   0.003   3.877
 4516SOL    HW114447   0.669   0.005   3.957
 4516SOL    HW214448   0.516   0.027   3.905
 4517SOL     OW14449   2.476   0.770   0.052
 4517SOL    HW114450   2.459   0.746   6.979
 4517SOL    HW214451   2.554   0.717   0.086
 4518SOL     OW14452   1.386   0.594   3.627
 4518SOL    HW114453   1.324   0.650   3.573
 4518SOL    HW214454   1.333   0.538   3.691
 4519SOL     OW14455   6.704   2.290   4.645
 4519SOL    HW114456   6.739   2.238   4.722
 4519SOL    HW214457   6.705   2.233   4.563
 4520SOL     OW14458   6.955   3.572   2.645
 4520SOL    HW114459   6.858   3.592   2.628
 4520SOL    HW214460   6.981   3.490   2.595
 4521SOL     OW14461   5.362   1.697   6.399
 4521SOL    HW114462   5.295   1.722   6.468
 4521SOL    HW214463   5.442   1.655   6.442
 4522SOL     OW14464   5.290   6.768   3.522
 4522SOL    HW114465   5.364   6.828   3.495
 4522SOL    HW214466   5.211   6.822   3.552
 4523SOL     OW14467   4.829   2.001   5.614
 4523SOL    HW114468   4.757   1.934   5.629
 4523SOL    HW214469   4.853   2.045   5.701
 4524SOL     OW14470   5.573   1.540   5.563
 4524SOL    HW114471   5.612   1.550   5.471
 4524SOL    HW214472   5.538   1.447   5.574
 4525SOL     OW14473   6.710   1.521   3.995
 4525SOL    HW114474   6.799   1.520   4.041
 4525SOL    HW214475   6.692   1.613   3.959
 4526SOL     OW14476   2.695   1.619   1.401
 4526SOL    HW114477   2.637   1.540   1.379
 4526SOL    HW214478   2.784   1.588   1.433
 4527SOL     OW14479   4.573   6.537   3.541
 4527SOL    HW114480   4.564   6.632   3.512
 4527SOL    HW214481   4.665   6.504   3.521
 4528SOL     OW14482   4.688   0.419   6.603
 4528SOL    HW114483   4.743   0.437   6.522
 4528SOL    HW214484   4.613   0.485   6.609
 4529SOL     OW14485   3.039   0.435   4.259
 4529SOL    HW114486   3.055   0.520   4.310
 4529SOL    HW214487   3.114   0.420   4.195
 4530SOL     OW14488   6.547   2.676   4.145
 4530SOL    HW114489   6.572   2.700   4.051
 4530SOL    HW214490   6.573   2.581   4.163
 4531SOL     OW14491   0.161   4.284   3.723
 4531SOL    HW114492   0.238   4.244   3.772
 4531SOL    HW214493   0.185   4.377   3.694
 4532SOL     OW14494   0.450   2.477   0.544
 4532SOL    HW114495   0.396   2.444   0.621
 4532SOL    HW214496   0.389   2.510   0.472
 4533SOL     OW14497   3.627   6.557   2.090
 4533SOL    HW114498   3.550   6.620   2.087
 4533SOL    HW214499   3.664   6.545   1.997
 4534SOL     OW14500   6.837   3.886   5.979
 4534SOL    HW114501   6.782   3.957   6.024
 4534SOL    HW214502   6.892   3.928   5.907
 4535SOL     OW14503   4.957   1.947   2.733
 4535SOL    HW114504   4.880   2.010   2.726
 4535SOL    HW214505   4.989   1.922   2.642
 4536SOL     OW14506   6.820   0.162   3.665
 4536SOL    HW114507   6.884   0.219   3.716
 4536SOL    HW214508   6.789   0.086   3.722
 4537SOL     OW14509   4.962   3.076   5.434
 4537SOL    HW114510   4.881   3.036   5.476
 4537SOL    HW214511   5.018   3.119   5.504
 4538SOL     OW14512   3.736   2.107   1.720
 4538SOL    HW114513   3.813   2.135   1.663
 4538SOL    HW214514   3.707   2.184   1.777
 4539SOL     OW14515   2.625   3.513   1.514
 4539SOL    HW114516   2.548   3.539   1.573
 4539SOL    HW214517   2.599   3.432   1.460
 4540SOL     OW14518   3.852   2.981   4.586
 4540SOL    HW114519   3.897   2.899   4.620
 4540SOL    HW214520   3.772   2.956   4.533
 4541SOL     OW14521   6.152   1.314   1.685
 4541SOL    HW114522   6.195   1.324   1.774
 4541SOL    HW214523   6.147   1.217   1.660
 4542SOL     OW14524   5.274   6.505   3.647
 4542SOL    HW114525   5.265   6.497   3.746
 4542SOL    HW214526   5.298   6.599   3.623
 4543SOL     OW14527   5.099   2.215   2.611
 4543SOL    HW114528   5.133   2.134   2.658
 4543SOL    HW214529   5.028   2.189   2.546
 4544SOL     OW14530   5.769   4.983   6.667
 4544SOL    HW114531   5.755   5.004   6.763
 4544SOL    HW214532   5.810   4.893   6.658
 4545SOL     OW14533   4.318   3.564   0.149
 4545SOL    HW114534   4.316   3.536   0.053
 4545SOL    HW214535   4.224   3.578   0.181
 4546SOL     OW14536   0.712   6.049   0.619
 4546SOL    HW114537   0.789   6.104   0.651
 4546SOL    HW214538   0.626   6.096   0.640
 4547SOL     OW14539   4.526   1.397   2.530
 4547SOL    HW114540   4.502   1.330   2.601
 4547SOL    HW214541   4.534   1.350   2.442
 4548SOL     OW14542   0.950   3.366   4.256
 4548SOL    HW114543   0.975   3.332   4.165
 4548SOL    HW214544   1.031   3.399   4.303
 4549SOL     OW14545   5.770   1.234   2.397
 4549SOL    HW114546   5.763   1.196   2.489
 4549SOL    HW214547   5.831   1.313   2.398
 4550SOL     OW14548   2.252   5.335   5.139
 4550SOL    HW114549   2.307   5.297   5.065
 4550SOL    HW214550   2.310   5.357   5.217
 4551SOL     OW14551   6.550   3.651   0.686
 4551SOL    HW114552   6.559   3.551   0.689
 4551SOL    HW214553   6.640   3.692   0.699
 4552SOL     OW14554   0.123   3.390   4.992
 4552SOL    HW114555   0.039   3.444   5.001
 4552SOL    HW214556   0.104   3.306   4.942
 4553SOL     OW14557   5.465   4.964   6.713
 4553SOL    HW114558   5.404   5.023   6.659
 4553SOL    HW214559   5.548   4.946   6.661
 4554SOL     OW14560   6.574   6.604   4.043
 4554SOL    HW114561   6.557   6.584   3.947
 4554SOL    HW214562   6.665   6.570   4.068
 4555SOL     OW14563   4.080   2.874   0.416
 4555SOL    HW114564   4.083   2.910   0.509
 4555SOL    HW214565   4.016   2.929   0.361
 4556SOL     OW14566   4.281   0.293   5.318
 4556SOL    HW114567   4.231   0.369   5.361
 4556SOL    HW214568   4.234   0.207   5.339
 4557SOL     OW14569   5.377   1.147   4.174
 4557SOL    HW114570   5.469   1.141   4.211
 4557SOL    HW214571   5.332   1.229   4.211
 4558SOL     OW14572   0.195   3.105   6.484
 4558SOL    HW114573   0.190   3.124   6.386
 4558SOL    HW214574   0.104   3.083   6.519
 4559SOL     OW14575   1.648   6.723   1.407
 4559SOL    HW114576   1.706   6.753   1.331
 4559SOL    HW214577   1.702   6.665   1.469
 4560SOL     OW14578   6.227   2.461   3.223
 4560SOL    HW114579   6.178   2.535   3.269
 4560SOL    HW214580   6.162   2.403   3.174
 4561SOL     OW14581   3.089   6.170   6.324
 4561SOL    HW114582   3.077   6.250   6.266
 4561SOL    HW214583   3.049   6.090   6.280
 4562SOL     OW14584   2.630   4.015   5.698
 4562SOL    HW114585   2.677   4.040   5.614
 4562SOL    HW214586   2.531   4.030   5.687
 4563SOL     OW14587   5.876   2.661   6.921
 4563SOL    HW114588   5.853   2.747   6.876
 4563SOL    HW214589   5.935   2.607   6.862
 4564SOL     OW14590   6.907   5.160   0.089
 4564SOL    HW114591   6.917   5.153   0.188
 4564SOL    HW214592   6.953   5.082   0.045
 4565SOL     OW14593   3.583   0.855   4.001
 4565SOL    HW114594   3.519   0.930   4.013
 4565SOL    HW214595   3.671   0.879   4.043
 4566SOL     OW14596   1.877   0.818   1.031
 4566SOL    HW114597   1.853   0.786   1.122
 4566SOL    HW214598   1.799   0.805   0.969
 4567SOL     OW14599   5.680   2.341   0.631
 4567SOL    HW114600   5.646   2.389   0.550
 4567SOL    HW214601   5.772   2.374   0.653
 4568SOL     OW14602   4.279   4.671   3.942
 4568SOL    HW114603   4.323   4.756   3.971
 4568SOL    HW214604   4.181   4.686   3.932
 4569SOL     OW14605   1.427   1.922   3.955
 4569SOL    HW114606   1.525   1.934   3.939
 4569SOL    HW214607   1.401   1.827   3.936
 4570SOL     OW14608   5.400   5.814   5.108
 4570SOL    HW114609   5.388   5.762   5.192
 4570SOL    HW214610   5.343   5.775   5.036
 4571SOL     OW14611   3.992   3.146   4.106
 4571SOL    HW114612   3.899   3.126   4.138
 4571SOL    HW214613   3.998   3.130   4.008
 4572SOL     OW14614   2.714   5.229   0.727
 4572SOL    HW114615   2.682   5.323   0.712
 4572SOL    HW214616   2.636   5.169   0.741
 4573SOL     OW14617   4.893   0.127   1.389
 4573SOL    HW114618   4.976   0.181   1.380
 4573SOL    HW214619   4.813   0.184   1.372
 4574SOL     OW14620   0.062   4.764   1.917
 4574SOL    HW114621   0.069   4.689   1.852
 4574SOL    HW214622   0.080   4.851   1.871
 4575SOL     OW14623   6.754   5.922   1.996
 4575SOL    HW114624   6.758   5.858   1.919
 4575SOL    HW214625   6.715   5.876   2.076
 4576SOL     OW14626   3.261   6.706   4.265
 4576SOL    HW114627   3.216   6.675   4.181
 4576SOL    HW214628   3.325   6.779   4.244
 4577SOL     OW14629   2.269   4.083   3.796
 4577SOL    HW114630   2.240   4.120   3.883
 4577SOL    HW214631   2.350   4.025   3.809
 4578SOL     OW14632   6.101   5.717   3.680
 4578SOL    HW114633   6.150   5.700   3.595
 4578SOL    HW214634   6.090   5.631   3.730
 4579SOL     OW14635   4.536   1.958   3.457
 4579SOL    HW114636   4.565   2.013   3.536
 4579SOL    HW214637   4.505   2.019   3.384
 4580SOL     OW14638   0.229   5.384   0.113
 4580SOL    HW114639   0.223   5.286   0.130
 4580SOL    HW214640   0.219   5.401   0.014
 4581SOL     OW14641   3.685   5.704   5.031
 4581SOL    HW114642   3.749   5.764   4.983
 4581SOL    HW214643   3.594   5.744   5.029
 4582SOL     OW14644   4.772   6.650   3.231
 4582SOL    HW114645   4.708   6.604   3.170
 4582SOL    HW214646   4.792   6.591   3.309
 4583SOL     OW14647   3.513   0.087   5.588
 4583SOL    HW114648   3.517   7.011   5.606
 4583SOL    HW214649   3.469   0.103   5.499
 4584SOL     OW14650   6.727   5.047   5.893
 4584SOL    HW114651   6.770   5.023   5.980
 4584SOL    HW214652   6.642   4.995   5.881
 4585SOL     OW14653   2.836   6.562   2.467
 4585SOL    HW114654   2.753   6.562   2.523
 4585SOL    HW214655   2.826   6.495   2.393
 4586SOL     OW14656   2.294   6.123   1.615
 4586SOL    HW114657   2.300   6.032   1.655
 4586SOL    HW214658   2.208   6.166   1.641
 4587SOL     OW14659   2.953   5.097   0.677
 4587SOL    HW114660   2.867   5.143   0.700
 4587SOL    HW214661   2.991   5.055   0.760
 4588SOL     OW14662   3.448   4.127   5.058
 4588SOL    HW114663   3.449   4.033   5.093
 4588SOL    HW214664   3.363   4.172   5.084
 4589SOL     OW14665   1.978   2.354   3.511
 4589SOL    HW114666   1.960   2.363   3.608
 4589SOL    HW214667   2.010   2.442   3.475
 4590SOL     OW14668   4.373   6.180   2.810
 4590SOL    HW114669   4.430   6.103   2.783
 4590SOL    HW214670   4.370   6.187   2.910
 4591SOL     OW14671   4.630   6.124   5.067
 4591SOL    HW114672   4.664   6.069   4.990
 4591SOL    HW214673   4.706   6.176   5.106
 4592SOL     OW14674   3.427   1.937   5.891
 4592SOL    HW114675   3.497   1.968   5.826
 4592SOL    HW214676   3.340   1.927   5.844
 4593SOL     OW14677   4.284   5.779   1.876
 4593SOL    HW114678   4.193   5.815   1.899
 4593SOL    HW214679   4.331   5.754   1.961
 4594SOL     OW14680   3.839   2.095   2.258
 4594SOL    HW114681   3.770   2.065   2.324
 4594SOL    HW214682   3.795   2.148   2.185
 4595SOL     OW14683   4.240   3.024   5.348
 4595SOL    HW114684   4.194   3.112   5.333
 4595SOL    HW214685   4.188   2.951   5.303
 4596SOL     OW14686   4.837   0.662   2.719
 4596SOL    HW114687   4.838   0.759   2.743
 4596SOL    HW214688   4.847   0.651   2.621
 4597SOL     OW14689   6.653   3.817   6.281
 4597SOL    HW114690   6.710   3.899   6.290
 4597SOL    HW214691   6.649   3.790   6.185
 4598SOL     OW14692   2.451   3.890   6.606
 4598SOL    HW114693   2.544   3.926   6.593
 4598SOL    HW214694   2.390   3.934   6.540
 4599SOL     OW14695   3.464   5.156   0.444
 4599SOL    HW114696   3.438   5.121   0.534
 4599SOL    HW214697   3.390   5.139   0.379
 4600SOL     OW14698   2.508   3.692   0.843
 4600SOL    HW114699   2.450   3.611   0.846
 4600SOL    HW214700   2.506   3.738   0.932
 4601SOL     OW14701   1.954   5.334   3.338
 4601SOL    HW114702   1.861   5.368   3.324
 4601SOL    HW214703   1.993   5.376   3.419
 4602SOL     OW14704   1.633   6.876   1.661
 4602SOL    HW114705   1.622   6.840   1.569
 4602SOL    HW214706   1.608   6.973   1.662
 4603SOL     OW14707   3.184   1.364   1.684
 4603SOL    HW114708   3.161   1.278   1.730
 4603SOL    HW214709   3.118   1.434   1.710
 4604SOL     OW14710   1.468   6.906   3.173
 4604SOL    HW114711   1.428   6.985   3.218
 4604SOL    HW214712   1.487   6.928   3.077
 4605SOL     OW14713   5.675   6.776   5.454
 4605SOL    HW114714   5.755   6.717   5.445
 4605SOL    HW214715   5.608   6.752   5.383
 4606SOL     OW14716   6.233   6.459   4.456
 4606SOL    HW114717   6.272   6.520   4.524
 4606SOL    HW214718   6.164   6.401   4.499
 4607SOL     OW14719   3.103   3.473   0.751
 4607SOL    HW114720   3.165   3.396   0.738
 4607SOL    HW214721   3.055   3.463   0.838
 4608SOL     OW14722   1.448   3.209   6.162
 4608SOL    HW114723   1.475   3.289   6.108
 4608SOL    HW214724   1.528   3.155   6.185
 4609SOL     OW14725   3.211   0.196   0.464
 4609SOL    HW114726   3.281   0.210   0.534
 4609SOL    HW214727   3.161   0.281   0.448
 4610SOL     OW14728   6.717   3.764   0.436
 4610SOL    HW114729   6.776   3.746   0.515
 4610SOL    HW214730   6.749   3.712   0.357
 4611SOL     OW14731   1.733   5.277   6.368
 4611SOL    HW114732   1.797   5.293   6.293
 4611SOL    HW214733   1.773   5.213   6.433
 4612SOL     OW14734   1.812   0.740   6.787
 4612SOL    HW114735   1.912   0.733   6.792
 4612SOL    HW214736   1.780   0.697   6.703
 4613SOL     OW14737   3.971   4.876   1.419
 4613SOL    HW114738   3.901   4.947   1.434
 4613SOL    HW214739   3.940   4.813   1.348
 4614SOL     OW14740   1.963   4.501   0.184
 4614SOL    HW114741   1.958   4.500   0.084
 4614SOL    HW214742   2.058   4.519   0.213
 4615SOL     OW14743   5.840   3.111   6.407
 4615SOL    HW114744   5.821   3.199   6.364
 4615SOL    HW214745   5.759   3.053   6.401
 4616SOL     OW14746   5.515   0.480   6.908
 4616SOL    HW114747   5.436   0.451   6.961
 4616SOL    HW214748   5.491   0.561   6.854
 4617SOL     OW14749   0.415   4.059   1.591
 4617SOL    HW114750   0.345   3.990   1.604
 4617SOL    HW214751   0.458   4.047   1.501
 4618SOL     OW14752   1.164   3.441   6.522
 4618SOL    HW114753   1.221   3.470   6.599
 4618SOL    HW214754   1.150   3.342   6.527
 4619SOL     OW14755   4.196   1.219   3.958
 4619SOL    HW114756   4.213   1.122   3.973
 4619SOL    HW214757   4.109   1.230   3.910
 4620SOL     OW14758   1.910   6.050   0.422
 4620SOL    HW114759   1.979   6.116   0.454
 4620SOL    HW214760   1.873   6.000   0.500
 4621SOL     OW14761   6.565   0.631   6.741
 4621SOL    HW114762   6.489   0.613   6.679
 4621SOL    HW214763   6.635   0.560   6.729
 4622SOL     OW14764   1.363   4.385   0.468
 4622SOL    HW114765   1.460   4.386   0.446
 4622SOL    HW214766   1.346   4.446   0.546
 4623SOL     OW14767   5.430   3.342   3.816
 4623SOL    HW114768   5.364   3.305   3.881
 4623SOL    HW214769   5.381   3.385   3.740
 4624SOL     OW14770   4.470   6.365   6.160
 4624SOL    HW114771   4.488   6.463   6.155
 4624SOL    HW214772   4.543   6.321   6.212
 4625SOL     OW14773   1.293   4.080   6.414
 4625SOL    HW114774   1.279   3.983   6.398
 4625SOL    HW214775   1.205   4.125   6.431
 4626SOL     OW14776   6.133   4.428   2.219
 4626SOL    HW114777   6.059   4.446   2.154
 4626SOL    HW214778   6.132   4.497   2.291
 4627SOL     OW14779   2.028   0.008   4.784
 4627SOL    HW114780   2.025   6.937   4.750
 4627SOL    HW214781   1.940   0.031   4.825
 4628SOL     OW14782   6.493   2.648   2.227
 4628SOL    HW114783   6.549   2.566   2.241
 4628SOL    HW214784   6.525   2.698   2.147
 4629SOL     OW14785   4.209   5.148   3.991
 4629SOL    HW114786   4.229   5.105   4.079
 4629SOL    HW214787   4.253   5.095   3.917
 4630SOL     OW14788   2.744   6.196   2.418
 4630SOL    HW114789   2.656   6.233   2.448
 4630SOL    HW214790   2.786   6.259   2.353
 4631SOL     OW14791   1.936   1.194   2.298
 4631SOL    HW114792   2.027   1.234   2.305
 4631SOL    HW214793   1.870   1.266   2.275
 4632SOL     OW14794   5.653   5.950   3.764
 4632SOL    HW114795   5.612   5.876   3.711
 4632SOL    HW214796   5.752   5.941   3.763
 4633SOL     OW14797   4.981   2.819   6.387
 4633SOL    HW114798   4.969   2.918   6.392
 4633SOL    HW214799   4.988   2.782   6.480
 4634SOL     OW14800   2.708   4.006   0.845
 4634SOL    HW114801   2.665   3.931   0.794
 4634SOL    HW214802   2.641   4.047   0.906
 4635SOL     OW14803   4.786   3.270   1.680
 4635SOL    HW114804   4.845   3.204   1.727
 4635SOL    HW214805   4.810   3.275   1.584
 4636SOL     OW14806   1.179   5.004   2.260
 4636SOL    HW114807   1.149   5.040   2.172
 4636SOL    HW214808   1.099   4.972   2.311
 4637SOL     OW14809   0.620   0.858   5.664
 4637SOL    HW114810   0.680   0.823   5.592
 4637SOL    HW214811   0.661   0.940   5.704
 4638SOL     OW14812   4.337   4.837   5.830
 4638SOL    HW114813   4.246   4.874   5.812
 4638SOL    HW214814   4.333   4.738   5.837
 4639SOL     OW14815   6.594   2.313   5.545
 4639SOL    HW114816   6.575   2.237   5.483
 4639SOL    HW214817   6.516   2.325   5.608
 4640SOL     OW14818   6.628   5.265   2.886
 4640SOL    HW114819   6.692   5.293   2.958
 4640SOL    HW214820   6.548   5.325   2.887
 4641SOL     OW14821   2.408   3.726   5.290
 4641SOL    HW114822   2.315   3.693   5.270
 4641SOL    HW214823   2.414   3.823   5.267
 4642SOL     OW14824   5.757   5.554   4.667
 4642SOL    HW114825   5.713   5.607   4.595
 4642SOL    HW214826   5.722   5.583   4.756
 4643SOL     OW14827   4.575   3.748   1.376
 4643SOL    HW114828   4.643   3.709   1.313
 4643SOL    HW214829   4.617   3.821   1.429
 4644SOL     OW14830   3.409   5.060   5.671
 4644SOL    HW114831   3.475   5.135   5.683
 4644SOL    HW214832   3.342   5.086   5.602
 4645SOL     OW14833   1.753   6.319   4.610
 4645SOL    HW114834   1.818   6.243   4.620
 4645SOL    HW214835   1.662   6.282   4.592
 4646SOL     OW14836   3.230   0.985   1.015
 4646SOL    HW114837   3.189   1.076   1.018
 4646SOL    HW214838   3.196   0.936   0.935
 4647SOL     OW14839   6.666   0.545   5.281
 4647SOL    HW114840   6.611   0.491   5.218
 4647SOL    HW214841   6.664   0.502   5.372
 4648SOL     OW14842   2.539   6.319   3.528
 4648SOL    HW114843   2.614   6.348   3.468
 4648SOL    HW214844   2.453   6.319   3.478
 4649SOL     OW14845   5.918   5.548   5.830
 4649SOL    HW114846   6.002   5.575   5.782
 4649SOL    HW214847   5.851   5.622   5.823
 4650SOL     OW14848   6.376   4.650   1.483
 4650SOL    HW114849   6.347   4.556   1.501
 4650SOL    HW214850   6.476   4.653   1.479
 4651SOL     OW14851   5.864   2.050   1.923
 4651SOL    HW114852   5.913   2.018   1.841
 4651SOL    HW214853   5.856   1.974   1.988
 4652SOL     OW14854   0.098   5.942   5.367
 4652SOL    HW114855   0.051   5.914   5.284
 4652SOL    HW214856   0.170   6.008   5.344
 4653SOL     OW14857   1.777   4.857   0.327
 4653SOL    HW114858   1.797   4.761   0.342
 4653SOL    HW214859   1.784   4.878   0.229
 4654SOL     OW14860   1.453   1.993   0.505
 4654SOL    HW114861   1.432   1.947   0.418
 4654SOL    HW214862   1.485   1.925   0.571
 4655SOL     OW14863   0.722   4.935   4.229
 4655SOL    HW114864   0.708   4.952   4.131
 4655SOL    HW214865   0.783   4.856   4.241
 4656SOL     OW14866   2.885   0.768   3.201
 4656SOL    HW114867   2.815   0.775   3.273
 4656SOL    HW214868   2.856   0.703   3.132
 4657SOL     OW14869   6.542   0.624   5.948
 4657SOL    HW114870   6.508   0.642   6.041
 4657SOL    HW214871   6.642   0.622   5.950
 4658SOL     OW14872   5.448   0.221   3.380
 4658SOL    HW114873   5.459   0.311   3.336
 4658SOL    HW214874   5.359   0.183   3.357
 4659SOL     OW14875   2.115   3.514   4.187
 4659SOL    HW114876   2.054   3.445   4.225
 4659SOL    HW214877   2.143   3.577   4.261
 4660SOL     OW14878   6.690   1.253   4.936
 4660SOL    HW114879   6.767   1.285   4.881
 4660SOL    HW214880   6.640   1.183   4.885
 4661SOL     OW14881   3.622   2.910   4.007
 4661SOL    HW114882   3.606   2.997   4.053
 4661SOL    HW214883   3.684   2.924   3.930
 4662SOL     OW14884   6.425   6.613   4.588
 4662SOL    HW114885   6.510   6.565   4.570
 4662SOL    HW214886   6.437   6.710   4.568
 4663SOL     OW14887   0.794   2.213   2.326
 4663SOL    HW114888   0.846   2.130   2.306
 4663SOL    HW214889   0.855   2.281   2.368
 4664SOL     OW14890   3.755   4.587   0.037
 4664SOL    HW114891   3.689   4.548   0.101
 4664SOL    HW214892   3.803   4.663   0.082
 4665SOL     OW14893   5.936   0.410   5.842
 4665SOL    HW114894   6.012   0.345   5.847
 4665SOL    HW214895   5.961   0.494   5.889
 4666SOL     OW14896   1.707   1.326   0.586
 4666SOL    HW114897   1.737   1.246   0.534
 4666SOL    HW214898   1.785   1.385   0.605
 4667SOL     OW14899   0.503   6.219   4.135
 4667SOL    HW114900   0.479   6.310   4.167
 4667SOL    HW214901   0.433   6.154   4.165
 4668SOL     OW14902   5.471   0.915   4.968
 4668SOL    HW114903   5.497   1.011   4.975
 4668SOL    HW214904   5.429   0.898   4.879
 4669SOL     OW14905   2.293   1.694   2.491
 4669SOL    HW114906   2.225   1.758   2.453
 4669SOL    HW214907   2.381   1.741   2.500
 4670SOL     OW14908   2.431   1.841   4.579
 4670SOL    HW114909   2.395   1.748   4.592
 4670SOL    HW214910   2.460   1.879   4.667
 4671SOL     OW14911   6.113   1.841   2.738
 4671SOL    HW114912   6.165   1.877   2.816
 4671SOL    HW214913   6.065   1.916   2.693
 4672SOL     OW14914   2.786   2.115   5.170
 4672SOL    HW114915   2.724   2.121   5.092
 4672SOL    HW214916   2.829   2.204   5.186
 4673SOL     OW14917   5.196   0.444   2.074
 4673SOL    HW114918   5.106   0.413   2.044
 4673SOL    HW214919   5.267   0.384   2.038
 4674SOL     OW14920   4.661   6.476   5.544
 4674SOL    HW114921   4.651   6.575   5.536
 4674SOL    HW214922   4.634   6.432   5.458
 4675SOL     OW14923   0.854   4.228   6.848
 4675SOL    HW114924   0.899   4.318   6.854
 4675SOL    HW214925   0.922   4.156   6.860
 4676SOL     OW14926   1.270   4.676   3.671
 4676SOL    HW114927   1.364   4.659   3.701
 4676SOL    HW214928   1.271   4.720   3.582
 4677SOL     OW14929   1.050   3.754   0.586
 4677SOL    HW114930   1.129   3.787   0.639
 4677SOL    HW214931   1.081   3.724   0.496
 4678SOL     OW14932   1.297   2.565   1.372
 4678SOL    HW114933   1.198   2.552   1.365
 4678SOL    HW214934   1.321   2.598   1.463
 4679SOL     OW14935   4.715   0.620   2.130
 4679SOL    HW114936   4.636   0.558   2.131
 4679SOL    HW214937   4.796   0.571   2.161
 4680SOL     OW14938   2.784   0.747   6.700
 4680SOL    HW114939   2.835   0.822   6.742
 4680SOL    HW214940   2.783   0.669   6.763
 4681SOL     OW14941   4.652   5.759   2.351
 4681SOL    HW114942   4.598   5.840   2.375
 4681SOL    HW214943   4.635   5.735   2.255
 4682SOL     OW14944   3.610   2.848   6.036
 4682SOL    HW114945   3.652   2.886   6.118
 4682SOL    HW214946   3.608   2.917   5.964
 4683SOL     OW14947   6.774   4.214   4.237
 4683SOL    HW114948   6.866   4.226   4.274
 4683SOL    HW214949   6.769   4.127   4.187
 4684SOL     OW14950   5.549   0.258   5.743
 4684SOL    HW114951   5.497   0.210   5.672
 4684SOL    HW214952   5.622   0.311   5.702
 4685SOL     OW14953   3.163   4.101   4.170
 4685SOL    HW114954   3.103   4.023   4.188
 4685SOL    HW214955   3.233   4.107   4.242
 4686SOL     OW14956   1.341   0.051   6.689
 4686SOL    HW114957   1.263   7.018   6.660
 4686SOL    HW214958   1.425   0.012   6.652
 4687SOL     OW14959   1.380   0.621   2.644
 4687SOL    HW114960   1.284   0.635   2.619
 4687SOL    HW214961   1.394   0.525   2.668
 4688SOL     OW14962   4.888   3.021   4.827
 4688SOL    HW114963   4.842   3.035   4.914
 4688SOL    HW214964   4.924   2.928   4.822
 4689SOL     OW14965   6.938   0.699   1.053
 4689SOL    HW114966   6.992   0.723   1.133
 4689SOL    HW214967   6.992   0.641   0.992
 4690SOL     OW14968   3.683   2.623   1.222
 4690SOL    HW114969   3.651   2.716   1.240
 4690SOL    HW214970   3.697   2.576   1.308
 4691SOL     OW14971   6.433   3.674   1.823
 4691SOL    HW114972   6.475   3.732   1.893
 4691SOL    HW214973   6.361   3.618   1.866
 4692SOL     OW14974   5.598   2.744   3.010
 4692SOL    HW114975   5.504   2.734   2.975
 4692SOL    HW214976   5.597   2.738   3.109
 4693SOL     OW14977   6.914   0.234   4.089
 4693SOL    HW114978   6.892   0.148   4.135
 4693SOL    HW214979   6.991   0.278   4.135
 4694SOL     OW14980   2.193   6.619   5.812
 4694SOL    HW114981   2.098   6.597   5.791
 4694SOL    HW214982   2.238   6.656   5.731
 4695SOL     OW14983   2.122   4.872   1.857
 4695SOL    HW114984   2.203   4.813   1.864
 4695SOL    HW214985   2.150   4.967   1.849
 4696SOL     OW14986   1.984   6.349   6.263
 4696SOL    HW114987   1.990   6.427   6.325
 4696SOL    HW214988   2.076   6.318   6.239
 4697SOL     OW14989   4.625   5.570   1.018
 4697SOL    HW114990   4.615   5.613   1.108
 4697SOL    HW214991   4.647   5.473   1.030
 4698SOL     OW14992   5.294   1.726   4.553
 4698SOL    HW114993   5.369   1.792   4.552
 4698SOL    HW214994   5.214   1.768   4.596
 4699SOL     OW14995   0.986   1.472   2.585
 4699SOL    HW114996   1.041   1.389   2.578
 4699SOL    HW214997   0.889   1.448   2.586
 4700SOL     OW14998   6.937   1.990   3.683
 4700SOL    HW114999   6.869   1.999   3.610
 4700SOL    HW215000   7.011   2.055   3.668
 4701SOL     OW15001   3.058   2.589   1.725
 4701SOL    HW115002   3.021   2.529   1.797
 4701SOL    HW215003   2.990   2.598   1.652
 4702SOL     OW15004   6.286   5.025   1.189
 4702SOL    HW115005   6.238   5.040   1.276
 4702SOL    HW215006   6.370   4.974   1.207
 4703SOL     OW15007   0.095   5.028   3.857
 4703SOL    HW115008   0.188   5.029   3.819
 4703SOL    HW215009   0.098   5.059   3.952
 4704SOL     OW15010   1.590   4.644   4.875
 4704SOL    HW115011   1.563   4.729   4.920
 4704SOL    HW215012   1.682   4.656   4.836
 4705SOL     OW15013   3.233   2.045   1.599
 4705SOL    HW115014   3.204   2.135   1.631
 4705SOL    HW215015   3.283   2.055   1.512
 4706SOL     OW15016   1.618   2.079   0.826
 4706SOL    HW115017   1.563   2.150   0.782
 4706SOL    HW215018   1.680   2.038   0.758
 4707SOL     OW15019   1.831   5.398   2.400
 4707SOL    HW115020   1.919   5.384   2.356
 4707SOL    HW215021   1.844   5.445   2.487
 4708SOL     OW15022   1.935   2.884   6.470
 4708SOL    HW115023   1.982   2.840   6.546
 4708SOL    HW215024   1.987   2.964   6.440
 4709SOL     OW15025   5.419   3.585   4.913
 4709SOL    HW115026   5.384   3.671   4.951
 4709SOL    HW215027   5.514   3.572   4.942
 4710SOL     OW15028   5.746   5.282   5.500
 4710SOL    HW115029   5.765   5.325   5.412
 4710SOL    HW215030   5.725   5.185   5.486
 4711SOL     OW15031   4.969   4.556   2.898
 4711SOL    HW115032   5.058   4.600   2.904
 4711SOL    HW215033   4.974   4.464   2.936
 4712SOL     OW15034   3.794   4.860   6.077
 4712SOL    HW115035   3.859   4.827   6.008
 4712SOL    HW215036   3.739   4.933   6.038
 4713SOL     OW15037   5.254   4.944   1.156
 4713SOL    HW115038   5.340   4.953   1.106
 4713SOL    HW215039   5.263   4.871   1.224
 4714SOL     OW15040   4.733   1.889   5.957
 4714SOL    HW115041   4.679   1.852   6.033
 4714SOL    HW215042   4.830   1.889   5.982
 4715SOL     OW15043   6.698   1.932   2.099
 4715SOL    HW115044   6.644   1.920   2.183
 4715SOL    HW215045   6.642   1.910   2.020
 4716SOL     OW15046   3.895   4.463   5.854
 4716SOL    HW115047   3.797   4.476   5.871
 4716SOL    HW215048   3.924   4.376   5.893
 4717SOL     OW15049   1.863   4.937   6.142
 4717SOL    HW115050   1.834   4.866   6.079
 4717SOL    HW215051   1.866   5.025   6.094
 4718SOL     OW15052   4.853   3.760   2.840
 4718SOL    HW115053   4.861   3.795   2.746
 4718SOL    HW215054   4.757   3.762   2.867
 4719SOL     OW15055   5.994   3.993   4.195
 4719SOL    HW115056   5.915   3.934   4.177
 4719SOL    HW215057   6.060   3.984   4.120
 4720SOL     OW15058   0.713   1.834   6.202
 4720SOL    HW115059   0.770   1.900   6.250
 4720SOL    HW215060   0.618   1.864   6.203
 4721SOL     OW15061   0.476   2.792   2.670
 4721SOL    HW115062   0.419   2.742   2.736
 4721SOL    HW215063   0.440   2.884   2.658
 4722SOL     OW15064   1.775   5.346   5.767
 4722SOL    HW115065   1.727   5.422   5.722
 4722SOL    HW215066   1.852   5.382   5.821
 4723SOL     OW15067   2.919   4.430   5.980
 4723SOL    HW115068   2.919   4.459   6.076
 4723SOL    HW215069   3.001   4.464   5.935
 4724SOL     OW15070   0.232   0.100   4.397
 4724SOL    HW115071   0.162   0.114   4.467
 4724SOL    HW215072   0.224   0.007   4.361
 4725SOL     OW15073   6.278   5.315   1.303
 4725SOL    HW115074   6.230   5.401   1.283
 4725SOL    HW215075   6.211   5.242   1.317
 4726SOL     OW15076   1.824   2.775   6.083
 4726SOL    HW115077   1.869   2.686   6.089
 4726SOL    HW215078   1.835   2.811   5.991
 4727SOL     OW15079   6.084   5.796   1.629
 4727SOL    HW115080   6.008   5.746   1.586
 4727SOL    HW215081   6.132   5.850   1.560
 4728SOL     OW15082   4.308   0.840   3.477
 4728SOL    HW115083   4.377   0.911   3.492
 4728SOL    HW215084   4.298   0.786   3.560
 4729SOL     OW15085   0.214   1.346   2.739
 4729SOL    HW115086   0.207   1.261   2.792
 4729SOL    HW215087   0.162   1.418   2.784
 4730SOL     OW15088   2.957   0.632   3.709
 4730SOL    HW115089   2.889   0.705   3.718
 4730SOL    HW215090   2.970   0.612   3.612
 4731SOL     OW15091   3.362   6.628   2.128
 4731SOL    HW115092   3.265   6.612   2.110
 4731SOL    HW215093   3.385   6.723   2.106
 4732SOL     OW15094   0.081   4.907   4.696
 4732SOL    HW115095   0.173   4.876   4.673
 4732SOL    HW215096   0.024   4.828   4.719
 4733SOL     OW15097   2.103   4.079   3.001
 4733SOL    HW115098   2.143   3.991   3.027
 4733SOL    HW215099   2.156   4.119   2.926
 4734SOL     OW15100   4.957   4.311   6.439
 4734SOL    HW115101   4.922   4.403   6.457
 4734SOL    HW215102   4.890   4.243   6.470
 4735SOL     OW15103   6.734   0.824   5.471
 4735SOL    HW115104   6.759   0.728   5.462
 4735SOL    HW215105   6.816   0.880   5.475
 4736SOL     OW15106   6.459   0.461   4.868
 4736SOL    HW115107   6.467   0.443   4.769
 4736SOL    HW215108   6.363   0.475   4.891
 4737SOL     OW15109   2.271   5.272   0.142
 4737SOL    HW115110   2.228   5.320   0.218
 4737SOL    HW215111   2.350   5.221   0.175
 4738SOL     OW15112   0.092   5.561   3.273
 4738SOL    HW115113   0.138   5.472   3.269
 4738SOL    HW215114   0.150   5.626   3.322
 4739SOL     OW15115   5.995   3.379   3.338
 4739SOL    HW115116   5.984   3.357   3.435
 4739SOL    HW215117   5.928   3.326   3.285
 4740SOL     OW15118   2.059   6.484   0.800
 4740SOL    HW115119   2.060   6.521   0.893
 4740SOL    HW215120   2.009   6.547   0.740
 4741SOL     OW15121   5.842   4.740   1.859
 4741SOL    HW115122   5.770   4.672   1.842
 4741SOL    HW215123   5.799   4.828   1.881
 4742SOL     OW15124   2.081   5.507   2.194
 4742SOL    HW115125   2.006   5.573   2.199
 4742SOL    HW215126   2.135   5.512   2.279
 4743SOL     OW15127   2.616   3.792   0.612
 4743SOL    HW115128   2.672   3.741   0.546
 4743SOL    HW215129   2.576   3.727   0.678
 4744SOL     OW15130   2.892   1.315   6.102
 4744SOL    HW115131   2.976   1.293   6.052
 4744SOL    HW215132   2.850   1.397   6.062
 4745SOL     OW15133   4.555   5.887   4.225
 4745SOL    HW115134   4.576   5.909   4.130
 4745SOL    HW215135   4.465   5.922   4.248
 4746SOL     OW15136   5.746   1.335   0.882
 4746SOL    HW115137   5.824   1.395   0.901
 4746SOL    HW215138   5.702   1.310   0.968
 4747SOL     OW15139   1.219   2.590   2.293
 4747SOL    HW115140   1.224   2.678   2.340
 4747SOL    HW215141   1.135   2.585   2.239
 4748SOL     OW15142   2.320   6.254   0.298
 4748SOL    HW115143   2.316   6.325   0.228
 4748SOL    HW215144   2.375   6.178   0.265
 4749SOL     OW15145   3.467   1.156   6.976
 4749SOL    HW115146   3.520   1.159   6.891
 4749SOL    HW215147   3.389   1.218   6.968
 4750SOL     OW15148   0.612   2.110   4.873
 4750SOL    HW115149   0.647   2.203   4.866
 4750SOL    HW215150   0.642   2.069   4.960
 4751SOL     OW15151   1.338   4.319   6.853
 4751SOL    HW115152   1.282   4.341   6.773
 4751SOL    HW215153   1.284   4.333   6.936
 4752SOL     OW15154   2.003   6.044   1.481
 4752SOL    HW115155   2.036   6.135   1.454
 4752SOL    HW215156   1.921   6.022   1.428
 4753SOL     OW15157   0.141   0.714   6.487
 4753SOL    HW115158   0.128   0.618   6.462
 4753SOL    HW215159   0.075   0.739   6.558
 4754SOL     OW15160   1.353   1.159   6.579
 4754SOL    HW115161   1.364   1.071   6.533
 4754SOL    HW215162   1.296   1.219   6.523
 4755SOL     OW15163   2.952   0.084   3.060
 4755SOL    HW115164   2.916   0.001   3.103
 4755SOL    HW215165   2.983   0.064   2.968
 4756SOL     OW15166   5.826   2.378   1.011
 4756SOL    HW115167   5.735   2.339   1.016
 4756SOL    HW215168   5.852   2.393   0.916
 4757SOL     OW15169   2.479   2.674   0.777
 4757SOL    HW115170   2.558   2.616   0.758
 4757SOL    HW215171   2.461   2.674   0.875
 4758SOL     OW15172   6.340   3.629   6.529
 4758SOL    HW115173   6.313   3.665   6.619
 4758SOL    HW215174   6.368   3.705   6.470
 4759SOL     OW15175   7.017   4.166   6.513
 4759SOL    HW115176   0.025   4.260   6.495
 4759SOL    HW215177   6.951   4.138   6.442
 4760SOL     OW15178   1.004   2.499   0.299
 4760SOL    HW115179   0.905   2.490   0.285
 4760SOL    HW215180   1.027   2.595   0.316
 4761SOL     OW15181   2.824   6.202   6.459
 4761SOL    HW115182   2.914   6.229   6.427
 4761SOL    HW215183   2.814   6.226   6.556
 4762SOL     OW15184   3.605   0.066   2.546
 4762SOL    HW115185   3.565   0.018   2.623
 4762SOL    HW215186   3.682   0.014   2.510
 4763SOL     OW15187   4.856   5.172   4.916
 4763SOL    HW115188   4.944   5.194   4.958
 4763SOL    HW215189   4.867   5.091   4.857
 4764SOL     OW15190   3.507   3.484   3.901
 4764SOL    HW115191   3.552   3.550   3.842
 4764SOL    HW215192   3.541   3.493   3.995
 4765SOL     OW15193   5.941   5.643   6.204
 4765SOL    HW115194   5.852   5.672   6.239
 4765SOL    HW215195   6.011   5.659   6.274
 4766SOL     OW15196   3.027   1.394   3.409
 4766SOL    HW115197   2.963   1.330   3.368
 4766SOL    HW215198   2.977   1.461   3.464
 4767SOL     OW15199   4.490   0.904   6.952
 4767SOL    HW115200   4.453   0.848   0.004
 4767SOL    HW215201   4.428   0.900   6.874
 4768SOL     OW15202   1.724   0.768   5.559
 4768SOL    HW115203   1.819   0.768   5.593
 4768SOL    HW215204   1.720   0.715   5.474
 4769SOL     OW15205   4.728   0.582   1.784
 4769SOL    HW115206   4.784   0.663   1.801
 4769SOL    HW215207   4.787   0.507   1.755
 4770SOL     OW15208   2.159   1.415   3.838
 4770SOL    HW115209   2.184   1.481   3.909
 4770SOL    HW215210   2.065   1.384   3.853
 4771SOL     OW15211   4.132   4.478   6.078
 4771SOL    HW115212   4.064   4.405   6.088
 4771SOL    HW215213   4.090   4.557   6.032
 4772SOL     OW15214   3.488   2.798   0.070
 4772SOL    HW115215   3.404   2.821   0.020
 4772SOL    HW215216   3.523   2.710   0.038
 4773SOL     OW15217   6.776   4.901   4.950
 4773SOL    HW115218   6.770   5.001   4.957
 4773SOL    HW215219   6.742   4.860   5.034
 4774SOL     OW15220   1.632   4.544   6.934
 4774SOL    HW115221   1.601   4.471   6.873
 4774SOL    HW215222   1.634   4.509   0.006
 4775SOL     OW15223   1.937   2.963   2.206
 4775SOL    HW115224   1.929   2.876   2.255
 4775SOL    HW215225   2.024   3.008   2.232
 4776SOL     OW15226   4.050   5.226   1.812
 4776SOL    HW115227   4.131   5.272   1.850
 4776SOL    HW215228   4.079   5.156   1.746
 4777SOL     OW15229   1.863   4.327   1.299
 4777SOL    HW115230   1.798   4.334   1.223
 4777SOL    HW215231   1.816   4.347   1.385
 4778SOL     OW15232   5.160   3.385   2.678
 4778SOL    HW115233   5.238   3.325   2.697
 4778SOL    HW215234   5.124   3.365   2.587
 4779SOL     OW15235   5.401   1.397   2.734
 4779SOL    HW115236   5.397   1.367   2.638
 4779SOL    HW215237   5.422   1.495   2.737
 4780SOL     OW15238   1.772   1.766   5.610
 4780SOL    HW115239   1.723   1.816   5.538
 4780SOL    HW215240   1.781   1.825   5.691
 4781SOL     OW15241   2.616   5.433   2.817
 4781SOL    HW115242   2.639   5.389   2.904
 4781SOL    HW215243   2.527   5.478   2.824
 4782SOL     OW15244   6.113   6.226   6.885
 4782SOL    HW115245   6.200   6.214   6.837
 4782SOL    HW215246   6.074   6.315   6.862
 4783SOL     OW15247   5.877   3.924   2.933
 4783SOL    HW115248   5.897   3.957   2.840
 4783SOL    HW215249   5.800   3.861   2.930
 4784SOL     OW15250   5.353   4.600   4.671
 4784SOL    HW115251   5.369   4.656   4.752
 4784SOL    HW215252   5.432   4.541   4.655
 4785SOL     OW15253   5.513   6.320   0.738
 4785SOL    HW115254   5.491   6.243   0.676
 4785SOL    HW215255   5.600   6.302   0.783
 4786SOL     OW15256   1.498   4.087   2.417
 4786SOL    HW115257   1.415   4.032   2.421
 4786SOL    HW215258   1.575   4.032   2.450
 4787SOL     OW15259   3.815   2.138   2.716
 4787SOL    HW115260   3.858   2.176   2.634
 4787SOL    HW215261   3.883   2.133   2.790
 4788SOL     OW15262   2.422   0.562   4.325
 4788SOL    HW115263   2.327   0.594   4.323
 4788SOL    HW215264   2.424   0.463   4.315
 4789SOL     OW15265   5.281   6.047   0.202
 4789SOL    HW115266   5.308   6.004   0.288
 4789SOL    HW215267   5.258   6.143   0.219
 4790SOL     OW15268   5.176   6.957   6.602
 4790SOL    HW115269   5.221   6.869   6.594
 4790SOL    HW215270   5.081   6.949   6.572
 4791SOL     OW15271   4.366   2.361   3.267
 4791SOL    HW115272   4.437   2.403   3.325
 4791SOL    HW215273   4.377   2.391   3.173
 4792SOL     OW15274   3.294   3.280   0.777
 4792SOL    HW115275   3.266   3.191   0.814
 4792SOL    HW215276   3.393   3.282   0.768
 4793SOL     OW15277   0.519   0.728   0.215
 4793SOL    HW115278   0.572   0.809   0.191
 4793SOL    HW215279   0.434   0.757   0.260
 4794SOL     OW15280   5.632   1.134   1.989
 4794SOL    HW115281   5.605   1.184   2.071
 4794SOL    HW215282   5.689   1.192   1.931
 4795SOL     OW15283   5.965   2.577   4.277
 4795SOL    HW115284   6.010   2.545   4.193
 4795SOL    HW215285   6.028   2.634   4.329
 4796SOL     OW15286   4.956   3.808   0.320
 4796SOL    HW115287   5.022   3.741   0.287
 4796SOL    HW215288   4.965   3.893   0.267
 4797SOL     OW15289   1.590   5.619   4.630
 4797SOL    HW115290   1.637   5.531   4.626
 4797SOL    HW215291   1.493   5.606   4.607
 4798SOL     OW15292   6.741   5.204   6.175
 4798SOL    HW115293   6.806   5.150   6.228
 4798SOL    HW215294   6.648   5.177   6.198
 4799SOL     OW15295   5.034   1.833   3.671
 4799SOL    HW115296   5.082   1.833   3.583
 4799SOL    HW215297   5.062   1.754   3.725
 4800SOL     OW15298   1.669   2.806   3.551
 4800SOL    HW115299   1.623   2.835   3.467
 4800SOL    HW215300   1.710   2.886   3.596
 4801SOL     OW15301   0.152   1.882   0.669
 4801SOL    HW115302   0.086   1.812   0.643
 4801SOL    HW215303   0.245   1.849   0.650
 4802SOL     OW15304   1.560   0.170   2.007
 4802SOL    HW115305   1.568   0.235   2.083
 4802SOL    HW215306   1.536   0.080   2.043
 4803SOL     OW15307   1.291   6.899   0.982
 4803SOL    HW115308   1.251   6.912   1.072
 4803SOL    HW215309   1.230   6.845   0.925
 4804SOL     OW15310   4.305   5.566   0.368
 4804SOL    HW115311   4.386   5.515   0.395
 4804SOL    HW215312   4.237   5.504   0.330
 4805SOL     OW15313   0.353   6.891   1.961
 4805SOL    HW115314   0.286   6.846   1.901
 4805SOL    HW215315   0.424   6.825   1.985
 4806SOL     OW15316   0.238   2.334   3.878
 4806SOL    HW115317   0.279   2.386   3.803
 4806SOL    HW215318   0.139   2.328   3.866
 4807SOL     OW15319   1.176   0.296   2.886
 4807SOL    HW115320   1.090   0.260   2.851
 4807SOL    HW215321   1.232   0.221   2.920
 4808SOL     OW15322   6.668   1.956   0.337
 4808SOL    HW115323   6.617   1.892   0.280
 4808SOL    HW215324   6.610   1.986   0.413
 4809SOL     OW15325   4.852   0.029   0.278
 4809SOL    HW115326   4.892   0.089   0.209
 4809SOL    HW215327   4.901   0.040   0.364
 4810SOL     OW15328   2.116   6.344   6.938
 4810SOL    HW115329   2.121   6.246   6.958
 4810SOL    HW215330   2.021   6.374   6.945
 4811SOL     OW15331   5.041   4.099   4.145
 4811SOL    HW115332   5.089   4.076   4.060
 4811SOL    HW215333   5.081   4.048   4.221
 4812SOL     OW15334   6.478   5.195   4.018
 4812SOL    HW115335   6.473   5.272   4.082
 4812SOL    HW215336   6.451   5.111   4.066
 4813SOL     OW15337   5.771   3.350   2.806
 4813SOL    HW115338   5.730   3.260   2.818
 4813SOL    HW215339   5.699   3.417   2.785
 4814SOL     OW15340   0.404   2.819   1.647
 4814SOL    HW115341   0.449   2.781   1.566
 4814SOL    HW215342   0.310   2.845   1.624
 4815SOL     OW15343   4.695   0.484   3.681
 4815SOL    HW115344   4.690   0.442   3.772
 4815SOL    HW215345   4.773   0.546   3.676
 4816SOL     OW15346   5.973   4.528   4.203
 4816SOL    HW115347   5.999   4.433   4.218
 4816SOL    HW215348   5.888   4.533   4.151
 4817SOL     OW15349   6.271   1.618   6.753
 4817SOL    HW115350   6.229   1.688   6.694
 4817SOL    HW215351   6.346   1.659   6.805
 4818SOL     OW15352   6.935   6.062   3.536
 4818SOL    HW115353   6.951   6.094   3.630
 4818SOL    HW215354   6.914   5.965   3.537
 4819SOL     OW15355   1.863   3.331   0.392
 4819SOL    HW115356   1.959   3.337   0.365
 4819SOL    HW215357   1.829   3.239   0.376
 4820SOL     OW15358   6.784   3.622   1.877
 4820SOL    HW115359   6.765   3.634   1.975
 4820SOL    HW215360   6.880   3.640   1.860
 4821SOL     OW15361   0.579   5.618   3.887
 4821SOL    HW115362   0.617   5.681   3.818
 4821SOL    HW215363   0.634   5.624   3.970
 4822SOL     OW15364   2.786   4.732   4.272
 4822SOL    HW115365   2.843   4.740   4.191
 4822SOL    HW215366   2.720   4.658   4.259
 4823SOL     OW15367   1.237   2.162   0.558
 4823SOL    HW115368   1.317   2.103   0.550
 4823SOL    HW215369   1.257   2.252   0.520
 4824SOL     OW15370   6.811   2.235   6.766
 4824SOL    HW115371   6.842   2.168   6.698
 4824SOL    HW215372   6.712   2.246   6.758
 4825SOL     OW15373   1.293   6.292   3.722
 4825SOL    HW115374   1.255   6.303   3.630
 4825SOL    HW215375   1.348   6.372   3.745
 4826SOL     OW15376   4.102   6.757   0.417
 4826SOL    HW115377   4.096   6.845   0.465
 4826SOL    HW215378   4.183   6.707   0.450
 4827SOL     OW15379   5.768   1.340   1.839
 4827SOL    HW115380   5.743   1.436   1.827
 4827SOL    HW215381   5.864   1.333   1.865
 4828SOL     OW15382   5.434   1.086   6.610
 4828SOL    HW115383   5.377   1.005   6.622
 4828SOL    HW215384   5.414   1.129   6.522
 4829SOL     OW15385   4.365   5.515   5.058
 4829SOL    HW115386   4.378   5.612   5.077
 4829SOL    HW215387   4.454   5.472   5.041
 4830SOL     OW15388   1.934   6.778   3.414
 4830SOL    HW115389   1.875   6.752   3.490
 4830SOL    HW215390   1.885   6.767   3.328
 4831SOL     OW15391   3.211   4.695   5.560
 4831SOL    HW115392   3.144   4.687   5.486
 4831SOL    HW215393   3.178   4.762   5.627
 4832SOL     OW15394   4.007   3.410   4.138
 4832SOL    HW115395   4.045   3.441   4.225
 4832SOL    HW215396   4.012   3.310   4.133
 4833SOL     OW15397   5.898   2.273   4.991
 4833SOL    HW115398   5.887   2.340   4.917
 4833SOL    HW215399   5.818   2.277   5.051
 4834SOL     OW15400   0.779   5.208   1.131
 4834SOL    HW115401   0.848   5.157   1.080
 4834SOL    HW215402   0.740   5.279   1.072
 4835SOL     OW15403   6.952   3.194   6.387
 4835SOL    HW115404   7.009   3.208   6.306
 4835SOL    HW215405   6.959   3.273   6.447
 4836SOL     OW15406   4.392   0.705   5.555
 4836SOL    HW115407   4.344   0.692   5.642
 4836SOL    HW215408   4.340   0.767   5.497
 4837SOL     OW15409   1.415   3.571   4.839
 4837SOL    HW115410   1.447   3.666   4.838
 4837SOL    HW215411   1.440   3.528   4.926
 4838SOL     OW15412   2.400   4.246   5.950
 4838SOL    HW115413   2.362   4.153   5.939
 4838SOL    HW215414   2.429   4.280   5.860
 4839SOL     OW15415   2.654   0.808   2.060
 4839SOL    HW115416   2.575   0.870   2.062
 4839SOL    HW215417   2.670   0.771   2.151
 4840SOL     OW15418   5.013   2.386   3.375
 4840SOL    HW115419   4.956   2.425   3.303
 4840SOL    HW215420   4.987   2.290   3.390
 4841SOL     OW15421   2.750   5.336   3.067
 4841SOL    HW115422   2.756   5.244   3.105
 4841SOL    HW215423   2.812   5.397   3.117
 4842SOL     OW15424   4.579   5.046   3.506
 4842SOL    HW115425   4.671   5.044   3.467
 4842SOL    HW215426   4.512   5.028   3.434
 4843SOL     OW15427   5.729   2.413   0.026
 4843SOL    HW115428   5.788   2.337   0.055
 4843SOL    HW215429   5.785   2.482   7.003
 4844SOL     OW15430   0.768   5.019   6.580
 4844SOL    HW115431   0.738   4.926   6.560
 4844SOL    HW215432   0.784   5.029   6.679
 4845SOL     OW15433   5.489   4.436   5.041
 4845SOL    HW115434   5.444   4.471   4.959
 4845SOL    HW215435   5.425   4.382   5.095
 4846SOL     OW15436   6.705   4.104   4.494
 4846SOL    HW115437   6.730   4.138   4.585
 4846SOL    HW215438   6.716   4.178   4.427
 4847SOL     OW15439   2.902   0.003   0.030
 4847SOL    HW115440   2.877   7.012   6.956
 4847SOL    HW215441   2.942   6.941   0.066
 4848SOL     OW15442   4.539   1.479   3.484
 4848SOL    HW115443   4.557   1.480   3.582
 4848SOL    HW215444   4.440   1.486   3.469
 4849SOL     OW15445   1.543   5.593   1.750
 4849SOL    HW115446   1.449   5.613   1.723
 4849SOL    HW215447   1.569   5.651   1.827
 4850SOL     OW15448   3.566   0.119   2.242
 4850SOL    HW115449   3.525   0.210   2.231
 4850SOL    HW215450   3.551   0.086   2.336
 4851SOL     OW15451   4.884   4.556   6.509
 4851SOL    HW115452   4.834   4.551   6.596
 4851SOL    HW215453   4.981   4.567   6.527
 4852SOL     OW15454   5.039   3.722   5.359
 4852SOL    HW115455   4.942   3.720   5.384
 4852SOL    HW215456   5.058   3.652   5.291
 4853SOL     OW15457   4.070   0.419   3.024
 4853SOL    HW115458   4.043   0.514   3.035
 4853SOL    HW215459   3.993   0.367   2.984
 4854SOL     OW15460   4.131   6.834   2.433
 4854SOL    HW115461   4.095   6.858   2.343
 4854SOL    HW215462   4.152   6.736   2.436
 4855SOL     OW15463   4.261   4.857   5.391
 4855SOL    HW115464   4.193   4.785   5.405
 4855SOL    HW215465   4.340   4.819   5.344
 4856SOL     OW15466   0.997   2.283   2.054
 4856SOL    HW115467   1.001   2.379   2.080
 4856SOL    HW215468   0.987   2.227   2.136
 4857SOL     OW15469   2.587   1.647   5.792
 4857SOL    HW115470   2.520   1.628   5.721
 4857SOL    HW215471   2.565   1.734   5.837
 4858SOL     OW15472   2.323   5.095   4.906
 4858SOL    HW115473   2.402   5.038   4.923
 4858SOL    HW215474   2.349   5.173   4.849
 4859SOL     OW15475   6.651   5.692   3.342
 4859SOL    HW115476   6.621   5.608   3.386
 4859SOL    HW215477   6.571   5.744   3.310
 4860SOL     OW15478   4.330   5.051   1.268
 4860SOL    HW115479   4.267   5.106   1.322
 4860SOL    HW215480   4.319   5.072   1.171
 4861SOL     OW15481   5.867   4.890   4.663
 4861SOL    HW115482   5.788   4.942   4.632
 4861SOL    HW215483   5.944   4.904   4.601
 4862SOL     OW15484   1.485   5.309   4.360
 4862SOL    HW115485   1.492   5.407   4.340
 4862SOL    HW215486   1.410   5.294   4.424
 4863SOL     OW15487   5.628   1.635   1.400
 4863SOL    HW115488   5.699   1.667   1.463
 4863SOL    HW215489   5.538   1.642   1.444
 4864SOL     OW15490   2.530   2.767   1.518
 4864SOL    HW115491   2.507   2.846   1.575
 4864SOL    HW215492   2.571   2.696   1.575
 4865SOL     OW15493   3.909   6.832   5.224
 4865SOL    HW115494   3.820   6.862   5.255
 4865SOL    HW215495   3.910   6.828   5.124
 4866SOL     OW15496   0.781   5.127   1.971
 4866SOL    HW115497   0.756   5.176   1.888
 4866SOL    HW215498   0.831   5.189   2.032
 4867SOL     OW15499   5.743   4.626   5.896
 4867SOL    HW115500   5.730   4.528   5.913
 4867SOL    HW215501   5.726   4.646   5.799
 4868SOL     OW15502   2.158   5.859   2.006
 4868SOL    HW115503   2.251   5.892   1.993
 4868SOL    HW215504   2.151   5.764   1.976
 4869SOL     OW15505   0.474   2.021   1.678
 4869SOL    HW115506   0.412   1.992   1.751
 4869SOL    HW215507   0.436   2.102   1.633
 4870SOL     OW15508   6.025   1.226   1.071
 4870SOL    HW115509   6.040   1.127   1.067
 4870SOL    HW215510   5.989   1.258   0.984
 4871SOL     OW15511   1.719   2.691   5.084
 4871SOL    HW115512   1.709   2.791   5.089
 4871SOL    HW215513   1.779   2.660   5.158
 4872SOL     OW15514   2.283   2.747   2.474
 4872SOL    HW115515   2.370   2.705   2.450
 4872SOL    HW215516   2.236   2.691   2.541
 4873SOL     OW15517   0.855   6.777   5.865
 4873SOL    HW115518   0.786   6.816   5.805
 4873SOL    HW215519   0.833   6.681   5.882
 4874SOL     OW15520   5.686   1.614   4.043
 4874SOL    HW115521   5.678   1.702   3.995
 4874SOL    HW215522   5.778   1.606   4.082
 4875SOL     OW15523   6.689   3.253   0.635
 4875SOL    HW115524   6.772   3.198   0.624
 4875SOL    HW215525   6.609   3.194   0.629
 4876SOL     OW15526   6.627   1.161   6.850
 4876SOL    HW115527   6.679   1.244   6.833
 4876SOL    HW215528   6.584   1.130   6.765
 4877SOL     OW15529   4.274   1.928   1.558
 4877SOL    HW115530   4.208   1.951   1.629
 4877SOL    HW215531   4.354   1.885   1.600
 4878SOL     OW15532   1.259   2.842   2.372
 4878SOL    HW115533   1.184   2.908   2.383
 4878SOL    HW215534   1.335   2.886   2.325
 4879SOL     OW15535   3.638   6.413   3.192
 4879SOL    HW115536   3.556   6.368   3.227
 4879SOL    HW215537   3.673   6.477   3.261
 4880SOL     OW15538   6.600   2.044   5.861
 4880SOL    HW115539   6.627   2.085   5.948
 4880SOL    HW215540   6.534   2.104   5.815
 4881SOL     OW15541   2.772   6.283   5.954
 4881SOL    HW115542   2.784   6.223   6.033
 4881SOL    HW215543   2.753   6.228   5.873
 4882SOL     OW15544   5.471   5.890   6.847
 4882SOL    HW115545   5.569   5.877   6.833
 4882SOL    HW215546   5.457   5.958   6.919
 4883SOL     OW15547   5.962   5.667   0.033
 4883SOL    HW115548   6.002   5.709   0.115
 4883SOL    HW215549   5.962   5.568   0.044
 4884SOL     OW15550   4.240   6.198   1.520
 4884SOL    HW115551   4.166   6.250   1.562
 4884SOL    HW215552   4.326   6.248   1.530
 4885SOL     OW15553   1.656   0.648   2.573
 4885SOL    HW115554   1.556   0.650   2.574
 4885SOL    HW215555   1.691   0.713   2.641
 4886SOL     OW15556   6.057   1.048   5.671
 4886SOL    HW115557   6.138   1.030   5.615
 4886SOL    HW215558   6.040   1.147   5.675
 4887SOL     OW15559   0.027   2.205   5.393
 4887SOL    HW115560   0.004   2.137   5.324
 4887SOL    HW215561   0.083   2.277   5.352
 4888SOL     OW15562   4.499   6.026   1.159
 4888SOL    HW115563   4.553   6.108   1.179
 4888SOL    HW215564   4.463   6.033   1.066
 4889SOL     OW15565   1.346   3.570   6.306
 4889SOL    HW115566   1.374   3.490   6.358
 4889SOL    HW215567   1.417   3.592   6.239
 4890SOL     OW15568   6.833   0.597   4.309
 4890SOL    HW115569   6.773   0.633   4.380
 4890SOL    HW215570   6.923   0.577   4.348
 4891SOL     OW15571   1.215   4.980   0.611
 4891SOL    HW115572   1.140   4.999   0.548
 4891SOL    HW215573   1.205   4.889   0.650
 4892SOL     OW15574   1.864   5.698   2.227
 4892SOL    HW115575   1.817   5.787   2.226
 4892SOL    HW215576   1.796   5.625   2.219
 4893SOL     OW15577   0.228   4.313   6.381
 4893SOL    HW115578   0.157   4.371   6.420
 4893SOL    HW215579   0.318   4.346   6.410
 4894SOL     OW15580   0.514   6.804   3.742
 4894SOL    HW115581   0.495   6.813   3.644
 4894SOL    HW215582   0.568   6.883   3.772
 4895SOL     OW15583   6.644   4.041   6.621
 4895SOL    HW115584   6.553   4.042   6.661
 4895SOL    HW215585   6.713   4.052   6.693
 4896SOL     OW15586   3.987   0.726   4.744
 4896SOL    HW115587   4.051   0.697   4.673
 4896SOL    HW215588   3.946   0.814   4.718
 4897SOL     OW15589   2.553   5.576   6.981
 4897SOL    HW115590   2.571   5.670   7.010
 4897SOL    HW215591   2.560   5.515   0.037
 4898SOL     OW15592   4.719   2.767   4.530
 4898SOL    HW115593   4.785   2.700   4.564
 4898SOL    HW215594   4.645   2.720   4.483
 4899SOL     OW15595   0.112   3.351   4.549
 4899SOL    HW115596   0.208   3.380   4.544
 4899SOL    HW215597   0.065   3.403   4.621
 4900SOL     OW15598   0.527   6.631   5.883
 4900SOL    HW115599   0.551   6.717   5.927
 4900SOL    HW215600   0.472   6.649   5.801
 4901SOL     OW15601   5.832   6.508   3.282
 4901SOL    HW115602   5.771   6.547   3.351
 4901SOL    HW215603   5.784   6.500   3.195
 4902SOL     OW15604   3.553   5.571   0.569
 4902SOL    HW115605   3.547   5.517   0.485
 4902SOL    HW215606   3.595   5.515   0.641
 4903SOL     OW15607   5.929   4.432   6.552
 4903SOL    HW115608   6.026   4.442   6.530
 4903SOL    HW215609   5.874   4.477   6.482
 4904SOL     OW15610   3.329   1.106   3.782
 4904SOL    HW115611   3.426   1.130   3.787
 4904SOL    HW215612   3.307   1.038   3.851
 4905SOL     OW15613   6.159   3.722   3.263
 4905SOL    HW115614   6.180   3.655   3.191
 4905SOL    HW215615   6.132   3.808   3.221
 4906SOL     OW15616   4.689   0.118   1.781
 4906SOL    HW115617   4.744   0.123   1.864
 4906SOL    HW215618   4.697   0.026   1.740
 4907SOL     OW15619   2.746   2.583   1.206
 4907SOL    HW115620   2.736   2.682   1.218
 4907SOL    HW215621   2.820   2.550   1.265
 4908SOL     OW15622   5.580   4.624   6.170
 4908SOL    HW115623   5.647   4.696   6.151
 4908SOL    HW215624   5.498   4.641   6.115
 4909SOL     OW15625   6.245   6.659   5.800
 4909SOL    HW115626   6.201   6.748   5.790
 4909SOL    HW215627   6.194   6.604   5.867
 4910SOL     OW15628   5.344   6.641   5.581
 4910SOL    HW115629   5.429   6.609   5.539
 4910SOL    HW215630   5.311   6.721   5.530
 4911SOL     OW15631   0.253   4.244   6.701
 4911SOL    HW115632   0.159   4.210   6.707
 4911SOL    HW215633   0.298   4.207   6.620
 4912SOL     OW15634   1.907   3.241   1.700
 4912SOL    HW115635   1.962   3.242   1.784
 4912SOL    HW215636   1.883   3.147   1.677
 4913SOL     OW15637   2.893   3.189   1.911
 4913SOL    HW115638   2.797   3.215   1.919
 4913SOL    HW215639   2.915   3.175   1.814
 4914SOL     OW15640   1.191   6.996   2.986
 4914SOL    HW115641   1.167   6.912   2.937
 4914SOL    HW215642   1.116   7.021   3.047
 4915SOL     OW15643   3.928   6.548   3.946
 4915SOL    HW115644   3.940   6.632   3.893
 4915SOL    HW215645   4.004   6.486   3.927
 4916SOL     OW15646   1.313   1.421   1.979
 4916SOL    HW115647   1.381   1.349   1.995
 4916SOL    HW215648   1.360   1.508   1.962
 4917SOL     OW15649   0.850   5.076   6.068
 4917SOL    HW115650   0.884   5.088   6.161
 4917SOL    HW215651   0.751   5.086   6.068
 4918SOL     OW15652   2.248   6.822   4.297
 4918SOL    HW115653   2.301   6.756   4.242
 4918SOL    HW215654   2.278   6.817   4.392
 4919SOL     OW15655   2.229   2.986   0.882
 4919SOL    HW115656   2.160   2.951   0.819
 4919SOL    HW215657   2.193   2.986   0.975
 4920SOL     OW15658   3.296   1.845   6.487
 4920SOL    HW115659   3.238   1.799   6.420
 4920SOL    HW215660   3.354   1.777   6.533
 4921SOL     OW15661   6.564   4.843   2.397
 4921SOL    HW115662   6.640   4.812   2.339
 4921SOL    HW215663   6.478   4.805   2.364
 4922SOL     OW15664   1.026   3.315   6.241
 4922SOL    HW115665   1.001   3.410   6.256
 4922SOL    HW215666   1.099   3.310   6.173
 4923SOL     OW15667   3.128   2.098   6.592
 4923SOL    HW115668   3.223   2.130   6.596
 4923SOL    HW215669   3.126   1.999   6.595
 4924SOL     OW15670   0.092   2.975   4.248
 4924SOL    HW115671   0.083   3.044   4.177
 4924SOL    HW215672   0.018   2.987   4.315
 4925SOL     OW15673   4.754   5.282   5.169
 4925SOL    HW115674   4.787   5.217   5.100
 4925SOL    HW215675   4.782   5.250   5.260
 4926SOL     OW15676   4.246   3.324   0.369
 4926SOL    HW115677   4.327   3.376   0.397
 4926SOL    HW215678   4.164   3.378   0.384
 4927SOL     OW15679   2.994   3.557   1.999
 4927SOL    HW115680   2.997   3.462   2.031
 4927SOL    HW215681   3.084   3.584   1.967
 4928SOL     OW15682   6.903   1.631   6.447
 4928SOL    HW115683   6.849   1.645   6.530
 4928SOL    HW215684   6.995   1.668   6.460
 4929SOL     OW15685   1.182   4.327   4.322
 4929SOL    HW115686   1.237   4.401   4.362
 4929SOL    HW215687   1.102   4.311   4.379
 4930SOL     OW15688   0.123   3.927   0.145
 4930SOL    HW115689   0.203   3.965   0.098
 4930SOL    HW215690   0.108   3.833   0.114
 4931SOL     OW15691   5.296   6.612   1.068
 4931SOL    HW115692   5.216   6.554   1.083
 4931SOL    HW215693   5.370   6.584   1.129
 4932SOL     OW15694   3.499   1.625   0.704
 4932SOL    HW115695   3.568   1.691   0.734
 4932SOL    HW215696   3.411   1.671   0.696
 4933SOL     OW15697   2.726   6.984   5.112
 4933SOL    HW115698   2.813   7.010   5.068
 4933SOL    HW215699   2.669   0.043   5.123
 4934SOL     OW15700   2.126   6.109   5.491
 4934SOL    HW115701   2.061   6.053   5.542
 4934SOL    HW215702   2.194   6.049   5.449
 4935SOL     OW15703   1.982   2.375   0.772
 4935SOL    HW115704   2.057   2.441   0.770
 4935SOL    HW215705   1.899   2.420   0.805
 4936SOL     OW15706   6.797   4.219   1.172
 4936SOL    HW115707   6.706   4.261   1.169
 4936SOL    HW215708   6.787   4.120   1.183
 4937SOL     OW15709   0.506   3.861   5.493
 4937SOL    HW115710   0.491   3.809   5.577
 4937SOL    HW215711   0.478   3.806   5.414
 4938SOL     OW15712   3.605   4.417   0.807
 4938SOL    HW115713   3.528   4.415   0.871
 4938SOL    HW215714   3.602   4.335   0.749
 4939SOL     OW15715   0.745   1.581   1.389
 4939SOL    HW115716   0.760   1.482   1.395
 4939SOL    HW215717   0.761   1.623   1.478
 4940SOL     OW15718   1.579   1.357   5.140
 4940SOL    HW115719   1.676   1.380   5.142
 4940SOL    HW215720   1.565   1.268   5.183
 4941SOL     OW15721   3.499   1.993   6.339
 4941SOL    HW115722   3.467   2.083   6.312
 4941SOL    HW215723   3.421   1.936   6.364
 4942SOL     OW15724   7.008   1.305   2.558
 4942SOL    HW115725   6.969   1.216   2.584
 4942SOL    HW215726   0.066   1.323   2.616
 4943SOL     OW15727   4.713   2.613   6.552
 4943SOL    HW115728   4.703   2.514   6.544
 4943SOL    HW215729   4.623   2.656   6.549
 4944SOL     OW15730   0.656   5.059   0.746
 4944SOL    HW115731   0.658   5.030   0.842
 4944SOL    HW215732   0.583   5.126   0.733
 4945SOL     OW15733   2.330   0.438   6.449
 4945SOL    HW115734   2.376   0.470   6.532
 4945SOL    HW215735   2.395   0.390   6.390
 4946SOL     OW15736   2.587   5.853   0.039
 4946SOL    HW115737   2.523   5.926   0.064
 4946SOL    HW215738   2.653   5.888   6.995
 4947SOL     OW15739   1.283   0.182   1.302
 4947SOL    HW115740   1.241   0.098   1.336
 4947SOL    HW215741   1.315   0.238   1.379
 4948SOL     OW15742   1.589   3.334   2.065
 4948SOL    HW115743   1.657   3.261   2.065
 4948SOL    HW215744   1.564   3.357   2.159
 4949SOL     OW15745   6.520   4.978   6.957
 4949SOL    HW115746   6.443   4.915   6.952
 4949SOL    HW215747   6.486   5.072   6.956
 4950SOL     OW15748   3.953   3.857   5.870
 4950SOL    HW115749   4.005   3.797   5.930
 4950SOL    HW215750   3.860   3.823   5.860
 4951SOL     OW15751   4.830   4.928   3.755
 4951SOL    HW115752   4.930   4.929   3.760
 4951SOL    HW215753   4.800   4.983   3.677
 4952SOL     OW15754   0.820   0.955   6.955
 4952SOL    HW115755   0.915   0.928   6.937
 4952SOL    HW215756   0.761   0.914   6.886
 4953SOL     OW15757   1.344   0.979   5.994
 4953SOL    HW115758   1.384   1.060   6.037
 4953SOL    HW215759   1.328   0.997   5.897
 4954SOL     OW15760   3.482   3.843   5.619
 4954SOL    HW115761   3.458   3.873   5.526
 4954SOL    HW215762   3.580   3.826   5.623
 4955SOL     OW15763   3.539   6.051   0.038
 4955SOL    HW115764   3.590   6.005   0.110
 4955SOL    HW215765   3.448   6.076   0.072
 4956SOL     OW15766   2.636   0.643   4.177
 4956SOL    HW115767   2.693   0.565   4.202
 4956SOL    HW215768   2.545   0.632   4.218
 4957SOL     OW15769   5.980   5.399   0.109
 4957SOL    HW115770   5.905   5.358   0.162
 4957SOL    HW215771   6.050   5.329   0.092
 4958SOL     OW15772   3.118   5.307   0.258
 4958SOL    HW115773   3.139   5.361   0.339
 4958SOL    HW215774   3.074   5.221   0.284
 4959SOL     OW15775   1.422   1.824   3.201
 4959SOL    HW115776   1.454   1.854   3.111
 4959SOL    HW215777   1.500   1.808   3.261
 4960SOL     OW15778   4.849   3.750   4.364
 4960SOL    HW115779   4.757   3.725   4.395
 4960SOL    HW215780   4.913   3.741   4.441
 4961SOL     OW15781   3.645   2.830   2.050
 4961SOL    HW115782   3.610   2.740   2.023
 4961SOL    HW215783   3.681   2.877   1.969
 4962SOL     OW15784   1.953   2.106   0.640
 4962SOL    HW115785   1.975   2.197   0.676
 4962SOL    HW215786   1.864   2.110   0.594
 4963SOL     OW15787   0.906   3.538   6.688
 4963SOL    HW115788   0.929   3.485   6.606
 4963SOL    HW215789   0.808   3.532   6.705
 4964SOL     OW15790   1.191   5.345   3.893
 4964SOL    HW115791   1.104   5.394   3.901
 4964SOL    HW215792   1.197   5.274   3.963
 4965SOL     OW15793   2.257   0.576   2.978
 4965SOL    HW115794   2.291   0.628   2.899
 4965SOL    HW215795   2.196   0.633   3.033
 4966SOL     OW15796   4.343   6.638   5.407
 4966SOL    HW115797   4.362   6.737   5.405
 4966SOL    HW215798   4.339   6.607   5.502
 4967SOL     OW15799   4.589   4.494   3.052
 4967SOL    HW115800   4.519   4.496   2.980
 4967SOL    HW215801   4.544   4.503   3.141
 4968SOL     OW15802   6.469   2.989   3.400
 4968SOL    HW115803   6.415   2.973   3.317
 4968SOL    HW215804   6.470   2.905   3.456
 4969SOL     OW15805   1.408   5.922   4.431
 4969SOL    HW115806   1.385   5.885   4.522
 4969SOL    HW215807   1.414   5.847   4.366
 4970SOL     OW15808   2.202   1.373   1.253
 4970SOL    HW115809   2.181   1.328   1.167
 4970SOL    HW215810   2.225   1.304   1.322
 4971SOL     OW15811   0.489   6.133   1.977
 4971SOL    HW115812   0.399   6.151   1.936
 4971SOL    HW215813   0.478   6.118   2.076
 4972SOL     OW15814   0.322   3.742   0.423
 4972SOL    HW115815   0.365   3.682   0.490
 4972SOL    HW215816   0.392   3.780   0.362
 4973SOL     OW15817   5.526   2.477   0.203
 4973SOL    HW115818   5.437   2.461   0.159
 4973SOL    HW215819   5.599   2.455   0.139
 4974SOL     OW15820   3.392   0.560   5.427
 4974SOL    HW115821   3.312   0.533   5.373
 4974SOL    HW215822   3.392   0.659   5.440
 4975SOL     OW15823   5.700   4.254   1.258
 4975SOL    HW115824   5.778   4.313   1.276
 4975SOL    HW215825   5.632   4.304   1.205
 4976SOL     OW15826   0.905   0.305   3.979
 4976SOL    HW115827   0.850   0.349   3.907
 4976SOL    HW215828   0.844   0.257   4.042
 4977SOL     OW15829   0.956   3.527   4.938
 4977SOL    HW115830   0.858   3.538   4.924
 4977SOL    HW215831   1.006   3.583   4.872
 4978SOL     OW15832   6.476   5.372   4.692
 4978SOL    HW115833   6.455   5.322   4.608
 4978SOL    HW215834   6.565   5.416   4.683
 4979SOL     OW15835   3.746   6.289   6.218
 4979SOL    HW115836   3.691   6.229   6.275
 4979SOL    HW215837   3.841   6.257   6.217
 4980SOL     OW15838   5.727   2.665   3.901
 4980SOL    HW115839   5.777   2.747   3.930
 4980SOL    HW215840   5.647   2.692   3.848
 4981SOL     OW15841   3.307   6.476   2.907
 4981SOL    HW115842   3.360   6.391   2.911
 4981SOL    HW215843   3.212   6.457   2.930
 4982SOL     OW15844   4.062   1.738   4.827
 4982SOL    HW115845   4.093   1.783   4.911
 4982SOL    HW215846   4.104   1.782   4.748
 4983SOL     OW15847   5.564   3.672   3.060
 4983SOL    HW115848   5.476   3.693   3.017
 4983SOL    HW215849   5.556   3.681   3.159
 4984SOL     OW15850   5.047   3.547   5.109
 4984SOL    HW115851   5.048   3.454   5.145
 4984SOL    HW215852   4.963   3.562   5.056
 4985SOL     OW15853   5.158   0.182   2.624
 4985SOL    HW115854   5.092   0.137   2.564
 4985SOL    HW215855   5.150   0.281   2.615
 4986SOL     OW15856   1.583   5.532   0.990
 4986SOL    HW115857   1.526   5.451   0.976
 4986SOL    HW215858   1.527   5.614   0.983
 4987SOL     OW15859   2.040   4.105   1.789
 4987SOL    HW115860   2.058   4.091   1.887
 4987SOL    HW215861   2.121   4.145   1.746
 4988SOL     OW15862   6.523   5.435   4.133
 4988SOL    HW115863   6.580   5.487   4.070
 4988SOL    HW215864   6.538   5.467   4.226
 4989SOL     OW15865   6.901   6.920   3.789
 4989SOL    HW115866   6.880   6.826   3.761
 4989SOL    HW215867   6.985   6.950   3.743
 4990SOL     OW15868   5.120   1.935   5.661
 4990SOL    HW115869   5.134   1.929   5.562
 4990SOL    HW215870   5.053   2.007   5.681
 4991SOL     OW15871   2.487   5.752   5.305
 4991SOL    HW115872   2.518   5.667   5.346
 4991SOL    HW215873   2.418   5.733   5.235
 4992SOL     OW15874   2.675   2.860   5.517
 4992SOL    HW115875   2.622   2.802   5.455
 4992SOL    HW215876   2.625   2.870   5.604
 4993SOL     OW15877   2.241   5.207   3.790
 4993SOL    HW115878   2.263   5.112   3.814
 4993SOL    HW215879   2.158   5.207   3.732
 4994SOL     OW15880   2.932   4.995   5.557
 4994SOL    HW115881   3.019   5.014   5.601
 4994SOL    HW215882   2.913   4.897   5.562
 4995SOL     OW15883   0.407   1.913   5.666
 4995SOL    HW115884   0.383   2.009   5.678
 4995SOL    HW215885   0.353   1.873   5.593
 4996SOL     OW15886   7.009   0.630   4.757
 4996SOL    HW115887   0.015   0.719   4.721
 4996SOL    HW215888   0.035   0.611   4.842
 4997SOL     OW15889   3.932   1.370   0.510
 4997SOL    HW115890   3.910   1.304   0.582
 4997SOL    HW215891   3.915   1.329   0.420
 4998SOL     OW15892   1.081   3.790   3.560
 4998SOL    HW115893   1.054   3.712   3.616
 4998SOL    HW215894   1.161   3.765   3.504
 4999SOL     OW15895   0.006   2.512   3.374
 4999SOL    HW115896   7.019   2.611   3.360
 4999SOL    HW215897   6.954   2.479   3.431
 5000SOL     OW15898   2.851   6.659   2.973
 5000SOL    HW115899   2.905   6.618   2.899
 5000SOL    HW215900   2.769   6.603   2.990
 5001SOL     OW15901   0.069   6.013   3.265
 5001SOL    HW115902   0.035   6.031   3.358
 5001SOL    HW215903   0.161   6.052   3.256
 5002SOL     OW15904   1.117   5.099   3.639
 5002SOL    HW115905   1.071   5.068   3.722
 5002SOL    HW215906   1.082   5.048   3.560
 5003SOL     OW15907   3.582   1.228   0.828
 5003SOL    HW115908   3.543   1.291   0.894
 5003SOL    HW215909   3.637   1.279   0.762
 5004SOL     OW15910   4.453   6.320   0.148
 5004SOL    HW115911   4.434   6.304   0.245
 5004SOL    HW215912   4.512   6.401   0.139
 5005SOL     OW15913   4.500   2.998   0.887
 5005SOL    HW115914   4.431   2.927   0.890
 5005SOL    HW215915   4.542   3.007   0.978
 5006SOL     OW15916   4.819   0.899   2.858
 5006SOL    HW115917   4.903   0.887   2.805
 5006SOL    HW215918   4.815   0.993   2.892
 5007SOL     OW15919   6.406   5.345   2.329
 5007SOL    HW115920   6.452   5.261   2.354
 5007SOL    HW215921   6.380   5.342   2.233
 5008SOL     OW15922   4.819   6.703   3.757
 5008SOL    HW115923   4.808   6.603   3.760
 5008SOL    HW215924   4.742   6.746   3.804
 5009SOL     OW15925   0.792   1.597   6.622
 5009SOL    HW115926   0.849   1.659   6.675
 5009SOL    HW215927   0.814   1.607   6.525
 5010SOL     OW15928   4.779   4.267   1.161
 5010SOL    HW115929   4.831   4.280   1.245
 5010SOL    HW215930   4.748   4.172   1.156
 5011SOL     OW15931   1.602   2.414   6.002
 5011SOL    HW115932   1.533   2.365   6.055
 5011SOL    HW215933   1.691   2.372   6.017
 5012SOL     OW15934   5.897   2.712   5.948
 5012SOL    HW115935   5.989   2.750   5.943
 5012SOL    HW215936   5.831   2.788   5.947
 5013SOL     OW15937   5.799   6.206   5.138
 5013SOL    HW115938   5.745   6.122   5.139
 5013SOL    HW215939   5.818   6.235   5.232
 5014SOL     OW15940   6.293   3.613   0.768
 5014SOL    HW115941   6.370   3.675   0.750
 5014SOL    HW215942   6.325   3.519   0.768
 5015SOL     OW15943   6.192   5.044   4.230
 5015SOL    HW115944   6.097   5.036   4.200
 5015SOL    HW215945   6.251   4.994   4.167
 5016SOL     OW15946   1.206   2.008   6.427
 5016SOL    HW115947   1.284   2.049   6.473
 5016SOL    HW215948   1.235   1.925   6.379
 5017SOL     OW15949   1.386   3.149   1.959
 5017SOL    HW115950   1.444   3.122   1.882
 5017SOL    HW215951   1.415   3.238   1.993
 5018SOL     OW15952   0.649   0.540   0.062
 5018SOL    HW115953   0.586   0.611   0.094
 5018SOL    HW215954   0.717   0.521   0.133
 5019SOL     OW15955   2.020   4.274   3.914
 5019SOL    HW115956   2.039   4.309   3.823
 5019SOL    HW215957   1.924   4.291   3.937
 5020SOL     OW15958   2.191   0.051   3.562
 5020SOL    HW115959   2.235   0.085   3.645
 5020SOL    HW215960   2.188   6.974   3.565
 5021SOL     OW15961   2.677   0.390   1.729
 5021SOL    HW115962   2.750   0.393   1.798
 5021SOL    HW215963   2.703   0.325   1.657
 5022SOL     OW15964   0.131   3.214   1.106
 5022SOL    HW115965   0.168   3.158   1.180
 5022SOL    HW215966   0.197   3.284   1.080
 5023SOL     OW15967   0.867   2.411   2.740
 5023SOL    HW115968   0.911   2.373   2.821
 5023SOL    HW215969   0.788   2.466   2.768
 5024SOL     OW15970   4.515   4.204   6.825
 5024SOL    HW115971   4.569   4.259   6.890
 5024SOL    HW215972   4.538   4.231   6.732
 5025SOL     OW15973   5.348   2.057   4.772
 5025SOL    HW115974   5.337   2.155   4.756
 5025SOL    HW215975   5.260   2.012   4.766
 5026SOL     OW15976   4.978   5.787   4.958
 5026SOL    HW115977   4.952   5.778   4.862
 5026SOL    HW215978   4.927   5.721   5.013
 5027SOL     OW15979   5.142   6.057   0.837
 5027SOL    HW115980   5.224   6.115   0.836
 5027SOL    HW215981   5.123   6.025   0.745
 5028SOL     OW15982   6.577   1.842   2.348
 5028SOL    HW115983   6.485   1.870   2.319
 5028SOL    HW215984   6.571   1.799   2.438
 5029SOL     OW15985   5.557   2.454   2.794
 5029SOL    HW115986   5.493   2.440   2.869
 5029SOL    HW215987   5.615   2.373   2.783
 5030SOL     OW15988   0.754   3.358   0.954
 5030SOL    HW115989   0.730   3.453   0.971
 5030SOL    HW215990   0.844   3.338   0.993
 5031SOL     OW15991   6.608   0.023   6.200
 5031SOL    HW115992   6.555   7.011   6.123
 5031SOL    HW215993   6.659   0.104   6.172
 5032SOL     OW15994   2.402   4.735   6.160
 5032SOL    HW115995   2.311   4.695   6.145
 5032SOL    HW215996   2.472   4.665   6.150
 5033SOL     OW15997   1.770   6.725   4.400
 5033SOL    HW115998   1.700   6.751   4.335
 5033SOL    HW215999   1.860   6.725   4.355
 5034SOL     OW16000   4.530   5.801   3.730
 5034SOL    HW116001   4.530   5.706   3.762
 5034SOL    HW216002   4.490   5.860   3.801
 5035SOL     OW16003   1.772   3.661   3.499
 5035SOL    HW116004   1.829   3.741   3.517
 5035SOL    HW216005   1.818   3.579   3.532
 5036SOL     OW16006   1.522   3.143   4.657
 5036SOL    HW116007   1.483   3.118   4.568
 5036SOL    HW216008   1.447   3.160   4.722
 5037SOL     OW16009   5.658   4.757   1.202
 5037SOL    HW116010   5.606   4.690   1.255
 5037SOL    HW216011   5.697   4.713   1.121
 5038SOL     OW16012   2.939   3.849   4.664
 5038SOL    HW116013   2.987   3.879   4.581
 5038SOL    HW216014   2.944   3.921   4.734
 5039SOL     OW16015   0.595   3.252   6.774
 5039SOL    HW116016   0.534   3.231   6.851
 5039SOL    HW216017   0.622   3.168   6.729
 5040SOL     OW16018   0.626   1.927   5.076
 5040SOL    HW116019   0.636   1.828   5.072
 5040SOL    HW216020   0.543   1.950   5.127
 5041SOL     OW16021   6.882   2.586   1.175
 5041SOL    HW116022   6.979   2.593   1.151
 5041SOL    HW216023   6.858   2.659   1.239
 5042SOL     OW16024   0.836   1.714   5.925
 5042SOL    HW116025   0.780   1.720   6.008
 5042SOL    HW216026   0.779   1.735   5.846
 5043SOL     OW16027   3.140   6.616   1.824
 5043SOL    HW116028   3.183   6.534   1.789
 5043SOL    HW216029   3.103   6.598   1.915
 5044SOL     OW16030   0.670   5.910   0.919
 5044SOL    HW116031   0.609   5.836   0.945
 5044SOL    HW216032   0.641   5.950   0.832
 5045SOL     OW16033   5.900   2.871   1.667
 5045SOL    HW116034   5.824   2.904   1.724
 5045SOL    HW216035   5.964   2.819   1.724
 5046SOL     OW16036   4.032   3.131   2.114
 5046SOL    HW116037   4.069   3.212   2.068
 5046SOL    HW216038   4.033   3.053   2.050
 5047SOL     OW16039   1.746   4.338   4.037
 5047SOL    HW116040   1.650   4.329   4.064
 5047SOL    HW216041   1.755   4.410   3.968
 5048SOL     OW16042   2.101   0.260   5.687
 5048SOL    HW116043   2.122   0.355   5.710
 5048SOL    HW216044   2.162   0.200   5.738
 5049SOL     OW16045   3.713   1.518   7.012
 5049SOL    HW116046   3.772   1.438   7.020
 5049SOL    HW216047   3.658   1.511   6.929
 5050SOL     OW16048   0.944   0.404   0.985
 5050SOL    HW116049   1.032   0.429   1.026
 5050SOL    HW216050   0.942   0.434   0.889
 5051SOL     OW16051   4.323   4.553   0.972
 5051SOL    HW116052   4.234   4.587   1.002
 5051SOL    HW216053   4.313   4.461   0.935
 5052SOL     OW16054   1.759   3.539   4.313
 5052SOL    HW116055   1.791   3.592   4.234
 5052SOL    HW216056   1.662   3.560   4.329
 5053SOL     OW16057   6.703   0.631   0.818
 5053SOL    HW116058   6.726   0.544   0.863
 5053SOL    HW216059   6.714   0.706   0.883
 5054SOL     OW16060   4.131   5.310   3.181
 5054SOL    HW116061   4.037   5.336   3.199
 5054SOL    HW216062   4.188   5.392   3.178
 5055SOL     OW16063   6.894   4.285   5.612
 5055SOL    HW116064   6.925   4.377   5.636
 5055SOL    HW216065   6.967   4.219   5.633
 5056SOL     OW16066   6.653   4.425   3.143
 5056SOL    HW116067   6.715   4.441   3.067
 5056SOL    HW216068   6.572   4.482   3.134
 5057SOL     OW16069   6.935   6.210   2.459
 5057SOL    HW116070   6.928   6.130   2.399
 5057SOL    HW216071   0.006   6.216   2.495
 5058SOL     OW16072   2.707   5.454   5.576
 5058SOL    HW116073   2.682   5.460   5.479
 5058SOL    HW216074   2.701   5.359   5.606
 5059SOL     OW16075   6.913   0.078   1.997
 5059SOL    HW116076   6.874   0.160   2.040
 5059SOL    HW216077   6.990   0.045   2.052
 5060SOL     OW16078   6.907   2.866   6.150
 5060SOL    HW116079   6.868   2.887   6.060
 5060SOL    HW216080   7.006   2.882   6.149
 5061SOL     OW16081   5.915   3.021   0.752
 5061SOL    HW116082   5.943   3.042   0.659
 5061SOL    HW216083   5.855   3.093   0.786
 5062SOL     OW16084   6.170   6.891   7.016
 5062SOL    HW116085   6.262   6.929   0.005
 5062SOL    HW216086   6.121   6.894   0.080
 5063SOL     OW16087   0.949   6.444   2.946
 5063SOL    HW116088   0.994   6.391   2.874
 5063SOL    HW216089   0.894   6.383   3.002
 5064SOL     OW16090   5.396   3.935   0.088
 5064SOL    HW116091   5.471   3.976   0.037
 5064SOL    HW216092   5.309   3.963   0.047
 5065SOL     OW16093   2.700   6.546   5.969
 5065SOL    HW116094   2.679   6.509   6.060
 5065SOL    HW216095   2.769   6.490   5.925
 5066SOL     OW16096   4.999   4.589   0.599
 5066SOL    HW116097   4.972   4.652   0.526
 5066SOL    HW216098   5.046   4.510   0.560
 5067SOL     OW16099   5.630   0.897   6.620
 5067SOL    HW116100   5.629   0.857   6.529
 5067SOL    HW216101   5.575   0.980   6.621
 5068SOL     OW16102   3.496   4.833   1.127
 5068SOL    HW116103   3.555   4.795   1.198
 5068SOL    HW216104   3.477   4.929   1.148
 5069SOL     OW16105   6.862   5.469   3.332
 5069SOL    HW116106   6.954   5.509   3.332
 5069SOL    HW216107   6.794   5.542   3.323
 5070SOL     OW16108   5.152   2.464   3.834
 5070SOL    HW116109   5.149   2.377   3.785
 5070SOL    HW216110   5.059   2.488   3.863
 5071SOL     OW16111   5.553   0.960   1.333
 5071SOL    HW116112   5.488   0.989   1.262
 5071SOL    HW216113   5.520   0.877   1.377
 5072SOL     OW16114   0.586   3.985   1.978
 5072SOL    HW116115   0.601   4.007   1.882
 5072SOL    HW216116   0.591   4.069   2.033
 5073SOL     OW16117   3.945   2.127   3.214
 5073SOL    HW116118   3.956   2.123   3.114
 5073SOL    HW216119   3.915   2.038   3.248
 5074SOL     OW16120   4.017   4.284   5.265
 5074SOL    HW116121   4.064   4.222   5.327
 5074SOL    HW216122   4.082   4.350   5.228
 5075SOL     OW16123   6.673   0.381   4.248
 5075SOL    HW116124   6.730   0.460   4.269
 5075SOL    HW216125   6.591   0.410   4.199
 5076SOL     OW16126   5.445   0.402   1.241
 5076SOL    HW116127   5.363   0.401   1.183
 5076SOL    HW216128   5.522   0.436   1.188
 5077SOL     OW16129   6.994   1.993   2.938
 5077SOL    HW116130   0.024   1.938   3.003
 5077SOL    HW216131   0.019   2.079   2.922
 5078SOL     OW16132   0.323   1.798   4.832
 5078SOL    HW116133   0.397   1.760   4.886
 5078SOL    HW216134   0.252   1.833   4.893
 5079SOL     OW16135   4.582   5.131   4.854
 5079SOL    HW116136   4.542   5.222   4.852
 5079SOL    HW216137   4.680   5.137   4.872
 5080SOL     OW16138   5.629   0.558   6.230
 5080SOL    HW116139   5.591   0.622   6.163
 5080SOL    HW216140   5.669   0.480   6.182
 5081SOL     OW16141   3.148   3.611   3.264
 5081SOL    HW116142   3.072   3.572   3.211
 5081SOL    HW216143   3.111   3.660   3.343
 5082SOL     OW16144   0.775   2.094   5.259
 5082SOL    HW116145   0.687   2.090   5.211
 5082SOL    HW216146   0.846   2.126   5.195
 5083SOL     OW16147   0.953   4.032   2.183
 5083SOL    HW116148   1.047   4.055   2.205
 5083SOL    HW216149   0.894   4.056   2.260
 5084SOL     OW16150   1.130   5.815   2.346
 5084SOL    HW116151   1.205   5.828   2.410
 5084SOL    HW216152   1.166   5.810   2.252
 5085SOL     OW16153   6.246   3.877   0.627
 5085SOL    HW116154   6.204   3.811   0.565
 5085SOL    HW216155   6.235   3.846   0.721
 5086SOL     OW16156   6.215   5.442   4.797
 5086SOL    HW116157   6.173   5.377   4.861
 5086SOL    HW216158   6.304   5.408   4.769
 5087SOL     OW16159   5.235   5.244   5.653
 5087SOL    HW116160   5.177   5.168   5.682
 5087SOL    HW216161   5.211   5.325   5.707
 5088SOL     OW16162   6.142   0.878   6.538
 5088SOL    HW116163   6.131   0.972   6.573
 5088SOL    HW216164   6.075   0.818   6.582
 5089SOL     OW16165   5.370   2.801   3.972
 5089SOL    HW116166   5.441   2.835   4.033
 5089SOL    HW216167   5.340   2.875   3.911
 5090SOL     OW16168   1.185   4.835   0.122
 5090SOL    HW116169   1.259   4.813   0.058
 5090SOL    HW216170   1.193   4.779   0.204
 5091SOL     OW16171   0.698   5.949   3.727
 5091SOL    HW116172   0.676   6.034   3.775
 5091SOL    HW216173   0.794   5.951   3.697
 5092SOL     OW16174   3.257   3.022   0.896
 5092SOL    HW116175   3.300   2.963   0.827
 5092SOL    HW216176   3.287   2.993   0.987
 5093SOL     OW16177   0.624   1.161   2.019
 5093SOL    HW116178   0.640   1.089   2.087
 5093SOL    HW216179   0.619   1.249   2.065
 5094SOL     OW16180   0.288   0.204   6.739
 5094SOL    HW116181   0.350   0.279   6.763
 5094SOL    HW216182   0.338   0.134   6.687
 5095SOL     OW16183   3.359   0.042   5.383
 5095SOL    HW116184   3.261   0.034   5.362
 5095SOL    HW216185   3.394   0.128   5.344
 5096SOL     OW16186   3.725   6.318   2.200
 5096SOL    HW116187   3.672   6.395   2.165
 5096SOL    HW216188   3.818   6.322   2.161
 5097SOL     OW16189   1.166   2.187   6.822
 5097SOL    HW116190   1.192   2.271   6.870
 5097SOL    HW216191   1.193   2.108   6.876
 5098SOL     OW16192   0.975   2.329   2.973
 5098SOL    HW116193   0.998   2.244   3.021
 5098SOL    HW216194   1.059   2.382   2.958
 5099SOL     OW16195   0.546   1.370   4.096
 5099SOL    HW116196   0.619   1.367   4.027
 5099SOL    HW216197   0.527   1.277   4.127
 5100SOL     OW16198   4.651   4.857   5.660
 5100SOL    HW116199   4.553   4.865   5.679
 5100SOL    HW216200   4.676   4.761   5.650
 5101SOL     OW16201   5.428   6.089   0.590
 5101SOL    HW116202   5.330   6.090   0.570
 5101SOL    HW216203   5.479   6.107   0.506
 5102SOL     OW16204   3.333   6.161   3.801
 5102SOL    HW116205   3.331   6.066   3.833
 5102SOL    HW216206   3.279   6.218   3.862
 5103SOL     OW16207   1.278   2.409   3.501
 5103SOL    HW116208   1.227   2.339   3.451
 5103SOL    HW216209   1.374   2.382   3.509
 5104SOL     OW16210   0.559   0.450   0.546
 5104SOL    HW116211   0.614   0.448   0.463
 5104SOL    HW216212   0.572   0.364   0.597
 5105SOL     OW16213   1.582   2.989   6.881
 5105SOL    HW116214   1.586   2.892   6.858
 5105SOL    HW216215   1.671   3.031   6.862
 5106SOL     OW16216   2.072   6.918   2.321
 5106SOL    HW116217   1.991   6.878   2.279
 5106SOL    HW216218   2.103   6.996   2.266
 5107SOL     OW16219   1.690   0.069   6.396
 5107SOL    HW116220   1.771   0.034   6.348
 5107SOL    HW216221   1.702   0.167   6.414
 5108SOL     OW16222   3.626   3.883   4.642
 5108SOL    HW116223   3.668   3.971   4.663
 5108SOL    HW216224   3.693   3.823   4.599
 5109SOL     OW16225   0.339   2.349   2.289
 5109SOL    HW116226   0.292   2.273   2.334
 5109SOL    HW216227   0.420   2.316   2.241
 5110SOL     OW16228   2.140   5.705   5.549
 5110SOL    HW116229   2.216   5.647   5.579
 5110SOL    HW216230   2.094   5.662   5.471
 5111SOL     OW16231   1.077   0.237   6.356
 5111SOL    HW116232   1.066   0.279   6.446
 5111SOL    HW216233   1.051   0.304   6.285
 5112SOL     OW16234   0.227   6.879   3.339
 5112SOL    HW116235   0.175   6.874   3.253
 5112SOL    HW216236   0.310   6.824   3.331
 5113SOL     OW16237   0.723   1.196   6.865
 5113SOL    HW116238   0.727   1.198   6.765
 5113SOL    HW216239   0.761   1.110   6.898
 5114SOL     OW16240   5.064   5.482   6.585
 5114SOL    HW116241   5.161   5.473   6.562
 5114SOL    HW216242   5.024   5.556   6.531
 5115SOL     OW16243   2.684   3.932   5.276
 5115SOL    HW116244   2.658   3.846   5.320
 5115SOL    HW216245   2.612   3.958   5.211
 5116SOL     OW16246   6.962   3.714   1.099
 5116SOL    HW116247   6.969   3.750   1.192
 5116SOL    HW216248   6.866   3.708   1.072
 5117SOL     OW16249   2.342   5.296   3.025
 5117SOL    HW116250   2.326   5.361   3.099
 5117SOL    HW216251   2.315   5.337   2.938
 5118SOL     OW16252   3.937   0.116   1.094
 5118SOL    HW116253   4.031   0.151   1.090
 5118SOL    HW216254   3.930   0.047   1.166
 5119SOL     OW16255   5.941   0.808   2.635
 5119SOL    HW116256   5.893   0.751   2.569
 5119SOL    HW216257   6.017   0.756   2.675
 5120SOL     OW16258   3.585   1.491   1.244
 5120SOL    HW116259   3.560   1.395   1.231
 5120SOL    HW216260   3.633   1.501   1.332
 5121SOL     OW16261   0.800   4.228   4.262
 5121SOL    HW116262   0.791   4.130   4.244
 5121SOL    HW216263   0.829   4.274   4.178
 5122SOL     OW16264   2.384   5.579   2.834
 5122SOL    HW116265   2.320   5.616   2.767
 5122SOL    HW216266   2.346   5.589   2.926
 5123SOL     OW16267   6.181   2.982   2.402
 5123SOL    HW116268   6.231   2.905   2.441
 5123SOL    HW216269   6.202   3.065   2.453
 5124SOL     OW16270   3.359   6.824   0.574
 5124SOL    HW116271   3.282   6.794   0.631
 5124SOL    HW216272   3.415   6.745   0.550
 5125SOL     OW16273   0.559   2.088   6.173
 5125SOL    HW116274   0.503   2.168   6.193
 5125SOL    HW216275   0.652   2.103   6.206
 5126SOL     OW16276   4.648   1.676   0.761
 5126SOL    HW116277   4.653   1.686   0.860
 5126SOL    HW216278   4.714   1.606   0.732
 5127SOL     OW16279   4.915   3.468   6.079
 5127SOL    HW116280   4.992   3.466   6.144
 5127SOL    HW216281   4.838   3.517   6.121
 5128SOL     OW16282   0.057   0.394   6.954
 5128SOL    HW116283   0.037   0.347   0.017
 5128SOL    HW216284   0.085   0.328   6.885
 5129SOL     OW16285   4.591   2.553   3.749
 5129SOL    HW116286   4.560   2.484   3.815
 5129SOL    HW216287   4.592   2.643   3.793
 5130SOL     OW16288   2.343   6.801   4.905
 5130SOL    HW116289   2.297   6.888   4.922
 5130SOL    HW216290   2.292   6.727   4.950
 5131SOL     OW16291   2.973   5.098   3.091
 5131SOL    HW116292   3.032   5.169   3.129
 5131SOL    HW216293   2.885   5.098   3.139
 5132SOL     OW16294   3.091   1.793   6.316
 5132SOL    HW116295   3.149   1.857   6.267
 5132SOL    HW216296   3.008   1.775   6.264
 5133SOL     OW16297   4.154   4.582   6.521
 5133SOL    HW116298   4.239   4.582   6.468
 5133SOL    HW216299   4.082   4.536   6.469
 5134SOL     OW16300   5.927   5.971   0.808
 5134SOL    HW116301   5.999   5.959   0.877
 5134SOL    HW216302   5.856   5.902   0.823
 5135SOL     OW16303   0.851   2.751   2.272
 5135SOL    HW116304   0.810   2.780   2.358
 5135SOL    HW216305   0.807   2.799   2.196
 5136SOL     OW16306   6.864   0.233   4.382
 5136SOL    HW116307   6.807   0.169   4.434
 5136SOL    HW216308   6.808   0.280   4.314
 5137SOL     OW16309   5.171   0.834   3.017
 5137SOL    HW116310   5.125   0.850   3.104
 5137SOL    HW216311   5.140   0.747   2.979
 5138SOL     OW16312   3.329   3.721   2.700
 5138SOL    HW116313   3.229   3.718   2.706
 5138SOL    HW216314   3.363   3.800   2.751
 5139SOL     OW16315   4.902   0.767   4.934
 5139SOL    HW116316   4.958   0.801   5.009
 5139SOL    HW216317   4.839   0.838   4.904
 5140SOL     OW16318   2.544   3.727   5.995
 5140SOL    HW116319   2.531   3.748   5.898
 5140SOL    HW216320   2.637   3.751   6.022
 5141SOL     OW16321   1.146   2.979   1.194
 5141SOL    HW116322   1.195   2.903   1.151
 5141SOL    HW216323   1.204   3.060   1.196
 5142SOL     OW16324   0.067   6.614   3.021
 5142SOL    HW116325   0.053   6.560   3.104
 5142SOL    HW216326   0.123   6.694   3.043
 5143SOL     OW16327   6.338   6.396   2.525
 5143SOL    HW116328   6.315   6.420   2.431
 5143SOL    HW216329   6.291   6.458   2.588
 5144SOL     OW16330   1.697   2.964   5.116
 5144SOL    HW116331   1.724   3.017   5.196
 5144SOL    HW216332   1.778   2.937   5.064
 5145SOL     OW16333   1.002   5.158   5.848
 5145SOL    HW116334   1.028   5.254   5.861
 5145SOL    HW216335   0.930   5.134   5.913
 5146SOL     OW16336   5.207   5.901   7.012
 5146SOL    HW116337   5.281   5.841   6.980
 5146SOL    HW216338   5.222   5.924   0.086
 5147SOL     OW16339   4.494   1.199   2.732
 5147SOL    HW116340   4.410   1.232   2.774
 5147SOL    HW216341   4.473   1.120   2.674
 5148SOL     OW16342   6.071   1.330   0.603
 5148SOL    HW116343   6.011   1.286   0.536
 5148SOL    HW216344   6.022   1.405   0.647
 5149SOL     OW16345   2.851   6.560   3.624
 5149SOL    HW116346   2.833   6.461   3.625
 5149SOL    HW216347   2.929   6.578   3.563
 5150SOL     OW16348   6.552   0.710   4.071
 5150SOL    HW116349   6.492   0.637   4.105
 5150SOL    HW216350   6.640   0.671   4.043
 5151SOL     OW16351   5.036   4.561   2.251
 5151SOL    HW116352   4.984   4.485   2.211
 5151SOL    HW216353   5.134   4.543   2.240
 5152SOL     OW16354   2.220   1.680   0.339
 5152SOL    HW116355   2.307   1.650   0.378
 5152SOL    HW216356   2.145   1.653   0.399
 5153SOL     OW16357   2.197   2.161   0.319
 5153SOL    HW116358   2.263   2.117   0.379
 5153SOL    HW216359   2.173   2.251   0.356
 5154SOL     OW16360   0.500   2.911   0.032
 5154SOL    HW116361   0.411   2.939   0.067
 5154SOL    HW216362   0.569   2.978   0.058
 5155SOL     OW16363   1.123   0.708   0.278
 5155SOL    HW116364   1.029   0.728   0.304
 5155SOL    HW216365   1.161   0.640   0.341
 5156SOL     OW16366   5.386   4.624   5.985
 5156SOL    HW116367   5.290   4.621   5.956
 5156SOL    HW216368   5.444   4.594   5.910
 5157SOL     OW16369   3.786   1.174   1.731
 5157SOL    HW116370   3.783   1.102   1.800
 5157SOL    HW216371   3.698   1.179   1.684
 5158SOL     OW16372   1.928   3.282   2.543
 5158SOL    HW116373   1.937   3.352   2.472
 5158SOL    HW216374   1.931   3.191   2.501
 5159SOL     OW16375   6.707   3.073   5.694
 5159SOL    HW116376   6.698   3.169   5.668
 5159SOL    HW216377   6.616   3.034   5.707
 5160SOL     OW16378   6.622   0.391   2.705
 5160SOL    HW116379   6.542   0.332   2.698
 5160SOL    HW216380   6.600   0.472   2.760
 5161SOL     OW16381   0.997   1.974   6.621
 5161SOL    HW116382   1.039   2.037   6.686
 5161SOL    HW216383   1.046   1.980   6.533
 5162SOL     OW16384   0.395   6.999   5.682
 5162SOL    HW116385   0.329   6.961   5.746
 5162SOL    HW216386   0.353   7.009   5.592
 5163SOL     OW16387   3.085   0.801   1.535
 5163SOL    HW116388   3.037   0.780   1.450
 5163SOL    HW216389   3.136   0.886   1.524
 5164SOL     OW16390   2.712   2.963   0.244
 5164SOL    HW116391   2.731   3.056   0.275
 5164SOL    HW216392   2.782   2.934   0.179
 5165SOL     OW16393   0.934   5.158   5.483
 5165SOL    HW116394   1.007   5.151   5.552
 5165SOL    HW216395   0.944   5.085   5.416
 5166SOL     OW16396   6.736   6.189   5.442
 5166SOL    HW116397   6.833   6.211   5.441
 5166SOL    HW216398   6.723   6.090   5.431
 5167SOL     OW16399   6.596   3.428   6.103
 5167SOL    HW116400   6.679   3.435   6.048
 5167SOL    HW216401   6.619   3.424   6.200
 5168SOL     OW16402   5.270   1.619   3.481
 5168SOL    HW116403   5.272   1.713   3.449
 5168SOL    HW216404   5.362   1.592   3.512
 5169SOL     OW16405   5.237   5.941   4.667
 5169SOL    HW116406   5.183   5.873   4.617
 5169SOL    HW216407   5.206   6.032   4.642
 5170SOL     OW16408   2.419   3.699   6.275
 5170SOL    HW116409   2.507   3.724   6.317
 5170SOL    HW216410   2.436   3.641   6.195
 5171SOL     OW16411   1.956   6.511   5.741
 5171SOL    HW116412   1.878   6.532   5.682
 5171SOL    HW216413   2.015   6.445   5.694
 5172SOL     OW16414   4.724   5.275   5.825
 5172SOL    HW116415   4.737   5.209   5.751
 5172SOL    HW216416   4.787   5.256   5.899
 5173SOL     OW16417   4.050   6.301   4.215
 5173SOL    HW116418   4.047   6.401   4.222
 5173SOL    HW216419   4.090   6.264   4.298
 5174SOL     OW16420   0.405   5.683   3.122
 5174SOL    HW116421   0.371   5.731   3.203
 5174SOL    HW216422   0.499   5.654   3.138
 5175SOL     OW16423   2.835   1.740   6.070
 5175SOL    HW116424   2.770   1.796   6.121
 5175SOL    HW216425   2.796   1.649   6.057
 5176SOL     OW16426   5.587   6.395   6.469
 5176SOL    HW116427   5.675   6.385   6.423
 5176SOL    HW216428   5.599   6.380   6.567
 5177SOL     OW16429   5.345   5.388   1.148
 5177SOL    HW116430   5.338   5.354   1.054
 5177SOL    HW216431   5.336   5.487   1.149
 5178SOL     OW16432   0.906   4.212   0.669
 5178SOL    HW116433   0.974   4.140   0.684
 5178SOL    HW216434   0.816   4.179   0.698
 5179SOL     OW16435   3.751   5.347   2.707
 5179SOL    HW116436   3.696   5.298   2.639
 5179SOL    HW216437   3.766   5.288   2.786
 5180SOL     OW16438   3.015   5.391   2.026
 5180SOL    HW116439   3.029   5.487   2.002
 5180SOL    HW216440   3.083   5.364   2.095
 5181SOL     OW16441   6.447   1.258   5.757
 5181SOL    HW116442   6.524   1.240   5.696
 5181SOL    HW216443   6.371   1.296   5.703
 5182SOL     OW16444   2.113   6.222   2.502
 5182SOL    HW116445   2.124   6.200   2.599
 5182SOL    HW216446   2.190   6.184   2.450
 5183SOL     OW16447   5.537   1.569   3.574
 5183SOL    HW116448   5.599   1.647   3.586
 5183SOL    HW216449   5.585   1.485   3.602
 5184SOL     OW16450   3.211   1.296   2.071
 5184SOL    HW116451   3.218   1.329   2.165
 5184SOL    HW216452   3.215   1.374   2.008
 5185SOL     OW16453   6.262   0.404   1.318
 5185SOL    HW116454   6.280   0.491   1.364
 5185SOL    HW216455   6.340   0.343   1.331
 5186SOL     OW16456   5.626   2.305   6.576
 5186SOL    HW116457   5.653   2.309   6.480
 5186SOL    HW216458   5.696   2.258   6.630
 5187SOL     OW16459   1.292   4.818   4.786
 5187SOL    HW116460   1.305   4.719   4.786
 5187SOL    HW216461   1.290   4.852   4.880
 5188SOL     OW16462   0.387   0.287   2.014
 5188SOL    HW116463   0.486   0.306   2.018
 5188SOL    HW216464   0.343   0.324   2.095
 5189SOL     OW16465   5.496   6.129   6.382
 5189SOL    HW116466   5.510   6.228   6.382
 5189SOL    HW216467   5.397   6.109   6.380
 5190SOL     OW16468   1.381   5.340   0.524
 5190SOL    HW116469   1.376   5.286   0.608
 5190SOL    HW216470   1.336   5.291   0.449
 5191SOL     OW16471   2.833   4.130   1.591
 5191SOL    HW116472   2.904   4.129   1.662
 5191SOL    HW216473   2.857   4.197   1.521
 5192SOL     OW16474   0.606   4.206   2.714
 5192SOL    HW116475   0.690   4.153   2.710
 5192SOL    HW216476   0.542   4.173   2.644
 5193SOL     OW16477   3.640   0.299   4.352
 5193SOL    HW116478   3.688   0.218   4.388
 5193SOL    HW216479   3.685   0.328   4.267
 5194SOL     OW16480   4.552   1.615   5.306
 5194SOL    HW116481   4.599   1.701   5.285
 5194SOL    HW216482   4.596   1.540   5.255
 5195SOL     OW16483   1.473   1.080   5.211
 5195SOL    HW116484   1.392   1.116   5.255
 5195SOL    HW216485   1.457   1.073   5.112
 5196SOL     OW16486   5.698   6.433   3.055
 5196SOL    HW116487   5.743   6.402   2.971
 5196SOL    HW216488   5.608   6.470   3.032
 5197SOL     OW16489   2.074   3.931   5.792
 5197SOL    HW116490   2.074   3.926   5.692
 5197SOL    HW216491   2.065   3.839   5.830
 5198SOL     OW16492   6.210   5.747   4.056
 5198SOL    HW116493   6.246   5.737   3.963
 5198SOL    HW216494   6.286   5.755   4.120
 5199SOL     OW16495   0.971   5.597   1.695
 5199SOL    HW116496   1.025   5.554   1.623
 5199SOL    HW216497   0.874   5.586   1.674
 5200SOL     OW16498   6.532   3.680   5.075
 5200SOL    HW116499   6.608   3.616   5.089
 5200SOL    HW216500   6.455   3.652   5.133
 5201SOL     OW16501   1.043   5.850   4.349
 5201SOL    HW116502   1.100   5.931   4.357
 5201SOL    HW216503   1.026   5.813   4.440
 5202SOL     OW16504   0.103   4.855   1.476
 5202SOL    HW116505   0.148   4.768   1.457
 5202SOL    HW216506   0.014   4.839   1.519
 5203SOL     OW16507   6.626   3.220   6.471
 5203SOL    HW116508   6.532   3.229   6.505
 5203SOL    HW216509   6.640   3.128   6.436
 5204SOL     OW16510   5.747   5.198   6.196
 5204SOL    HW116511   5.668   5.248   6.162
 5204SOL    HW216512   5.807   5.175   6.119
 5205SOL     OW16513   2.712   5.916   0.563
 5205SOL    HW116514   2.650   5.893   0.488
 5205SOL    HW216515   2.686   6.005   0.601
 5206SOL     OW16516   0.360   4.266   4.959
 5206SOL    HW116517   0.379   4.317   5.043
 5206SOL    HW216518   0.422   4.188   4.952
 5207SOL     OW16519   1.437   6.164   2.568
 5207SOL    HW116520   1.427   6.262   2.548
 5207SOL    HW216521   1.457   6.153   2.665
 5208SOL     OW16522   4.533   1.735   0.273
 5208SOL    HW116523   4.498   1.642   0.262
 5208SOL    HW216524   4.595   1.756   0.197
 5209SOL     OW16525   6.204   5.600   3.472
 5209SOL    HW116526   6.251   5.630   3.389
 5209SOL    HW216527   6.172   5.506   3.461
 5210SOL     OW16528   5.339   3.648   3.259
 5210SOL    HW116529   5.335   3.669   3.161
 5210SOL    HW216530   5.274   3.706   3.308
 5211SOL     OW16531   3.050   3.951   1.937
 5211SOL    HW116532   3.074   3.951   2.034
 5211SOL    HW216533   3.015   4.041   1.912
 5212SOL     OW16534   0.649   0.333   6.539
 5212SOL    HW116535   0.649   0.267   6.464
 5212SOL    HW216536   0.659   0.426   6.502
 5213SOL     OW16537   4.691   1.849   6.444
 5213SOL    HW116538   4.722   1.825   6.536
 5213SOL    HW216539   4.755   1.915   6.404
 5214SOL     OW16540   4.666   2.183   0.251
 5214SOL    HW116541   4.634   2.132   0.171
 5214SOL    HW216542   4.610   2.160   0.331
 5215SOL     OW16543   5.670   5.460   4.339
 5215SOL    HW116544   5.610   5.379   4.336
 5215SOL    HW216545   5.731   5.452   4.417
 5216SOL     OW16546   3.650   5.532   1.048
 5216SOL    HW116547   3.653   5.593   1.127
 5216SOL    HW216548   3.557   5.532   1.010
 5217SOL     OW16549   3.274   5.243   3.924
 5217SOL    HW116550   3.204   5.198   3.868
 5217SOL    HW216551   3.364   5.227   3.884
 5218SOL     OW16552   1.257   0.482   3.338
 5218SOL    HW116553   1.339   0.505   3.286
 5218SOL    HW216554   1.233   0.558   3.399
 5219SOL     OW16555   3.152   0.069   0.945
 5219SOL    HW116556   3.170   0.042   0.850
 5219SOL    HW216557   3.235   0.107   0.985
 5220SOL     OW16558   0.826   6.452   2.630
 5220SOL    HW116559   0.750   6.423   2.689
 5220SOL    HW216560   0.789   6.488   2.544
 5221SOL     OW16561   4.642   0.778   0.589
 5221SOL    HW116562   4.717   0.786   0.654
 5221SOL    HW216563   4.639   0.685   0.552
 5222SOL     OW16564   0.346   6.312   2.599
 5222SOL    HW116565   0.276   6.262   2.548
 5222SOL    HW216566   0.317   6.321   2.694
 5223SOL     OW16567   4.197   6.461   1.380
 5223SOL    HW116568   4.223   6.381   1.328
 5223SOL    HW216569   4.175   6.536   1.318
 5224SOL     OW16570   5.565   0.715   3.774
 5224SOL    HW116571   5.568   0.809   3.740
 5224SOL    HW216572   5.502   0.711   3.852
 5225SOL     OW16573   0.128   6.725   5.521
 5225SOL    HW116574   0.145   6.731   5.423
 5225SOL    HW216575   0.080   6.808   5.551
 5226SOL     OW16576   2.170   0.912   3.751
 5226SOL    HW116577   2.175   0.991   3.690
 5226SOL    HW216578   2.218   0.933   3.837
 5227SOL     OW16579   5.326   3.577   4.659
 5227SOL    HW116580   5.361   3.612   4.745
 5227SOL    HW216581   5.366   3.487   4.640
 5228SOL     OW16582   4.789   6.863   1.933
 5228SOL    HW116583   4.816   6.789   1.871
 5228SOL    HW216584   4.742   6.824   2.012
 5229SOL     OW16585   0.705   4.228   3.852
 5229SOL    HW116586   0.618   4.223   3.803
 5229SOL    HW216587   0.776   4.179   3.800
 5230SOL     OW16588   0.362   1.555   6.845
 5230SOL    HW116589   0.454   1.519   6.831
 5230SOL    HW216590   0.308   1.543   6.761
 5231SOL     OW16591   3.243   4.028   3.475
 5231SOL    HW116592   3.326   3.978   3.497
 5231SOL    HW216593   3.263   4.125   3.466
 5232SOL     OW16594   5.348   3.003   4.534
 5232SOL    HW116595   5.306   2.918   4.502
 5232SOL    HW216596   5.297   3.037   4.614
 5233SOL     OW16597   0.964   0.027   3.222
 5233SOL    HW116598   0.994   6.963   3.262
 5233SOL    HW216599   1.015   0.102   3.264
 5234SOL     OW16600   3.875   4.549   1.362
 5234SOL    HW116601   3.890   4.467   1.416
 5234SOL    HW216602   3.963   4.589   1.336
 5235SOL     OW16603   1.383   2.126   1.671
 5235SOL    HW116604   1.291   2.089   1.660
 5235SOL    HW216605   1.450   2.054   1.658
 5236SOL     OW16606   6.455   3.362   0.461
 5236SOL    HW116607   6.519   3.311   0.403
 5236SOL    HW216608   6.470   3.460   0.449
 5237SOL     OW16609   2.100   1.882   2.500
 5237SOL    HW116610   2.051   1.828   2.569
 5237SOL    HW216611   2.036   1.906   2.427
 5238SOL     OW16612   2.036   3.251   0.992
 5238SOL    HW116613   2.036   3.349   0.973
 5238SOL    HW216614   1.959   3.229   1.051
 5239SOL     OW16615   2.754   3.337   5.329
 5239SOL    HW116616   2.785   3.396   5.255
 5239SOL    HW216617   2.762   3.242   5.301
 5240SOL     OW16618   3.961   1.900   4.133
 5240SOL    HW116619   3.983   1.836   4.206
 5240SOL    HW216620   3.889   1.862   4.076
 5241SOL     OW16621   4.006   5.804   5.671
 5241SOL    HW116622   3.910   5.780   5.680
 5241SOL    HW216623   4.052   5.788   5.759
 5242SOL     OW16624   4.064   0.469   5.702
 5242SOL    HW116625   4.161   0.453   5.687
 5242SOL    HW216626   4.012   0.388   5.677
 5243SOL     OW16627   1.137   4.068   0.685
 5243SOL    HW116628   1.156   3.976   0.719
 5243SOL    HW216629   1.202   4.133   0.726
 5244SOL     OW16630   6.068   3.035   6.561
 5244SOL    HW116631   5.997   3.064   6.497
 5244SOL    HW216632   6.150   3.089   6.546
 5245SOL     OW16633   4.741   4.227   6.054
 5245SOL    HW116634   4.647   4.194   6.060
 5245SOL    HW216635   4.803   4.153   6.080
 5246SOL     OW16636   1.493   3.613   3.594
 5246SOL    HW116637   1.415   3.615   3.531
 5246SOL    HW216638   1.562   3.680   3.564
 5247SOL     OW16639   0.590   4.714   0.040
 5247SOL    HW116640   0.608   4.625   7.020
 5247SOL    HW216641   0.501   4.711   0.087
 5248SOL     OW16642   5.120   1.383   0.602
 5248SOL    HW116643   5.055   1.337   0.541
 5248SOL    HW216644   5.139   1.475   0.567
 5249SOL     OW16645   1.023   5.274   0.077
 5249SOL    HW116646   0.930   5.253   0.109
 5249SOL    HW216647   1.066   5.191   0.042
 5250SOL     OW16648   1.283   1.499   5.808
 5250SOL    HW116649   1.215   1.426   5.808
 5250SOL    HW216650   1.372   1.460   5.833
 5251SOL     OW16651   0.788   2.872   1.574
 5251SOL    HW116652   0.825   2.957   1.538
 5251SOL    HW216653   0.704   2.891   1.624
 5252SOL     OW16654   5.106   5.912   1.142
 5252SOL    HW116655   5.014   5.885   1.113
 5252SOL    HW216656   5.172   5.891   1.069
 5253SOL     OW16657   5.858   2.884   3.994
 5253SOL    HW116658   5.908   2.964   3.960
 5253SOL    HW216659   5.794   2.913   4.065
 5254SOL     OW16660   5.379   0.517   4.562
 5254SOL    HW116661   5.345   0.543   4.653
 5254SOL    HW216662   5.401   0.419   4.562
 5255SOL     OW16663   2.352   5.982   2.861
 5255SOL    HW116664   2.432   6.019   2.814
 5255SOL    HW216665   2.370   5.981   2.960
 5256SOL     OW16666   4.911   6.097   2.220
 5256SOL    HW116667   4.890   6.027   2.151
 5256SOL    HW216668   4.955   6.054   2.299
 5257SOL     OW16669   3.127   1.306   2.719
 5257SOL    HW116670   3.028   1.295   2.729
 5257SOL    HW216671   3.173   1.267   2.798
 5258SOL     OW16672   5.720   2.136   1.556
 5258SOL    HW116673   5.677   2.172   1.473
 5258SOL    HW216674   5.745   2.040   1.541
 5259SOL     OW16675   6.118   4.765   1.432
 5259SOL    HW116676   6.186   4.693   1.445
 5259SOL    HW216677   6.129   4.834   1.504
 5260SOL     OW16678   4.925   2.881   1.849
 5260SOL    HW116679   4.907   2.801   1.906
 5260SOL    HW216680   4.876   2.960   1.886
 5261SOL     OW16681   2.410   2.716   4.989
 5261SOL    HW116682   2.397   2.811   5.016
 5261SOL    HW216683   2.321   2.671   4.983
 5262SOL     OW16684   1.078   0.192   1.686
 5262SOL    HW116685   0.985   0.201   1.649
 5262SOL    HW216686   1.143   0.238   1.625
 5263SOL     OW16687   1.371   0.062   6.972
 5263SOL    HW116688   1.449   0.000   6.965
 5263SOL    HW216689   1.325   0.068   6.884
 5264SOL     OW16690   0.946   0.408   0.483
 5264SOL    HW116691   0.876   0.337   0.471
 5264SOL    HW216692   0.917   0.470   0.556
 5265SOL     OW16693   5.407   4.762   3.982
 5265SOL    HW116694   5.387   4.850   3.939
 5265SOL    HW216695   5.338   4.743   4.053
 5266SOL     OW16696   1.685   0.069   1.406
 5266SOL    HW116697   1.616   0.101   1.471
 5266SOL    HW216698   1.645   7.020   1.348
 5267SOL     OW16699   3.914   4.115   5.013
 5267SOL    HW116700   3.937   4.197   5.066
 5267SOL    HW216701   3.837   4.135   4.952
 5268SOL     OW16702   5.645   5.172   5.824
 5268SOL    HW116703   5.573   5.141   5.887
 5268SOL    HW216704   5.663   5.269   5.839
 5269SOL     OW16705   2.649   5.498   5.330
 5269SOL    HW116706   2.566   5.449   5.305
 5269SOL    HW216707   2.718   5.486   5.259
 5270SOL     OW16708   7.018   2.071   3.277
 5270SOL    HW116709   0.025   2.158   3.238
 5270SOL    HW216710   0.073   2.028   3.324
 5271SOL     OW16711   5.426   3.725   5.431
 5271SOL    HW116712   5.377   3.698   5.348
 5271SOL    HW216713   5.488   3.801   5.410
 5272SOL     OW16714   2.419   2.115   3.675
 5272SOL    HW116715   2.430   2.080   3.768
 5272SOL    HW216716   2.323   2.107   3.647
 5273SOL     OW16717   6.614   0.589   5.699
 5273SOL    HW116718   6.541   0.569   5.634
 5273SOL    HW216719   6.579   0.580   5.792
 5274SOL     OW16720   0.670   5.186   4.685
 5274SOL    HW116721   0.762   5.168   4.719
 5274SOL    HW216722   0.648   5.120   4.612
 5275SOL     OW16723   2.471   6.502   0.009
 5275SOL    HW116724   2.378   6.470   0.028
 5275SOL    HW216725   2.469   6.601   7.015
 5276SOL     OW16726   0.165   0.054   0.492
 5276SOL    HW116727   0.179   0.146   0.455
 5276SOL    HW216728   0.095   0.057   0.563
 5277SOL     OW16729   0.337   1.093   1.668
 5277SOL    HW116730   0.316   0.995   1.672
 5277SOL    HW216731   0.334   1.123   1.573
 5278SOL     OW16732   0.269   4.717   6.046
 5278SOL    HW116733   0.174   4.748   6.060
 5278SOL    HW216734   0.270   4.617   6.040
 5279SOL     OW16735   2.746   6.442   0.074
 5279SOL    HW116736   2.757   6.412   0.169
 5279SOL    HW216737   2.649   6.458   0.056
 5280SOL     OW16738   4.610   5.986   6.042
 5280SOL    HW116739   4.634   6.061   5.981
 5280SOL    HW216740   4.516   5.998   6.074
 5281SOL     OW16741   2.092   6.469   4.701
 5281SOL    HW116742   2.061   6.396   4.640
 5281SOL    HW216743   2.099   6.433   4.794
 5282SOL     OW16744   6.711   5.738   1.061
 5282SOL    HW116745   6.713   5.664   0.995
 5282SOL    HW216746   6.749   5.821   1.020
 5283SOL     OW16747   1.416   0.501   4.338
 5283SOL    HW116748   1.391   0.593   4.365
 5283SOL    HW216749   1.415   0.494   4.238
 5284SOL     OW16750   4.817   2.859   2.195
 5284SOL    HW116751   4.917   2.858   2.199
 5284SOL    HW216752   4.787   2.920   2.121
 5285SOL     OW16753   1.844   1.738   4.091
 5285SOL    HW116754   1.803   1.723   4.001
 5285SOL    HW216755   1.815   1.826   4.127
 5286SOL     OW16756   0.360   3.237   1.350
 5286SOL    HW116757   0.433   3.270   1.290
 5286SOL    HW216758   0.371   3.278   1.441
 5287SOL     OW16759   0.634   4.957   2.325
 5287SOL    HW116760   0.598   4.964   2.232
 5287SOL    HW216761   0.731   4.930   2.321
 5288SOL     OW16762   4.301   0.925   1.366
 5288SOL    HW116763   4.334   0.832   1.385
 5288SOL    HW216764   4.214   0.920   1.316
 5289SOL     OW16765   1.716   5.535   6.502
 5289SOL    HW116766   1.815   5.542   6.491
 5289SOL    HW216767   1.686   5.445   6.471
 5290SOL     OW16768   1.695   3.075   5.435
 5290SOL    HW116769   1.761   3.137   5.477
 5290SOL    HW216770   1.709   2.982   5.469
 5291SOL     OW16771   3.010   5.980   4.723
 5291SOL    HW116772   3.052   6.043   4.789
 5291SOL    HW216773   2.932   5.934   4.766
 5292SOL     OW16774   0.956   3.966   4.842
 5292SOL    HW116775   0.992   4.024   4.769
 5292SOL    HW216776   1.011   3.977   4.924
 5293SOL     OW16777   2.403   0.702   3.428
 5293SOL    HW116778   2.322   0.689   3.485
 5293SOL    HW216779   2.395   0.646   3.345
 5294SOL     OW16780   4.993   0.013   4.002
 5294SOL    HW116781   4.952   0.086   3.947
 5294SOL    HW216782   4.944   0.004   4.089
 5295SOL     OW16783   2.224   0.498   1.105
 5295SOL    HW116784   2.238   0.486   1.006
 5295SOL    HW216785   2.134   0.462   1.130
 5296SOL     OW16786   4.530   5.116   2.171
 5296SOL    HW116787   4.629   5.110   2.162
 5296SOL    HW216788   4.487   5.086   2.085
 5297SOL     OW16789   3.479   4.843   6.065
 5297SOL    HW116790   3.518   4.919   6.116
 5297SOL    HW216791   3.536   4.824   5.985
 5298SOL     OW16792   3.205   1.301   6.912
 5298SOL    HW116793   3.198   1.398   6.888
 5298SOL    HW216794   3.113   1.261   6.915
 5299SOL     OW16795   2.002   0.297   1.195
 5299SOL    HW116796   2.010   0.286   1.294
 5299SOL    HW216797   1.939   0.228   1.159
 5300SOL     OW16798   2.931   4.971   6.667
 5300SOL    HW116799   2.883   4.918   6.736
 5300SOL    HW216800   2.991   5.037   6.711
 5301SOL     OW16801   6.565   6.799   5.712
 5301SOL    HW116802   6.576   6.701   5.696
 5301SOL    HW216803   6.527   6.842   5.630
 5302SOL     OW16804   5.039   5.239   2.963
 5302SOL    HW116805   5.046   5.218   2.865
 5302SOL    HW216806   4.963   5.187   3.002
 5303SOL     OW16807   1.641   6.277   5.086
 5303SOL    HW116808   1.704   6.341   5.129
 5303SOL    HW216809   1.552   6.283   5.132
 5304SOL     OW16810   0.180   0.384   3.393
 5304SOL    HW116811   0.106   0.318   3.399
 5304SOL    HW216812   0.143   0.473   3.365
 5305SOL     OW16813   6.675   5.085   4.593
 5305SOL    HW116814   6.765   5.047   4.574
 5305SOL    HW216815   6.659   5.164   4.534
 5306SOL     OW16816   0.813   2.037   6.344
 5306SOL    HW116817   0.800   2.044   6.442
 5306SOL    HW216818   0.901   2.077   6.319
 5307SOL     OW16819   0.737   1.313   1.426
 5307SOL    HW116820   0.808   1.247   1.401
 5307SOL    HW216821   0.690   1.282   1.509
 5308SOL     OW16822   1.866   4.288   2.690
 5308SOL    HW116823   1.875   4.334   2.601
 5308SOL    HW216824   1.952   4.242   2.712
 5309SOL     OW16825   5.474   6.339   3.551
 5309SOL    HW116826   5.399   6.365   3.612
 5309SOL    HW216827   5.558   6.328   3.605
 5310SOL     OW16828   6.422   1.599   2.994
 5310SOL    HW116829   6.379   1.680   2.953
 5310SOL    HW216830   6.483   1.627   3.068
 5311SOL     OW16831   6.065   6.913   0.281
 5311SOL    HW116832   6.008   6.833   0.271
 5311SOL    HW216833   6.014   6.985   0.329
 5312SOL     OW16834   5.985   6.845   0.990
 5312SOL    HW116835   5.996   6.788   1.071
 5312SOL    HW216836   5.924   6.799   0.925
 5313SOL     OW16837   1.431   6.554   5.951
 5313SOL    HW116838   1.459   6.466   5.990
 5313SOL    HW216839   1.408   6.542   5.855
 5314SOL     OW16840   5.901   2.304   1.666
 5314SOL    HW116841   5.925   2.388   1.617
 5314SOL    HW216842   5.853   2.242   1.603
 5315SOL     OW16843   4.123   2.260   3.394
 5315SOL    HW116844   4.199   2.304   3.346
 5315SOL    HW216845   4.048   2.244   3.329
 5316SOL     OW16846   0.342   2.711   4.975
 5316SOL    HW116847   0.419   2.729   5.036
 5316SOL    HW216848   0.374   2.709   4.880
 5317SOL     OW16849   5.689   3.249   0.654
 5317SOL    HW116850   5.737   3.251   0.566
 5317SOL    HW216851   5.711   3.331   0.705
 5318SOL     OW16852   6.967   3.980   5.769
 5318SOL    HW116853   7.002   3.991   5.676
 5318SOL    HW216854   7.002   4.054   5.827
 5319SOL     OW16855   3.927   6.105   2.500
 5319SOL    HW116856   3.865   6.112   2.422
 5319SOL    HW216857   3.899   6.171   2.570
 5320SOL     OW16858   4.542   5.917   0.631
 5320SOL    HW116859   4.559   5.858   0.552
 5320SOL    HW216860   4.460   5.887   0.679
 5321SOL     OW16861   1.721   4.108   5.976
 5321SOL    HW116862   1.635   4.105   5.925
 5321SOL    HW216863   1.701   4.110   6.074
 5322SOL     OW16864   3.871   6.277   1.811
 5322SOL    HW116865   3.783   6.253   1.769
 5322SOL    HW216866   3.941   6.214   1.780
 5323SOL     OW16867   4.103   0.434   6.534
 5323SOL    HW116868   4.162   0.361   6.567
 5323SOL    HW216869   4.045   0.466   6.608
 5324SOL     OW16870   1.470   1.781   1.635
 5324SOL    HW116871   1.372   1.796   1.625
 5324SOL    HW216872   1.486   1.691   1.676
 5325SOL     OW16873   2.131   2.737   4.867
 5325SOL    HW116874   2.200   2.771   4.803
 5325SOL    HW216875   2.082   2.813   4.907
 5326SOL     OW16876   6.223   6.918   1.355
 5326SOL    HW116877   6.206   6.981   1.430
 5326SOL    HW216878   6.320   6.924   1.328
 5327SOL     OW16879   0.699   2.666   5.407
 5327SOL    HW116880   0.745   2.742   5.452
 5327SOL    HW216881   0.763   2.589   5.397
 5328SOL     OW16882   4.304   5.281   0.558
 5328SOL    HW116883   4.304   5.372   0.599
 5328SOL    HW216884   4.215   5.238   0.572
 5329SOL     OW16885   2.492   6.273   6.054
 5329SOL    HW116886   2.478   6.178   6.082
 5329SOL    HW216887   2.589   6.290   6.040
 5330SOL     OW16888   2.638   5.100   1.264
 5330SOL    HW116889   2.633   5.030   1.192
 5330SOL    HW216890   2.550   5.146   1.272
 5331SOL     OW16891   6.399   1.266   6.503
 5331SOL    HW116892   6.376   1.363   6.505
 5331SOL    HW216893   6.378   1.229   6.412
 5332SOL     OW16894   0.898   4.432   1.514
 5332SOL    HW116895   0.937   4.520   1.538
 5332SOL    HW216896   0.898   4.372   1.594
 5333SOL     OW16897   0.908   6.424   4.640
 5333SOL    HW116898   0.884   6.513   4.602
 5333SOL    HW216899   0.999   6.428   4.681
 5334SOL     OW16900   3.772   0.232   5.488
 5334SOL    HW116901   3.811   0.245   5.579
 5334SOL    HW216902   3.682   0.190   5.496
 5335SOL     OW16903   6.736   6.047   0.844
 5335SOL    HW116904   6.703   6.138   0.872
 5335SOL    HW216905   6.829   6.034   0.877
 5336SOL     OW16906   1.198   4.036   1.272
 5336SOL    HW116907   1.155   4.109   1.326
 5336SOL    HW216908   1.194   4.060   1.175
 5337SOL     OW16909   5.017   4.591   1.946
 5337SOL    HW116910   5.069   4.506   1.954
 5337SOL    HW216911   5.046   4.655   2.016
 5338SOL     OW16912   5.474   2.945   0.426
 5338SOL    HW116913   5.434   2.855   0.412
 5338SOL    HW216914   5.511   2.951   0.518
 5339SOL     OW16915   6.709   0.294   2.121
 5339SOL    HW116916   6.627   0.322   2.070
 5339SOL    HW216917   6.781   0.362   2.108
 5340SOL     OW16918   4.814   2.619   6.790
 5340SOL    HW116919   4.845   2.707   6.827
 5340SOL    HW216920   4.798   2.629   6.692
 5341SOL     OW16921   4.683   0.387   1.103
 5341SOL    HW116922   4.740   0.430   1.033
 5341SOL    HW216923   4.628   0.314   1.062
 5342SOL     OW16924   2.351   0.562   5.827
 5342SOL    HW116925   2.287   0.497   5.869
 5342SOL    HW216926   2.412   0.599   5.897
 5343SOL     OW16927   3.367   4.043   1.413
 5343SOL    HW116928   3.407   4.108   1.478
 5343SOL    HW216929   3.303   3.983   1.462
 5344SOL     OW16930   2.205   2.252   2.494
 5344SOL    HW116931   2.136   2.255   2.567
 5344SOL    HW216932   2.181   2.181   2.428
 5345SOL     OW16933   4.819   0.348   3.223
 5345SOL    HW116934   4.770   0.287   3.160
 5345SOL    HW216935   4.838   0.300   3.308
 5346SOL     OW16936   3.107   0.691   4.097
 5346SOL    HW116937   3.026   0.744   4.073
 5346SOL    HW216938   3.126   0.701   4.195
 5347SOL     OW16939   6.767   1.415   1.640
 5347SOL    HW116940   6.691   1.473   1.669
 5347SOL    HW216941   6.774   1.337   1.703
 5348SOL     OW16942   6.513   1.402   0.052
 5348SOL    HW116943   6.606   1.396   0.087
 5348SOL    HW216944   6.497   1.328   7.008
 5349SOL     OW16945   5.945   0.207   1.308
 5349SOL    HW116946   5.925   0.130   1.246
 5349SOL    HW216947   6.030   0.189   1.357
 5350SOL     OW16948   2.645   0.454   6.690
 5350SOL    HW116949   2.689   0.458   6.779
 5350SOL    HW216950   2.712   0.429   6.620
 5351SOL     OW16951   4.489   1.142   2.293
 5351SOL    HW116952   4.412   1.106   2.346
 5351SOL    HW216953   4.565   1.077   2.295
 5352SOL     OW16954   3.435   0.034   3.267
 5352SOL    HW116955   3.491   0.097   3.321
 5352SOL    HW216956   3.349   0.079   3.243
 5353SOL     OW16957   6.139   0.261   5.942
 5353SOL    HW116958   6.180   0.341   5.986
 5353SOL    HW216959   6.211   0.204   5.903
 5354SOL     OW16960   1.642   3.389   0.885
 5354SOL    HW116961   1.688   3.300   0.880
 5354SOL    HW216962   1.672   3.446   0.809
 5355SOL     OW16963   4.664   1.520   5.966
 5355SOL    HW116964   4.728   1.465   5.913
 5355SOL    HW216965   4.612   1.579   5.905
 5356SOL     OW16966   6.474   3.034   1.392
 5356SOL    HW116967   6.423   2.952   1.416
 5356SOL    HW216968   6.474   3.047   1.293
 5357SOL     OW16969   3.880   5.967   0.215
 5357SOL    HW116970   3.831   6.054   0.217
 5357SOL    HW216971   3.955   5.973   0.150
 5358SOL     OW16972   5.179   4.345   1.957
 5358SOL    HW116973   5.266   4.368   2.001
 5358SOL    HW216974   5.143   4.260   1.996
 5359SOL     OW16975   3.621   0.363   5.794
 5359SOL    HW116976   3.560   0.315   5.730
 5359SOL    HW216977   3.567   0.426   5.849
 5360SOL     OW16978   4.552   1.458   0.228
 5360SOL    HW116979   4.557   1.388   0.157
 5360SOL    HW216980   4.588   1.421   0.314
 5361SOL     OW16981   1.433   0.914   6.451
 5361SOL    HW116982   1.497   0.841   6.475
 5361SOL    HW216983   1.359   0.876   6.395
 5362SOL     OW16984   4.066   5.675   3.503
 5362SOL    HW116985   4.049   5.576   3.505
 5362SOL    HW216986   4.137   5.698   3.569
 5363SOL     OW16987   0.963   5.754   4.595
 5363SOL    HW116988   1.006   5.728   4.681
 5363SOL    HW216989   0.868   5.722   4.594
 5364SOL     OW16990   1.132   6.185   6.815
 5364SOL    HW116991   1.210   6.124   6.831
 5364SOL    HW216992   1.147   6.236   6.730
 5365SOL     OW16993   3.939   2.177   6.135
 5365SOL    HW116994   3.885   2.093   6.132
 5365SOL    HW216995   4.033   2.158   6.109
 5366SOL     OW16996   3.646   3.714   5.964
 5366SOL    HW116997   3.596   3.780   5.909
 5366SOL    HW216998   3.602   3.624   5.957
 5367SOL     OW16999   0.279   4.908   0.801
 5367SOL    HW117000   0.288   4.872   0.894
 5367SOL    HW217001   0.307   4.838   0.735
 5368SOL     OW17002   0.787   0.421   3.760
 5368SOL    HW117003   0.848   0.452   3.687
 5368SOL    HW217004   0.692   0.435   3.733
 5369SOL     OW17005   2.146   3.553   2.428
 5369SOL    HW117006   2.114   3.647   2.419
 5369SOL    HW217007   2.221   3.549   2.495
 5370SOL     OW17008   3.721   2.862   1.404
 5370SOL    HW117009   3.702   2.958   1.428
 5370SOL    HW217010   3.665   2.802   1.461
 5371SOL     OW17011   1.815   4.159   4.987
 5371SOL    HW117012   1.881   4.171   4.912
 5371SOL    HW217013   1.828   4.232   5.053
 5372SOL     OW17014   3.179   6.314   2.604
 5372SOL    HW117015   3.118   6.309   2.683
 5372SOL    HW217016   3.140   6.262   2.529
 5373SOL     OW17017   1.923   5.468   3.862
 5373SOL    HW117018   1.837   5.462   3.812
 5373SOL    HW217019   1.923   5.399   3.935
 5374SOL     OW17020   3.075   2.426   0.500
 5374SOL    HW117021   2.985   2.399   0.534
 5374SOL    HW217022   3.104   2.511   0.545
 5375SOL     OW17023   1.172   3.933   5.081
 5375SOL    HW117024   1.225   3.999   5.028
 5375SOL    HW217025   1.199   3.840   5.054
 5376SOL     OW17026   2.821   4.712   5.887
 5376SOL    HW117027   2.905   4.661   5.871
 5376SOL    HW217028   2.836   4.781   5.958
 5377SOL     OW17029   0.756   2.412   1.710
 5377SOL    HW117030   0.664   2.426   1.674
 5377SOL    HW217031   0.751   2.365   1.798
 5378SOL     OW17032   5.014   0.526   6.734
 5378SOL    HW117033   4.961   0.610   6.729
 5378SOL    HW217034   5.030   0.491   6.641
 5379SOL     OW17035   6.896   6.804   0.452
 5379SOL    HW117036   6.861   6.726   0.399
 5379SOL    HW217037   6.878   6.788   0.549
 5380SOL     OW17038   1.811   1.476   5.139
 5380SOL    HW117039   1.779   1.567   5.166
 5380SOL    HW217040   1.897   1.484   5.088
 5381SOL     OW17041   6.138   3.842   1.953
 5381SOL    HW117042   6.190   3.788   2.019
 5381SOL    HW217043   6.167   3.818   1.860
 5382SOL     OW17044   1.947   6.728   1.573
 5382SOL    HW117045   1.872   6.709   1.637
 5382SOL    HW217046   1.933   6.818   1.532
 5383SOL     OW17047   2.155   1.998   4.892
 5383SOL    HW117048   2.062   1.993   4.856
 5383SOL    HW217049   2.153   2.034   4.985
 5384SOL     OW17050   5.165   6.458   4.724
 5384SOL    HW117051   5.219   6.476   4.807
 5384SOL    HW217052   5.106   6.379   4.740
 5385SOL     OW17053   3.695   4.124   2.747
 5385SOL    HW117054   3.750   4.043   2.767
 5385SOL    HW217055   3.743   4.181   2.679
 5386SOL     OW17056   5.991   6.360   6.012
 5386SOL    HW117057   6.003   6.359   5.913
 5386SOL    HW217058   5.990   6.455   6.044
 5387SOL     OW17059   3.473   4.859   0.835
 5387SOL    HW117060   3.494   4.860   0.933
 5387SOL    HW217061   3.548   4.816   0.785
 5388SOL     OW17062   5.817   5.946   3.063
 5388SOL    HW117063   5.777   6.037   3.074
 5388SOL    HW217064   5.811   5.896   3.149
 5389SOL     OW17065   5.645   3.206   1.680
 5389SOL    HW117066   5.735   3.231   1.645
 5389SOL    HW217067   5.630   3.108   1.666
 5390SOL     OW17068   6.491   4.924   6.375
 5390SOL    HW117069   6.471   5.011   6.420
 5390SOL    HW217070   6.586   4.898   6.394
 5391SOL     OW17071   3.617   4.283   0.144
 5391SOL    HW117072   3.648   4.250   0.055
 5391SOL    HW217073   3.563   4.212   0.189
 5392SOL     OW17074   0.546   2.654   3.104
 5392SOL    HW117075   0.624   2.654   3.166
 5392SOL    HW217076   0.538   2.565   3.059
 5393SOL     OW17077   6.605   6.799   6.476
 5393SOL    HW117078   6.586   6.731   6.405
 5393SOL    HW217079   6.524   6.856   6.490
 5394SOL     OW17080   1.817   3.786   6.190
 5394SOL    HW117081   1.834   3.753   6.283
 5394SOL    HW217082   1.896   3.766   6.132
 5395SOL     OW17083   4.393   0.668   1.375
 5395SOL    HW117084   4.439   0.618   1.449
 5395SOL    HW217085   4.445   0.657   1.291
 5396SOL     OW17086   5.121   2.479   1.189
 5396SOL    HW117087   5.059   2.408   1.221
 5396SOL    HW217088   5.111   2.491   1.091
 5397SOL     OW17089   1.574   2.868   1.916
 5397SOL    HW117090   1.636   2.794   1.944
 5397SOL    HW217091   1.492   2.828   1.874
 5398SOL     OW17092   3.536   3.571   2.613
 5398SOL    HW117093   3.560   3.498   2.677
 5398SOL    HW217094   3.464   3.628   2.652
 5399SOL     OW17095   0.645   5.125   0.269
 5399SOL    HW117096   0.697   5.210   0.255
 5399SOL    HW217097   0.549   5.141   0.247
 5400SOL     OW17098   2.271   3.438   6.803
 5400SOL    HW117099   2.194   3.374   6.798
 5400SOL    HW217100   2.264   3.493   6.886
 5401SOL     OW17101   6.506   1.721   0.681
 5401SOL    HW117102   6.514   1.623   0.664
 5401SOL    HW217103   6.596   1.764   0.675
 5402SOL     OW17104   0.933   5.989   2.286
 5402SOL    HW117105   1.014   5.931   2.299
 5402SOL    HW217106   0.955   6.062   2.222
 5403SOL     OW17107   6.339   2.617   6.274
 5403SOL    HW117108   6.411   2.579   6.216
 5403SOL    HW217109   6.380   2.651   6.359
 5404SOL     OW17110   1.038   2.966   3.017
 5404SOL    HW117111   1.087   2.924   2.941
 5404SOL    HW217112   1.103   2.995   3.088
 5405SOL     OW17113   6.491   4.370   5.325
 5405SOL    HW117114   6.428   4.447   5.333
 5405SOL    HW217115   6.532   4.351   5.414
 5406SOL     OW17116   1.625   0.276   3.393
 5406SOL    HW117117   1.705   0.226   3.359
 5406SOL    HW217118   1.568   0.304   3.316
 5407SOL     OW17119   4.157   3.378   6.478
 5407SOL    HW117120   4.059   3.377   6.495
 5407SOL    HW217121   4.194   3.286   6.491
 5408SOL     OW17122   3.637   1.162   6.390
 5408SOL    HW117123   3.724   1.202   6.364
 5408SOL    HW217124   3.582   1.230   6.438
 5409SOL     OW17125   4.936   0.438   1.688
 5409SOL    HW117126   4.987   0.383   1.622
 5409SOL    HW217127   4.996   0.506   1.729
 5410SOL     OW17128   1.448   2.889   3.021
 5410SOL    HW117129   1.422   2.795   2.999
 5410SOL    HW217130   1.511   2.924   2.951
 5411SOL     OW17131   2.473   4.675   4.920
 5411SOL    HW117132   2.519   4.745   4.974
 5411SOL    HW217133   2.388   4.648   4.965
 5412SOL     OW17134   6.317   1.914   2.250
 5412SOL    HW117135   6.276   1.994   2.293
 5412SOL    HW217136   6.287   1.831   2.299
 5413SOL     OW17137   1.563   6.919   2.922
 5413SOL    HW117138   1.501   6.888   2.850
 5413SOL    HW217139   1.651   6.874   2.911
 5414SOL     OW17140   4.170   0.417   6.269
 5414SOL    HW117141   4.254   0.364   6.255
 5414SOL    HW217142   4.141   0.411   6.364
 5415SOL     OW17143   6.441   3.531   2.952
 5415SOL    HW117144   6.396   3.457   3.002
 5415SOL    HW217145   6.540   3.526   2.967
 5416SOL     OW17146   4.267   5.064   4.259
 5416SOL    HW117147   4.241   5.138   4.320
 5416SOL    HW217148   4.191   5.000   4.250
 5417SOL     OW17149   2.726   6.901   5.646
 5417SOL    HW117150   2.822   6.876   5.656
 5417SOL    HW217151   2.703   6.906   5.548
 5418SOL     OW17152   3.925   1.173   3.256
 5418SOL    HW117153   3.861   1.139   3.324
 5418SOL    HW217154   3.877   1.189   3.170
 5419SOL     OW17155   3.228   4.294   6.611
 5419SOL    HW117156   3.182   4.369   6.565
 5419SOL    HW217157   3.178   4.209   6.597
 5420SOL     OW17158   1.211   2.459   2.894
 5420SOL    HW117159   1.288   2.408   2.857
 5420SOL    HW217160   1.243   2.547   2.929
 5421SOL     OW17161   2.170   2.575   0.700
 5421SOL    HW117162   2.246   2.553   0.639
 5421SOL    HW217163   2.202   2.573   0.795
 5422SOL     OW17164   0.923   3.192   0.283
 5422SOL    HW117165   0.897   3.264   0.348
 5422SOL    HW217166   0.843   3.136   0.262
 5423SOL     OW17167   4.378   3.060   5.870
 5423SOL    HW117168   4.343   3.078   5.778
 5423SOL    HW217169   4.379   2.961   5.886
 5424SOL     OW17170   5.396   3.093   5.755
 5424SOL    HW117171   5.416   3.006   5.799
 5424SOL    HW217172   5.433   3.093   5.662
 5425SOL     OW17173   4.893   1.241   4.912
 5425SOL    HW117174   4.890   1.218   5.009
 5425SOL    HW217175   4.988   1.245   4.881
 5426SOL     OW17176   0.431   0.226   4.623
 5426SOL    HW117177   0.373   0.147   4.644
 5426SOL    HW217178   0.475   0.212   4.535
 5427SOL     OW17179   4.224   0.078   0.312
 5427SOL    HW117180   4.258   0.159   0.264
 5427SOL    HW217181   4.157   0.031   0.255
 5428SOL     OW17182   1.718   0.815   0.495
 5428SOL    HW117183   1.789   0.811   0.426
 5428SOL    HW217184   1.748   0.765   0.577
 5429SOL     OW17185   1.162   2.465   6.068
 5429SOL    HW117186   1.244   2.513   6.101
 5429SOL    HW217187   1.095   2.459   6.142
 5430SOL     OW17188   2.061   2.736   5.339
 5430SOL    HW117189   2.104   2.783   5.261
 5430SOL    HW217190   2.099   2.644   5.347
 5431SOL     OW17191   3.736   5.517   4.214
 5431SOL    HW117192   3.810   5.484   4.155
 5431SOL    HW217193   3.755   5.611   4.240
 5432SOL     OW17194   5.855   4.730   1.544
 5432SOL    HW117195   5.897   4.729   1.635
 5432SOL    HW217196   5.920   4.694   1.478
 5433SOL     OW17197   1.253   1.941   3.362
 5433SOL    HW117198   1.295   1.882   3.293
 5433SOL    HW217199   1.161   1.909   3.383
 5434SOL     OW17200   2.256   6.280   5.094
 5434SOL    HW117201   2.317   6.235   5.159
 5434SOL    HW217202   2.302   6.289   5.006
 5435SOL     OW17203   4.419   0.767   2.435
 5435SOL    HW117204   4.379   0.732   2.520
 5435SOL    HW217205   4.492   0.706   2.405
 5436SOL     OW17206   5.330   4.150   2.941
 5436SOL    HW117207   5.291   4.087   3.007
 5436SOL    HW217208   5.281   4.141   2.854
 5437SOL     OW17209   3.810   4.645   6.294
 5437SOL    HW117210   3.764   4.561   6.264
 5437SOL    HW217211   3.771   4.724   6.246
 5438SOL     OW17212   6.867   0.761   0.627
 5438SOL    HW117213   6.794   0.733   0.689
 5438SOL    HW217214   6.907   0.680   0.584
 5439SOL     OW17215   1.480   3.100   0.494
 5439SOL    HW117216   1.469   3.096   0.594
 5439SOL    HW217217   1.572   3.134   0.472
 5440SOL     OW17218   1.984   0.841   1.589
 5440SOL    HW117219   1.993   0.845   1.490
 5440SOL    HW217220   2.073   0.819   1.630
 5441SOL     OW17221   3.952   1.781   4.488
 5441SOL    HW117222   3.916   1.852   4.549
 5441SOL    HW217223   3.878   1.746   4.430
 5442SOL     OW17224   3.315   0.992   1.825
 5442SOL    HW117225   3.241   1.049   1.789
 5442SOL    HW217226   3.379   1.048   1.876
 5443SOL     OW17227   1.382   6.553   5.667
 5443SOL    HW117228   1.438   6.518   5.592
 5443SOL    HW217229   1.305   6.605   5.629
 5444SOL     OW17230   0.351   0.950   3.461
 5444SOL    HW117231   0.308   0.859   3.454
 5444SOL    HW217232   0.355   0.991   3.370
 5445SOL     OW17233   6.236   3.695   2.164
 5445SOL    HW117234   6.298   3.765   2.200
 5445SOL    HW217235   6.283   3.607   2.161
 5446SOL     OW17236   6.525   6.053   5.957
 5446SOL    HW117237   6.589   6.032   5.884
 5446SOL    HW217238   6.449   5.989   5.954
 5447SOL     OW17239   3.138   2.506   0.971
 5447SOL    HW117240   3.113   2.502   1.068
 5447SOL    HW217241   3.236   2.525   0.962
 5448SOL     OW17242   5.521   1.498   6.532
 5448SOL    HW117243   5.504   1.452   6.619
 5448SOL    HW217244   5.576   1.580   6.547
 5449SOL     OW17245   0.135   2.605   0.172
 5449SOL    HW117246   0.166   2.558   0.089
 5449SOL    HW217247   0.063   2.670   0.149
 5450SOL     OW17248   2.325   6.184   1.001
 5450SOL    HW117249   2.266   6.249   1.049
 5450SOL    HW217250   2.413   6.178   1.047
 5451SOL     OW17251   2.697   0.412   2.417
 5451SOL    HW117252   2.676   0.425   2.515
 5451SOL    HW217253   2.621   0.448   2.363
 5452SOL     OW17254   2.584   3.741   5.704
 5452SOL    HW117255   2.592   3.841   5.706
 5452SOL    HW217256   2.586   3.709   5.609
 5453SOL     OW17257   0.371   5.468   5.504
 5453SOL    HW117258   0.411   5.530   5.571
 5453SOL    HW217259   0.444   5.424   5.452
 5454SOL     OW17260   0.985   3.837   5.602
 5454SOL    HW117261   0.996   3.794   5.512
 5454SOL    HW217262   0.908   3.900   5.599
 5455SOL     OW17263   6.633   2.088   0.882
 5455SOL    HW117264   6.550   2.056   0.927
 5455SOL    HW217265   6.689   2.139   0.947
 5456SOL     OW17266   3.581   0.001   1.450
 5456SOL    HW117267   3.579   6.980   1.360
 5456SOL    HW217268   3.538   6.962   1.517
 5457SOL     OW17269   6.253   3.522   1.337
 5457SOL    HW117270   6.198   3.440   1.353
 5457SOL    HW217271   6.345   3.508   1.373
 5458SOL     OW17272   1.716   4.467   5.824
 5458SOL    HW117273   1.786   4.396   5.826
 5458SOL    HW217274   1.749   4.548   5.873
 5459SOL     OW17275   2.183   3.842   6.171
 5459SOL    HW117276   2.270   3.816   6.212
 5459SOL    HW217277   2.127   3.760   6.159
 5460SOL     OW17278   3.927   0.243   3.982
 5460SOL    HW117279   3.893   0.152   3.962
 5460SOL    HW217280   4.014   0.236   4.032
 5461SOL     OW17281   4.128   6.669   4.966
 5461SOL    HW117282   4.099   6.636   5.056
 5461SOL    HW217283   4.186   6.750   4.977
 5462SOL     OW17284   0.099   0.719   1.519
 5462SOL    HW117285   0.040   0.780   1.572
 5462SOL    HW217286   0.095   0.627   1.557
 5463SOL     OW17287   6.740   2.934   0.972
 5463SOL    HW117288   6.809   2.869   0.942
 5463SOL    HW217289   6.785   3.011   1.017
 5464SOL     OW17290   1.628   6.796   4.628
 5464SOL    HW117291   1.581   6.715   4.663
 5464SOL    HW217292   1.666   6.777   4.538
 5465SOL     OW17293   2.853   5.897   6.926
 5465SOL    HW117294   2.926   5.857   6.871
 5465SOL    HW217295   2.789   5.945   6.865
 5466SOL     OW17296   5.335   6.376   4.465
 5466SOL    HW117297   5.412   6.423   4.508
 5466SOL    HW217298   5.259   6.369   4.531
 5467SOL     OW17299   5.754   1.851   1.617
 5467SOL    HW117300   5.717   1.805   1.697
 5467SOL    HW217301   5.844   1.813   1.595
 5468SOL     OW17302   4.468   1.529   6.704
 5468SOL    HW117303   4.548   1.503   6.650
 5468SOL    HW217304   4.433   1.448   6.752
 5469SOL     OW17305   4.939   4.974   1.794
 5469SOL    HW117306   4.915   5.045   1.728
 5469SOL    HW217307   4.962   4.889   1.746
 5470SOL     OW17308   6.951   5.021   3.390
 5470SOL    HW117309   0.021   5.030   3.426
 5470SOL    HW217310   6.893   4.973   3.456
 5471SOL     OW17311   6.751   4.586   2.164
 5471SOL    HW117312   6.761   4.556   2.259
 5471SOL    HW217313   6.792   4.677   2.154
 5472SOL     OW17314   3.507   5.371   5.229
 5472SOL    HW117315   3.485   5.284   5.272
 5472SOL    HW217316   3.522   5.441   5.300
 5473SOL     OW17317   2.032   4.592   3.998
 5473SOL    HW117318   1.953   4.544   3.959
 5473SOL    HW217319   2.041   4.568   4.094
 5474SOL     OW17320   0.675   5.769   3.098
 5474SOL    HW117321   0.730   5.694   3.136
 5474SOL    HW217322   0.734   5.848   3.082
 5475SOL     OW17323   3.099   2.964   1.485
 5475SOL    HW117324   3.171   3.023   1.449
 5475SOL    HW217325   3.128   2.926   1.573
 5476SOL     OW17326   2.005   3.310   6.811
 5476SOL    HW117327   2.011   3.380   6.882
 5476SOL    HW217328   2.001   3.220   6.853
 5477SOL     OW17329   2.322   2.418   2.225
 5477SOL    HW117330   2.283   2.388   2.313
 5477SOL    HW217331   2.416   2.447   2.239
 5478SOL     OW17332   0.037   5.685   5.181
 5478SOL    HW117333   0.052   5.606   5.240
 5478SOL    HW217334   0.003   5.653   5.092
 5479SOL     OW17335   4.212   6.176   5.728
 5479SOL    HW117336   4.271   6.120   5.669
 5479SOL    HW217337   4.254   6.266   5.741
 5480SOL     OW17338   0.328   2.148   5.711
 5480SOL    HW117339   0.232   2.118   5.713
 5480SOL    HW217340   0.351   2.189   5.799
 5481SOL     OW17341   4.412   6.146   3.083
 5481SOL    HW117342   4.428   6.219   3.150
 5481SOL    HW217343   4.383   6.063   3.131
 5482SOL     OW17344   1.496   6.067   2.131
 5482SOL    HW117345   1.558   6.142   2.109
 5482SOL    HW217346   1.497   6.000   2.057
 5483SOL     OW17347   0.906   2.317   6.775
 5483SOL    HW117348   0.992   2.286   6.736
 5483SOL    HW217349   0.921   2.349   6.869
 5484SOL     OW17350   5.206   6.862   4.853
 5484SOL    HW117351   5.121   6.915   4.859
 5484SOL    HW217352   5.217   6.827   4.760
 5485SOL     OW17353   3.462   0.775   4.741
 5485SOL    HW117354   3.489   0.709   4.810
 5485SOL    HW217355   3.518   0.763   4.659
 5486SOL     OW17356   2.930   5.263   3.620
 5486SOL    HW117357   2.987   5.331   3.575
 5486SOL    HW217358   2.982   5.220   3.694
 5487SOL     OW17359   3.698   6.105   5.185
 5487SOL    HW117360   3.719   6.154   5.270
 5487SOL    HW217361   3.755   6.023   5.179
 5488SOL     OW17362   4.630   2.092   6.652
 5488SOL    HW117363   4.682   2.141   6.722
 5488SOL    HW217364   4.655   1.996   6.653
 5489SOL     OW17365   6.631   2.804   3.830
 5489SOL    HW117366   6.654   2.838   3.739
 5489SOL    HW217367   6.546   2.847   3.861
 5490SOL     OW17368   0.759   5.319   2.238
 5490SOL    HW117369   0.847   5.294   2.276
 5490SOL    HW217370   0.686   5.292   2.301
 5491SOL     OW17371   6.206   4.134   0.606
 5491SOL    HW117372   6.231   4.146   0.702
 5491SOL    HW217373   6.221   4.039   0.579
 5492SOL     OW17374   0.762   1.874   6.950
 5492SOL    HW117375   0.829   1.926   7.002
 5492SOL    HW217376   0.676   1.869   7.002
 5493SOL     OW17377   4.326   4.001   6.413
 5493SOL    HW117378   4.314   4.007   6.314
 5493SOL    HW217379   4.238   4.015   6.459
 5494SOL     OW17380   5.653   2.221   5.109
 5494SOL    HW117381   5.623   2.126   5.110
 5494SOL    HW217382   5.672   2.252   5.202
 5495SOL     OW17383   5.874   0.768   0.749
 5495SOL    HW117384   5.913   0.810   0.830
 5495SOL    HW217385   5.819   0.689   0.776
 5496SOL     OW17386   4.240   6.218   6.066
 5496SOL    HW117387   4.304   6.278   6.114
 5496SOL    HW217388   4.271   6.123   6.073
 5497SOL     OW17389   0.900   0.081   6.150
 5497SOL    HW117390   0.886   0.177   6.177
 5497SOL    HW217391   0.997   0.058   6.161
 5498SOL     OW17392   0.322   5.823   1.875
 5498SOL    HW117393   0.411   5.860   1.903
 5498SOL    HW217394   0.327   5.723   1.873
 5499SOL     OW17395   2.140   0.510   3.327
 5499SOL    HW117396   2.112   0.511   3.423
 5499SOL    HW217397   2.137   0.417   3.292
 5500SOL     OW17398   1.296   6.248   1.707
 5500SOL    HW117399   1.272   6.189   1.630
 5500SOL    HW217400   1.393   6.239   1.727
 5501SOL     OW17401   5.644   3.549   0.637
 5501SOL    HW117402   5.647   3.571   0.540
 5501SOL    HW217403   5.572   3.603   0.681
 5502SOL     OW17404   4.614   3.927   0.386
 5502SOL    HW117405   4.576   3.851   0.333
 5502SOL    HW217406   4.571   4.013   0.355
 5503SOL     OW17407   6.370   2.808   1.466
 5503SOL    HW117408   6.397   2.789   1.560
 5503SOL    HW217409   6.272   2.827   1.462
 5504SOL     OW17410   3.357   2.046   6.921
 5504SOL    HW117411   3.346   2.125   6.860
 5504SOL    HW217412   3.269   2.000   6.932
 5505SOL     OW17413   2.584   5.422   2.080
 5505SOL    HW117414   2.670   5.420   2.131
 5505SOL    HW217415   2.539   5.333   2.086
 5506SOL     OW17416   6.549   2.816   5.852
 5506SOL    HW117417   6.636   2.799   5.898
 5506SOL    HW217418   6.545   2.762   5.768
 5507SOL     OW17419   3.786   6.223   0.183
 5507SOL    HW117420   3.813   6.202   0.089
 5507SOL    HW217421   3.834   6.304   0.215
 5508SOL     OW17422   6.621   2.050   6.158
 5508SOL    HW117423   6.714   2.013   6.160
 5508SOL    HW217424   6.597   2.086   6.249
 5509SOL     OW17425   6.161   4.201   0.358
 5509SOL    HW117426   6.099   4.277   0.336
 5509SOL    HW217427   6.162   4.187   0.456
 5510SOL     OW17428   5.704   5.822   0.061
 5510SOL    HW117429   5.773   5.785   7.021
 5510SOL    HW217430   5.674   5.912   0.029
 5511SOL     OW17431   0.910   2.757   6.407
 5511SOL    HW117432   0.933   2.674   6.457
 5511SOL    HW217433   0.820   2.790   6.437
 5512SOL     OW17434   3.263   6.939   2.125
 5512SOL    HW117435   3.195   6.908   2.191
 5512SOL    HW217436   3.340   6.982   2.173
 5513SOL     OW17437   4.220   4.685   6.788
 5513SOL    HW117438   4.213   4.646   6.696
 5513SOL    HW217439   4.182   4.621   6.855
 5514SOL     OW17440   3.785   1.614   0.390
 5514SOL    HW117441   3.840   1.531   0.396
 5514SOL    HW217442   3.830   1.687   0.441
 5515SOL     OW17443   3.316   4.975   2.535
 5515SOL    HW117444   3.353   5.000   2.625
 5515SOL    HW217445   3.246   4.905   2.546
 5516SOL     OW17446   0.611   2.844   6.344
 5516SOL    HW117447   0.578   2.758   6.384
 5516SOL    HW217448   0.575   2.921   6.397
 5517SOL     OW17449   1.089   1.880   4.465
 5517SOL    HW117450   0.998   1.913   4.487
 5517SOL    HW217451   1.132   1.845   4.549
 5518SOL     OW17452   4.204   4.249   5.940
 5518SOL    HW117453   4.129   4.234   5.877
 5518SOL    HW217454   4.179   4.321   6.005
 5519SOL     OW17455   5.213   2.820   5.436
 5519SOL    HW117456   5.222   2.919   5.435
 5519SOL    HW217457   5.126   2.794   5.395
 5520SOL     OW17458   5.178   5.712   1.732
 5520SOL    HW117459   5.101   5.749   1.783
 5520SOL    HW217460   5.258   5.772   1.744
 5521SOL     OW17461   4.525   0.529   2.307
 5521SOL    HW117462   4.535   0.454   2.373
 5521SOL    HW217463   4.429   0.536   2.279
 5522SOL     OW17464   4.565   6.344   6.667
 5522SOL    HW117465   4.520   6.270   6.617
 5522SOL    HW217466   4.663   6.327   6.671
 5523SOL     OW17467   5.236   1.485   0.972
 5523SOL    HW117468   5.183   1.552   0.921
 5523SOL    HW217469   5.333   1.506   0.963
 5524SOL     OW17470   2.183   1.497   2.736
 5524SOL    HW117471   2.134   1.470   2.653
 5524SOL    HW217472   2.266   1.546   2.711
 5525SOL     OW17473   6.871   1.046   0.890
 5525SOL    HW117474   6.875   1.036   0.790
 5525SOL    HW217475   6.815   0.973   0.928
 5526SOL     OW17476   5.179   4.036   3.911
 5526SOL    HW117477   5.249   4.096   3.951
 5526SOL    HW217478   5.207   4.012   3.818
 5527SOL     OW17479   6.044   0.425   2.487
 5527SOL    HW117480   5.972   0.365   2.521
 5527SOL    HW217481   6.112   0.371   2.437
 5528SOL     OW17482   1.579   1.253   0.238
 5528SOL    HW117483   1.502   1.310   0.269
 5528SOL    HW217484   1.579   1.167   0.290
 5529SOL     OW17485   3.586   0.390   2.253
 5529SOL    HW117486   3.652   0.404   2.327
 5529SOL    HW217487   3.548   0.478   2.225
 5530SOL     OW17488   1.068   1.609   0.999
 5530SOL    HW117489   1.100   1.554   1.077
 5530SOL    HW217490   0.973   1.586   0.979
 5531SOL     OW17491   1.456   4.833   0.336
 5531SOL    HW117492   1.377   4.771   0.331
 5531SOL    HW217493   1.537   4.781   0.362
 5532SOL     OW17494   0.219   4.456   6.058
 5532SOL    HW117495   0.242   4.393   6.132
 5532SOL    HW217496   0.241   4.414   5.970
 5533SOL     OW17497   3.041   0.978   3.539
 5533SOL    HW117498   2.968   1.034   3.578
 5533SOL    HW217499   3.032   0.975   3.440
 5534SOL     OW17500   1.310   0.649   4.555
 5534SOL    HW117501   1.236   0.582   4.554
 5534SOL    HW217502   1.359   0.643   4.642
 5535SOL     OW17503   0.215   2.152   2.493
 5535SOL    HW117504   0.138   2.106   2.537
 5535SOL    HW217505   0.300   2.130   2.542
 5536SOL     OW17506   4.519   0.469   4.399
 5536SOL    HW117507   4.609   0.505   4.373
 5536SOL    HW217508   4.487   0.516   4.481
 5537SOL     OW17509   2.757   2.271   2.739
 5537SOL    HW117510   2.704   2.348   2.703
 5537SOL    HW217511   2.743   2.191   2.681
 5538SOL     OW17512   3.938   5.336   3.535
 5538SOL    HW117513   3.873   5.396   3.581
 5538SOL    HW217514   3.967   5.264   3.599
 5539SOL     OW17515   2.439   3.969   0.011
 5539SOL    HW117516   2.470   3.902   0.078
 5539SOL    HW217517   2.363   3.932   6.981
 5540SOL     OW17518   3.686   5.248   1.086
 5540SOL    HW117519   3.670   5.346   1.099
 5540SOL    HW217520   3.778   5.234   1.048
 5541SOL     OW17521   4.498   0.605   6.674
 5541SOL    HW117522   4.455   0.666   6.607
 5541SOL    HW217523   4.573   0.652   6.719
 5542SOL     OW17524   5.577   3.671   6.604
 5542SOL    HW117525   5.588   3.770   6.620
 5542SOL    HW217526   5.667   3.627   6.608
 5543SOL     OW17527   0.808   2.302   4.827
 5543SOL    HW117528   0.903   2.280   4.845
 5543SOL    HW217529   0.794   2.401   4.839
 5544SOL     OW17530   5.542   0.021   0.380
 5544SOL    HW117531   5.526   6.950   0.347
 5544SOL    HW217532   5.483   0.085   0.330
 5545SOL     OW17533   2.632   2.408   2.216
 5545SOL    HW117534   2.719   2.361   2.234
 5545SOL    HW217535   2.640   2.460   2.131
 5546SOL     OW17536   3.347   5.600   4.891
 5546SOL    HW117537   3.370   5.670   4.959
 5546SOL    HW217538   3.279   5.637   4.827
 5547SOL     OW17539   2.710   4.810   3.697
 5547SOL    HW117540   2.674   4.891   3.743
 5547SOL    HW217541   2.750   4.837   3.610
 5548SOL     OW17542   6.586   1.657   4.480
 5548SOL    HW117543   6.621   1.704   4.562
 5548SOL    HW217544   6.604   1.559   4.487
 5549SOL     OW17545   3.238   5.171   6.095
 5549SOL    HW117546   3.274   5.139   6.183
 5549SOL    HW217547   3.294   5.247   6.062
 5550SOL     OW17548   2.938   6.032   2.531
 5550SOL    HW117549   2.845   6.060   2.509
 5550SOL    HW217550   3.003   6.080   2.472
 5551SOL     OW17551   0.654   1.455   2.624
 5551SOL    HW117552   0.623   1.361   2.610
 5551SOL    HW217553   0.595   1.499   2.692
 5552SOL     OW17554   1.997   2.017   2.291
 5552SOL    HW117555   1.926   2.086   2.277
 5552SOL    HW217556   2.054   2.009   2.209
 5553SOL     OW17557   5.029   6.567   6.183
 5553SOL    HW117558   5.069   6.650   6.145
 5553SOL    HW217559   5.102   6.504   6.212
 5554SOL     OW17560   2.900   0.249   5.668
 5554SOL    HW117561   2.974   0.187   5.694
 5554SOL    HW217562   2.813   0.210   5.696
 5555SOL     OW17563   1.302   5.717   1.595
 5555SOL    HW117564   1.289   5.651   1.521
 5555SOL    HW217565   1.242   5.795   1.580
 5556SOL     OW17566   6.491   1.665   4.829
 5556SOL    HW117567   6.518   1.755   4.795
 5556SOL    HW217568   6.549   1.639   4.906
 5557SOL     OW17569   3.622   0.896   2.285
 5557SOL    HW117570   3.590   0.913   2.378
 5557SOL    HW217571   3.650   0.983   2.243
 5558SOL     OW17572   5.151   2.737   6.184
 5558SOL    HW117573   5.100   2.789   6.253
 5558SOL    HW217574   5.090   2.670   6.141
 5559SOL     OW17575   3.147   0.862   0.644
 5559SOL    HW117576   3.077   0.928   0.671
 5559SOL    HW217577   3.238   0.901   0.659
 5560SOL     OW17578   0.060   2.012   4.861
 5560SOL    HW117579   0.072   2.037   4.765
 5560SOL    HW217580   0.016   2.087   4.910
 5561SOL     OW17581   2.025   4.490   2.009
 5561SOL    HW117582   2.114   4.519   1.975
 5561SOL    HW217583   1.982   4.429   1.942
 5562SOL     OW17584   4.058   2.427   0.128
 5562SOL    HW117585   3.998   2.407   0.051
 5562SOL    HW217586   4.097   2.341   0.163
 5563SOL     OW17587   3.711   4.721   0.753
 5563SOL    HW117588   3.700   4.640   0.696
 5563SOL    HW217589   3.798   4.716   0.803
 5564SOL     OW17590   6.554   0.818   2.180
 5564SOL    HW117591   6.577   0.730   2.220
 5564SOL    HW217592   6.531   0.883   2.253
 5565SOL     OW17593   1.423   2.845   5.985
 5565SOL    HW117594   1.503   2.894   6.020
 5565SOL    HW217595   1.340   2.893   6.012
 5566SOL     OW17596   2.633   4.374   0.621
 5566SOL    HW117597   2.628   4.393   0.719
 5566SOL    HW217598   2.557   4.315   0.595
 5567SOL     OW17599   1.349   5.770   3.271
 5567SOL    HW117600   1.404   5.712   3.210
 5567SOL    HW217601   1.287   5.712   3.325
 5568SOL     OW17602   3.914   3.025   6.910
 5568SOL    HW117603   4.005   2.986   6.921
 5568SOL    HW217604   3.858   3.004   6.990
 5569SOL     OW17605   4.946   1.437   6.388
 5569SOL    HW117606   4.902   1.420   6.299
 5569SOL    HW217607   4.921   1.365   6.452
 5570SOL     OW17608   1.933   2.515   6.079
 5570SOL    HW117609   1.910   2.423   6.048
 5570SOL    HW217610   2.028   2.535   6.055
 5571SOL     OW17611   0.460   4.483   6.430
 5571SOL    HW117612   0.555   4.455   6.443
 5571SOL    HW217613   0.456   4.567   6.376
 5572SOL     OW17614   0.992   3.697   5.367
 5572SOL    HW117615   1.059   3.655   5.305
 5572SOL    HW217616   0.924   3.746   5.313
 5573SOL     OW17617   6.971   3.394   6.564
 5573SOL    HW117618   6.905   3.330   6.602
 5573SOL    HW217619   0.011   3.424   6.637
 5574SOL     OW17620   2.399   6.070   4.543
 5574SOL    HW117621   2.400   6.015   4.460
 5574SOL    HW217622   2.331   6.033   4.607
 5575SOL     OW17623   1.349   1.631   2.852
 5575SOL    HW117624   1.347   1.617   2.951
 5575SOL    HW217625   1.378   1.547   2.807
 5576SOL     OW17626   5.402   6.813   6.296
 5576SOL    HW117627   5.474   6.799   6.229
 5576SOL    HW217628   5.374   6.724   6.334
 5577SOL     OW17629   1.529   4.928   4.647
 5577SOL    HW117630   1.567   4.977   4.725
 5577SOL    HW217631   1.451   4.872   4.677
 5578SOL     OW17632   4.366   1.808   6.169
 5578SOL    HW117633   4.339   1.822   6.264
 5578SOL    HW217634   4.286   1.782   6.115
 5579SOL     OW17635   4.795   4.858   2.051
 5579SOL    HW117636   4.785   4.956   2.069
 5579SOL    HW217637   4.892   4.833   2.056
 5580SOL     OW17638   6.766   1.227   1.874
 5580SOL    HW117639   6.670   1.205   1.859
 5580SOL    HW217640   6.823   1.153   1.836
 5581SOL     OW17641   3.349   3.379   0.523
 5581SOL    HW117642   3.318   3.470   0.493
 5581SOL    HW217643   3.309   3.358   0.612
 5582SOL     OW17644   2.879   3.463   5.095
 5582SOL    HW117645   2.919   3.531   5.034
 5582SOL    HW217646   2.934   3.380   5.094
 5583SOL     OW17647   4.143   1.079   6.708
 5583SOL    HW117648   4.087   1.100   6.789
 5583SOL    HW217649   4.199   1.159   6.685
 5584SOL     OW17650   4.856   3.357   4.126
 5584SOL    HW117651   4.855   3.299   4.207
 5584SOL    HW217652   4.815   3.308   4.049
 5585SOL     OW17653   6.883   0.856   3.409
 5585SOL    HW117654   6.967   0.898   3.373
 5585SOL    HW217655   6.862   0.897   3.498
 5586SOL     OW17656   1.699   0.702   0.028
 5586SOL    HW117657   1.713   0.734   6.957
 5586SOL    HW217658   1.602   0.689   0.045
 5587SOL     OW17659   3.483   6.258   2.996
 5587SOL    HW117660   3.544   6.320   3.045
 5587SOL    HW217661   3.536   6.190   2.947
 5588SOL     OW17662   4.802   5.372   0.042
 5588SOL    HW117663   4.764   5.314   0.114
 5588SOL    HW217664   4.758   5.351   6.977
 5589SOL     OW17665   1.535   2.720   6.774
 5589SOL    HW117666   1.534   2.689   6.679
 5589SOL    HW217667   1.442   2.731   6.807
 5590SOL     OW17668   6.177   0.671   3.325
 5590SOL    HW117669   6.169   0.762   3.366
 5590SOL    HW217670   6.270   0.635   3.341
 5591SOL     OW17671   5.242   1.416   6.411
 5591SOL    HW117672   5.300   1.497   6.398
 5591SOL    HW217673   5.146   1.442   6.398
 5592SOL     OW17674   1.319   3.612   2.441
 5592SOL    HW117675   1.255   3.557   2.387
 5592SOL    HW217676   1.313   3.586   2.537
 5593SOL     OW17677   2.146   3.577   5.260
 5593SOL    HW117678   2.083   3.621   5.324
 5593SOL    HW217679   2.186   3.496   5.301
 5594SOL     OW17680   3.028   0.662   6.255
 5594SOL    HW117681   2.964   0.738   6.259
 5594SOL    HW217682   3.120   0.697   6.239
 5595SOL     OW17683   6.859   3.395   0.463
 5595SOL    HW117684   6.786   3.344   0.509
 5595SOL    HW217685   6.920   3.436   0.531
 5596SOL     OW17686   5.115   3.568   4.218
 5596SOL    HW117687   5.030   3.611   4.187
 5596SOL    HW217688   5.096   3.477   4.253
 5597SOL     OW17689   0.197   2.124   6.732
 5597SOL    HW117690   0.271   2.157   6.790
 5597SOL    HW217691   0.158   2.041   6.772
 5598SOL     OW17692   6.294   6.921   3.426
 5598SOL    HW117693   6.394   6.915   3.420
 5598SOL    HW217694   6.268   6.962   3.513
 5599SOL     OW17695   4.885   3.195   3.026
 5599SOL    HW117696   4.839   3.134   3.090
 5599SOL    HW217697   4.822   3.218   2.951
 5600SOL     OW17698   2.053   3.266   1.919
 5600SOL    HW117699   2.006   3.210   1.987
 5600SOL    HW217700   2.097   3.344   1.964
 5601SOL     OW17701   5.025   2.362   6.755
 5601SOL    HW117702   4.931   2.332   6.776
 5601SOL    HW217703   5.065   2.406   6.835
 5602SOL     OW17704   5.778   1.145   2.655
 5602SOL    HW117705   5.817   1.234   2.675
 5602SOL    HW217706   5.807   1.079   2.724
 5603SOL     OW17707   3.889   1.232   6.293
 5603SOL    HW117708   3.973   1.277   6.324
 5603SOL    HW217709   3.911   1.166   6.221
 5604SOL     OW17710   1.548   4.304   3.747
 5604SOL    HW117711   1.644   4.276   3.752
 5604SOL    HW217712   1.497   4.262   3.822
 5605SOL     OW17713   3.452   6.611   4.620
 5605SOL    HW117714   3.427   6.526   4.668
 5605SOL    HW217715   3.369   6.654   4.584
 5606SOL     OW17716   4.572   4.439   1.222
 5606SOL    HW117717   4.551   4.506   1.150
 5606SOL    HW217718   4.646   4.379   1.191
 5607SOL     OW17719   1.628   1.909   2.017
 5607SOL    HW117720   1.680   1.983   2.060
 5607SOL    HW217721   1.641   1.913   1.918
 5608SOL     OW17722   6.377   6.510   3.831
 5608SOL    HW117723   6.401   6.566   3.751
 5608SOL    HW217724   6.352   6.418   3.800
 5609SOL     OW17725   6.949   1.226   0.391
 5609SOL    HW117726   0.023   1.204   0.404
 5609SOL    HW217727   6.930   1.237   0.293
 5610SOL     OW17728   5.370   6.517   6.792
 5610SOL    HW117729   5.341   6.606   6.756
 5610SOL    HW217730   5.457   6.491   6.750
 5611SOL     OW17731   6.752   4.094   1.735
 5611SOL    HW117732   6.683   4.092   1.808
 5611SOL    HW217733   6.843   4.085   1.775
 5612SOL     OW17734   5.371   1.969   1.438
 5612SOL    HW117735   5.445   1.926   1.386
 5612SOL    HW217736   5.395   1.971   1.535
 5613SOL     OW17737   6.696   5.107   5.387
 5613SOL    HW117738   6.751   5.158   5.320
 5613SOL    HW217739   6.754   5.079   5.463
 5614SOL     OW17740   5.493   2.725   4.322
 5614SOL    HW117741   5.552   2.666   4.267
 5614SOL    HW217742   5.538   2.745   4.409
 5615SOL     OW17743   0.724   3.111   2.433
 5615SOL    HW117744   0.648   3.110   2.368
 5615SOL    HW217745   0.782   3.190   2.416
 5616SOL     OW17746   1.901   3.030   1.505
 5616SOL    HW117747   1.804   3.044   1.488
 5616SOL    HW217748   1.913   2.964   1.579
 5617SOL     OW17749   0.177   5.171   4.830
 5617SOL    HW117750   0.167   5.075   4.804
 5617SOL    HW217751   0.114   5.227   4.775
 5618SOL     OW17752   4.998   1.172   2.929
 5618SOL    HW117753   5.056   1.245   2.893
 5618SOL    HW217754   4.905   1.182   2.894
 5619SOL     OW17755   3.777   4.098   4.298
 5619SOL    HW117756   3.684   4.127   4.276
 5619SOL    HW217757   3.791   4.107   4.397
 5620SOL     OW17758   4.707   4.578   5.675
 5620SOL    HW117759   4.699   4.553   5.771
 5620SOL    HW217760   4.764   4.511   5.628
 5621SOL     OW17761   0.991   3.286   0.031
 5621SOL    HW117762   0.954   3.273   0.123
 5621SOL    HW217763   1.065   3.222   0.015
 5622SOL     OW17764   5.465   5.898   3.238
 5622SOL    HW117765   5.392   5.835   3.265
 5622SOL    HW217766   5.450   5.987   3.281
 5623SOL     OW17767   4.339   4.689   3.454
 5623SOL    HW117768   4.362   4.636   3.535
 5623SOL    HW217769   4.337   4.786   3.477
 5624SOL     OW17770   4.780   3.936   3.956
 5624SOL    HW117771   4.731   3.995   4.021
 5624SOL    HW217772   4.865   3.903   3.999
 5625SOL     OW17773   4.168   6.871   6.427
 5625SOL    HW117774   4.201   6.822   6.346
 5625SOL    HW217775   4.072   6.846   6.444
 5626SOL     OW17776   2.040   4.464   5.942
 5626SOL    HW117777   2.058   4.368   5.918
 5626SOL    HW217778   2.126   4.515   5.941
 5627SOL     OW17779   0.848   5.702   0.927
 5627SOL    HW117780   0.786   5.780   0.923
 5627SOL    HW217781   0.898   5.694   0.841
 5628SOL     OW17782   0.955   2.443   7.017
 5628SOL    HW117783   1.010   2.526   7.017
 5628SOL    HW217784   0.906   2.436   0.082
 5629SOL     OW17785   0.702   3.371   4.691
 5629SOL    HW117786   0.728   3.314   4.613
 5629SOL    HW217787   0.620   3.333   4.734
 5630SOL     OW17788   1.030   4.538   6.422
 5630SOL    HW117789   1.068   4.538   6.514
 5630SOL    HW217790   1.104   4.532   6.355
 5631SOL     OW17791   3.200   0.803   3.712
 5631SOL    HW117792   3.182   0.856   3.629
 5631SOL    HW217793   3.114   0.768   3.749
 5632SOL     OW17794   3.005   6.414   6.200
 5632SOL    HW117795   2.961   6.499   6.228
 5632SOL    HW217796   3.034   6.422   6.105
 5633SOL     OW17797   2.070   5.703   4.985
 5633SOL    HW117798   2.058   5.628   4.921
 5633SOL    HW217799   1.993   5.705   5.049
 5634SOL     OW17800   2.475   0.301   1.264
 5634SOL    HW117801   2.413   0.315   1.341
 5634SOL    HW217802   2.422   0.302   1.178
 5635SOL     OW17803   4.224   1.037   2.353
 5635SOL    HW117804   4.245   1.001   2.262
 5635SOL    HW217805   4.136   1.001   2.383
 5636SOL     OW17806   5.042   0.525   4.277
 5636SOL    HW117807   4.955   0.534   4.326
 5636SOL    HW217808   5.033   0.456   4.205
 5637SOL     OW17809   6.005   6.910   5.612
 5637SOL    HW117810   6.001   7.003   5.648
 5637SOL    HW217811   6.073   6.905   5.539
 5638SOL     OW17812   1.184   6.003   0.056
 5638SOL    HW117813   1.099   5.982   0.008
 5638SOL    HW217814   1.259   6.014   7.013
 5639SOL     OW17815   3.418   6.863   1.612
 5639SOL    HW117816   3.504   6.845   1.660
 5639SOL    HW217817   3.343   6.864   1.678
 5640SOL     OW17818   4.488   6.706   4.185
 5640SOL    HW117819   4.430   6.673   4.111
 5640SOL    HW217820   4.511   6.630   4.246
 5641SOL     OW17821   6.505   4.852   3.614
 5641SOL    HW117822   6.508   4.929   3.678
 5641SOL    HW217823   6.461   4.881   3.529
 5642SOL     OW17824   2.106   1.906   6.414
 5642SOL    HW117825   2.073   1.859   6.496
 5642SOL    HW217826   2.110   2.004   6.431
 5643SOL     OW17827   5.268   2.823   3.338
 5643SOL    HW117828   5.234   2.771   3.417
 5643SOL    HW217829   5.366   2.805   3.326
 5644SOL     OW17830   2.986   0.855   6.003
 5644SOL    HW117831   3.080   0.832   6.027
 5644SOL    HW217832   2.950   0.787   5.939
 5645SOL     OW17833   6.497   6.460   4.313
 5645SOL    HW117834   6.567   6.506   4.366
 5645SOL    HW217835   6.409   6.505   4.327
 5646SOL     OW17836   6.475   1.014   2.431
 5646SOL    HW117837   6.503   1.090   2.371
 5646SOL    HW217838   6.552   0.988   2.489
 5647SOL     OW17839   5.750   3.389   6.343
 5647SOL    HW117840   5.724   3.371   6.438
 5647SOL    HW217841   5.772   3.486   6.332
 5648SOL     OW17842   1.500   1.510   3.530
 5648SOL    HW117843   1.502   1.465   3.619
 5648SOL    HW217844   1.407   1.542   3.511
 5649SOL     OW17845   6.647   0.692   4.469
 5649SOL    HW117846   6.572   0.696   4.404
 5649SOL    HW217847   6.612   0.707   4.562
 5650SOL     OW17848   6.318   4.602   5.665
 5650SOL    HW117849   6.364   4.515   5.685
 5650SOL    HW217850   6.236   4.609   5.722
 5651SOL     OW17851   5.736   0.496   3.088
 5651SOL    HW117852   5.835   0.494   3.085
 5651SOL    HW217853   5.706   0.576   3.139
 5652SOL     OW17854   4.443   4.312   6.562
 5652SOL    HW117855   4.345   4.297   6.573
 5652SOL    HW217856   4.467   4.403   6.597
 5653SOL     OW17857   2.040   6.323   6.611
 5653SOL    HW117858   1.984   6.396   6.572
 5653SOL    HW217859   2.100   6.361   6.681
 5654SOL     OW17860   2.605   6.939   0.281
 5654SOL    HW117861   2.597   7.002   0.204
 5654SOL    HW217862   2.635   6.849   0.248
 5655SOL     OW17863   6.267   5.756   2.419
 5655SOL    HW117864   6.303   5.678   2.470
 5655SOL    HW217865   6.339   5.824   2.406
 5656SOL     OW17866   3.330   5.075   6.363
 5656SOL    HW117867   3.314   5.130   6.445
 5656SOL    HW217868   3.337   4.978   6.389
 5657SOL     OW17869   4.950   5.524   2.114
 5657SOL    HW117870   4.857   5.491   2.098
 5657SOL    HW217871   5.014   5.476   2.055
 5658SOL     OW17872   4.755   6.488   5.831
 5658SOL    HW117873   4.749   6.472   5.732
 5658SOL    HW217874   4.807   6.414   5.874
 5659SOL     OW17875   2.929   3.656   2.234
 5659SOL    HW117876   2.871   3.587   2.278
 5659SOL    HW217877   2.969   3.618   2.151
 5660SOL     OW17878   0.197   5.346   1.900
 5660SOL    HW117879   0.241   5.323   1.987
 5660SOL    HW217880   0.212   5.443   1.880
 5661SOL     OW17881   6.028   5.778   4.533
 5661SOL    HW117882   6.012   5.861   4.480
 5661SOL    HW217883   5.940   5.741   4.564
 5662SOL     OW17884   1.686   3.934   4.648
 5662SOL    HW117885   1.761   3.883   4.607
 5662SOL    HW217886   1.661   3.893   4.736
 5663SOL     OW17887   2.436   3.916   0.407
 5663SOL    HW117888   2.503   3.954   0.342
 5663SOL    HW217889   2.481   3.900   0.495
 5664SOL     OW17890   6.469   6.887   1.489
 5664SOL    HW117891   6.511   6.976   1.507
 5664SOL    HW217892   6.540   6.820   1.468
 5665SOL     OW17893   1.548   0.648   5.759
 5665SOL    HW117894   1.594   0.632   5.846
 5665SOL    HW217895   1.615   0.683   5.693
 5666SOL     OW17896   5.102   6.131   6.927
 5666SOL    HW117897   5.114   6.137   6.828
 5666SOL    HW217898   5.154   6.054   6.963
 5667SOL     OW17899   5.280   4.356   3.222
 5667SOL    HW117900   5.243   4.358   3.315
 5667SOL    HW217901   5.205   4.358   3.156
 5668SOL     OW17902   6.105   2.354   6.577
 5668SOL    HW117903   6.090   2.426   6.510
 5668SOL    HW217904   6.175   2.383   6.642
 5669SOL     OW17905   0.428   1.993   5.233
 5669SOL    HW117906   0.428   2.008   5.332
 5669SOL    HW217907   0.361   2.054   5.190
 5670SOL     OW17908   1.544   3.166   1.747
 5670SOL    HW117909   1.631   3.135   1.784
 5670SOL    HW217910   1.549   3.169   1.647
 5671SOL     OW17911   0.843   0.724   5.970
 5671SOL    HW117912   0.747   0.698   5.964
 5671SOL    HW217913   0.859   0.807   5.916
 5672SOL     OW17914   4.289   4.581   5.820
 5672SOL    HW117915   4.320   4.519   5.748
 5672SOL    HW217916   4.203   4.547   5.859
 5673SOL     OW17917   2.139   6.600   1.421
 5673SOL    HW117918   2.223   6.635   1.464
 5673SOL    HW217919   2.060   6.629   1.475
 5674SOL     OW17920   0.656   2.962   0.890
 5674SOL    HW117921   0.590   3.025   0.930
 5674SOL    HW217922   0.619   2.926   0.804
 5675SOL     OW17923   3.931   1.292   5.356
 5675SOL    HW117924   3.957   1.250   5.269
 5675SOL    HW217925   3.832   1.290   5.366
 5676SOL     OW17926   2.151   6.479   2.359
 5676SOL    HW117927   2.140   6.406   2.428
 5676SOL    HW217928   2.179   6.563   2.405
 5677SOL     OW17929   5.920   0.098   2.936
 5677SOL    HW117930   5.880   0.014   2.898
 5677SOL    HW217931   5.859   0.135   3.006
 5678SOL     OW17932   1.608   5.322   2.798
 5678SOL    HW117933   1.648   5.387   2.733
 5678SOL    HW217934   1.516   5.353   2.822
 5679SOL     OW17935   3.656   5.983   5.769
 5679SOL    HW117936   3.751   5.974   5.799
 5679SOL    HW217937   3.654   6.001   5.670
 5680SOL     OW17938   1.714   0.316   6.516
 5680SOL    HW117939   1.746   0.378   6.588
 5680SOL    HW217940   1.615   0.307   6.522
 5681SOL     OW17941   3.192   3.651   0.323
 5681SOL    HW117942   3.289   3.631   0.305
 5681SOL    HW217943   3.178   3.662   0.422
 5682SOL     OW17944   2.142   3.538   4.506
 5682SOL    HW117945   2.098   3.618   4.467
 5682SOL    HW217946   2.118   3.530   4.603
 5683SOL     OW17947   3.330   3.739   4.940
 5683SOL    HW117948   3.315   3.791   4.856
 5683SOL    HW217949   3.339   3.642   4.918
 5684SOL     OW17950   3.442   4.132   2.901
 5684SOL    HW117951   3.467   4.145   2.996
 5684SOL    HW217952   3.514   4.168   2.841
 5685SOL     OW17953   0.343   0.201   1.635
 5685SOL    HW117954   0.294   0.211   1.722
 5685SOL    HW217955   0.365   0.292   1.599
 5686SOL     OW17956   3.592   4.965   6.520
 5686SOL    HW117957   3.576   4.995   6.426
 5686SOL    HW217958   3.682   4.923   6.527
 5687SOL     OW17959   4.515   6.038   6.389
 5687SOL    HW117960   4.453   6.068   6.461
 5687SOL    HW217961   4.582   6.110   6.370
 5688SOL     OW17962   5.142   1.597   2.553
 5688SOL    HW117963   5.225   1.596   2.497
 5688SOL    HW217964   5.071   1.543   2.507
 5689SOL     OW17965   3.769   2.926   4.985
 5689SOL    HW117966   3.681   2.894   5.021
 5689SOL    HW217967   3.842   2.863   5.015
 5690SOL     OW17968   3.810   0.333   2.932
 5690SOL    HW117969   3.808   0.245   2.886
 5690SOL    HW217970   3.800   0.320   3.030
 5691SOL     OW17971   3.319   0.573   4.519
 5691SOL    HW117972   3.305   0.474   4.532
 5691SOL    HW217973   3.305   0.619   4.607
 5692SOL     OW17974   6.065   2.809   0.599
 5692SOL    HW117975   5.968   2.800   0.575
 5692SOL    HW217976   6.089   2.905   0.606
 5693SOL     OW17977   5.416   3.241   1.815
 5693SOL    HW117978   5.392   3.321   1.760
 5693SOL    HW217979   5.495   3.195   1.775
 5694SOL     OW17980   1.832   2.212   5.027
 5694SOL    HW117981   1.922   2.242   5.056
 5694SOL    HW217982   1.778   2.290   4.995
 5695SOL     OW17983   1.899   3.419   3.536
 5695SOL    HW117984   1.818   3.361   3.536
 5695SOL    HW217985   1.955   3.399   3.616
 5696SOL     OW17986   3.553   1.505   6.792
 5696SOL    HW117987   3.499   1.583   6.760
 5696SOL    HW217988   3.542   1.428   6.729
 5697SOL     OW17989   6.621   4.011   0.508
 5697SOL    HW117990   6.585   4.013   0.601
 5697SOL    HW217991   6.657   3.920   0.487
 5698SOL     OW17992   1.778   4.354   4.360
 5698SOL    HW117993   1.754   4.390   4.450
 5698SOL    HW217994   1.697   4.359   4.300
 5699SOL     OW17995   1.010   2.749   4.959
 5699SOL    HW117996   1.101   2.764   4.996
 5699SOL    HW217997   0.944   2.747   5.034
 5700SOL     OW17998   1.328   5.132   4.144
 5700SOL    HW117999   1.356   5.155   4.051
 5700SOL    HW218000   1.395   5.167   4.209
 5701SOL     OW18001   4.903   2.165   2.434
 5701SOL    HW118002   4.834   2.098   2.409
 5701SOL    HW218003   4.868   2.258   2.421
 5702SOL     OW18004   3.948   0.534   6.713
 5702SOL    HW118005   3.861   0.534   6.763
 5702SOL    HW218006   4.017   0.582   6.768
 5703SOL     OW18007   5.151   4.093   2.705
 5703SOL    HW118008   5.104   4.145   2.634
 5703SOL    HW218009   5.233   4.050   2.666
 5704SOL     OW18010   5.193   3.886   3.452
 5704SOL    HW118011   5.279   3.934   3.471
 5704SOL    HW218012   5.134   3.944   3.395
 5705SOL     OW18013   6.879   1.013   3.637
 5705SOL    HW118014   6.930   1.083   3.688
 5705SOL    HW218015   6.835   0.950   3.701
 5706SOL     OW18016   2.130   1.395   6.049
 5706SOL    HW118017   2.176   1.360   6.130
 5706SOL    HW218018   2.151   1.337   5.970
 5707SOL     OW18019   4.169   1.150   1.056
 5707SOL    HW118020   4.144   1.188   0.967
 5707SOL    HW218021   4.102   1.176   1.124
 5708SOL     OW18022   0.995   6.846   0.577
 5708SOL    HW118023   0.903   6.826   0.545
 5708SOL    HW218024   1.059   6.779   0.539
 5709SOL     OW18025   0.455   2.643   0.892
 5709SOL    HW118026   0.414   2.710   0.830
 5709SOL    HW218027   0.530   2.686   0.943
 5710SOL     OW18028   3.554   5.181   6.717
 5710SOL    HW118029   3.641   5.230   6.720
 5710SOL    HW218030   3.567   5.091   6.676
 5711SOL     OW18031   4.525   1.658   4.723
 5711SOL    HW118032   4.595   1.598   4.761
 5711SOL    HW218033   4.434   1.624   4.747
 5712SOL     OW18034   5.379   6.731   6.624
 5712SOL    HW118035   5.451   6.795   6.599
 5712SOL    HW218036   5.363   6.667   6.549
 5713SOL     OW18037   0.183   4.029   2.717
 5713SOL    HW118038   0.148   3.951   2.666
 5713SOL    HW218039   0.248   3.998   2.785
 5714SOL     OW18040   2.339   0.761   1.152
 5714SOL    HW118041   2.437   0.749   1.136
 5714SOL    HW218042   2.290   0.679   1.122
 5715SOL     OW18043   0.249   6.180   3.752
 5715SOL    HW118044   0.342   6.176   3.787
 5715SOL    HW218045   0.246   6.240   3.672
 5716SOL     OW18046   1.556   2.565   5.295
 5716SOL    HW118047   1.582   2.600   5.205
 5716SOL    HW218048   1.561   2.466   5.296
 5717SOL     OW18049   0.679   3.685   5.779
 5717SOL    HW118050   0.746   3.707   5.850
 5717SOL    HW218051   0.727   3.648   5.699
 5718SOL     OW18052   3.221   5.927   5.950
 5718SOL    HW118053   3.275   5.883   6.021
 5718SOL    HW218054   3.245   6.024   5.945
 5719SOL     OW18055   2.249   0.949   6.814
 5719SOL    HW118056   2.238   0.988   6.906
 5719SOL    HW218057   2.213   1.013   6.746
 5720SOL     OW18058   2.374   6.001   4.084
 5720SOL    HW118059   2.367   5.944   4.166
 5720SOL    HW218060   2.382   5.943   4.003
 5721SOL     OW18061   6.399   5.156   6.492
 5721SOL    HW118062   6.390   5.182   6.588
 5721SOL    HW218063   6.343   5.217   6.436
 5722SOL     OW18064   5.226   1.001   4.530
 5722SOL    HW118065   5.258   1.090   4.499
 5722SOL    HW218066   5.176   0.956   4.457
 5723SOL     OW18067   6.662   4.665   0.964
 5723SOL    HW118068   6.705   4.638   0.878
 5723SOL    HW218069   6.657   4.586   1.025
 5724SOL     OW18070   4.701   2.689   6.159
 5724SOL    HW118071   4.742   2.780   6.154
 5724SOL    HW218072   4.765   2.626   6.204
 5725SOL     OW18073   5.904   6.672   5.501
 5725SOL    HW118074   5.911   6.615   5.583
 5725SOL    HW218075   5.932   6.766   5.523
 5726SOL     OW18076   3.738   5.224   5.427
 5726SOL    HW118077   3.829   5.183   5.419
 5726SOL    HW218078   3.671   5.167   5.379
 5727SOL     OW18079   5.753   2.377   3.542
 5727SOL    HW118080   5.712   2.289   3.569
 5727SOL    HW218081   5.782   2.372   3.447
 5728SOL     OW18082   3.706   1.220   5.566
 5728SOL    HW118083   3.787   1.268   5.600
 5728SOL    HW218084   3.641   1.207   5.641
 5729SOL     OW18085   2.658   2.434   4.036
 5729SOL    HW118086   2.707   2.361   3.988
 5729SOL    HW218087   2.677   2.428   4.134
 5730SOL     OW18088   4.049   4.577   0.404
 5730SOL    HW118089   4.096   4.577   0.493
 5730SOL    HW218090   4.102   4.631   0.339
 5731SOL     OW18091   4.594   1.162   5.358
 5731SOL    HW118092   4.590   1.201   5.266
 5731SOL    HW218093   4.524   1.205   5.416
 5732SOL     OW18094   6.723   3.957   4.122
 5732SOL    HW118095   6.777   3.873   4.124
 5732SOL    HW218096   6.648   3.951   4.187
 5733SOL     OW18097   2.262   6.590   1.181
 5733SOL    HW118098   2.209   6.592   1.266
 5733SOL    HW218099   2.295   6.682   1.160
 5734SOL     OW18100   1.887   0.139   5.591
 5734SOL    HW118101   1.917   0.120   5.497
 5734SOL    HW218102   1.967   0.154   5.649
 5735SOL     OW18103   5.369   1.348   0.727
 5735SOL    HW118104   5.291   1.358   0.665
 5735SOL    HW218105   5.408   1.438   0.747
 5736SOL     OW18106   4.688   3.419   6.686
 5736SOL    HW118107   4.732   3.416   6.596
 5736SOL    HW218108   4.741   3.479   6.747
 5737SOL     OW18109   5.250   5.571   2.506
 5737SOL    HW118110   5.262   5.627   2.423
 5737SOL    HW218111   5.172   5.510   2.494
 5738SOL     OW18112   3.389   1.704   1.051
 5738SOL    HW118113   3.353   1.772   0.987
 5738SOL    HW218114   3.489   1.707   1.050
 5739SOL     OW18115   2.225   1.235   5.855
 5739SOL    HW118116   2.241   1.147   5.899
 5739SOL    HW218117   2.247   1.228   5.757
 5740SOL     OW18118   4.652   2.698   2.602
 5740SOL    HW118119   4.630   2.618   2.658
 5740SOL    HW218120   4.651   2.672   2.505
 5741SOL     OW18121   1.707   3.452   3.974
 5741SOL    HW118122   1.686   3.446   4.072
 5741SOL    HW218123   1.655   3.527   3.934
 5742SOL     OW18124   6.084   5.015   2.385
 5742SOL    HW118125   6.180   4.994   2.365
 5742SOL    HW218126   6.068   5.113   2.374
 5743SOL     OW18127   3.528   6.766   6.627
 5743SOL    HW118128   3.584   6.817   6.692
 5743SOL    HW218129   3.448   6.728   6.675
 5744SOL     OW18130   5.269   5.705   3.380
 5744SOL    HW118131   5.266   5.759   3.464
 5744SOL    HW218132   5.180   5.708   3.335
 5745SOL     OW18133   1.060   3.235   2.034
 5745SOL    HW118134   1.079   3.155   1.976
 5745SOL    HW218135   1.061   3.317   1.978
 5746SOL     OW18136   5.300   0.885   3.597
 5746SOL    HW118137   5.318   0.798   3.551
 5746SOL    HW218138   5.387   0.928   3.623
 5747SOL     OW18139   1.432   6.500   2.112
 5747SOL    HW118140   1.472   6.591   2.115
 5747SOL    HW218141   1.338   6.505   2.079
 5748SOL     OW18142   6.317   6.710   0.192
 5748SOL    HW118143   6.358   6.800   0.178
 5748SOL    HW218144   6.230   6.721   0.242
 5749SOL     OW18145   1.977   6.555   6.463
 5749SOL    HW118146   2.062   6.606   6.480
 5749SOL    HW218147   1.905   6.619   6.438
 5750SOL     OW18148   6.365   2.448   4.228
 5750SOL    HW118149   6.391   2.417   4.319
 5750SOL    HW218150   6.394   2.543   4.215
 5751SOL     OW18151   0.201   4.025   4.009
 5751SOL    HW118152   0.121   4.037   3.950
 5751SOL    HW218153   0.173   4.035   4.105
 5752SOL     OW18154   5.873   1.472   6.781
 5752SOL    HW118155   5.821   1.398   6.823
 5752SOL    HW218156   5.859   1.557   6.833
 5753SOL     OW18157   3.634   3.253   4.360
 5753SOL    HW118158   3.602   3.334   4.410
 5753SOL    HW218159   3.730   3.238   4.380
 5754SOL     OW18160   6.298   0.121   1.005
 5754SOL    HW118161   6.307   0.124   0.905
 5754SOL    HW218162   6.275   0.212   1.039
 5755SOL     OW18163   0.598   3.804   6.633
 5755SOL    HW118164   0.507   3.816   6.595
 5755SOL    HW218165   0.615   3.707   6.650
 5756SOL     OW18166   6.034   6.545   1.714
 5756SOL    HW118167   6.052   6.451   1.742
 5756SOL    HW218168   5.936   6.556   1.695
 5757SOL     OW18169   1.342   1.945   3.613
 5757SOL    HW118170   1.302   1.935   3.522
 5757SOL    HW218171   1.335   1.858   3.662
 5758SOL     OW18172   5.955   6.677   3.092
 5758SOL    HW118173   5.926   6.767   3.126
 5758SOL    HW218174   5.943   6.609   3.164
 5759SOL     OW18175   2.335   6.398   2.751
 5759SOL    HW118176   2.305   6.493   2.756
 5759SOL    HW218177   2.406   6.381   2.819
 5760SOL     OW18178   0.641   2.178   0.130
 5760SOL    HW118179   0.565   2.235   0.099
 5760SOL    HW218180   0.608   2.085   0.146
 5761SOL     OW18181   6.234   6.838   5.483
 5761SOL    HW118182   6.237   6.741   5.460
 5761SOL    HW218183   6.327   6.876   5.477
 5762SOL     OW18184   0.927   6.085   5.485
 5762SOL    HW118185   0.960   6.091   5.579
 5762SOL    HW218186   0.831   6.056   5.485
 5763SOL     OW18187   5.066   0.647   0.110
 5763SOL    HW118188   4.985   0.695   0.145
 5763SOL    HW218189   5.068   0.554   0.146
 5764SOL     OW18190   3.769   6.387   4.094
 5764SOL    HW118191   3.837   6.431   4.035
 5764SOL    HW218192   3.677   6.406   4.058
 5765SOL     OW18193   6.937   6.854   2.481
 5765SOL    HW118194   6.972   6.857   2.574
 5765SOL    HW218195   6.839   6.835   2.483
 5766SOL     OW18196   0.546   0.806   4.720
 5766SOL    HW118197   0.569   0.734   4.785
 5766SOL    HW218198   0.621   0.873   4.716
 5767SOL     OW18199   6.270   6.350   0.426
 5767SOL    HW118200   6.193   6.310   0.475
 5767SOL    HW218201   6.356   6.320   0.468
 5768SOL     OW18202   0.898   0.601   4.883
 5768SOL    HW118203   0.973   0.665   4.873
 5768SOL    HW218204   0.889   0.575   4.979
 5769SOL     OW18205   1.419   2.590   6.083
 5769SOL    HW118206   1.495   2.542   6.039
 5769SOL    HW218207   1.425   2.688   6.063
 5770SOL     OW18208   1.291   3.914   2.443
 5770SOL    HW118209   1.304   3.934   2.540
 5770SOL    HW218210   1.287   3.815   2.430
 5771SOL     OW18211   2.501   6.327   2.945
 5771SOL    HW118212   2.540   6.410   2.983
 5771SOL    HW218213   2.572   6.257   2.936
 5772SOL     OW18214   2.678   0.747   3.439
 5772SOL    HW118215   2.686   0.824   3.502
 5772SOL    HW218216   2.581   0.723   3.429
 5773SOL     OW18217   5.768   0.558   4.591
 5773SOL    HW118218   5.792   0.516   4.503
 5773SOL    HW218219   5.848   0.555   4.652
 5774SOL     OW18220   0.948   5.945   3.648
 5774SOL    HW118221   1.025   5.939   3.711
 5774SOL    HW218222   0.980   5.977   3.559
 5775SOL     OW18223   5.245   4.729   2.605
 5775SOL    HW118224   5.298   4.809   2.577
 5775SOL    HW218225   5.151   4.757   2.628
 5776SOL     OW18226   3.549   0.624   4.127
 5776SOL    HW118227   3.648   0.613   4.128
 5776SOL    HW218228   3.524   0.695   4.061
 5777SOL     OW18229   0.764   0.825   1.757
 5777SOL    HW118230   0.677   0.833   1.806
 5777SOL    HW218231   0.764   0.887   1.679
 5778SOL     OW18232   0.266   0.833   0.317
 5778SOL    HW118233   0.173   0.829   0.353
 5778SOL    HW218234   0.267   0.876   0.227
 5779SOL     OW18235   5.658   1.438   0.262
 5779SOL    HW118236   5.741   1.489   0.239
 5779SOL    HW218237   5.624   1.390   0.181
 5780SOL     OW18238   5.159   5.038   4.665
 5780SOL    HW118239   5.114   5.108   4.608
 5780SOL    HW218240   5.250   5.070   4.691
 5781SOL     OW18241   1.379   6.031   6.117
 5781SOL    HW118242   1.285   6.057   6.140
 5781SOL    HW218243   1.380   5.983   6.029
 5782SOL     OW18244   6.171   0.738   1.210
 5782SOL    HW118245   6.195   0.835   1.208
 5782SOL    HW218246   6.223   0.693   1.283
 5783SOL     OW18247   2.413   2.384   6.544
 5783SOL    HW118248   2.450   2.446   6.475
 5783SOL    HW218249   2.454   2.293   6.532
 5784SOL     OW18250   6.892   6.331   0.426
 5784SOL    HW118251   6.885   6.420   0.382
 5784SOL    HW218252   6.940   6.340   0.513
 5785SOL     OW18253   1.897   1.339   2.014
 5785SOL    HW118254   1.925   1.393   2.094
 5785SOL    HW218255   1.965   1.349   1.942
 5786SOL     OW18256   6.261   5.756   1.971
 5786SOL    HW118257   6.265   5.726   1.876
 5786SOL    HW218258   6.350   5.793   1.998
 5787SOL     OW18259   1.722   3.296   6.741
 5787SOL    HW118260   1.814   3.292   6.779
 5787SOL    HW218261   1.718   3.243   6.657
 5788SOL     OW18262   3.338   0.431   3.330
 5788SOL    HW118263   3.383   0.502   3.383
 5788SOL    HW218264   3.276   0.379   3.389
 5789SOL     OW18265   2.939   4.535   6.221
 5789SOL    HW118266   2.940   4.631   6.192
 5789SOL    HW218267   2.867   4.522   6.289
 5790SOL     OW18268   1.629   3.884   3.869
 5790SOL    HW118269   1.589   3.870   3.959
 5790SOL    HW218270   1.720   3.924   3.878
 5791SOL     OW18271   1.214   0.727   3.445
 5791SOL    HW118272   1.123   0.750   3.411
 5791SOL    HW218273   1.268   0.810   3.456
 5792SOL     OW18274   0.721   2.341   3.314
 5792SOL    HW118275   0.688   2.421   3.365
 5792SOL    HW218276   0.732   2.366   3.218
 5793SOL     OW18277   6.084   1.260   5.378
 5793SOL    HW118278   6.138   1.186   5.417
 5793SOL    HW218279   6.023   1.223   5.308
 5794SOL     OW18280   0.082   3.865   6.445
 5794SOL    HW118281   0.006   3.909   6.493
 5794SOL    HW218282   0.047   3.817   6.364
 5795SOL     OW18283   6.807   4.664   6.461
 5795SOL    HW118284   6.794   4.700   6.554
 5795SOL    HW218285   6.718   4.645   6.420
 5796SOL     OW18286   2.484   2.052   0.668
 5796SOL    HW118287   2.571   2.098   0.652
 5796SOL    HW218288   2.449   2.078   0.758
 5797SOL     OW18289   3.174   3.212   5.312
 5797SOL    HW118290   3.258   3.174   5.275
 5797SOL    HW218291   3.179   3.312   5.311
 5798SOL     OW18292   6.643   4.890   4.011
 5798SOL    HW118293   6.660   4.820   3.941
 5798SOL    HW218294   6.649   4.981   3.970
 5799SOL     OW18295   5.426   0.233   4.132
 5799SOL    HW118296   5.436   0.209   4.229
 5799SOL    HW218297   5.516   0.243   4.091
 5800SOL     OW18298   5.631   6.457   6.727
 5800SOL    HW118299   5.680   6.387   6.778
 5800SOL    HW218300   5.697   6.518   6.682
 5801SOL     OW18301   1.640   1.469   1.953
 5801SOL    HW118302   1.612   1.467   2.049
 5801SOL    HW218303   1.731   1.430   1.944
 5802SOL     OW18304   0.148   2.565   4.586
 5802SOL    HW118305   0.164   2.627   4.509
 5802SOL    HW218306   0.063   2.515   4.571
 5803SOL     OW18307   1.573   5.139   1.289
 5803SOL    HW118308   1.575   5.208   1.361
 5803SOL    HW218309   1.666   5.123   1.256
 5804SOL     OW18310   0.142   3.131   6.210
 5804SOL    HW118311   0.212   3.070   6.174
 5804SOL    HW218312   0.080   3.159   6.137
 5805SOL     OW18313   4.922   3.505   6.875
 5805SOL    HW118314   4.975   3.589   6.885
 5805SOL    HW218315   4.952   3.439   6.944
 5806SOL     OW18316   6.514   6.631   6.263
 5806SOL    HW118317   6.497   6.566   6.189
 5806SOL    HW218318   6.446   6.704   6.259
 5807SOL     OW18319   2.594   4.060   1.681
 5807SOL    HW118320   2.612   3.964   1.703
 5807SOL    HW218321   2.673   4.099   1.634
 5808SOL     OW18322   6.668   1.776   3.365
 5808SOL    HW118323   6.747   1.834   3.385
 5808SOL    HW218324   6.586   1.833   3.353
 5809SOL     OW18325   0.636   2.596   3.931
 5809SOL    HW118326   0.674   2.665   3.868
 5809SOL    HW218327   0.708   2.530   3.954
 5810SOL     OW18328   3.039   2.044   2.808
 5810SOL    HW118329   3.031   1.952   2.770
 5810SOL    HW218330   3.085   2.103   2.741
 5811SOL     OW18331   2.439   0.080   1.636
 5811SOL    HW118332   2.463   0.040   1.725
 5811SOL    HW218333   2.515   0.136   1.604
 5812SOL     OW18334   4.330   0.311   4.254
 5812SOL    HW118335   4.371   0.388   4.303
 5812SOL    HW218336   4.371   0.226   4.285
 5813SOL     OW18337   1.851   2.033   5.242
 5813SOL    HW118338   1.883   2.066   5.331
 5813SOL    HW218339   1.889   2.091   5.170
 5814SOL     OW18340   0.383   5.209   1.504
 5814SOL    HW118341   0.340   5.147   1.569
 5814SOL    HW218342   0.477   5.179   1.485
 5815SOL     OW18343   4.059   6.682   4.558
 5815SOL    HW118344   4.111   6.656   4.639
 5815SOL    HW218345   4.111   6.751   4.507
 5816SOL     OW18346   5.466   6.411   0.334
 5816SOL    HW118347   5.378   6.364   0.332
 5816SOL    HW218348   5.538   6.344   0.355
 5817SOL     OW18349   5.907   2.713   6.225
 5817SOL    HW118350   5.835   2.690   6.160
 5817SOL    HW218351   5.957   2.793   6.193
 5818SOL     OW18352   6.303   6.797   5.103
 5818SOL    HW118353   6.321   6.887   5.064
 5818SOL    HW218354   6.274   6.734   5.030
 5819SOL     OW18355   6.874   0.137   1.215
 5819SOL    HW118356   6.932   0.117   1.136
 5819SOL    HW218357   6.929   0.135   1.298
 5820SOL     OW18358   5.400   4.807   2.013
 5820SOL    HW118359   5.330   4.737   2.003
 5820SOL    HW218360   5.468   4.798   1.940
 5821SOL     OW18361   2.967   6.791   2.583
 5821SOL    HW118362   2.923   6.733   2.514
 5821SOL    HW218363   2.938   6.885   2.572
 5822SOL     OW18364   6.963   1.050   2.634
 5822SOL    HW118365   6.876   1.015   2.669
 5822SOL    HW218366   0.007   0.975   2.627
 5823SOL     OW18367   1.840   2.785   3.829
 5823SOL    HW118368   1.783   2.866   3.837
 5823SOL    HW218369   1.783   2.706   3.806
 5824SOL     OW18370   5.000   0.124   3.558
 5824SOL    HW118371   4.922   0.173   3.518
 5824SOL    HW218372   4.979   0.027   3.565
 5825SOL     OW18373   3.428   1.157   1.400
 5825SOL    HW118374   3.464   1.074   1.359
 5825SOL    HW218375   3.389   1.215   1.328
 5826SOL     OW18376   0.451   6.658   3.964
 5826SOL    HW118377   0.359   6.619   3.952
 5826SOL    HW218378   0.475   6.712   3.883
 5827SOL     OW18379   2.067   4.797   5.776
 5827SOL    HW118380   2.078   4.722   5.711
 5827SOL    HW218381   2.152   4.808   5.829
 5828SOL     OW18382   6.219   1.896   1.340
 5828SOL    HW118383   6.296   1.950   1.307
 5828SOL    HW218384   6.232   1.800   1.316
 5829SOL     OW18385   2.036   1.332   1.503
 5829SOL    HW118386   2.082   1.298   1.421
 5829SOL    HW218387   1.945   1.366   1.478
 5830SOL     OW18388   1.306   0.976   5.723
 5830SOL    HW118389   1.363   0.896   5.701
 5830SOL    HW218390   1.304   1.038   5.645
 5831SOL     OW18391   5.788   5.283   2.976
 5831SOL    HW118392   5.850   5.346   2.929
 5831SOL    HW218393   5.755   5.324   3.060
 5832SOL     OW18394   3.597   3.529   4.625
 5832SOL    HW118395   3.525   3.475   4.669
 5832SOL    HW218396   3.556   3.590   4.557
 5833SOL     OW18397   3.076   3.118   4.763
 5833SOL    HW118398   3.145   3.046   4.754
 5833SOL    HW218399   3.054   3.155   4.673
 5834SOL     OW18400   6.073   1.063   6.839
 5834SOL    HW118401   5.986   1.015   6.832
 5834SOL    HW218402   6.092   1.113   6.755
 5835SOL     OW18403   5.374   2.549   3.953
 5835SOL    HW118404   5.309   2.531   3.880
 5835SOL    HW218405   5.377   2.648   3.972
 5836SOL     OW18406   3.544   0.187   3.783
 5836SOL    HW118407   3.555   0.097   3.741
 5836SOL    HW218408   3.538   0.176   3.882
 5837SOL     OW18409   4.386   3.697   6.311
 5837SOL    HW118410   4.472   3.711   6.263
 5837SOL    HW218411   4.362   3.781   6.360
 5838SOL     OW18412   0.741   1.439   6.080
 5838SOL    HW118413   0.691   1.522   6.103
 5838SOL    HW218414   0.696   1.394   6.003
 5839SOL     OW18415   6.682   2.430   2.198
 5839SOL    HW118416   6.680   2.373   2.116
 5839SOL    HW218417   6.719   2.377   2.274
 5840SOL     OW18418   3.359   5.780   0.545
 5840SOL    HW118419   3.392   5.844   0.615
 5840SOL    HW218420   3.427   5.709   0.530
 5841SOL     OW18421   6.422   1.882   3.311
 5841SOL    HW118422   6.398   1.788   3.287
 5841SOL    HW218423   6.353   1.918   3.375
 5842SOL     OW18424   3.671   1.865   1.361
 5842SOL    HW118425   3.642   1.807   1.285
 5842SOL    HW218426   3.769   1.851   1.379
 5843SOL     OW18427   0.127   2.590   1.125
 5843SOL    HW118428   0.172   2.512   1.081
 5843SOL    HW218429   0.181   2.673   1.110
 5844SOL     OW18430   1.694   6.406   6.329
 5844SOL    HW118431   1.598   6.379   6.326
 5844SOL    HW218432   1.729   6.415   6.236
 5845SOL     OW18433   1.848   2.729   4.708
 5845SOL    HW118434   1.843   2.732   4.808
 5845SOL    HW218435   1.912   2.797   4.675
 5846SOL     OW18436   0.437   3.768   6.953
 5846SOL    HW118437   0.444   3.691   7.017
 5846SOL    HW218438   0.470   3.851   6.997
 5847SOL     OW18439   1.650   2.578   4.345
 5847SOL    HW118440   1.648   2.605   4.441
 5847SOL    HW218441   1.746   2.570   4.316
 5848SOL     OW18442   0.720   4.650   3.421
 5848SOL    HW118443   0.764   4.733   3.456
 5848SOL    HW218444   0.704   4.586   3.496
 5849SOL     OW18445   2.673   0.194   6.001
 5849SOL    HW118446   2.709   0.244   6.080
 5849SOL    HW218447   2.576   0.175   6.015
 5850SOL     OW18448   0.796   4.347   2.852
 5850SOL    HW118449   0.705   4.313   2.827
 5850SOL    HW218450   0.859   4.269   2.861
 5851SOL     OW18451   6.318   2.811   1.957
 5851SOL    HW118452   6.404   2.824   2.007
 5851SOL    HW218453   6.246   2.867   1.999
 5852SOL     OW18454   4.137   6.383   3.136
 5852SOL    HW118455   4.126   6.284   3.143
 5852SOL    HW218456   4.164   6.420   3.225
 5853SOL     OW18457   4.912   4.002   5.155
 5853SOL    HW118458   4.933   3.904   5.152
 5853SOL    HW218459   4.995   4.053   5.178
 5854SOL     OW18460   1.350   1.463   6.655
 5854SOL    HW118461   1.382   1.377   6.696
 5854SOL    HW218462   1.279   1.503   6.712
 5855SOL     OW18463   1.463   1.700   4.325
 5855SOL    HW118464   1.536   1.636   4.301
 5855SOL    HW218465   1.412   1.664   4.403
 5856SOL     OW18466   0.846   6.262   3.106
 5856SOL    HW118467   0.922   6.281   3.168
 5856SOL    HW218468   0.767   6.229   3.158
 5857SOL     OW18469   0.277   2.359   5.281
 5857SOL    HW118470   0.331   2.382   5.199
 5857SOL    HW218471   0.320   2.282   5.329
 5858SOL     OW18472   2.881   6.749   3.807
 5858SOL    HW118473   2.883   6.841   3.766
 5858SOL    HW218474   2.865   6.681   3.735
 5859SOL     OW18475   5.768   5.609   1.973
 5859SOL    HW118476   5.717   5.569   2.050
 5859SOL    HW218477   5.846   5.550   1.950
 5860SOL     OW18478   6.866   4.413   0.723
 5860SOL    HW118479   6.882   4.352   0.801
 5860SOL    HW218480   6.768   4.432   0.715
 5861SOL     OW18481   6.296   1.633   4.142
 5861SOL    HW118482   6.322   1.542   4.108
 5861SOL    HW218483   6.198   1.634   4.161
 5862SOL     OW18484   5.864   5.132   3.844
 5862SOL    HW118485   5.843   5.228   3.824
 5862SOL    HW218486   5.833   5.110   3.936
 5863SOL     OW18487   2.310   1.211   0.330
 5863SOL    HW118488   2.388   1.248   0.380
 5863SOL    HW218489   2.227   1.259   0.358
 5864SOL     OW18490   4.884   5.156   0.710
 5864SOL    HW118491   4.816   5.118   0.773
 5864SOL    HW218492   4.886   5.102   0.626
 5865SOL     OW18493   4.343   0.999   2.972
 5865SOL    HW118494   4.336   1.015   3.070
 5865SOL    HW218495   4.426   0.945   2.954
 5866SOL     OW18496   3.406   1.703   6.730
 5866SOL    HW118497   3.450   1.764   6.796
 5866SOL    HW218498   3.328   1.658   6.774
 5867SOL     OW18499   6.588   2.825   2.043
 5867SOL    HW118500   6.662   2.815   1.976
 5867SOL    HW218501   6.601   2.910   2.094
 5868SOL     OW18502   0.309   6.294   5.165
 5868SOL    HW118503   0.330   6.233   5.089
 5868SOL    HW218504   0.382   6.289   5.234
 5869SOL     OW18505   2.468   4.982   4.122
 5869SOL    HW118506   2.434   4.987   4.216
 5869SOL    HW218507   2.565   4.961   4.122
 5870SOL     OW18508   5.125   5.889   4.107
 5870SOL    HW118509   5.047   5.842   4.066
 5870SOL    HW218510   5.104   5.911   4.202
 5871SOL     OW18511   3.575   4.683   0.441
 5871SOL    HW118512   3.631   4.607   0.409
 5871SOL    HW218513   3.624   4.769   0.426
 5872SOL     OW18514   4.228   5.712   3.722
 5872SOL    HW118515   4.189   5.666   3.801
 5872SOL    HW218516   4.257   5.804   3.747
 5873SOL     OW18517   2.151   2.872   0.326
 5873SOL    HW118518   2.193   2.840   0.411
 5873SOL    HW218519   2.130   2.969   0.333
 5874SOL     OW18520   0.760   4.478   6.399
 5874SOL    HW118521   0.739   4.500   6.304
 5874SOL    HW218522   0.856   4.496   6.417
 5875SOL     OW18523   3.964   2.053   1.168
 5875SOL    HW118524   4.054   2.097   1.173
 5875SOL    HW218525   3.964   1.972   1.227
 5876SOL     OW18526   4.434   3.788   5.895
 5876SOL    HW118527   4.384   3.874   5.905
 5876SOL    HW218528   4.382   3.714   5.939
 5877SOL     OW18529   5.337   6.872   2.971
 5877SOL    HW118530   5.283   6.891   3.053
 5877SOL    HW218531   5.301   6.926   2.894
 5878SOL     OW18532   4.882   3.207   2.742
 5878SOL    HW118533   4.908   3.202   2.645
 5878SOL    HW218534   4.939   3.274   2.789
 5879SOL     OW18535   3.110   4.836   5.090
 5879SOL    HW118536   3.168   4.859   5.012
 5879SOL    HW218537   3.032   4.781   5.059
 5880SOL     OW18538   6.303   2.286   0.306
 5880SOL    HW118539   6.241   2.316   0.378
 5880SOL    HW218540   6.302   2.186   0.301
 5881SOL     OW18541   1.063   5.828   2.911
 5881SOL    HW118542   1.097   5.745   2.956
 5881SOL    HW218543   0.996   5.873   2.970
 5882SOL     OW18544   1.499   5.482   5.431
 5882SOL    HW118545   1.400   5.490   5.441
 5882SOL    HW218546   1.543   5.504   5.519
 5883SOL     OW18547   0.163   5.871   0.206
 5883SOL    HW118548   0.126   5.778   0.214
 5883SOL    HW218549   0.151   5.918   0.294
 5884SOL     OW18550   0.529   1.391   2.229
 5884SOL    HW118551   0.486   1.406   2.318
 5884SOL    HW218552   0.504   1.466   2.167
 5885SOL     OW18553   7.000   5.624   1.902
 5885SOL    HW118554   0.004   5.672   1.818
 5885SOL    HW218555   6.942   5.546   1.879
 5886SOL     OW18556   1.674   4.937   3.616
 5886SOL    HW118557   1.708   4.943   3.710
 5886SOL    HW218558   1.729   4.871   3.566
 5887SOL     OW18559   2.326   3.984   0.756
 5887SOL    HW118560   2.293   3.912   0.696
 5887SOL    HW218561   2.377   3.944   0.832
 5888SOL     OW18562   2.909   6.118   1.791
 5888SOL    HW118563   2.929   6.187   1.861
 5888SOL    HW218564   2.961   6.139   1.708
 5889SOL     OW18565   5.011   1.508   1.992
 5889SOL    HW118566   5.058   1.426   2.026
 5889SOL    HW218567   5.069   1.554   1.925
 5890SOL     OW18568   2.403   4.684   3.039
 5890SOL    HW118569   2.471   4.746   3.077
 5890SOL    HW218570   2.394   4.699   2.941
 5891SOL     OW18571   2.541   2.995   0.023
 5891SOL    HW118572   2.564   3.046   0.105
 5891SOL    HW218573   2.596   2.911   0.020
 5892SOL     OW18574   0.313   2.845   1.137
 5892SOL    HW118575   0.320   2.934   1.093
 5892SOL    HW218576   0.257   2.852   1.219
 5893SOL     OW18577   0.029   6.147   1.438
 5893SOL    HW118578   0.019   6.114   1.532
 5893SOL    HW218579   0.113   6.202   1.431
 5894SOL     OW18580   2.455   5.130   6.381
 5894SOL    HW118581   2.484   5.180   6.462
 5894SOL    HW218582   2.442   5.033   6.405
 5895SOL     OW18583   6.119   2.763   4.002
 5895SOL    HW118584   6.183   2.808   3.940
 5895SOL    HW218585   6.061   2.832   4.047
 5896SOL     OW18586   5.546   2.669   1.005
 5896SOL    HW118587   5.482   2.729   0.957
 5896SOL    HW218588   5.528   2.574   0.978
 5897SOL     OW18589   3.835   3.424   0.197
 5897SOL    HW118590   3.742   3.460   0.208
 5897SOL    HW218591   3.833   3.324   0.201
 5898SOL     OW18592   3.475   0.716   6.509
 5898SOL    HW118593   3.447   0.786   6.443
 5898SOL    HW218594   3.399   0.697   6.571
 5899SOL     OW18595   0.478   0.332   0.030
 5899SOL    HW118596   0.506   0.321   6.957
 5899SOL    HW218597   0.549   0.381   0.080
 5900SOL     OW18598   5.488   6.474   2.812
 5900SOL    HW118599   5.535   6.437   2.732
 5900SOL    HW218600   5.421   6.407   2.845
 5901SOL     OW18601   1.308   0.799   4.944
 5901SOL    HW118602   1.345   0.727   4.886
 5901SOL    HW218603   1.332   0.782   5.039
 5902SOL     OW18604   3.958   3.541   6.073
 5902SOL    HW118605   4.042   3.521   6.124
 5902SOL    HW218606   3.910   3.617   6.116
 5903SOL     OW18607   5.703   1.573   5.324
 5903SOL    HW118608   5.665   1.629   5.250
 5903SOL    HW218609   5.745   1.491   5.285
 5904SOL     OW18610   6.810   4.972   1.753
 5904SOL    HW118611   6.842   5.019   1.670
 5904SOL    HW218612   6.712   4.989   1.765
 5905SOL     OW18613   6.415   2.200   4.408
 5905SOL    HW118614   6.394   2.145   4.327
 5905SOL    HW218615   6.369   2.162   4.488
 5906SOL     OW18616   4.111   0.638   4.479
 5906SOL    HW118617   4.154   0.559   4.523
 5906SOL    HW218618   4.025   0.609   4.436
 5907SOL     OW18619   0.682   3.377   5.741
 5907SOL    HW118620   0.641   3.360   5.651
 5907SOL    HW218621   0.775   3.410   5.730
 5908SOL     OW18622   4.490   3.239   6.568
 5908SOL    HW118623   4.467   3.267   6.475
 5908SOL    HW218624   4.553   3.305   6.608
 5909SOL     OW18625   6.434   4.860   3.328
 5909SOL    HW118626   6.399   4.855   3.235
 5909SOL    HW218627   6.461   4.953   3.349
 5910SOL     OW18628   2.504   4.308   1.788
 5910SOL    HW118629   2.404   4.301   1.782
 5910SOL    HW218630   2.545   4.226   1.749
 5911SOL     OW18631   6.415   0.566   5.505
 5911SOL    HW118632   6.321   0.598   5.516
 5911SOL    HW218633   6.415   0.468   5.488
 5912SOL     OW18634   0.571   3.676   6.040
 5912SOL    HW118635   0.594   3.649   5.947
 5912SOL    HW218636   0.627   3.624   6.105
 5913SOL     OW18637   1.634   2.785   4.540
 5913SOL    HW118638   1.723   2.783   4.586
 5913SOL    HW218639   1.563   2.752   4.602
 5914SOL     OW18640   1.290   5.597   0.259
 5914SOL    HW118641   1.210   5.537   0.257
 5914SOL    HW218642   1.370   5.547   0.225
 5915SOL     OW18643   5.673   4.190   4.409
 5915SOL    HW118644   5.590   4.243   4.392
 5915SOL    HW218645   5.648   4.094   4.426
 5916SOL     OW18646   2.998   1.059   6.424
 5916SOL    HW118647   3.051   1.071   6.509
 5916SOL    HW218648   3.061   1.049   6.347
 5917SOL     OW18649   3.457   3.965   2.061
 5917SOL    HW118650   3.383   3.990   1.999
 5917SOL    HW218651   3.452   4.020   2.144
 5918SOL     OW18652   3.122   1.639   4.202
 5918SOL    HW118653   3.089   1.685   4.284
 5918SOL    HW218654   3.126   1.540   4.218
 5919SOL     OW18655   1.549   1.933   6.544
 5919SOL    HW118656   1.612   1.999   6.584
 5919SOL    HW218657   1.494   1.891   6.617
 5920SOL     OW18658   2.090   4.656   6.710
 5920SOL    HW118659   2.069   4.621   6.801
 5920SOL    HW218660   2.180   4.623   6.681
 5921SOL     OW18661   3.797   6.219   4.745
 5921SOL    HW118662   3.721   6.237   4.807
 5921SOL    HW218663   3.877   6.270   4.775
 5922SOL     OW18664   6.531   5.572   2.121
 5922SOL    HW118665   6.437   5.539   2.117
 5922SOL    HW218666   6.583   5.518   2.187
 5923SOL     OW18667   0.593   0.809   3.125
 5923SOL    HW118668   0.682   0.838   3.162
 5923SOL    HW218669   0.603   0.791   3.027
 5924SOL     OW18670   5.762   2.016   4.568
 5924SOL    HW118671   5.798   2.108   4.580
 5924SOL    HW218672   5.754   1.996   4.470
 5925SOL     OW18673   6.737   5.881   0.639
 5925SOL    HW118674   6.754   5.926   0.552
 5925SOL    HW218675   6.732   5.949   0.712
 5926SOL     OW18676   2.859   6.359   1.921
 5926SOL    HW118677   2.796   6.383   1.995
 5926SOL    HW218678   2.852   6.427   1.848
 5927SOL     OW18679   2.088   5.231   1.024
 5927SOL    HW118680   2.005   5.238   0.969
 5927SOL    HW218681   2.161   5.190   0.969
 5928SOL     OW18682   6.709   6.101   1.185
 5928SOL    HW118683   6.757   6.166   1.245
 5928SOL    HW218684   6.732   6.120   1.090
 5929SOL     OW18685   0.217   6.932   5.898
 5929SOL    HW118686   0.289   6.931   5.968
 5929SOL    HW218687   0.136   6.884   5.933
 5930SOL     OW18688   6.334   1.281   5.141
 5930SOL    HW118689   6.286   1.346   5.082
 5930SOL    HW218690   6.417   1.324   5.178
 5931SOL     OW18691   5.338   4.754   0.569
 5931SOL    HW118692   5.278   4.733   0.492
 5931SOL    HW218693   5.433   4.750   0.540
 5932SOL     OW18694   2.549   0.451   0.481
 5932SOL    HW118695   2.640   0.474   0.448
 5932SOL    HW218696   2.554   0.368   0.538
 5933SOL     OW18697   6.081   2.067   3.030
 5933SOL    HW118698   5.997   2.013   3.038
 5933SOL    HW218699   6.099   2.113   3.117
 5934SOL     OW18700   4.208   3.222   1.750
 5934SOL    HW118701   4.306   3.243   1.748
 5934SOL    HW218702   4.195   3.124   1.741
 5935SOL     OW18703   3.713   3.099   2.575
 5935SOL    HW118704   3.618   3.127   2.579
 5935SOL    HW218705   3.728   3.045   2.492
 5936SOL     OW18706   6.382   6.240   6.756
 5936SOL    HW118707   6.369   6.144   6.733
 5936SOL    HW218708   6.425   6.248   6.846
 5937SOL     OW18709   0.711   4.215   0.178
 5937SOL    HW118710   0.753   4.245   0.264
 5937SOL    HW218711   0.731   4.282   0.106
 5938SOL     OW18712   2.560   5.034   0.813
 5938SOL    HW118713   2.567   5.006   0.717
 5938SOL    HW218714   2.617   4.975   0.869
 5939SOL     OW18715   1.120   0.508   2.470
 5939SOL    HW118716   1.166   0.519   2.381
 5939SOL    HW218717   1.073   0.420   2.472
 5940SOL     OW18718   4.122   4.829   2.927
 5940SOL    HW118719   4.025   4.828   2.952
 5940SOL    HW218720   4.138   4.768   2.849
 5941SOL     OW18721   6.204   2.536   3.768
 5941SOL    HW118722   6.209   2.626   3.725
 5941SOL    HW218723   6.201   2.465   3.698
 5942SOL     OW18724   6.927   1.226   4.787
 5942SOL    HW118725   6.995   1.165   4.827
 5942SOL    HW218726   6.972   1.306   4.748
 5943SOL     OW18727   1.844   5.556   0.947
 5943SOL    HW118728   1.860   5.653   0.930
 5943SOL    HW218729   1.746   5.538   0.947
 5944SOL     OW18730   5.399   2.680   2.786
 5944SOL    HW118731   5.465   2.612   2.753
 5944SOL    HW218732   5.335   2.702   2.713
 5945SOL     OW18733   6.776   5.716   6.048
 5945SOL    HW118734   6.711   5.649   6.085
 5945SOL    HW218735   6.787   5.701   5.950
 5946SOL     OW18736   3.943   2.498   5.348
 5946SOL    HW118737   3.867   2.550   5.386
 5946SOL    HW218738   4.002   2.558   5.294
 5947SOL     OW18739   5.892   3.723   2.508
 5947SOL    HW118740   5.954   3.683   2.575
 5947SOL    HW218741   5.826   3.654   2.478
 5948SOL     OW18742   2.629   5.704   3.008
 5948SOL    HW118743   2.690   5.773   2.968
 5948SOL    HW218744   2.619   5.628   2.943
 5949SOL     OW18745   4.904   4.274   2.968
 5949SOL    HW118746   4.933   4.178   2.971
 5949SOL    HW218747   4.831   4.290   3.034
 5950SOL     OW18748   6.790   1.792   4.720
 5950SOL    HW118749   6.713   1.855   4.716
 5950SOL    HW218750   6.834   1.800   4.810
 5951SOL     OW18751   2.131   1.032   3.487
 5951SOL    HW118752   2.141   1.127   3.457
 5951SOL    HW218753   2.036   1.003   3.474
 5952SOL     OW18754   0.411   6.439   4.296
 5952SOL    HW118755   0.452   6.530   4.295
 5952SOL    HW218756   0.339   6.436   4.366
 5953SOL     OW18757   0.759   3.558   6.188
 5953SOL    HW118758   0.844   3.562   6.240
 5953SOL    HW218759   0.693   3.501   6.237
 5954SOL     OW18760   1.482   4.884   6.160
 5954SOL    HW118761   1.491   4.820   6.236
 5954SOL    HW218762   1.498   4.977   6.191
 5955SOL     OW18763   4.074   5.449   2.552
 5955SOL    HW118764   4.050   5.411   2.641
 5955SOL    HW218765   4.096   5.375   2.488
 5956SOL     OW18766   0.279   2.044   0.146
 5956SOL    HW118767   0.284   1.946   0.167
 5956SOL    HW218768   0.320   2.096   0.222
 5957SOL     OW18769   4.120   6.470   6.019
 5957SOL    HW118770   4.148   6.374   6.020
 5957SOL    HW218771   4.152   6.514   5.935
 5958SOL     OW18772   1.238   5.568   2.481
 5958SOL    HW118773   1.246   5.523   2.393
 5958SOL    HW218774   1.205   5.661   2.469
 5959SOL     OW18775   1.715   0.631   5.960
 5959SOL    HW118776   1.689   0.559   6.024
 5959SOL    HW218777   1.722   0.718   6.008
 5960SOL     OW18778   3.708   5.983   5.496
 5960SOL    HW118779   3.731   5.937   5.409
 5960SOL    HW218780   3.726   6.081   5.487
 5961SOL     OW18781   2.718   0.947   5.636
 5961SOL    HW118782   2.726   1.043   5.662
 5961SOL    HW218783   2.641   0.906   5.683
 5962SOL     OW18784   5.412   4.254   2.560
 5962SOL    HW118785   5.493   4.306   2.587
 5962SOL    HW218786   5.331   4.313   2.563
 5963SOL     OW18787   4.247   4.312   1.700
 5963SOL    HW118788   4.191   4.230   1.706
 5963SOL    HW218789   4.332   4.299   1.752
 5964SOL     OW18790   1.411   3.429   5.377
 5964SOL    HW118791   1.428   3.527   5.366
 5964SOL    HW218792   1.337   3.415   5.442
 5965SOL     OW18793   2.144   1.900   4.150
 5965SOL    HW118794   2.239   1.903   4.181
 5965SOL    HW218795   2.131   1.965   4.075
 5966SOL     OW18796   1.758   6.167   4.278
 5966SOL    HW118797   1.781   6.260   4.305
 5966SOL    HW218798   1.694   6.128   4.345
 5967SOL     OW18799   4.752   5.343   1.132
 5967SOL    HW118800   4.847   5.368   1.112
 5967SOL    HW218801   4.743   5.319   1.228
 5968SOL     OW18802   1.379   1.935   4.234
 5968SOL    HW118803   1.393   1.846   4.277
 5968SOL    HW218804   1.391   1.927   4.135
 5969SOL     OW18805   0.879   2.111   2.707
 5969SOL    HW118806   0.873   2.195   2.761
 5969SOL    HW218807   0.971   2.073   2.714
 5970SOL     OW18808   2.155   4.104   3.346
 5970SOL    HW118809   2.106   4.018   3.350
 5970SOL    HW218810   2.153   4.141   3.253
 5971SOL     OW18811   2.964   5.663   3.434
 5971SOL    HW118812   2.923   5.572   3.435
 5971SOL    HW218813   2.896   5.731   3.461
 5972SOL     OW18814   6.139   0.122   1.537
 5972SOL    HW118815   6.197   0.203   1.551
 5972SOL    HW218816   6.065   0.122   1.603
 5973SOL     OW18817   2.466   4.934   3.473
 5973SOL    HW118818   2.533   4.991   3.521
 5973SOL    HW218819   2.397   4.902   3.538
 5974SOL     OW18820   1.105   4.346   6.220
 5974SOL    HW118821   1.133   4.286   6.145
 5974SOL    HW218822   1.026   4.306   6.268
 5975SOL     OW18823   2.015   2.452   6.366
 5975SOL    HW118824   2.021   2.501   6.453
 5975SOL    HW218825   1.936   2.486   6.315
 5976SOL     OW18826   3.462   3.632   4.419
 5976SOL    HW118827   3.439   3.708   4.359
 5976SOL    HW218828   3.401   3.555   4.400
 5977SOL     OW18829   0.626   3.553   2.602
 5977SOL    HW118830   0.622   3.534   2.700
 5977SOL    HW218831   0.545   3.516   2.557
 5978SOL     OW18832   5.077   5.473   1.673
 5978SOL    HW118833   5.142   5.549   1.671
 5978SOL    HW218834   5.120   5.392   1.632
 5979SOL     OW18835   0.614   1.240   1.706
 5979SOL    HW118836   0.677   1.288   1.767
 5979SOL    HW218837   0.520   1.255   1.736
 5980SOL     OW18838   5.800   2.667   5.388
 5980SOL    HW118839   5.898   2.667   5.407
 5980SOL    HW218840   5.752   2.717   5.460
 5981SOL     OW18841   3.326   2.257   0.443
 5981SOL    HW118842   3.233   2.279   0.473
 5981SOL    HW218843   3.385   2.335   0.460
 5982SOL     OW18844   6.211   2.862   6.872
 5982SOL    HW118845   6.162   2.950   6.871
 5982SOL    HW218846   6.291   2.870   6.932
 5983SOL     OW18847   0.809   0.492   4.556
 5983SOL    HW118848   0.780   0.412   4.608
 5983SOL    HW218849   0.834   0.465   4.464
 5984SOL     OW18850   0.693   0.296   5.834
 5984SOL    HW118851   0.705   0.387   5.874
 5984SOL    HW218852   0.773   0.240   5.856
 5985SOL     OW18853   5.993   2.999   4.288
 5985SOL    HW118854   5.957   2.939   4.360
 5985SOL    HW218855   6.081   2.962   4.256
 5986SOL     OW18856   3.073   3.751   2.467
 5986SOL    HW118857   3.030   3.747   2.376
 5986SOL    HW218858   3.098   3.846   2.487
 5987SOL     OW18859   4.052   0.088   5.594
 5987SOL    HW118860   4.106   0.121   5.671
 5987SOL    HW218861   3.992   0.161   5.561
 5988SOL     OW18862   3.837   6.797   6.065
 5988SOL    HW118863   3.925   6.835   6.038
 5988SOL    HW218864   3.820   6.713   6.013
 5989SOL     OW18865   2.974   1.685   6.536
 5989SOL    HW118866   2.913   1.624   6.486
 5989SOL    HW218867   3.030   1.737   6.471
 5990SOL     OW18868   3.272   6.062   2.966
 5990SOL    HW118869   3.316   6.149   2.984
 5990SOL    HW218870   3.319   6.015   2.891
 5991SOL     OW18871   3.513   4.952   3.275
 5991SOL    HW118872   3.426   4.926   3.317
 5991SOL    HW218873   3.524   5.051   3.280
 5992SOL     OW18874   4.114   1.668   4.258
 5992SOL    HW118875   4.094   1.578   4.296
 5992SOL    HW218876   4.206   1.695   4.285
 5993SOL     OW18877   2.975   5.256   3.951
 5993SOL    HW118878   2.890   5.305   3.967
 5993SOL    HW218879   3.039   5.274   4.026
 5994SOL     OW18880   6.369   2.002   0.074
 5994SOL    HW118881   6.311   2.001   0.155
 5994SOL    HW218882   6.324   2.054   0.001
 5995SOL     OW18883   0.295   3.635   2.065
 5995SOL    HW118884   0.259   3.668   1.978
 5995SOL    HW218885   0.359   3.703   2.102
 5996SOL     OW18886   1.587   5.944   6.255
 5996SOL    HW118887   1.622   5.862   6.210
 5996SOL    HW218888   1.508   5.978   6.204
 5997SOL     OW18889   1.025   0.482   1.414
 5997SOL    HW118890   0.961   0.417   1.373
 5997SOL    HW218891   1.079   0.525   1.343
 5998SOL     OW18892   5.347   3.086   3.348
 5998SOL    HW118893   5.408   3.109   3.273
 5998SOL    HW218894   5.295   3.004   3.325
 5999SOL     OW18895   2.190   2.701   3.180
 5999SOL    HW118896   2.232   2.694   3.271
 5999SOL    HW218897   2.091   2.703   3.190
 6000SOL     OW18898   5.107   1.172   3.191
 6000SOL    HW118899   5.044   1.231   3.242
 6000SOL    HW218900   5.067   1.148   3.103
 6001SOL     OW18901   6.131   1.158   0.263
 6001SOL    HW118902   6.090   1.209   0.188
 6001SOL    HW218903   6.129   1.061   0.242
 6002SOL     OW18904   2.542   0.185   2.304
 6002SOL    HW118905   2.454   0.226   2.280
 6002SOL    HW218906   2.605   0.257   2.334
 6003SOL     OW18907   4.696   4.222   3.842
 6003SOL    HW118908   4.780   4.273   3.860
 6003SOL    HW218909   4.718   4.135   3.799
 6004SOL     OW18910   0.577   3.272   1.904
 6004SOL    HW118911   0.652   3.206   1.911
 6004SOL    HW218912   0.584   3.321   1.817
 6005SOL     OW18913   1.833   6.348   2.501
 6005SOL    HW118914   1.765   6.329   2.572
 6005SOL    HW218915   1.903   6.277   2.502
 6006SOL     OW18916   2.304   5.904   6.931
 6006SOL    HW118917   2.379   5.852   6.889
 6006SOL    HW218918   2.288   5.869   0.001
 6007SOL     OW18919   5.547   3.793   4.705
 6007SOL    HW118920   5.457   3.831   4.683
 6007SOL    HW218921   5.553   3.699   4.673
 6008SOL     OW18922   4.914   4.030   1.856
 6008SOL    HW118923   4.900   4.128   1.868
 6008SOL    HW218924   4.856   3.998   1.781
 6009SOL     OW18925   3.908   1.356   4.612
 6009SOL    HW118926   3.818   1.366   4.654
 6009SOL    HW218927   3.977   1.404   4.667
 6010SOL     OW18928   1.861   4.743   3.496
 6010SOL    HW118929   1.920   4.732   3.416
 6010SOL    HW218930   1.847   4.655   3.540
 6011SOL     OW18931   6.200   2.142   2.027
 6011SOL    HW118932   6.246   2.196   2.098
 6011SOL    HW218933   6.190   2.048   2.058
 6012SOL     OW18934   0.880   2.909   1.123
 6012SOL    HW118935   0.970   2.932   1.160
 6012SOL    HW218936   0.843   2.831   1.172
 6013SOL     OW18937   5.347   0.497   2.323
 6013SOL    HW118938   5.424   0.553   2.292
 6013SOL    HW218939   5.304   0.453   2.244
 6014SOL     OW18940   6.580   1.020   0.703
 6014SOL    HW118941   6.518   0.949   0.669
 6014SOL    HW218942   6.549   1.051   0.793
 6015SOL     OW18943   5.973   0.296   4.479
 6015SOL    HW118944   5.885   0.327   4.443
 6015SOL    HW218945   5.962   0.204   4.517
 6016SOL     OW18946   1.505   0.320   5.662
 6016SOL    HW118947   1.590   0.304   5.712
 6016SOL    HW218948   1.521   0.390   5.592
 6017SOL     OW18949   0.122   3.776   2.321
 6017SOL    HW118950   0.083   3.695   2.276
 6017SOL    HW218951   0.063   3.855   2.303
 6018SOL     OW18952   3.397   5.077   1.185
 6018SOL    HW118953   3.305   5.087   1.224
 6018SOL    HW218954   3.464   5.116   1.248
 6019SOL     OW18955   6.365   6.578   3.263
 6019SOL    HW118956   6.279   6.627   3.275
 6019SOL    HW218957   6.416   6.620   3.188
 6020SOL     OW18958   2.188   6.177   2.763
 6020SOL    HW118959   2.254   6.252   2.771
 6020SOL    HW218960   2.227   6.094   2.805
 6021SOL     OW18961   3.001   0.511   3.468
 6021SOL    HW118962   2.924   0.460   3.430
 6021SOL    HW218963   3.074   0.448   3.494
 6022SOL     OW18964   3.851   1.436   5.664
 6022SOL    HW118965   3.863   1.508   5.732
 6022SOL    HW218966   3.937   1.421   5.615
 6023SOL     OW18967   0.261   2.076   1.892
 6023SOL    HW118968   0.229   2.137   1.965
 6023SOL    HW218969   0.221   1.985   1.905
 6024SOL     OW18970   6.363   5.881   2.849
 6024SOL    HW118971   6.381   5.971   2.890
 6024SOL    HW218972   6.266   5.872   2.829
 6025SOL     OW18973   4.666   2.011   2.428
 6025SOL    HW118974   4.574   2.001   2.389
 6025SOL    HW218975   4.698   1.922   2.461
 6026SOL     OW18976   0.605   4.312   5.601
 6026SOL    HW118977   0.637   4.393   5.551
 6026SOL    HW218978   0.546   4.341   5.676
 6027SOL     OW18979   4.480   4.515   0.535
 6027SOL    HW118980   4.493   4.576   0.456
 6027SOL    HW218981   4.422   4.438   0.508
 6028SOL     OW18982   0.670   4.135   6.650
 6028SOL    HW118983   0.744   4.161   6.712
 6028SOL    HW218984   0.708   4.091   6.569
 6029SOL     OW18985   1.210   5.318   1.615
 6029SOL    HW118986   1.268   5.292   1.692
 6029SOL    HW218987   1.123   5.267   1.620
 6030SOL     OW18988   1.831   6.526   2.062
 6030SOL    HW118989   1.922   6.519   2.020
 6030SOL    HW218990   1.772   6.581   2.004
 6031SOL     OW18991   4.959   0.915   4.288
 6031SOL    HW118992   4.934   0.916   4.385
 6031SOL    HW218993   5.058   0.922   4.279
 6032SOL     OW18994   1.439   2.554   2.162
 6032SOL    HW118995   1.506   2.626   2.181
 6032SOL    HW218996   1.365   2.558   2.228
 6033SOL     OW18997   0.177   6.887   4.288
 6033SOL    HW118998   0.094   6.933   4.257
 6033SOL    HW218999   0.198   6.811   4.228
 6034SOL     OW19000   2.470   4.726   4.649
 6034SOL    HW119001   2.391   4.788   4.658
 6034SOL    HW219002   2.498   4.694   4.739
 6035SOL     OW19003   4.879   0.210   3.850
 6035SOL    HW119004   4.825   0.285   3.888
 6035SOL    HW219005   4.887   0.221   3.751
 6036SOL     OW19006   5.643   0.464   4.821
 6036SOL    HW119007   5.681   0.504   4.738
 6036SOL    HW219008   5.630   0.536   4.890
 6037SOL     OW19009   0.691   5.675   4.628
 6037SOL    HW119010   0.608   5.690   4.682
 6037SOL    HW219011   0.670   5.612   4.553
 6038SOL     OW19012   0.427   4.128   6.510
 6038SOL    HW119013   0.511   4.135   6.566
 6038SOL    HW219014   0.401   4.032   6.503
 6039SOL     OW19015   3.350   3.154   4.099
 6039SOL    HW119016   3.318   3.063   4.126
 6039SOL    HW219017   3.272   3.212   4.078
 6040SOL     OW19018   1.099   0.740   0.646
 6040SOL    HW119019   1.194   0.733   0.616
 6040SOL    HW219020   1.057   0.820   0.604
 6041SOL     OW19021   0.794   2.909   0.276
 6041SOL    HW119022   0.780   2.970   0.354
 6041SOL    HW219023   0.892   2.892   0.264
 6042SOL     OW19024   5.247   5.753   4.888
 6042SOL    HW119025   5.158   5.723   4.923
 6042SOL    HW219026   5.233   5.806   4.804
 6043SOL     OW19027   0.211   4.539   3.744
 6043SOL    HW119028   0.181   4.634   3.733
 6043SOL    HW219029   0.294   4.524   3.691
 6044SOL     OW19030   1.395   0.476   1.248
 6044SOL    HW119031   1.393   0.451   1.345
 6044SOL    HW219032   1.481   0.445   1.208
 6045SOL     OW19033   6.321   4.440   6.795
 6045SOL    HW119034   6.266   4.359   6.812
 6045SOL    HW219035   6.416   4.423   6.822
 6046SOL     OW19036   1.288   3.547   6.887
 6046SOL    HW119037   1.314   3.498   6.804
 6046SOL    HW219038   1.192   3.528   6.908
 6047SOL     OW19039   1.230   5.554   5.146
 6047SOL    HW119040   1.256   5.517   5.057
 6047SOL    HW219041   1.137   5.591   5.141
 6048SOL     OW19042   4.368   5.938   3.910
 6048SOL    HW119043   4.454   5.968   3.951
 6048SOL    HW219044   4.297   6.008   3.925
 6049SOL     OW19045   6.762   5.836   0.216
 6049SOL    HW119046   6.806   5.805   0.132
 6049SOL    HW219047   6.691   5.771   0.242
 6050SOL     OW19048   5.819   4.640   5.334
 6050SOL    HW119049   5.799   4.553   5.289
 6050SOL    HW219050   5.912   4.668   5.312
 6051SOL     OW19051   2.999   1.926   3.669
 6051SOL    HW119052   2.991   1.954   3.573
 6051SOL    HW219053   2.916   1.880   3.698
 6052SOL     OW19054   0.357   1.808   6.912
 6052SOL    HW119055   0.350   1.718   6.869
 6052SOL    HW219056   0.424   1.864   6.862
 6053SOL     OW19057   0.899   0.352   6.172
 6053SOL    HW119058   0.812   0.382   6.211
 6053SOL    HW219059   0.909   0.388   6.079
 6054SOL     OW19060   0.794   4.327   5.844
 6054SOL    HW119061   0.829   4.264   5.913
 6054SOL    HW219062   0.731   4.278   5.783
 6055SOL     OW19063   5.561   6.719   2.915
 6055SOL    HW119064   5.492   6.790   2.932
 6055SOL    HW219065   5.521   6.645   2.861
 6056SOL     OW19066   5.395   2.905   6.310
 6056SOL    HW119067   5.368   2.828   6.253
 6056SOL    HW219068   5.385   2.990   6.258
 6057SOL     OW19069   4.328   0.898   6.638
 6057SOL    HW119070   4.257   0.951   6.685
 6057SOL    HW219071   4.285   0.842   6.566
 6058SOL     OW19072   5.236   2.133   5.212
 6058SOL    HW119073   5.333   2.119   5.191
 6058SOL    HW219074   5.225   2.217   5.264
 6059SOL     OW19075   0.070   6.568   6.828
 6059SOL    HW119076   0.160   6.527   6.812
 6059SOL    HW219077   7.022   6.506   6.795
 6060SOL     OW19078   2.926   5.510   6.391
 6060SOL    HW119079   2.969   5.547   6.473
 6060SOL    HW219080   2.899   5.584   6.330
 6061SOL     OW19081   1.831   1.385   0.235
 6061SOL    HW119082   1.742   1.339   0.233
 6061SOL    HW219083   1.865   1.396   0.141
 6062SOL     OW19084   1.536   0.240   3.642
 6062SOL    HW119085   1.586   0.296   3.708
 6062SOL    HW219086   1.567   0.261   3.550
 6063SOL     OW19087   5.915   5.809   6.744
 6063SOL    HW119088   5.967   5.792   6.829
 6063SOL    HW219089   5.909   5.725   6.691
 6064SOL     OW19090   1.152   5.486   2.716
 6064SOL    HW119091   1.201   5.513   2.633
 6064SOL    HW219092   1.091   5.560   2.745
 6065SOL     OW19093   5.352   6.852   1.615
 6065SOL    HW119094   5.271   6.909   1.612
 6065SOL    HW219095   5.422   6.895   1.672
 6066SOL     OW19096   4.446   2.125   5.552
 6066SOL    HW119097   4.444   2.182   5.634
 6066SOL    HW219098   4.513   2.051   5.564
 6067SOL     OW19099   4.805   1.840   6.683
 6067SOL    HW119100   4.827   1.787   6.765
 6067SOL    HW219101   4.887   1.887   6.650
 6068SOL     OW19102   5.153   0.598   5.679
 6068SOL    HW119103   5.076   0.622   5.619
 6068SOL    HW219104   5.154   0.660   5.757
 6069SOL     OW19105   6.540   5.147   3.745
 6069SOL    HW119106   6.501   5.146   3.838
 6069SOL    HW219107   6.599   5.226   3.735
 6070SOL     OW19108   5.163   3.532   0.688
 6070SOL    HW119109   5.125   3.534   0.595
 6070SOL    HW219110   5.242   3.592   0.693
 6071SOL     OW19111   4.851   6.933   5.109
 6071SOL    HW119112   4.939   6.946   5.155
 6071SOL    HW219113   4.849   6.988   5.025
 6072SOL     OW19114   5.930   1.663   1.459
 6072SOL    HW119115   6.018   1.702   1.487
 6072SOL    HW219116   5.931   1.564   1.477
 6073SOL     OW19117   6.099   0.977   0.974
 6073SOL    HW119118   6.138   0.886   0.963
 6073SOL    HW219119   6.139   1.038   0.905
 6074SOL     OW19120   0.576   0.542   5.938
 6074SOL    HW119121   0.515   0.562   5.862
 6074SOL    HW219122   0.552   0.601   6.016
 6075SOL     OW19123   5.114   3.578   5.853
 6075SOL    HW119124   5.144   3.602   5.945
 6075SOL    HW219125   5.027   3.529   5.858
 6076SOL     OW19126   2.616   0.865   4.031
 6076SOL    HW119127   2.635   0.787   4.090
 6076SOL    HW219128   2.533   0.847   3.977
 6077SOL     OW19129   5.224   5.095   3.387
 6077SOL    HW119130   5.236   5.002   3.351
 6077SOL    HW219131   5.187   5.154   3.315
 6078SOL     OW19132   1.879   4.656   4.867
 6078SOL    HW119133   1.912   4.671   4.960
 6078SOL    HW219134   1.934   4.709   4.803
 6079SOL     OW19135   3.039   1.869   0.937
 6079SOL    HW119136   3.003   1.963   0.941
 6079SOL    HW219137   2.982   1.810   0.994
 6080SOL     OW19138   5.777   3.210   3.482
 6080SOL    HW119139   5.685   3.241   3.506
 6080SOL    HW219140   5.792   3.118   3.518
 6081SOL     OW19141   0.380   4.308   1.730
 6081SOL    HW119142   0.304   4.282   1.789
 6081SOL    HW219143   0.400   4.233   1.666
 6082SOL     OW19144   4.160   1.916   5.200
 6082SOL    HW119145   4.165   2.012   5.230
 6082SOL    HW219146   4.182   1.911   5.103
 6083SOL     OW19147   2.011   6.639   6.880
 6083SOL    HW119148   2.095   6.647   6.826
 6083SOL    HW219149   1.992   6.726   6.924
 6084SOL     OW19150   0.019   5.665   6.084
 6084SOL    HW119151   6.947   5.649   6.056
 6084SOL    HW219152   0.056   5.743   6.034
 6085SOL     OW19153   5.268   4.727   1.349
 6085SOL    HW119154   5.176   4.690   1.363
 6085SOL    HW219155   5.303   4.764   1.436
 6086SOL     OW19156   3.294   1.947   2.289
 6086SOL    HW119157   3.370   2.010   2.303
 6086SOL    HW219158   3.309   1.864   2.342
 6087SOL     OW19159   3.801   0.484   0.420
 6087SOL    HW119160   3.886   0.433   0.408
 6087SOL    HW219161   3.729   0.420   0.449
 6088SOL     OW19162   0.189   0.497   5.065
 6088SOL    HW119163   0.151   0.538   5.148
 6088SOL    HW219164   0.261   0.556   5.029
 6089SOL     OW19165   6.376   3.999   1.003
 6089SOL    HW119166   6.332   3.916   1.038
 6089SOL    HW219167   6.427   4.043   1.076
 6090SOL     OW19168   6.937   6.120   4.390
 6090SOL    HW119169   6.994   6.091   4.467
 6090SOL    HW219170   6.841   6.118   4.418
 6091SOL     OW19171   6.707   2.424   1.930
 6091SOL    HW119172   6.786   2.374   1.894
 6091SOL    HW219173   6.654   2.461   1.854
 6092SOL     OW19174   0.874   3.889   0.745
 6092SOL    HW119175   0.952   3.863   0.688
 6092SOL    HW219176   0.791   3.893   0.689
 6093SOL     OW19177   0.721   4.787   0.625
 6093SOL    HW119178   0.686   4.879   0.641
 6093SOL    HW219179   0.751   4.746   0.711
 6094SOL     OW19180   0.550   1.285   1.213
 6094SOL    HW119181   0.520   1.373   1.175
 6094SOL    HW219182   0.630   1.298   1.271
 6095SOL     OW19183   6.924   3.575   5.018
 6095SOL    HW119184   6.889   3.534   4.934
 6095SOL    HW219185   6.851   3.576   5.087
 6096SOL     OW19186   5.459   1.632   2.600
 6096SOL    HW119187   5.508   1.612   2.515
 6096SOL    HW219188   5.502   1.710   2.646
 6097SOL     OW19189   3.925   1.756   2.568
 6097SOL    HW119190   3.984   1.834   2.586
 6097SOL    HW219191   3.831   1.779   2.594
 6098SOL     OW19192   0.665   0.846   6.770
 6098SOL    HW119193   0.640   0.902   6.690
 6098SOL    HW219194   0.587   0.790   6.796
 6099SOL     OW19195   6.090   4.107   4.843
 6099SOL    HW119196   6.160   4.163   4.799
 6099SOL    HW219197   6.040   4.055   4.774
 6100SOL     OW19198   0.196   3.091   0.811
 6100SOL    HW119199   0.217   3.171   0.754
 6100SOL    HW219200   0.155   3.122   0.896
 6101SOL     OW19201   6.280   6.271   3.736
 6101SOL    HW119202   6.189   6.253   3.701
 6101SOL    HW219203   6.301   6.206   3.810
 6102SOL     OW19204   3.442   6.424   5.129
 6102SOL    HW119205   3.508   6.495   5.155
 6102SOL    HW219206   3.363   6.467   5.086
 6103SOL     OW19207   5.754   1.870   5.355
 6103SOL    HW119208   5.774   1.912   5.444
 6103SOL    HW219209   5.758   1.771   5.364
 6104SOL     OW19210   2.170   2.996   1.400
 6104SOL    HW119211   2.090   3.033   1.446
 6104SOL    HW219212   2.188   2.903   1.433
 6105SOL     OW19213   3.374   4.936   4.557
 6105SOL    HW119214   3.417   4.860   4.607
 6105SOL    HW219215   3.276   4.936   4.575
 6106SOL     OW19216   1.917   5.061   4.168
 6106SOL    HW119217   1.857   5.129   4.127
 6106SOL    HW219218   1.975   5.104   4.237
 6107SOL     OW19219   2.017   5.246   6.326
 6107SOL    HW119220   2.079   5.296   6.267
 6107SOL    HW219221   1.938   5.215   6.274
 6108SOL     OW19222   5.535   1.967   4.959
 6108SOL    HW119223   5.452   2.002   4.916
 6108SOL    HW219224   5.601   1.940   4.889
 6109SOL     OW19225   6.883   4.321   1.607
 6109SOL    HW119226   6.976   4.284   1.617
 6109SOL    HW219227   6.819   4.265   1.660
 6110SOL     OW19228   3.384   2.111   3.936
 6110SOL    HW119229   3.360   2.130   4.031
 6110SOL    HW219230   3.301   2.110   3.880
 6111SOL     OW19231   0.451   4.421   3.616
 6111SOL    HW119232   0.459   4.374   3.528
 6111SOL    HW219233   0.541   4.449   3.648
 6112SOL     OW19234   1.413   1.069   1.270
 6112SOL    HW119235   1.392   1.037   1.362
 6112SOL    HW219236   1.510   1.092   1.263
 6113SOL     OW19237   1.186   4.890   5.304
 6113SOL    HW119238   1.259   4.958   5.311
 6113SOL    HW219239   1.189   4.830   5.384
 6114SOL     OW19240   3.755   4.448   1.020
 6114SOL    HW119241   3.692   4.443   0.943
 6114SOL    HW219242   3.730   4.379   1.088
 6115SOL     OW19243   6.859   4.834   2.291
 6115SOL    HW119244   6.837   4.921   2.247
 6115SOL    HW219245   6.943   4.797   2.251
 6116SOL     OW19246   3.948   2.460   1.217
 6116SOL    HW119247   3.898   2.381   1.252
 6116SOL    HW219248   3.898   2.544   1.240
 6117SOL     OW19249   5.360   5.768   4.069
 6117SOL    HW119250   5.275   5.813   4.098
 6117SOL    HW219251   5.424   5.838   4.036
 6118SOL     OW19252   6.457   0.493   3.581
 6118SOL    HW119253   6.409   0.539   3.655
 6118SOL    HW219254   6.462   0.395   3.601
 6119SOL     OW19255   5.788   5.298   4.559
 6119SOL    HW119256   5.775   5.379   4.616
 6119SOL    HW219257   5.708   5.239   4.565
 6120SOL     OW19258   2.272   1.792   3.075
 6120SOL    HW119259   2.329   1.853   3.020
 6120SOL    HW219260   2.233   1.844   3.151
 6121SOL     OW19261   0.081   2.196   3.542
 6121SOL    HW119262   0.130   2.121   3.496
 6121SOL    HW219263   0.097   2.281   3.492
 6122SOL     OW19264   3.877   5.504   3.908
 6122SOL    HW119265   3.971   5.483   3.933
 6122SOL    HW219266   3.851   5.593   3.946
 6123SOL     OW19267   5.854   1.687   2.611
 6123SOL    HW119268   5.943   1.704   2.653
 6123SOL    HW219269   5.785   1.741   2.658
 6124SOL     OW19270   3.016   0.278   5.129
 6124SOL    HW119271   2.987   0.267   5.224
 6124SOL    HW219272   3.115   0.286   5.124
 6125SOL     OW19273   1.219   4.329   2.376
 6125SOL    HW119274   1.263   4.332   2.466
 6125SOL    HW219275   1.217   4.421   2.337
 6126SOL     OW19276   3.407   6.622   3.231
 6126SOL    HW119277   3.490   6.600   3.181
 6126SOL    HW219278   3.428   6.637   3.327
 6127SOL     OW19279   2.046   5.513   1.408
 6127SOL    HW119280   2.053   5.541   1.504
 6127SOL    HW219281   1.949   5.504   1.384
 6128SOL     OW19282   5.292   4.491   1.724
 6128SOL    HW119283   5.249   4.427   1.787
 6128SOL    HW219284   5.375   4.528   1.765
 6129SOL     OW19285   6.552   3.697   3.561
 6129SOL    HW119286   6.565   3.781   3.508
 6129SOL    HW219287   6.475   3.709   3.624
 6130SOL     OW19288   5.094   3.628   2.838
 6130SOL    HW119289   5.101   3.555   2.771
 6130SOL    HW219290   5.001   3.664   2.839
 6131SOL     OW19291   6.565   0.945   5.270
 6131SOL    HW119292   6.628   0.897   5.331
 6131SOL    HW219293   6.487   0.886   5.248
 6132SOL     OW19294   0.129   2.706   0.626
 6132SOL    HW119295   0.043   2.729   0.670
 6132SOL    HW219296   0.145   2.607   0.632
 6133SOL     OW19297   1.493   5.024   0.136
 6133SOL    HW119298   1.458   4.939   0.176
 6133SOL    HW219299   1.514   5.089   0.209
 6134SOL     OW19300   4.886   3.599   6.335
 6134SOL    HW119301   4.870   3.514   6.385
 6134SOL    HW219302   4.953   3.654   6.385
 6135SOL     OW19303   6.012   6.741   2.378
 6135SOL    HW119304   6.103   6.770   2.408
 6135SOL    HW219305   5.997   6.772   2.284
 6136SOL     OW19306   1.395   2.017   2.417
 6136SOL    HW119307   1.459   2.091   2.401
 6136SOL    HW219308   1.411   1.977   2.507
 6137SOL     OW19309   3.392   6.978   6.314
 6137SOL    HW119310   3.463   6.950   6.250
 6137SOL    HW219311   3.395   0.055   6.326
 6138SOL     OW19312   4.571   0.786   2.956
 6138SOL    HW119313   4.661   0.823   2.933
 6138SOL    HW219314   4.571   0.755   3.051
 6139SOL     OW19315   2.540   6.274   3.808
 6139SOL    HW119316   2.451   6.231   3.793
 6139SOL    HW219317   2.577   6.305   3.720
 6140SOL     OW19318   2.443   5.755   1.172
 6140SOL    HW119319   2.480   5.689   1.239
 6140SOL    HW219320   2.459   5.848   1.206
 6141SOL     OW19321   0.826   6.058   4.999
 6141SOL    HW119322   0.910   6.006   5.015
 6141SOL    HW219323   0.760   6.036   5.070
 6142SOL     OW19324   6.905   3.332   3.760
 6142SOL    HW119325   6.843   3.373   3.692
 6142SOL    HW219326   6.958   3.404   3.805
 6143SOL     OW19327   6.288   5.848   6.268
 6143SOL    HW119328   6.385   5.856   6.244
 6143SOL    HW219329   6.232   5.880   6.191
 6144SOL     OW19330   0.347   5.710   4.407
 6144SOL    HW119331   0.406   5.724   4.327
 6144SOL    HW219332   0.394   5.742   4.489
 6145SOL     OW19333   5.993   4.939   3.632
 6145SOL    HW119334   5.909   4.994   3.629
 6145SOL    HW219335   6.044   4.952   3.546
 6146SOL     OW19336   5.864   2.013   3.379
 6146SOL    HW119337   5.769   2.041   3.377
 6146SOL    HW219338   5.870   1.913   3.375
 6147SOL     OW19339   1.037   3.682   3.816
 6147SOL    HW119340   1.116   3.743   3.807
 6147SOL    HW219341   1.029   3.653   3.912
 6148SOL     OW19342   6.331   6.384   2.995
 6148SOL    HW119343   6.343   6.448   3.071
 6148SOL    HW219344   6.235   6.384   2.966
 6149SOL     OW19345   1.308   5.824   4.688
 6149SOL    HW119346   1.237   5.866   4.745
 6149SOL    HW219347   1.397   5.862   4.713
 6150SOL     OW19348   4.648   6.570   6.321
 6150SOL    HW119349   4.723   6.619   6.364
 6150SOL    HW219350   4.579   6.547   6.389
 6151SOL     OW19351   4.397   0.287   4.808
 6151SOL    HW119352   4.413   0.305   4.905
 6151SOL    HW219353   4.299   0.294   4.788
 6152SOL     OW19354   6.430   3.877   6.432
 6152SOL    HW119355   6.494   3.916   6.499
 6152SOL    HW219356   6.482   3.835   6.358
 6153SOL     OW19357   3.759   5.719   5.738
 6153SOL    HW119358   3.768   5.730   5.837
 6153SOL    HW219359   3.683   5.774   5.704
 6154SOL     OW19360   5.462   3.131   3.105
 6154SOL    HW119361   5.438   3.227   3.090
 6154SOL    HW219362   5.455   3.080   3.019
 6155SOL     OW19363   2.713   4.835   4.572
 6155SOL    HW119364   2.625   4.802   4.605
 6155SOL    HW219365   2.732   4.795   4.482
 6156SOL     OW19366   5.573   0.706   4.447
 6156SOL    HW119367   5.494   0.645   4.453
 6156SOL    HW219368   5.649   0.667   4.498
 6157SOL     OW19369   1.069   1.175   4.883
 6157SOL    HW119370   1.038   1.200   4.791
 6157SOL    HW219371   1.092   1.258   4.934
 6158SOL     OW19372   5.118   6.801   6.956
 6158SOL    HW119373   5.089   6.893   6.932
 6158SOL    HW219374   5.216   6.799   6.973
 6159SOL     OW19375   5.158   3.686   6.138
 6159SOL    HW119376   5.175   3.759   6.204
 6159SOL    HW219377   5.164   3.597   6.184
 6160SOL     OW19378   6.465   5.478   0.105
 6160SOL    HW119379   6.542   5.447   0.161
 6160SOL    HW219380   6.380   5.466   0.156
 6161SOL     OW19381   5.601   0.080   6.297
 6161SOL    HW119382   5.576   0.173   6.323
 6161SOL    HW219383   5.523   0.019   6.311
 6162SOL     OW19384   6.138   5.463   3.796
 6162SOL    HW119385   6.125   5.384   3.856
 6162SOL    HW219386   6.127   5.435   3.701
 6163SOL     OW19387   6.741   3.914   2.869
 6163SOL    HW119388   6.799   3.952   2.797
 6163SOL    HW219389   6.648   3.903   2.836
 6164SOL     OW19390   4.662   2.990   1.108
 6164SOL    HW119391   4.723   3.064   1.081
 6164SOL    HW219392   4.669   2.975   1.207
 6165SOL     OW19393   3.916   6.970   0.869
 6165SOL    HW119394   3.927   0.004   0.787
 6165SOL    HW219395   3.946   7.021   0.949
 6166SOL     OW19396   2.958   0.470   0.065
 6166SOL    HW119397   3.049   0.454   0.104
 6166SOL    HW219398   2.897   0.397   0.096
 6167SOL     OW19399   6.760   5.215   3.427
 6167SOL    HW119400   6.832   5.153   3.395
 6167SOL    HW219401   6.762   5.298   3.371
 6168SOL     OW19402   0.061   2.644   1.605
 6168SOL    HW119403   0.139   2.589   1.636
 6168SOL    HW219404   7.002   2.587   1.601
 6169SOL     OW19405   1.148   4.115   1.025
 6169SOL    HW119406   1.057   4.075   1.018
 6169SOL    HW219407   1.141   4.215   1.027
 6170SOL     OW19408   6.658   2.192   3.559
 6170SOL    HW119409   6.678   2.217   3.654
 6170SOL    HW219410   6.564   2.157   3.553
 6171SOL     OW19411   5.536   2.155   6.216
 6171SOL    HW119412   5.468   2.082   6.204
 6171SOL    HW219413   5.510   2.235   6.162
 6172SOL     OW19414   0.329   5.019   3.748
 6172SOL    HW119415   0.395   4.945   3.738
 6172SOL    HW219416   0.295   5.047   3.659
 6173SOL     OW19417   5.258   6.312   2.935
 6173SOL    HW119418   5.249   6.340   3.030
 6173SOL    HW219419   5.298   6.220   2.930
 6174SOL     OW19420   0.428   2.329   3.386
 6174SOL    HW119421   0.361   2.299   3.318
 6174SOL    HW219422   0.455   2.251   3.442
 6175SOL     OW19423   4.244   2.430   6.464
 6175SOL    HW119424   4.292   2.398   6.545
 6175SOL    HW219425   4.237   2.530   6.466
 6176SOL     OW19426   3.080   5.150   5.864
 6176SOL    HW119427   2.988   5.169   5.898
 6176SOL    HW219428   3.144   5.148   5.940
 6177SOL     OW19429   6.033   5.423   1.435
 6177SOL    HW119430   5.968   5.485   1.480
 6177SOL    HW219431   5.994   5.392   1.348
 6178SOL     OW19432   4.342   4.732   1.717
 6178SOL    HW119433   4.399   4.657   1.752
 6178SOL    HW219434   4.391   4.781   1.646
 6179SOL     OW19435   4.618   5.444   4.996
 6179SOL    HW119436   4.673   5.462   4.915
 6179SOL    HW219437   4.661   5.372   5.051
 6180SOL     OW19438   2.324   3.582   0.009
 6180SOL    HW119439   2.232   3.615   0.030
 6180SOL    HW219440   2.391   3.642   0.051
 6181SOL     OW19441   0.195   6.408   0.343
 6181SOL    HW119442   0.291   6.386   0.323
 6181SOL    HW219443   0.174   6.499   0.307
 6182SOL     OW19444   2.912   2.687   6.126
 6182SOL    HW119445   2.817   2.657   6.120
 6182SOL    HW219446   2.973   2.609   6.110
 6183SOL     OW19447   0.294   0.465   0.682
 6183SOL    HW119448   0.385   0.472   0.642
 6183SOL    HW219449   0.285   0.532   0.756
 6184SOL     OW19450   3.664   6.417   5.600
 6184SOL    HW119451   3.580   6.468   5.581
 6184SOL    HW219452   3.738   6.480   5.621
 6185SOL     OW19453   3.182   2.965   3.872
 6185SOL    HW119454   3.250   2.973   3.799
 6185SOL    HW219455   3.103   2.914   3.839
 6186SOL     OW19456   1.019   1.711   2.428
 6186SOL    HW119457   0.996   1.629   2.482
 6186SOL    HW219458   0.963   1.712   2.345
 6187SOL     OW19459   3.583   1.978   5.675
 6187SOL    HW119460   3.582   1.885   5.640
 6187SOL    HW219461   3.677   2.007   5.692
 6188SOL     OW19462   1.559   1.320   5.871
 6188SOL    HW119463   1.604   1.235   5.897
 6188SOL    HW219464   1.615   1.397   5.899
 6189SOL     OW19465   6.836   5.650   0.778
 6189SOL    HW119466   6.894   5.611   0.707
 6189SOL    HW219467   6.801   5.739   0.747
 6190SOL     OW19468   0.932   2.749   3.682
 6190SOL    HW119469   0.906   2.789   3.770
 6190SOL    HW219470   0.986   2.666   3.698
 6191SOL     OW19471   3.185   4.500   6.951
 6191SOL    HW119472   3.111   4.560   6.921
 6191SOL    HW219473   3.272   4.548   6.944
 6192SOL     OW19474   2.864   1.786   1.642
 6192SOL    HW119475   2.867   1.688   1.621
 6192SOL    HW219476   2.769   1.815   1.648
 6193SOL     OW19477   4.773   5.766   7.001
 6193SOL    HW119478   4.868   5.746   6.979
 6193SOL    HW219479   4.713   5.709   6.945
 6194SOL     OW19480   5.536   6.836   6.063
 6194SOL    HW119481   5.518   6.867   5.970
 6194SOL    HW219482   5.626   6.870   6.092
 6195SOL     OW19483   4.495   5.390   5.918
 6195SOL    HW119484   4.498   5.480   5.961
 6195SOL    HW219485   4.585   5.368   5.880
 6196SOL     OW19486   6.904   3.547   3.127
 6196SOL    HW119487   6.838   3.582   3.194
 6196SOL    HW219488   6.962   3.478   3.170
 6197SOL     OW19489   0.606   5.777   0.656
 6197SOL    HW119490   0.684   5.717   0.637
 6197SOL    HW219491   0.627   5.870   0.626
 6198SOL     OW19492   6.701   1.604   6.093
 6198SOL    HW119493   6.605   1.614   6.120
 6198SOL    HW219494   6.725   1.507   6.091
 6199SOL     OW19495   2.447   0.119   6.146
 6199SOL    HW119496   2.363   0.146   6.100
 6199SOL    HW219497   2.479   0.193   6.204
 6200SOL     OW19498   1.637   6.927   6.972
 6200SOL    HW119499   1.686   7.005   6.934
 6200SOL    HW219500   1.682   6.896   0.034
 6201SOL     OW19501   0.626   4.697   3.933
 6201SOL    HW119502   0.557   4.629   3.958
 6201SOL    HW219503   0.587   4.760   3.865
 6202SOL     OW19504   5.849   0.745   1.362
 6202SOL    HW119505   5.929   0.685   1.367
 6202SOL    HW219506   5.825   0.762   1.266
 6203SOL     OW19507   0.048   1.408   2.122
 6203SOL    HW119508   0.126   1.348   2.106
 6203SOL    HW219509   0.073   1.481   2.186
 6204SOL     OW19510   1.193   6.138   4.633
 6204SOL    HW119511   1.108   6.104   4.593
 6204SOL    HW219512   1.215   6.082   4.714
 6205SOL     OW19513   0.087   4.193   3.462
 6205SOL    HW119514   0.108   4.235   3.551
 6205SOL    HW219515   7.011   4.198   3.445
 6206SOL     OW19516   5.115   2.260   3.660
 6206SOL    HW119517   5.107   2.288   3.564
 6206SOL    HW219518   5.043   2.194   3.682
 6207SOL     OW19519   1.694   5.765   3.518
 6207SOL    HW119520   1.704   5.681   3.465
 6207SOL    HW219521   1.743   5.756   3.605
 6208SOL     OW19522   3.617   4.394   6.498
 6208SOL    HW119523   3.526   4.364   6.526
 6208SOL    HW219524   3.673   4.409   6.580
 6209SOL     OW19525   3.506   0.914   2.534
 6209SOL    HW119526   3.431   0.979   2.550
 6209SOL    HW219527   3.519   0.859   2.616
 6210SOL     OW19528   5.643   0.427   3.760
 6210SOL    HW119529   5.690   0.509   3.792
 6210SOL    HW219530   5.557   0.453   3.716
 6211SOL     OW19531   5.247   2.742   4.841
 6211SOL    HW119532   5.282   2.668   4.898
 6211SOL    HW219533   5.320   2.808   4.824
 6212SOL     OW19534   5.308   3.898   4.678
 6212SOL    HW119535   5.320   3.933   4.771
 6212SOL    HW219536   5.226   3.939   4.637
 6213SOL     OW19537   5.515   5.979   0.818
 6213SOL    HW119538   5.461   5.899   0.845
 6213SOL    HW219539   5.472   6.022   0.738
 6214SOL     OW19540   6.740   6.296   6.437
 6214SOL    HW119541   6.685   6.376   6.463
 6214SOL    HW219542   6.809   6.324   6.370
 6215SOL     OW19543   5.791   2.726   4.874
 6215SOL    HW119544   5.810   2.741   4.971
 6215SOL    HW219545   5.843   2.793   4.820
 6216SOL     OW19546   5.129   2.620   5.800
 6216SOL    HW119547   5.168   2.706   5.833
 6216SOL    HW219548   5.202   2.554   5.783
 6217SOL     OW19549   0.027   4.271   2.169
 6217SOL    HW119550   0.122   4.246   2.190
 6217SOL    HW219551   7.014   4.329   2.242
 6218SOL     OW19552   4.874   6.707   1.205
 6218SOL    HW119553   4.867   6.685   1.107
 6218SOL    HW219554   4.968   6.735   1.226
 6219SOL     OW19555   2.499   0.871   0.617
 6219SOL    HW119556   2.594   0.850   0.592
 6219SOL    HW219557   2.440   0.857   0.538
 6220SOL     OW19558   3.199   0.545   2.711
 6220SOL    HW119559   3.288   0.512   2.743
 6220SOL    HW219560   3.180   0.634   2.752
 6221SOL     OW19561   4.544   4.885   5.302
 6221SOL    HW119562   4.488   4.881   5.219
 6221SOL    HW219563   4.636   4.852   5.281
 6222SOL     OW19564   0.023   0.956   2.041
 6222SOL    HW119565   0.013   1.000   1.952
 6222SOL    HW219566   0.007   1.024   2.113
 6223SOL     OW19567   6.774   5.150   4.054
 6223SOL    HW119568   6.815   5.123   3.967
 6223SOL    HW219569   6.694   5.207   4.036
 6224SOL     OW19570   3.808   0.051   0.076
 6224SOL    HW119571   3.901   0.017   0.088
 6224SOL    HW219572   3.743   6.999   0.087
 6225SOL     OW19573   5.299   5.736   6.706
 6225SOL    HW119574   5.270   5.677   6.781
 6225SOL    HW219575   5.375   5.794   6.737
 6226SOL     OW19576   1.061   1.209   4.250
 6226SOL    HW119577   1.130   1.188   4.181
 6226SOL    HW219578   0.980   1.152   4.235
 6227SOL     OW19579   2.210   4.289   6.139
 6227SOL    HW119580   2.277   4.292   6.064
 6227SOL    HW219581   2.189   4.382   6.168
 6228SOL     OW19582   0.555   2.986   4.023
 6228SOL    HW119583   0.525   3.076   3.990
 6228SOL    HW219584   0.483   2.919   4.005
 6229SOL     OW19585   6.992   4.502   5.173
 6229SOL    HW119586   0.051   4.475   5.223
 6229SOL    HW219587   6.999   4.472   5.078
 6230SOL     OW19588   0.754   0.496   1.153
 6230SOL    HW119589   0.662   0.462   1.134
 6230SOL    HW219590   0.818   0.454   1.089
 6231SOL     OW19591   2.343   5.541   5.640
 6231SOL    HW119592   2.442   5.552   5.633
 6231SOL    HW219593   2.321   5.483   5.718
 6232SOL     OW19594   3.860   0.862   6.783
 6232SOL    HW119595   3.846   0.770   6.821
 6232SOL    HW219596   3.918   0.856   6.703
 6233SOL     OW19597   7.021   4.311   1.022
 6233SOL    HW119598   6.950   4.293   1.091
 6233SOL    HW219599   0.084   4.335   1.067
 6234SOL     OW19600   5.001   5.532   3.097
 6234SOL    HW119601   4.938   5.466   3.056
 6234SOL    HW219602   5.035   5.497   3.184
 6235SOL     OW19603   0.484   0.832   1.856
 6235SOL    HW119604   0.459   0.922   1.894
 6235SOL    HW219605   0.447   0.823   1.764
 6236SOL     OW19606   6.333   5.828   1.364
 6236SOL    HW119607   6.386   5.888   1.304
 6236SOL    HW219608   6.248   5.873   1.389
 6237SOL     OW19609   4.227   1.124   2.620
 6237SOL    HW119610   4.276   1.082   2.544
 6237SOL    HW219611   4.137   1.154   2.589
 6238SOL     OW19612   2.462   0.082   3.973
 6238SOL    HW119613   2.537   0.125   4.024
 6238SOL    HW219614   2.501   0.020   3.905
 6239SOL     OW19615   3.970   1.466   4.373
 6239SOL    HW119616   3.955   1.425   4.463
 6239SOL    HW219617   3.890   1.521   4.348
 6240SOL     OW19618   3.600   3.222   4.071
 6240SOL    HW119619   3.504   3.200   4.083
 6240SOL    HW219620   3.641   3.245   4.159
 6241SOL     OW19621   4.114   0.159   3.450
 6241SOL    HW119622   4.146   0.116   3.535
 6241SOL    HW219623   4.157   0.113   3.372
 6242SOL     OW19624   3.451   2.041   4.515
 6242SOL    HW119625   3.467   2.094   4.599
 6242SOL    HW219626   3.363   2.066   4.477
 6243SOL     OW19627   3.245   0.724   0.139
 6243SOL    HW119628   3.277   0.816   0.117
 6243SOL    HW219629   3.229   0.717   0.238
 6244SOL     OW19630   4.642   2.475   1.591
 6244SOL    HW119631   4.593   2.550   1.636
 6244SOL    HW219632   4.735   2.505   1.570
 6245SOL     OW19633   6.918   4.749   1.630
 6245SOL    HW119634   6.946   4.677   1.693
 6245SOL    HW219635   6.877   4.824   1.681
 6246SOL     OW19636   0.961   5.665   5.123
 6246SOL    HW119637   0.938   5.678   5.220
 6246SOL    HW219638   0.880   5.635   5.073
 6247SOL     OW19639   5.823   5.358   2.646
 6247SOL    HW119640   5.730   5.382   2.619
 6247SOL    HW219641   5.852   5.277   2.595
 6248SOL     OW19642   4.463   2.780   6.229
 6248SOL    HW119643   4.555   2.746   6.209
 6248SOL    HW219644   4.423   2.818   6.145
 6249SOL     OW19645   5.500   2.338   3.053
 6249SOL    HW119646   5.582   2.371   3.099
 6249SOL    HW219647   5.420   2.354   3.112
 6250SOL     OW19648   5.498   6.778   5.234
 6250SOL    HW119649   5.399   6.771   5.220
 6250SOL    HW219650   5.543   6.702   5.187
 6251SOL     OW19651   2.676   1.169   3.887
 6251SOL    HW119652   2.714   1.165   3.980
 6251SOL    HW219653   2.577   1.158   3.891
 6252SOL     OW19654   2.741   4.854   0.352
 6252SOL    HW119655   2.716   4.928   0.289
 6252SOL    HW219656   2.834   4.867   0.385
 6253SOL     OW19657   5.115   6.161   3.195
 6253SOL    HW119658   5.039   6.225   3.194
 6253SOL    HW219659   5.139   6.138   3.290
 6254SOL     OW19660   6.993   6.905   1.848
 6254SOL    HW119661   6.976   6.985   1.904
 6254SOL    HW219662   6.956   6.824   1.894
 6255SOL     OW19663   2.126   0.967   1.074
 6255SOL    HW119664   2.218   0.938   1.100
 6255SOL    HW219665   2.065   0.888   1.072
 6256SOL     OW19666   7.009   4.453   2.356
 6256SOL    HW119667   0.078   4.479   2.326
 6256SOL    HW219668   6.986   4.501   2.440
 6257SOL     OW19669   4.209   3.825   0.576
 6257SOL    HW119670   4.212   3.859   0.482
 6257SOL    HW219671   4.301   3.797   0.604
 6258SOL     OW19672   4.009   4.795   3.893
 6258SOL    HW119673   3.968   4.835   3.812
 6258SOL    HW219674   3.958   4.822   3.974
 6259SOL     OW19675   4.843   0.411   4.661
 6259SOL    HW119676   4.849   0.314   4.637
 6259SOL    HW219677   4.935   0.446   4.678
 6260SOL     OW19678   3.607   2.201   0.072
 6260SOL    HW119679   3.670   2.213   7.017
 6260SOL    HW219680   3.632   2.264   0.145
 6261SOL     OW19681   4.739   6.429   1.313
 6261SOL    HW119682   4.655   6.481   1.324
 6261SOL    HW219683   4.813   6.490   1.284
 6262SOL     OW19684   6.093   1.454   3.409
 6262SOL    HW119685   6.190   1.428   3.407
 6262SOL    HW219686   6.057   1.454   3.316
 6263SOL     OW19687   6.411   6.426   6.111
 6263SOL    HW119688   6.497   6.377   6.126
 6263SOL    HW219689   6.388   6.422   6.014
 6264SOL     OW19690   1.239   6.547   1.426
 6264SOL    HW119691   1.186   6.493   1.361
 6264SOL    HW219692   1.197   6.541   1.516
 6265SOL     OW19693   3.968   6.597   6.758
 6265SOL    HW119694   4.026   6.554   6.827
 6265SOL    HW219695   3.950   6.532   6.684
 6266SOL     OW19696   2.711   5.369   3.499
 6266SOL    HW119697   2.632   5.314   3.526
 6266SOL    HW219698   2.795   5.325   3.533
 6267SOL     OW19699   0.810   6.441   3.901
 6267SOL    HW119700   0.906   6.437   3.876
 6267SOL    HW219701   0.763   6.510   3.845
 6268SOL     OW19702   3.178   1.473   1.432
 6268SOL    HW119703   3.211   1.401   1.493
 6268SOL    HW219704   3.152   1.554   1.484
 6269SOL     OW19705   0.161   6.123   0.420
 6269SOL    HW119706   0.141   6.216   0.387
 6269SOL    HW219707   0.099   6.100   0.495
 6270SOL     OW19708   1.714   6.233   1.084
 6270SOL    HW119709   1.768   6.245   1.000
 6270SOL    HW219710   1.630   6.183   1.062
 6271SOL     OW19711   0.072   3.477   6.082
 6271SOL    HW119712   0.085   3.417   6.003
 6271SOL    HW219713   0.160   3.494   6.126
 6272SOL     OW19714   0.046   1.262   0.725
 6272SOL    HW119715   7.016   1.179   0.704
 6272SOL    HW219716   0.131   1.262   0.671
 6273SOL     OW19717   0.526   6.294   2.976
 6273SOL    HW119718   0.531   6.342   3.063
 6273SOL    HW219719   0.432   6.298   2.941
 6274SOL     OW19720   3.383   5.921   4.133
 6274SOL    HW119721   3.422   5.833   4.160
 6274SOL    HW219722   3.385   5.928   4.033
 6275SOL     OW19723   2.941   5.460   1.381
 6275SOL    HW119724   2.919   5.414   1.467
 6275SOL    HW219725   2.889   5.545   1.374
 6276SOL     OW19726   1.440   4.494   2.160
 6276SOL    HW119727   1.405   4.538   2.242
 6276SOL    HW219728   1.453   4.396   2.177
 6277SOL     OW19729   5.385   2.577   1.247
 6277SOL    HW119730   5.299   2.533   1.223
 6277SOL    HW219731   5.431   2.608   1.164
 6278SOL     OW19732   3.699   2.998   0.087
 6278SOL    HW119733   3.643   3.076   0.058
 6278SOL    HW219734   3.648   2.913   0.072
 6279SOL     OW19735   1.150   6.476   2.367
 6279SOL    HW119736   1.134   6.381   2.391
 6279SOL    HW219737   1.148   6.486   2.268
 6280SOL     OW19738   4.957   0.939   6.859
 6280SOL    HW119739   4.985   0.910   6.951
 6280SOL    HW219740   4.945   1.038   6.858
 6281SOL     OW19741   5.804   3.640   6.288
 6281SOL    HW119742   5.820   3.711   6.357
 6281SOL    HW219743   5.871   3.650   6.214
 6282SOL     OW19744   0.584   4.065   5.833
 6282SOL    HW119745   0.624   4.004   5.764
 6282SOL    HW219746   0.612   4.036   5.924
 6283SOL     OW19747   2.545   6.894   4.619
 6283SOL    HW119748   2.452   6.901   4.583
 6283SOL    HW219749   2.568   6.978   4.669
 6284SOL     OW19750   1.817   3.753   6.440
 6284SOL    HW119751   1.730   3.779   6.482
 6284SOL    HW219752   1.843   3.662   6.473
 6285SOL     OW19753   1.806   4.531   3.870
 6285SOL    HW119754   1.753   4.613   3.892
 6285SOL    HW219755   1.811   4.521   3.770
 6286SOL     OW19756   0.868   3.108   6.801
 6286SOL    HW119757   0.875   3.092   6.702
 6286SOL    HW219758   0.829   3.198   6.818
 6287SOL     OW19759   4.037   5.268   5.325
 6287SOL    HW119760   3.968   5.336   5.300
 6287SOL    HW219761   4.125   5.314   5.337
 6288SOL     OW19762   3.497   3.933   5.861
 6288SOL    HW119763   3.542   4.022   5.871
 6288SOL    HW219764   3.475   3.918   5.765
 6289SOL     OW19765   2.571   4.881   5.534
 6289SOL    HW119766   2.508   4.871   5.457
 6289SOL    HW219767   2.652   4.826   5.519
 6290SOL     OW19768   6.190   0.478   2.885
 6290SOL    HW119769   6.269   0.490   2.944
 6290SOL    HW219770   6.179   0.381   2.863
 6291SOL     OW19771   3.027   3.088   2.354
 6291SOL    HW119772   3.104   3.061   2.296
 6291SOL    HW219773   3.032   3.041   2.442
 6292SOL     OW19774   0.964   4.222   4.960
 6292SOL    HW119775   0.963   4.209   4.861
 6292SOL    HW219776   1.031   4.292   4.984
 6293SOL     OW19777   2.763   1.089   0.668
 6293SOL    HW119778   2.765   1.028   0.589
 6293SOL    HW219779   2.734   1.038   0.749
 6294SOL     OW19780   1.640   0.336   2.236
 6294SOL    HW119781   1.626   0.426   2.195
 6294SOL    HW219782   1.738   0.317   2.242
 6295SOL     OW19783   4.584   2.508   5.486
 6295SOL    HW119784   4.486   2.489   5.478
 6295SOL    HW219785   4.633   2.421   5.496
 6296SOL     OW19786   6.976   1.838   0.118
 6296SOL    HW119787   6.888   1.808   0.081
 6296SOL    HW219788   6.960   1.895   0.199
 6297SOL     OW19789   0.099   1.073   4.159
 6297SOL    HW119790   0.051   1.065   4.072
 6297SOL    HW219791   0.184   1.124   4.146
 6298SOL     OW19792   6.801   0.683   6.478
 6298SOL    HW119793   6.793   0.609   6.544
 6298SOL    HW219794   6.843   0.763   6.521
 6299SOL     OW19795   3.171   1.589   3.764
 6299SOL    HW119796   3.245   1.544   3.814
 6299SOL    HW219797   3.210   1.658   3.703
 6300SOL     OW19798   2.990   2.186   1.058
 6300SOL    HW119799   3.080   2.192   1.101
 6300SOL    HW219800   2.991   2.237   0.972
 6301SOL     OW19801   3.943   6.313   0.980
 6301SOL    HW119802   3.948   6.242   0.910
 6301SOL    HW219803   3.852   6.354   0.980
 6302SOL     OW19804   1.657   3.476   0.305
 6302SOL    HW119805   1.752   3.451   0.321
 6302SOL    HW219806   1.636   3.562   0.353
 6303SOL     OW19807   6.421   4.715   4.994
 6303SOL    HW119808   6.428   4.633   4.937
 6303SOL    HW219809   6.507   4.731   5.042
 6304SOL     OW19810   2.135   2.542   4.411
 6304SOL    HW119811   2.191   2.460   4.397
 6304SOL    HW219812   2.185   2.622   4.377
 6305SOL     OW19813   1.048   5.930   5.082
 6305SOL    HW119814   1.084   5.976   5.163
 6305SOL    HW219815   1.020   5.837   5.106
 6306SOL     OW19816   1.042   4.323   3.680
 6306SOL    HW119817   1.092   4.335   3.595
 6306SOL    HW219818   1.046   4.227   3.709
 6307SOL     OW19819   3.407   3.532   2.910
 6307SOL    HW119820   3.431   3.610   2.852
 6307SOL    HW219821   3.336   3.478   2.864
 6308SOL     OW19822   1.086   0.840   1.256
 6308SOL    HW119823   1.180   0.816   1.231
 6308SOL    HW219824   1.075   0.835   1.355
 6309SOL     OW19825   1.743   5.867   5.135
 6309SOL    HW119826   1.695   5.882   5.222
 6309SOL    HW219827   1.690   5.803   5.079
 6310SOL     OW19828   1.062   6.824   3.313
 6310SOL    HW119829   1.137   6.786   3.259
 6310SOL    HW219830   0.998   6.751   3.338
 6311SOL     OW19831   5.837   1.590   6.143
 6311SOL    HW119832   5.810   1.526   6.216
 6311SOL    HW219833   5.759   1.648   6.120
 6312SOL     OW19834   3.891   5.632   1.874
 6312SOL    HW119835   3.873   5.726   1.846
 6312SOL    HW219836   3.902   5.575   1.793
 6313SOL     OW19837   5.370   5.020   2.780
 6313SOL    HW119838   5.374   4.983   2.687
 6313SOL    HW219839   5.457   5.063   2.803
 6314SOL     OW19840   2.063   6.379   2.983
 6314SOL    HW119841   2.108   6.468   2.971
 6314SOL    HW219842   2.131   6.310   3.007
 6315SOL     OW19843   2.370   2.661   2.977
 6315SOL    HW119844   2.309   2.688   3.051
 6315SOL    HW219845   2.437   2.734   2.961
 6316SOL     OW19846   4.682   0.520   4.839
 6316SOL    HW119847   4.702   0.613   4.808
 6316SOL    HW219848   4.726   0.455   4.778
 6317SOL     OW19849   4.859   3.625   3.372
 6317SOL    HW119850   4.900   3.585   3.290
 6317SOL    HW219851   4.761   3.637   3.358
 6318SOL     OW19852   5.532   6.798   0.245
 6318SOL    HW119853   5.484   6.781   0.160
 6318SOL    HW219854   5.630   6.806   0.227
 6319SOL     OW19855   4.729   2.697   4.231
 6319SOL    HW119856   4.693   2.726   4.320
 6319SOL    HW219857   4.715   2.599   4.220
 6320SOL     OW19858   5.758   2.138   6.378
 6320SOL    HW119859   5.694   2.144   6.302
 6320SOL    HW219860   5.843   2.185   6.354
 6321SOL     OW19861   0.868   3.949   0.202
 6321SOL    HW119862   0.860   3.871   0.139
 6321SOL    HW219863   0.797   4.016   0.180
 6322SOL     OW19864   2.170   1.229   3.116
 6322SOL    HW119865   2.177   1.230   3.216
 6322SOL    HW219866   2.182   1.136   3.083
 6323SOL     OW19867   2.024   6.137   0.985
 6323SOL    HW119868   2.069   6.221   1.016
 6323SOL    HW219869   2.065   6.059   1.031
 6324SOL     OW19870   5.196   3.897   1.439
 6324SOL    HW119871   5.139   3.826   1.399
 6324SOL    HW219872   5.241   3.861   1.521
 6325SOL     OW19873   1.096   3.339   4.018
 6325SOL    HW119874   1.191   3.362   3.993
 6325SOL    HW219875   1.061   3.269   3.955
 6326SOL     OW19876   5.127   5.475   4.916
 6326SOL    HW119877   5.120   5.530   4.999
 6326SOL    HW219878   5.223   5.464   4.890
 6327SOL     OW19879   0.877   1.076   2.748
 6327SOL    HW119880   0.876   0.976   2.743
 6327SOL    HW219881   0.861   1.105   2.842
 6328SOL     OW19882   4.146   3.592   4.757
 6328SOL    HW119883   4.098   3.504   4.748
 6328SOL    HW219884   4.233   3.588   4.710
 6329SOL     OW19885   0.347   2.956   4.690
 6329SOL    HW119886   0.335   2.857   4.690
 6329SOL    HW219887   0.433   2.980   4.646
 6330SOL     OW19888   4.327   1.880   3.130
 6330SOL    HW119889   4.378   1.897   3.046
 6330SOL    HW219890   4.346   1.954   3.195
 6331SOL     OW19891   1.637   3.307   3.531
 6331SOL    HW119892   1.576   3.246   3.581
 6331SOL    HW219893   1.613   3.402   3.551
 6332SOL     OW19894   4.342   2.351   0.236
 6332SOL    HW119895   4.315   2.438   0.276
 6332SOL    HW219896   4.440   2.337   0.250
 6333SOL     OW19897   6.008   1.325   0.084
 6333SOL    HW119898   6.081   1.379   0.043
 6333SOL    HW219899   5.929   1.384   0.102
 6334SOL     OW19900   2.314   1.126   1.698
 6334SOL    HW119901   2.410   1.154   1.692
 6334SOL    HW219902   2.285   1.124   1.794
 6335SOL     OW19903   5.809   2.792   5.142
 6335SOL    HW119904   5.800   2.729   5.219
 6335SOL    HW219905   5.725   2.845   5.132
 6336SOL     OW19906   0.696   5.399   6.103
 6336SOL    HW119907   0.675   5.470   6.036
 6336SOL    HW219908   0.783   5.421   6.148
 6337SOL     OW19909   6.391   0.302   5.486
 6337SOL    HW119910   6.393   0.272   5.581
 6337SOL    HW219911   6.308   0.268   5.441
 6338SOL     OW19912   0.869   0.795   2.789
 6338SOL    HW119913   0.799   0.749   2.843
 6338SOL    HW219914   0.905   0.732   2.720
 6339SOL     OW19915   0.035   3.884   3.401
 6339SOL    HW119916   0.064   3.978   3.419
 6339SOL    HW219917   0.066   3.856   3.310
 6340SOL     OW19918   2.210   5.529   6.586
 6340SOL    HW119919   2.244   5.447   6.632
 6340SOL    HW219920   2.192   5.600   6.653
 6341SOL     OW19921   1.046   4.396   3.037
 6341SOL    HW119922   1.140   4.416   3.011
 6341SOL    HW219923   1.026   4.300   3.018
 6342SOL     OW19924   2.356   6.951   1.433
 6342SOL    HW119925   2.438   6.912   1.391
 6342SOL    HW219926   2.383   0.006   1.492
 6343SOL     OW19927   1.468   4.484   6.564
 6343SOL    HW119928   1.448   4.405   6.505
 6343SOL    HW219929   1.549   4.465   6.619
 6344SOL     OW19930   1.889   1.388   4.021
 6344SOL    HW119931   1.801   1.414   3.981
 6344SOL    HW219932   1.922   1.305   3.978
 6345SOL     OW19933   0.517   3.061   3.330
 6345SOL    HW119934   0.473   3.143   3.368
 6345SOL    HW219935   0.548   3.002   3.405
 6346SOL     OW19936   0.503   4.447   3.957
 6346SOL    HW119937   0.562   4.373   3.927
 6346SOL    HW219938   0.497   4.447   4.057
 6347SOL     OW19939   1.931   1.451   2.550
 6347SOL    HW119940   1.900   1.448   2.455
 6347SOL    HW219941   1.877   1.388   2.605
 6348SOL     OW19942   1.349   2.665   0.457
 6348SOL    HW119943   1.346   2.749   0.403
 6348SOL    HW219944   1.306   2.682   0.546
 6349SOL     OW19945   6.381   1.389   0.920
 6349SOL    HW119946   6.438   1.368   1.000
 6349SOL    HW219947   6.334   1.476   0.935
 6350SOL     OW19948   0.280   6.995   1.526
 6350SOL    HW119949   0.185   6.976   1.549
 6350SOL    HW219950   0.316   0.043   1.587
 6351SOL     OW19951   6.261   2.551   2.164
 6351SOL    HW119952   6.184   2.613   2.172
 6351SOL    HW219953   6.344   2.596   2.198
 6352SOL     OW19954   4.136   0.517   5.416
 6352SOL    HW119955   4.128   0.543   5.320
 6352SOL    HW219956   4.121   0.598   5.473
 6353SOL     OW19957   3.893   5.984   5.904
 6353SOL    HW119958   3.901   6.081   5.881
 6353SOL    HW219959   3.984   5.946   5.918
 6354SOL     OW19960   5.715   5.124   2.527
 6354SOL    HW119961   5.728   5.033   2.488
 6354SOL    HW219962   5.744   5.193   2.461
 6355SOL     OW19963   4.827   6.262   6.638
 6355SOL    HW119964   4.785   6.219   6.717
 6355SOL    HW219965   4.895   6.201   6.598
 6356SOL     OW19966   0.683   6.873   6.061
 6356SOL    HW119967   0.769   6.847   6.017
 6356SOL    HW219968   0.702   6.916   6.149
 6357SOL     OW19969   4.755   1.575   2.985
 6357SOL    HW119970   4.781   1.555   2.891
 6357SOL    HW219971   4.659   1.549   2.999
 6358SOL     OW19972   1.414   1.401   4.784
 6358SOL    HW119973   1.350   1.325   4.784
 6358SOL    HW219974   1.427   1.434   4.878
 6359SOL     OW19975   6.608   4.446   0.799
 6359SOL    HW119976   6.597   4.454   0.898
 6359SOL    HW219977   6.518   4.433   0.757
 6360SOL     OW19978   2.872   3.190   0.805
 6360SOL    HW119979   2.796   3.172   0.867
 6360SOL    HW219980   2.920   3.105   0.785
 6361SOL     OW19981   0.034   2.568   2.807
 6361SOL    HW119982   0.043   2.661   2.771
 6361SOL    HW219983   6.967   2.532   2.785
 6362SOL     OW19984   2.113   5.671   0.498
 6362SOL    HW119985   2.023   5.663   0.539
 6362SOL    HW219986   2.126   5.764   0.463
 6363SOL     OW19987   0.655   2.438   1.327
 6363SOL    HW119988   0.737   2.396   1.368
 6363SOL    HW219989   0.617   2.376   1.259
 6364SOL     OW19990   2.812   1.969   4.077
 6364SOL    HW119991   2.897   1.930   4.110
 6364SOL    HW219992   2.826   2.066   4.055
 6365SOL     OW19993   6.315   6.528   2.035
 6365SOL    HW119994   6.293   6.605   2.096
 6365SOL    HW219995   6.384   6.557   1.969
 6366SOL     OW19996   5.865   1.087   5.250
 6366SOL    HW119997   5.775   1.126   5.230
 6366SOL    HW219998   5.911   1.064   5.164
 6367SOL     OW19999   1.791   3.144   4.563
 6367SOL    HW120000   1.703   3.124   4.606
 6367SOL    HW220001   1.794   3.102   4.473
 6368SOL     OW20002   5.365   3.329   5.032
 6368SOL    HW120003   5.270   3.308   5.054
 6368SOL    HW220004   5.370   3.419   4.989
 6369SOL     OW20005   3.379   4.648   0.637
 6369SOL    HW120006   3.313   4.704   0.587
 6369SOL    HW220007   3.466   4.648   0.588
 6370SOL     OW20008   6.025   3.590   4.748
 6370SOL    HW120009   5.987   3.638   4.669
 6370SOL    HW220010   6.123   3.579   4.737
 6371SOL     OW20011   6.015   4.687   1.196
 6371SOL    HW120012   6.038   4.699   1.292
 6371SOL    HW220013   5.988   4.774   1.157
 6372SOL     OW20014   5.950   1.363   1.493
 6372SOL    HW120015   5.857   1.354   1.530
 6372SOL    HW220016   6.016   1.342   1.565
 6373SOL     OW20017   5.715   1.553   1.165
 6373SOL    HW120018   5.772   1.627   1.129
 6373SOL    HW220019   5.679   1.580   1.254
 6374SOL     OW20020   3.638   3.459   6.231
 6374SOL    HW120021   3.644   3.391   6.304
 6374SOL    HW220022   3.687   3.426   6.150
 6375SOL     OW20023   5.592   0.987   1.595
 6375SOL    HW120024   5.565   0.905   1.646
 6375SOL    HW220025   5.600   0.964   1.497
 6376SOL     OW20026   2.990   6.819   0.212
 6376SOL    HW120027   3.008   6.721   0.206
 6376SOL    HW220028   3.060   6.862   0.270
 6377SOL     OW20029   0.012   1.101   0.094
 6377SOL    HW120030   0.022   1.188   0.045
 6377SOL    HW220031   0.095   1.047   0.083
 6378SOL     OW20032   5.818   3.652   3.270
 6378SOL    HW120033   5.849   3.667   3.176
 6378SOL    HW220034   5.879   3.588   3.316
 6379SOL     OW20035   2.546   4.800   6.624
 6379SOL    HW120036   2.479   4.819   6.552
 6379SOL    HW220037   2.499   4.790   6.712
 6380SOL     OW20038   1.898   2.526   4.528
 6380SOL    HW120039   1.903   2.599   4.596
 6380SOL    HW220040   1.972   2.538   4.461
 6381SOL     OW20041   3.423   4.377   1.030
 6381SOL    HW120042   3.363   4.450   1.064
 6381SOL    HW220043   3.380   4.288   1.047
 6382SOL     OW20044   1.788   1.211   1.119
 6382SOL    HW120045   1.726   1.138   1.149
 6382SOL    HW220046   1.842   1.179   1.042
 6383SOL     OW20047   2.810   1.858   2.619
 6383SOL    HW120048   2.837   1.807   2.701
 6383SOL    HW220049   2.892   1.882   2.566
 6384SOL     OW20050   0.252   1.643   2.370
 6384SOL    HW120051   0.217   1.670   2.280
 6384SOL    HW220052   0.351   1.658   2.373
 6385SOL     OW20053   0.270   3.805   1.605
 6385SOL    HW120054   0.360   3.774   1.638
 6385SOL    HW220055   0.222   3.727   1.565
 6386SOL     OW20056   3.005   4.402   0.555
 6386SOL    HW120057   2.945   4.451   0.493
 6386SOL    HW220058   2.957   4.322   0.592
 6387SOL     OW20059   6.258   1.055   5.471
 6387SOL    HW120060   6.335   1.008   5.515
 6387SOL    HW220061   6.269   1.050   5.371
 6388SOL     OW20062   6.390   4.958   2.021
 6388SOL    HW120063   6.470   4.932   2.075
 6388SOL    HW220064   6.420   4.994   1.932
 6389SOL     OW20065   6.757   6.508   0.865
 6389SOL    HW120066   6.657   6.502   0.872
 6389SOL    HW220067   6.799   6.470   0.947
 6390SOL     OW20068   4.649   6.036   0.253
 6390SOL    HW120069   4.681   6.123   0.292
 6390SOL    HW220070   4.626   6.050   0.157
 6391SOL     OW20071   1.187   1.826   4.939
 6391SOL    HW120072   1.106   1.795   4.989
 6391SOL    HW220073   1.267   1.821   4.999
 6392SOL     OW20074   4.754   6.223   3.363
 6392SOL    HW120075   4.704   6.137   3.348
 6392SOL    HW220076   4.825   6.232   3.293
 6393SOL     OW20077   2.497   4.801   0.156
 6393SOL    HW120078   2.502   4.860   0.236
 6393SOL    HW220079   2.402   4.771   0.143
 6394SOL     OW20080   1.645   5.216   2.290
 6394SOL    HW120081   1.705   5.273   2.347
 6394SOL    HW220082   1.683   5.123   2.286
 6395SOL     OW20083   1.008   3.970   5.292
 6395SOL    HW120084   1.074   3.971   5.217
 6395SOL    HW220085   0.921   3.931   5.260
 6396SOL     OW20086   1.157   3.486   4.375
 6396SOL    HW120087   1.186   3.507   4.468
 6396SOL    HW220088   1.236   3.456   4.321
 6397SOL     OW20089   0.449   3.427   4.233
 6397SOL    HW120090   0.366   3.476   4.207
 6397SOL    HW220091   0.526   3.491   4.238
 6398SOL     OW20092   0.603   0.188   2.902
 6398SOL    HW120093   0.653   0.115   2.856
 6398SOL    HW220094   0.655   0.220   2.981
 6399SOL     OW20095   2.785   6.941   6.699
 6399SOL    HW120096   2.785   0.013   6.734
 6399SOL    HW220097   2.695   6.922   6.658
 6400SOL     OW20098   0.883   5.995   3.085
 6400SOL    HW120099   0.939   5.974   3.164
 6400SOL    HW220100   0.857   6.092   3.086
 6401SOL     OW20101   4.094   4.720   1.618
 6401SOL    HW120102   4.095   4.740   1.520
 6401SOL    HW220103   4.188   4.714   1.652
 6402SOL     OW20104   3.231   3.382   6.016
 6402SOL    HW120105   3.279   3.318   5.955
 6402SOL    HW220106   3.134   3.383   5.993
 6403SOL     OW20107   3.566   5.283   5.661
 6403SOL    HW120108   3.607   5.335   5.736
 6403SOL    HW220109   3.625   5.290   5.580
 6404SOL     OW20110   5.250   6.008   6.062
 6404SOL    HW120111   5.177   5.957   6.017
 6404SOL    HW220112   5.315   6.041   5.993
 6405SOL     OW20113   4.585   0.711   3.223
 6405SOL    HW120114   4.661   0.682   3.281
 6405SOL    HW220115   4.572   0.810   3.233
 6406SOL     OW20116   0.482   3.259   2.312
 6406SOL    HW120117   0.569   3.306   2.297
 6406SOL    HW220118   0.408   3.327   2.314
 6407SOL     OW20119   0.206   0.138   2.560
 6407SOL    HW120120   0.248   0.067   2.503
 6407SOL    HW220121   0.107   0.137   2.545
 6408SOL     OW20122   6.776   1.381   2.094
 6408SOL    HW120123   6.862   1.423   2.124
 6408SOL    HW220124   6.789   1.339   2.004
 6409SOL     OW20125   6.671   4.436   3.879
 6409SOL    HW120126   6.756   4.431   3.827
 6409SOL    HW220127   6.649   4.346   3.916
 6410SOL     OW20128   1.405   0.625   6.953
 6410SOL    HW120129   1.319   0.621   7.004
 6410SOL    HW220130   1.410   0.548   6.889
 6411SOL     OW20131   1.259   2.351   4.323
 6411SOL    HW120132   1.330   2.325   4.388
 6411SOL    HW220133   1.170   2.346   4.368
 6412SOL     OW20134   4.323   0.268   0.143
 6412SOL    HW120135   4.375   0.353   0.156
 6412SOL    HW220136   4.378   0.204   0.090
 6413SOL     OW20137   4.697   5.681   3.191
 6413SOL    HW120138   4.696   5.665   3.289
 6413SOL    HW220139   4.741   5.604   3.145
 6414SOL     OW20140   3.582   0.241   0.388
 6414SOL    HW120141   3.564   0.146   0.413
 6414SOL    HW220142   3.634   0.243   0.302
 6415SOL     OW20143   0.209   1.991   3.430
 6415SOL    HW120144   0.266   2.000   3.349
 6415SOL    HW220145   0.263   1.953   3.505
 6416SOL     OW20146   3.124   4.126   0.527
 6416SOL    HW120147   3.105   4.083   0.616
 6416SOL    HW220148   3.110   4.224   0.534
 6417SOL     OW20149   4.594   3.480   6.075
 6417SOL    HW120150   4.512   3.517   6.032
 6417SOL    HW220151   4.626   3.401   6.022
 6418SOL     OW20152   5.141   5.493   0.365
 6418SOL    HW120153   5.205   5.418   0.350
 6418SOL    HW220154   5.082   5.504   0.286
 6419SOL     OW20155   1.574   6.966   6.612
 6419SOL    HW120156   1.617   7.020   6.684
 6419SOL    HW220157   1.623   6.980   6.526
 6420SOL     OW20158   2.007   5.161   3.614
 6420SOL    HW120159   1.977   5.247   3.575
 6420SOL    HW220160   2.068   5.114   3.549
 6421SOL     OW20161   4.911   6.661   1.582
 6421SOL    HW120162   4.834   6.624   1.635
 6421SOL    HW220163   4.980   6.697   1.644
 6422SOL     OW20164   1.265   0.852   5.204
 6422SOL    HW120165   1.169   0.828   5.192
 6422SOL    HW220166   1.272   0.950   5.226
 6423SOL     OW20167   1.237   3.827   4.330
 6423SOL    HW120168   1.320   3.774   4.346
 6423SOL    HW220169   1.259   3.924   4.330
 6424SOL     OW20170   6.301   4.153   5.381
 6424SOL    HW120171   6.336   4.244   5.359
 6424SOL    HW220172   6.349   4.119   5.463
 6425SOL     OW20173   0.896   0.006   5.077
 6425SOL    HW120174   0.809   0.026   5.032
 6425SOL    HW220175   0.882   6.959   5.148
 6426SOL     OW20176   3.377   5.185   3.449
 6426SOL    HW120177   3.371   5.089   3.476
 6426SOL    HW220178   3.464   5.201   3.401
 6427SOL     OW20179   3.392   3.508   3.229
 6427SOL    HW120180   3.414   3.511   3.132
 6427SOL    HW220181   3.296   3.531   3.243
 6428SOL     OW20182   6.395   2.973   6.593
 6428SOL    HW120183   6.381   3.072   6.591
 6428SOL    HW220184   6.412   2.944   6.688
 6429SOL     OW20185   2.880   1.869   4.626
 6429SOL    HW120186   2.857   1.847   4.721
 6429SOL    HW220187   2.796   1.873   4.572
 6430SOL     OW20188   6.465   1.421   4.326
 6430SOL    HW120189   6.366   1.433   4.328
 6430SOL    HW220190   6.498   1.428   4.232
 6431SOL     OW20191   3.302   4.907   3.461
 6431SOL    HW120192   3.313   4.899   3.560
 6431SOL    HW220193   3.204   4.904   3.439
 6432SOL     OW20194   4.337   3.575   6.870
 6432SOL    HW120195   4.287   3.550   6.787
 6432SOL    HW220196   4.408   3.642   6.848
 6433SOL     OW20197   4.028   5.099   6.143
 6433SOL    HW120198   4.063   5.193   6.143
 6433SOL    HW220199   3.942   5.096   6.194
 6434SOL     OW20200   6.575   4.575   6.303
 6434SOL    HW120201   6.608   4.592   6.211
 6434SOL    HW220202   6.483   4.613   6.313
 6435SOL     OW20203   4.441   1.056   0.806
 6435SOL    HW120204   4.420   1.012   0.719
 6435SOL    HW220205   4.428   1.155   0.797
 6436SOL     OW20206   1.023   1.726   3.997
 6436SOL    HW120207   1.079   1.656   3.954
 6436SOL    HW220208   0.941   1.743   3.942
 6437SOL     OW20209   1.115   2.786   6.783
 6437SOL    HW120210   1.207   2.765   6.750
 6437SOL    HW220211   1.049   2.729   6.734
 6438SOL     OW20212   0.687   5.814   1.288
 6438SOL    HW120213   0.711   5.761   1.370
 6438SOL    HW220214   0.605   5.775   1.246
 6439SOL     OW20215   4.668   6.246   3.001
 6439SOL    HW120216   4.706   6.203   2.919
 6439SOL    HW220217   4.597   6.187   3.040
 6440SOL     OW20218   2.219   2.259   5.871
 6440SOL    HW120219   2.137   2.208   5.843
 6440SOL    HW220220   2.297   2.197   5.873
 6441SOL     OW20221   1.303   1.764   1.110
 6441SOL    HW120222   1.233   1.715   1.058
 6441SOL    HW220223   1.347   1.701   1.174
 6442SOL     OW20224   3.067   1.776   4.444
 6442SOL    HW120225   3.151   1.751   4.491
 6442SOL    HW220226   3.001   1.813   4.509
 6443SOL     OW20227   2.616   2.211   5.996
 6443SOL    HW120228   2.545   2.171   5.938
 6443SOL    HW220229   2.681   2.262   5.939
 6444SOL     OW20230   0.031   4.082   5.525
 6444SOL    HW120231   0.033   4.056   5.429
 6444SOL    HW220232   0.121   4.067   5.566
 6445SOL     OW20233   3.246   3.042   3.595
 6445SOL    HW120234   3.344   3.051   3.614
 6445SOL    HW220235   3.224   3.088   3.509
 6446SOL     OW20236   1.273   0.246   2.139
 6446SOL    HW120237   1.180   0.211   2.151
 6446SOL    HW220238   1.304   0.228   2.045
 6447SOL     OW20239   0.099   3.618   1.461
 6447SOL    HW120240   0.161   3.606   1.383
 6447SOL    HW220241   0.036   3.541   1.466
 6448SOL     OW20242   4.037   4.083   1.662
 6448SOL    HW120243   4.022   3.986   1.677
 6448SOL    HW220244   3.962   4.136   1.703
 6449SOL     OW20245   4.411   5.742   0.123
 6449SOL    HW120246   4.459   5.667   0.168
 6449SOL    HW220247   4.370   5.801   0.192
 6450SOL     OW20248   4.550   3.418   1.046
 6450SOL    HW120249   4.514   3.364   0.970
 6450SOL    HW220250   4.480   3.426   1.117
 6451SOL     OW20251   4.498   3.198   1.438
 6451SOL    HW120252   4.474   3.104   1.461
 6451SOL    HW220253   4.517   3.249   1.521
 6452SOL     OW20254   4.357   1.671   4.388
 6452SOL    HW120255   4.353   1.757   4.440
 6452SOL    HW220256   4.419   1.682   4.311
 6453SOL     OW20257   3.447   1.016   2.877
 6453SOL    HW120258   3.431   1.053   2.969
 6453SOL    HW220259   3.546   1.012   2.860
 6454SOL     OW20260   4.834   3.633   5.636
 6454SOL    HW120261   4.933   3.625   5.641
 6454SOL    HW220262   4.808   3.666   5.545
 6455SOL     OW20263   0.292   2.941   5.416
 6455SOL    HW120264   0.303   3.016   5.481
 6455SOL    HW220265   0.353   2.956   5.338
 6456SOL     OW20266   6.307   1.881   2.955
 6456SOL    HW120267   6.386   1.937   2.980
 6456SOL    HW220268   6.224   1.920   2.994
 6457SOL     OW20269   1.426   6.491   3.307
 6457SOL    HW120270   1.424   6.409   3.364
 6457SOL    HW220271   1.492   6.555   3.345
 6458SOL     OW20272   1.076   0.253   5.076
 6458SOL    HW120273   1.130   0.220   5.154
 6458SOL    HW220274   0.993   0.198   5.067
 6459SOL     OW20275   0.424   3.306   3.058
 6459SOL    HW120276   0.524   3.302   3.060
 6459SOL    HW220277   0.389   3.332   3.148
 6460SOL     OW20278   1.599   5.134   5.750
 6460SOL    HW120279   1.677   5.193   5.772
 6460SOL    HW220280   1.553   5.107   5.835
 6461SOL     OW20281   0.225   6.740   2.241
 6461SOL    HW120282   0.248   6.827   2.286
 6461SOL    HW220283   0.131   6.715   2.264
 6462SOL     OW20284   2.561   4.280   5.501
 6462SOL    HW120285   2.639   4.224   5.475
 6462SOL    HW220286   2.484   4.260   5.440
 6463SOL     OW20287   4.903   3.227   1.923
 6463SOL    HW120288   4.857   3.161   1.982
 6463SOL    HW220289   4.999   3.201   1.912
 6464SOL     OW20290   0.927   3.152   3.399
 6464SOL    HW120291   0.890   3.099   3.323
 6464SOL    HW220292   0.890   3.245   3.395
 6465SOL     OW20293   2.397   1.205   2.661
 6465SOL    HW120294   2.370   1.259   2.741
 6465SOL    HW220295   2.317   1.159   2.624
 6466SOL     OW20296   6.602   5.275   6.708
 6466SOL    HW120297   6.626   5.316   6.620
 6466SOL    HW220298   6.670   5.205   6.732
 6467SOL     OW20299   2.799   2.985   5.746
 6467SOL    HW120300   2.880   2.977   5.804
 6467SOL    HW220301   2.826   2.981   5.650
 6468SOL     OW20302   0.888   1.085   0.262
 6468SOL    HW120303   0.968   1.038   0.223
 6468SOL    HW220304   0.884   1.179   0.227
 6469SOL     OW20305   2.612   1.091   1.046
 6469SOL    HW120306   2.620   1.020   0.976
 6469SOL    HW220307   2.581   1.050   1.132
 6470SOL     OW20308   6.129   0.474   6.438
 6470SOL    HW120309   6.095   0.419   6.362
 6470SOL    HW220310   6.053   0.499   6.498
 6471SOL     OW20311   1.017   6.512   5.570
 6471SOL    HW120312   0.945   6.541   5.507
 6471SOL    HW220313   1.044   6.589   5.627
 6472SOL     OW20314   0.734   6.398   1.472
 6472SOL    HW120315   0.751   6.384   1.569
 6472SOL    HW220316   0.797   6.467   1.436
 6473SOL     OW20317   2.717   1.738   3.948
 6473SOL    HW120318   2.727   1.820   4.004
 6473SOL    HW220319   2.801   1.683   3.954
 6474SOL     OW20320   3.792   0.396   4.155
 6474SOL    HW120321   3.821   0.489   4.134
 6474SOL    HW220322   3.835   0.333   4.090
 6475SOL     OW20323   5.252   5.943   3.629
 6475SOL    HW120324   5.344   5.905   3.636
 6475SOL    HW220325   5.215   5.959   3.721
 6476SOL     OW20326   5.333   3.881   5.019
 6476SOL    HW120327   5.336   3.981   5.022
 6476SOL    HW220328   5.245   3.851   4.982
 6477SOL     OW20329   1.375   6.737   0.559
 6477SOL    HW120330   1.289   6.715   0.513
 6477SOL    HW220331   1.381   6.685   0.644
 6478SOL     OW20332   2.064   6.081   6.990
 6478SOL    HW120333   2.020   6.052   0.052
 6478SOL    HW220334   2.138   6.018   6.967
 6479SOL     OW20335   4.711   5.553   4.513
 6479SOL    HW120336   4.710   5.457   4.538
 6479SOL    HW220337   4.618   5.582   4.490
 6480SOL     OW20338   3.037   1.055   5.398
 6480SOL    HW120339   3.010   1.102   5.314
 6480SOL    HW220340   2.959   1.050   5.459
 6481SOL     OW20341   4.006   3.823   1.608
 6481SOL    HW120342   4.099   3.816   1.572
 6481SOL    HW220343   3.950   3.749   1.570
 6482SOL     OW20344   5.342   3.015   3.789
 6482SOL    HW120345   5.305   3.106   3.811
 6482SOL    HW220346   5.438   3.023   3.764
 6483SOL     OW20347   1.755   6.267   5.544
 6483SOL    HW120348   1.811   6.204   5.489
 6483SOL    HW220349   1.741   6.352   5.493
 6484SOL     OW20350   3.802   0.292   3.221
 6484SOL    HW120351   3.891   0.320   3.257
 6484SOL    HW220352   3.742   0.266   3.297
 6485SOL     OW20353   1.996   4.801   5.122
 6485SOL    HW120354   2.025   4.760   5.208
 6485SOL    HW220355   1.898   4.822   5.126
 6486SOL     OW20356   6.797   4.097   2.211
 6486SOL    HW120357   6.876   4.156   2.195
 6486SOL    HW220358   6.748   4.129   2.292
 6487SOL     OW20359   6.302   5.493   4.395
 6487SOL    HW120360   6.271   5.553   4.322
 6487SOL    HW220361   6.238   5.499   4.472
 6488SOL     OW20362   3.080   4.963   3.321
 6488SOL    HW120363   3.056   5.050   3.365
 6488SOL    HW220364   3.054   4.967   3.224
 6489SOL     OW20365   6.087   3.534   5.576
 6489SOL    HW120366   6.077   3.558   5.479
 6489SOL    HW220367   6.182   3.508   5.594
 6490SOL     OW20368   1.721   3.851   6.792
 6490SOL    HW120369   1.677   3.761   6.802
 6490SOL    HW220370   1.722   3.897   6.880
 6491SOL     OW20371   1.091   0.197   2.530
 6491SOL    HW120372   1.179   0.242   2.548
 6491SOL    HW220373   1.107   0.113   2.478
 6492SOL     OW20374   3.736   2.899   2.953
 6492SOL    HW120375   3.715   2.846   3.036
 6492SOL    HW220376   3.810   2.964   2.973
 6493SOL     OW20377   1.480   4.858   4.067
 6493SOL    HW120378   1.408   4.822   4.008
 6493SOL    HW220379   1.459   4.953   4.091
 6494SOL     OW20380   6.617   0.959   1.680
 6494SOL    HW120381   6.635   0.981   1.584
 6494SOL    HW220382   6.574   1.038   1.724
 6495SOL     OW20383   6.020   6.493   2.484
 6495SOL    HW120384   5.986   6.427   2.418
 6495SOL    HW220385   6.036   6.581   2.439
 6496SOL     OW20386   2.687   2.857   1.300
 6496SOL    HW120387   2.646   2.931   1.247
 6496SOL    HW220388   2.654   2.860   1.394
 6497SOL     OW20389   6.860   2.821   0.725
 6497SOL    HW120390   6.808   2.813   0.641
 6497SOL    HW220391   6.887   2.730   0.757
 6498SOL     OW20392   2.639   5.138   4.535
 6498SOL    HW120393   2.652   5.080   4.615
 6498SOL    HW220394   2.577   5.213   4.557
 6499SOL     OW20395   5.520   2.226   2.563
 6499SOL    HW120396   5.572   2.220   2.477
 6499SOL    HW220397   5.447   2.293   2.553
 6500SOL     OW20398   1.666   4.094   2.730
 6500SOL    HW120399   1.722   4.172   2.705
 6500SOL    HW220400   1.586   4.090   2.670
 6501SOL     OW20401   6.639   1.516   2.519
 6501SOL    HW120402   6.606   1.484   2.608
 6501SOL    HW220403   6.606   1.454   2.447
 6502SOL     OW20404   1.008   2.641   2.624
 6502SOL    HW120405   0.961   2.573   2.681
 6502SOL    HW220406   0.943   2.685   2.563
 6503SOL     OW20407   0.617   2.336   5.554
 6503SOL    HW120408   0.682   2.261   5.541
 6503SOL    HW220409   0.667   2.423   5.555
 6504SOL     OW20410   3.959   5.827   6.346
 6504SOL    HW120411   3.948   5.817   6.445
 6504SOL    HW220412   3.875   5.864   6.306
 6505SOL     OW20413   0.430   6.944   6.842
 6505SOL    HW120414   0.519   6.968   6.804
 6505SOL    HW220415   0.396   7.020   6.898
 6506SOL     OW20416   0.468   4.493   1.997
 6506SOL    HW120417   0.472   4.582   1.951
 6506SOL    HW220418   0.470   4.420   1.929
 6507SOL     OW20419   5.395   5.396   0.868
 6507SOL    HW120420   5.326   5.465   0.845
 6507SOL    HW220421   5.425   5.350   0.785
 6508SOL     OW20422   0.058   0.846   4.314
 6508SOL    HW120423   7.001   0.866   4.372
 6508SOL    HW220424   0.091   0.931   4.273
 6509SOL     OW20425   2.253   1.622   6.913
 6509SOL    HW120426   2.158   1.644   6.892
 6509SOL    HW220427   2.269   1.524   6.897
 6510SOL     OW20428   3.909   4.875   4.130
 6510SOL    HW120429   3.881   4.792   4.179
 6510SOL    HW220430   3.922   4.949   4.196
 6511SOL     OW20431   3.523   3.168   6.986
 6511SOL    HW120432   3.428   3.149   6.964
 6511SOL    HW220433   3.535   3.266   7.001
 6512SOL     OW20434   5.320   1.630   1.954
 6512SOL    HW120435   5.254   1.619   1.880
 6512SOL    HW220436   5.394   1.691   1.923
 6513SOL     OW20437   3.469   4.949   2.064
 6513SOL    HW120438   3.511   4.873   2.014
 6513SOL    HW220439   3.529   5.029   2.059
 6514SOL     OW20440   5.079   5.673   5.766
 6514SOL    HW120441   5.162   5.681   5.712
 6514SOL    HW220442   5.072   5.750   5.829
 6515SOL     OW20443   0.913   5.145   2.466
 6515SOL    HW120444   1.003   5.178   2.494
 6515SOL    HW220445   0.921   5.088   2.385
 6516SOL     OW20446   5.692   1.161   3.492
 6516SOL    HW120447   5.773   1.214   3.518
 6516SOL    HW220448   5.610   1.206   3.526
 6517SOL     OW20449   6.790   4.268   0.435
 6517SOL    HW120450   6.748   4.324   0.506
 6517SOL    HW220451   6.727   4.195   0.408
 6518SOL     OW20452   0.970   1.793   1.917
 6518SOL    HW120453   1.016   1.719   1.868
 6518SOL    HW220454   1.025   1.876   1.913
 6519SOL     OW20455   1.556   2.088   3.631
 6519SOL    HW120456   1.543   2.148   3.709
 6519SOL    HW220457   1.473   2.034   3.616
 6520SOL     OW20458   6.017   6.464   6.781
 6520SOL    HW120459   6.085   6.525   6.824
 6520SOL    HW220460   5.960   6.517   6.719
 6521SOL     OW20461   1.534   4.471   4.669
 6521SOL    HW120462   1.542   4.547   4.733
 6521SOL    HW220463   1.626   4.443   4.639
 6522SOL     OW20464   2.135   2.943   5.176
 6522SOL    HW120465   2.083   3.019   5.216
 6522SOL    HW220466   2.221   2.977   5.140
 6523SOL     OW20467   5.015   6.662   0.505
 6523SOL    HW120468   4.961   6.605   0.443
 6523SOL    HW220469   4.956   6.731   0.547
 6524SOL     OW20470   3.638   2.169   0.687
 6524SOL    HW120471   3.715   2.198   0.744
 6524SOL    HW220472   3.652   2.198   0.593
 6525SOL     OW20473   2.880   4.805   3.441
 6525SOL    HW120474   2.946   4.845   3.377
 6525SOL    HW220475   2.807   4.761   3.390
 6526SOL     OW20476   6.420   6.472   0.658
 6526SOL    HW120477   6.486   6.408   0.620
 6526SOL    HW220478   6.445   6.494   0.752
 6527SOL     OW20479   5.610   2.515   0.449
 6527SOL    HW120480   5.543   2.558   0.510
 6527SOL    HW220481   5.566   2.490   0.364
 6528SOL     OW20482   4.696   6.882   0.161
 6528SOL    HW120483   4.758   6.944   0.208
 6528SOL    HW220484   4.629   6.934   0.108
 6529SOL     OW20485   4.075   6.414   1.617
 6529SOL    HW120486   3.982   6.381   1.601
 6529SOL    HW220487   4.114   6.447   1.532
 6530SOL     OW20488   6.949   2.745   4.222
 6530SOL    HW120489   0.007   2.803   4.207
 6530SOL    HW220490   6.979   2.651   4.236
 6531SOL     OW20491   2.972   3.851   3.983
 6531SOL    HW120492   2.994   3.948   3.981
 6531SOL    HW220493   2.950   3.823   4.077
 6532SOL     OW20494   0.933   6.024   6.929
 6532SOL    HW120495   0.834   6.037   6.932
 6532SOL    HW220496   0.976   6.101   6.881
 6533SOL     OW20497   5.494   4.550   1.324
 6533SOL    HW120498   5.410   4.604   1.317
 6533SOL    HW220499   5.492   4.476   1.258
 6534SOL     OW20500   6.441   3.396   4.849
 6534SOL    HW120501   6.379   3.318   4.853
 6534SOL    HW220502   6.397   3.471   4.800
 6535SOL     OW20503   5.682   3.621   6.885
 6535SOL    HW120504   5.689   3.559   6.806
 6535SOL    HW220505   5.589   3.659   6.889
 6536SOL     OW20506   6.821   5.284   5.218
 6536SOL    HW120507   6.916   5.317   5.220
 6536SOL    HW220508   6.760   5.362   5.206
 6537SOL     OW20509   6.623   5.211   4.331
 6537SOL    HW120510   6.632   5.183   4.235
 6537SOL    HW220511   6.688   5.284   4.350
 6538SOL     OW20512   1.293   3.699   3.406
 6538SOL    HW120513   1.318   3.793   3.384
 6538SOL    HW220514   1.274   3.649   3.322
 6539SOL     OW20515   5.715   6.648   5.140
 6539SOL    HW120516   5.740   6.736   5.099
 6539SOL    HW220517   5.736   6.574   5.077
 6540SOL     OW20518   1.009   2.479   5.210
 6540SOL    HW120519   0.970   2.522   5.291
 6540SOL    HW220520   0.946   2.410   5.174
 6541SOL     OW20521   3.905   1.608   5.265
 6541SOL    HW120522   3.850   1.524   5.270
 6541SOL    HW220523   3.877   1.670   5.339
 6542SOL     OW20524   1.898   4.742   1.924
 6542SOL    HW120525   1.928   4.649   1.945
 6542SOL    HW220526   1.977   4.798   1.898
 6543SOL     OW20527   3.720   1.649   4.351
 6543SOL    HW120528   3.693   1.741   4.381
 6543SOL    HW220529   3.645   1.585   4.367
 6544SOL     OW20530   1.233   0.567   1.704
 6544SOL    HW120531   1.263   0.593   1.796
 6544SOL    HW220532   1.141   0.603   1.688
 6545SOL     OW20533   5.948   4.823   0.872
 6545SOL    HW120534   6.048   4.818   0.874
 6545SOL    HW220535   5.919   4.919   0.881
 6546SOL     OW20536   3.913   5.251   4.080
 6546SOL    HW120537   3.966   5.221   4.001
 6546SOL    HW220538   3.936   5.195   4.160
 6547SOL     OW20539   0.646   6.694   5.102
 6547SOL    HW120540   0.689   6.640   5.030
 6547SOL    HW220541   0.715   6.746   5.151
 6548SOL     OW20542   1.143   1.563   5.369
 6548SOL    HW120543   1.232   1.518   5.372
 6548SOL    HW220544   1.156   1.662   5.369
 6549SOL     OW20545   2.978   1.600   2.569
 6549SOL    HW120546   2.924   1.557   2.641
 6549SOL    HW220547   3.010   1.530   2.505
 6550SOL     OW20548   5.780   6.822   1.737
 6550SOL    HW120549   5.766   6.861   1.646
 6550SOL    HW220550   5.779   6.722   1.731
 6551SOL     OW20551   2.241   5.574   1.115
 6551SOL    HW120552   2.186   5.562   1.198
 6551SOL    HW220553   2.299   5.655   1.125
 6552SOL     OW20554   2.542   3.616   6.648
 6552SOL    HW120555   2.620   3.647   6.702
 6552SOL    HW220556   2.486   3.694   6.621
 6553SOL     OW20557   0.217   1.632   3.403
 6553SOL    HW120558   0.291   1.583   3.356
 6553SOL    HW220559   0.230   1.626   3.502
 6554SOL     OW20560   2.156   2.063   3.936
 6554SOL    HW120561   2.134   2.152   3.976
 6554SOL    HW220562   2.092   2.043   3.862
 6555SOL     OW20563   2.176   3.765   1.963
 6555SOL    HW120564   2.108   3.749   1.891
 6555SOL    HW220565   2.218   3.678   1.989
 6556SOL     OW20566   4.841   3.229   3.310
 6556SOL    HW120567   4.898   3.306   3.280
 6556SOL    HW220568   4.845   3.221   3.409
 6557SOL     OW20569   1.850   6.708   2.246
 6557SOL    HW120570   1.855   6.632   2.182
 6557SOL    HW220571   1.899   6.685   2.330
 6558SOL     OW20572   5.045   5.303   1.106
 6558SOL    HW120573   5.100   5.386   1.095
 6558SOL    HW220574   5.068   5.259   1.193
 6559SOL     OW20575   0.075   1.870   6.181
 6559SOL    HW120576   0.048   1.874   6.277
 6559SOL    HW220577   0.174   1.879   6.173
 6560SOL     OW20578   6.727   4.605   6.077
 6560SOL    HW120579   6.684   4.558   6.000
 6560SOL    HW220580   6.824   4.619   6.058
 6561SOL     OW20581   2.811   5.286   6.931
 6561SOL    HW120582   2.866   5.204   6.916
 6561SOL    HW220583   2.812   5.310   0.005
 6562SOL     OW20584   4.711   2.742   1.005
 6562SOL    HW120585   4.690   2.838   1.026
 6562SOL    HW220586   4.655   2.682   1.062
 6563SOL     OW20587   6.062   4.629   5.759
 6563SOL    HW120588   6.013   4.697   5.813
 6563SOL    HW220589   5.996   4.568   5.714
 6564SOL     OW20590   6.231   3.796   1.702
 6564SOL    HW120591   6.324   3.760   1.707
 6564SOL    HW220592   6.166   3.722   1.686
 6565SOL     OW20593   5.354   5.449   1.959
 6565SOL    HW120594   5.384   5.370   1.905
 6565SOL    HW220595   5.254   5.452   1.962
 6566SOL     OW20596   5.677   5.475   3.990
 6566SOL    HW120597   5.714   5.458   4.081
 6566SOL    HW220598   5.583   5.441   3.986
 6567SOL     OW20599   2.850   0.794   2.706
 6567SOL    HW120600   2.922   0.779   2.775
 6567SOL    HW220601   2.807   0.882   2.722
 6568SOL     OW20602   5.244   1.602   0.334
 6568SOL    HW120603   5.168   1.595   0.399
 6568SOL    HW220604   5.326   1.563   0.375
 6569SOL     OW20605   1.715   4.142   3.227
 6569SOL    HW120606   1.751   4.145   3.134
 6569SOL    HW220607   1.705   4.046   3.255
 6570SOL     OW20608   4.056   0.169   2.731
 6570SOL    HW120609   4.008   0.153   2.817
 6570SOL    HW220610   3.990   0.163   2.655
 6571SOL     OW20611   2.661   6.831   2.867
 6571SOL    HW120612   2.620   6.847   2.957
 6571SOL    HW220613   2.738   6.768   2.876
 6572SOL     OW20614   1.289   6.644   3.560
 6572SOL    HW120615   1.302   6.618   3.464
 6572SOL    HW220616   1.197   6.678   3.573
 6573SOL     OW20617   1.091   2.522   3.716
 6573SOL    HW120618   1.077   2.448   3.782
 6573SOL    HW220619   1.126   2.484   3.630
 6574SOL     OW20620   1.019   5.076   1.604
 6574SOL    HW120621   1.054   5.057   1.512
 6574SOL    HW220622   1.016   4.991   1.657
 6575SOL     OW20623   6.411   0.870   3.887
 6575SOL    HW120624   6.472   0.869   3.807
 6575SOL    HW220625   6.463   0.844   3.968
 6576SOL     OW20626   4.017   0.472   2.393
 6576SOL    HW120627   3.964   0.557   2.386
 6576SOL    HW220628   3.954   0.394   2.399
 6577SOL     OW20629   3.234   1.087   5.565
 6577SOL    HW120630   3.167   1.069   5.494
 6577SOL    HW220631   3.285   1.003   5.585
 6578SOL     OW20632   0.939   5.668   0.311
 6578SOL    HW120633   0.983   5.581   0.286
 6578SOL    HW220634   0.841   5.654   0.320
 6579SOL     OW20635   2.126   1.782   2.839
 6579SOL    HW120636   2.156   1.700   2.789
 6579SOL    HW220637   2.172   1.784   2.928
 6580SOL     OW20638   3.525   2.539   6.995
 6580SOL    HW120639   3.559   2.563   6.904
 6580SOL    HW220640   3.428   2.515   6.989
 6581SOL     OW20641   0.869   2.639   1.859
 6581SOL    HW120642   0.834   2.732   1.845
 6581SOL    HW220643   0.828   2.578   1.791
 6582SOL     OW20644   3.943   6.792   3.210
 6582SOL    HW120645   3.853   6.768   3.173
 6582SOL    HW220646   4.011   6.785   3.137
 6583SOL     OW20647   2.676   4.201   1.176
 6583SOL    HW120648   2.592   4.214   1.123
 6583SOL    HW220649   2.704   4.105   1.172
 6584SOL     OW20650   4.421   3.339   5.817
 6584SOL    HW120651   4.391   3.248   5.845
 6584SOL    HW220652   4.416   3.347   5.718
 6585SOL     OW20653   5.067   6.784   1.750
 6585SOL    HW120654   5.074   6.879   1.720
 6585SOL    HW220655   5.143   6.764   1.814
 6586SOL     OW20656   6.804   1.696   6.774
 6586SOL    HW120657   6.794   1.721   6.871
 6586SOL    HW220658   6.715   1.702   6.729
 6587SOL     OW20659   2.444   4.668   5.691
 6587SOL    HW120660   2.472   4.753   5.647
 6587SOL    HW220661   2.524   4.610   5.705
 6588SOL     OW20662   0.818   2.538   0.716
 6588SOL    HW120663   0.750   2.533   0.643
 6588SOL    HW220664   0.901   2.581   0.682
 6589SOL     OW20665   5.779   0.253   0.898
 6589SOL    HW120666   5.736   0.167   0.870
 6589SOL    HW220667   5.827   0.239   0.985
 6590SOL     OW20668   1.268   6.136   4.362
 6590SOL    HW120669   1.314   6.050   4.386
 6590SOL    HW220670   1.220   6.171   4.442
 6591SOL     OW20671   6.587   3.446   3.306
 6591SOL    HW120672   6.568   3.371   3.243
 6591SOL    HW220673   6.625   3.524   3.256
 6592SOL     OW20674   0.074   0.553   4.363
 6592SOL    HW120675   0.109   0.646   4.353
 6592SOL    HW220676   0.127   0.504   4.433
 6593SOL     OW20677   0.917   0.670   3.110
 6593SOL    HW120678   0.894   0.732   3.185
 6593SOL    HW220679   0.909   0.575   3.142
 6594SOL     OW20680   5.330   0.135   6.723
 6594SOL    HW120681   5.334   0.206   6.652
 6594SOL    HW220682   5.294   0.050   6.683
 6595SOL     OW20683   0.715   0.292   5.122
 6595SOL    HW120684   0.657   0.275   5.043
 6595SOL    HW220685   0.693   0.226   5.194
 6596SOL     OW20686   5.051   0.576   2.858
 6596SOL    HW120687   5.024   0.572   2.954
 6596SOL    HW220688   4.976   0.614   2.804
 6597SOL     OW20689   1.093   5.507   1.457
 6597SOL    HW120690   1.129   5.436   1.518
 6597SOL    HW220691   1.011   5.473   1.411
 6598SOL     OW20692   1.457   5.231   1.754
 6598SOL    HW120693   1.534   5.210   1.694
 6598SOL    HW220694   1.474   5.192   1.845
 6599SOL     OW20695   0.624   6.212   6.343
 6599SOL    HW120696   0.538   6.161   6.334
 6599SOL    HW220697   0.688   6.160   6.399
 6600SOL     OW20698   4.889   7.016   4.258
 6600SOL    HW120699   4.826   0.069   4.280
 6600SOL    HW220700   4.979   0.013   4.297
 6601SOL     OW20701   0.784   2.632   3.232
 6601SOL    HW120702   0.844   2.652   3.310
 6601SOL    HW220703   0.822   2.672   3.149
 6602SOL     OW20704   6.009   5.957   0.528
 6602SOL    HW120705   5.992   5.956   0.626
 6602SOL    HW220706   6.065   5.877   0.503
 6603SOL     OW20707   6.801   4.625   2.477
 6603SOL    HW120708   6.837   4.707   2.434
 6603SOL    HW220709   6.727   4.649   2.540
 6604SOL     OW20710   2.132   4.920   2.380
 6604SOL    HW120711   2.219   4.877   2.358
 6604SOL    HW220712   2.124   5.007   2.331
 6605SOL     OW20713   0.037   5.646   1.016
 6605SOL    HW120714   0.112   5.712   1.025
 6605SOL    HW220715   6.994   5.680   0.948
 6606SOL     OW20716   1.384   4.862   2.829
 6606SOL    HW120717   1.303   4.836   2.881
 6606SOL    HW220718   1.466   4.830   2.877
 6607SOL     OW20719   6.550   3.297   4.578
 6607SOL    HW120720   6.503   3.220   4.622
 6607SOL    HW220721   6.544   3.378   4.637
 6608SOL     OW20722   1.728   0.605   5.343
 6608SOL    HW120723   1.714   0.684   5.284
 6608SOL    HW220724   1.813   0.560   5.317
 6609SOL     OW20725   2.819   1.757   0.302
 6609SOL    HW120726   2.743   1.808   0.260
 6609SOL    HW220727   2.897   1.819   0.315
 6610SOL     OW20728   3.194   5.710   0.869
 6610SOL    HW120729   3.225   5.654   0.792
 6610SOL    HW220730   3.139   5.786   0.835
 6611SOL     OW20731   3.106   1.429   4.880
 6611SOL    HW120732   3.103   1.484   4.964
 6611SOL    HW220733   3.039   1.464   4.815
 6612SOL     OW20734   6.374   0.575   0.244
 6612SOL    HW120735   6.395   0.551   0.149
 6612SOL    HW220736   6.283   0.541   0.268
 6613SOL     OW20737   4.933   0.132   0.908
 6613SOL    HW120738   4.984   0.204   0.862
 6613SOL    HW220739   4.996   0.072   0.957
 6614SOL     OW20740   4.746   5.004   0.892
 6614SOL    HW120741   4.734   4.915   0.850
 6614SOL    HW220742   4.828   5.002   0.950
 6615SOL     OW20743   3.406   5.776   6.085
 6615SOL    HW120744   3.404   5.705   6.156
 6615SOL    HW220745   3.492   5.826   6.090
 6616SOL     OW20746   3.829   2.401   6.297
 6616SOL    HW120747   3.865   2.340   6.226
 6616SOL    HW220748   3.815   2.492   6.258
 6617SOL     OW20749   3.546   1.409   4.261
 6617SOL    HW120750   3.621   1.370   4.207
 6617SOL    HW220751   3.501   1.481   4.208
 6618SOL     OW20752   6.459   2.754   3.583
 6618SOL    HW120753   6.371   2.784   3.620
 6618SOL    HW220754   6.444   2.679   3.518
 6619SOL     OW20755   4.291   5.022   3.762
 6619SOL    HW120756   4.308   4.934   3.806
 6619SOL    HW220757   4.348   5.030   3.680
 6620SOL     OW20758   1.219   2.836   3.664
 6620SOL    HW120759   1.184   2.930   3.657
 6620SOL    HW220760   1.142   2.773   3.673
 6621SOL     OW20761   3.747   3.434   3.272
 6621SOL    HW120762   3.711   3.427   3.179
 6621SOL    HW220763   3.729   3.526   3.308
 6622SOL     OW20764   6.710   4.899   2.030
 6622SOL    HW120765   6.762   4.900   1.945
 6622SOL    HW220766   6.691   4.993   2.058
 6623SOL     OW20767   3.700   2.907   4.260
 6623SOL    HW120768   3.699   2.870   4.166
 6623SOL    HW220769   3.748   2.995   4.260
 6624SOL     OW20770   2.418   2.404   2.563
 6624SOL    HW120771   2.347   2.334   2.557
 6624SOL    HW220772   2.500   2.373   2.516
 6625SOL     OW20773   0.560   4.814   5.607
 6625SOL    HW120774   0.475   4.852   5.572
 6625SOL    HW220775   0.562   4.822   5.706
 6626SOL     OW20776   3.416   5.841   5.751
 6626SOL    HW120777   3.343   5.849   5.818
 6626SOL    HW220778   3.491   5.902   5.777
 6627SOL     OW20779   2.844   0.221   4.705
 6627SOL    HW120780   2.849   0.196   4.802
 6627SOL    HW220781   2.772   0.288   4.691
 6628SOL     OW20782   3.890   6.379   3.511
 6628SOL    HW120783   3.872   6.474   3.483
 6628SOL    HW220784   3.859   6.367   3.605
 6629SOL     OW20785   4.952   5.972   5.247
 6629SOL    HW120786   5.014   6.025   5.189
 6629SOL    HW220787   4.866   5.955   5.198
 6630SOL     OW20788   2.079   0.111   0.614
 6630SOL    HW120789   2.152   0.174   0.643
 6630SOL    HW220790   2.087   0.094   0.516
 6631SOL     OW20791   1.724   1.469   6.047
 6631SOL    HW120792   1.787   1.392   6.049
 6631SOL    HW220793   1.636   1.442   6.087
 6632SOL     OW20794   1.269   0.594   5.806
 6632SOL    HW120795   1.359   0.615   5.767
 6632SOL    HW220796   1.261   0.495   5.817
 6633SOL     OW20797   5.028   6.652   5.871
 6633SOL    HW120798   4.932   6.659   5.898
 6633SOL    HW220799   5.086   6.690   5.944
 6634SOL     OW20800   2.984   2.253   4.288
 6634SOL    HW120801   2.989   2.224   4.192
 6634SOL    HW220802   2.924   2.333   4.294
 6635SOL     OW20803   4.800   5.407   6.265
 6635SOL    HW120804   4.811   5.471   6.189
 6635SOL    HW220805   4.722   5.435   6.321
 6636SOL     OW20806   4.549   1.562   1.329
 6636SOL    HW120807   4.529   1.505   1.250
 6636SOL    HW220808   4.468   1.617   1.352
 6637SOL     OW20809   0.359   3.223   6.923
 6637SOL    HW120810   0.270   3.242   6.963
 6637SOL    HW220811   0.359   3.132   6.881
 6638SOL     OW20812   2.941   3.642   4.437
 6638SOL    HW120813   3.033   3.666   4.468
 6638SOL    HW220814   2.874   3.664   4.508
 6639SOL     OW20815   5.195   3.095   1.871
 6639SOL    HW120816   5.274   3.155   1.859
 6639SOL    HW220817   5.173   3.052   1.784
 6640SOL     OW20818   0.801   3.815   3.868
 6640SOL    HW120819   0.900   3.806   3.879
 6640SOL    HW220820   0.767   3.883   3.934
 6641SOL     OW20821   5.304   2.416   0.069
 6641SOL    HW120822   5.328   2.357   7.015
 6641SOL    HW220823   5.205   2.419   0.081
 6642SOL     OW20824   0.584   5.066   6.079
 6642SOL    HW120825   0.587   5.088   6.176
 6642SOL    HW220826   0.488   5.052   6.051
 6643SOL     OW20827   4.860   5.575   6.051
 6643SOL    HW120828   4.958   5.584   6.034
 6643SOL    HW220829   4.809   5.633   5.988
 6644SOL     OW20830   1.783   6.537   3.373
 6644SOL    HW120831   1.715   6.589   3.424
 6644SOL    HW220832   1.746   6.447   3.349
 6645SOL     OW20833   5.021   2.927   5.192
 6645SOL    HW120834   5.009   2.999   5.260
 6645SOL    HW220835   4.932   2.891   5.164
 6646SOL     OW20836   4.648   0.028   6.044
 6646SOL    HW120837   4.567   0.066   6.089
 6646SOL    HW220838   4.730   0.074   6.078
 6647SOL     OW20839   3.722   4.902   0.372
 6647SOL    HW120840   3.747   4.940   0.461
 6647SOL    HW220841   3.699   4.976   0.309
 6648SOL     OW20842   3.425   5.866   5.342
 6648SOL    HW120843   3.381   5.811   5.414
 6648SOL    HW220844   3.438   5.959   5.376
 6649SOL     OW20845   5.516   2.886   5.090
 6649SOL    HW120846   5.502   2.983   5.072
 6649SOL    HW220847   5.502   2.834   5.005
 6650SOL     OW20848   2.577   0.823   4.930
 6650SOL    HW120849   2.504   0.888   4.906
 6650SOL    HW220850   2.657   0.874   4.963
 6651SOL     OW20851   6.450   1.012   3.502
 6651SOL    HW120852   6.495   1.079   3.562
 6651SOL    HW220853   6.382   0.960   3.555
 6652SOL     OW20854   6.898   5.357   6.497
 6652SOL    HW120855   6.949   5.379   6.414
 6652SOL    HW220856   6.800   5.354   6.476
 6653SOL     OW20857   5.682   3.684   0.131
 6653SOL    HW120858   5.590   3.710   0.102
 6653SOL    HW220859   5.741   3.673   0.051
 6654SOL     OW20860   0.012   1.703   3.236
 6654SOL    HW120861   0.082   1.695   3.307
 6654SOL    HW220862   6.976   1.782   3.255
 6655SOL     OW20863   7.012   5.689   1.623
 6655SOL    HW120864   0.015   5.602   1.582
 6655SOL    HW220865   6.976   5.750   1.553
 6656SOL     OW20866   5.225   1.092   2.127
 6656SOL    HW120867   5.239   1.188   2.102
 6656SOL    HW220868   5.201   1.086   2.223
 6657SOL     OW20869   4.532   1.793   4.216
 6657SOL    HW120870   4.489   1.875   4.254
 6657SOL    HW220871   4.630   1.808   4.208
 6658SOL     OW20872   6.380   5.792   4.279
 6658SOL    HW120873   6.308   5.811   4.345
 6658SOL    HW220874   6.455   5.857   4.292
 6659SOL     OW20875   1.016   6.671   1.140
 6659SOL    HW120876   0.979   6.696   1.050
 6659SOL    HW220877   1.074   6.745   1.174
 6660SOL     OW20878   1.334   0.568   4.008
 6660SOL    HW120879   1.322   0.617   3.922
 6660SOL    HW220880   1.245   0.535   4.040
 6661SOL     OW20881   3.706   6.599   3.623
 6661SOL    HW120882   3.702   6.506   3.662
 6661SOL    HW220883   3.640   6.657   3.670
 6662SOL     OW20884   3.879   6.861   1.816
 6662SOL    HW120885   3.946   6.883   1.746
 6662SOL    HW220886   3.924   6.857   1.905
 6663SOL     OW20887   1.532   3.925   5.136
 6663SOL    HW120888   1.555   4.012   5.180
 6663SOL    HW220889   1.480   3.868   5.200
 6664SOL     OW20890   3.053   0.014   1.736
 6664SOL    HW120891   3.122   6.978   1.779
 6664SOL    HW220892   2.999   0.059   1.808
 6665SOL     OW20893   2.796   0.191   6.772
 6665SOL    HW120894   2.804   0.232   6.681
 6665SOL    HW220895   2.745   0.252   6.832
 6666SOL     OW20896   2.526   6.607   5.777
 6666SOL    HW120897   2.590   6.597   5.854
 6666SOL    HW220898   2.437   6.568   5.801
 6667SOL     OW20899   1.887   5.977   0.142
 6667SOL    HW120900   1.919   6.001   0.233
 6667SOL    HW220901   1.787   5.976   0.141
 6668SOL     OW20902   0.270   3.726   5.931
 6668SOL    HW120903   0.260   3.804   5.993
 6668SOL    HW220904   0.182   3.705   5.889
 6669SOL     OW20905   0.775   3.356   3.830
 6669SOL    HW120906   0.716   3.403   3.896
 6669SOL    HW220907   0.844   3.419   3.795
 6670SOL     OW20908   2.364   4.213   0.612
 6670SOL    HW120909   2.347   4.131   0.667
 6670SOL    HW220910   2.374   4.291   0.674
 6671SOL     OW20911   5.051   5.192   0.427
 6671SOL    HW120912   5.073   5.140   0.345
 6671SOL    HW220913   4.954   5.179   0.450
 6672SOL     OW20914   2.279   2.440   0.954
 6672SOL    HW120915   2.225   2.359   0.933
 6672SOL    HW220916   2.373   2.413   0.974
 6673SOL     OW20917   5.800   3.841   4.798
 6673SOL    HW120918   5.818   3.754   4.845
 6673SOL    HW220919   5.704   3.845   4.772
 6674SOL     OW20920   6.461   1.098   0.147
 6674SOL    HW120921   6.406   1.152   0.083
 6674SOL    HW220922   6.453   1.139   0.239
 6675SOL     OW20923   4.987   1.571   0.454
 6675SOL    HW120924   4.930   1.569   0.536
 6675SOL    HW220925   4.931   1.547   0.374
 6676SOL     OW20926   1.054   3.368   5.394
 6676SOL    HW120927   1.113   3.394   5.470
 6676SOL    HW220928   0.985   3.440   5.380
 6677SOL     OW20929   0.409   2.155   6.926
 6677SOL    HW120930   0.366   2.121   7.009
 6677SOL    HW220931   0.451   2.079   6.876
 6678SOL     OW20932   3.113   4.051   6.535
 6678SOL    HW120933   3.072   4.100   6.458
 6678SOL    HW220934   3.130   3.956   6.510
 6679SOL     OW20935   1.679   0.396   3.848
 6679SOL    HW120936   1.680   0.487   3.808
 6679SOL    HW220937   1.768   0.377   3.890
 6680SOL     OW20938   6.440   5.923   1.743
 6680SOL    HW120939   6.521   5.887   1.788
 6680SOL    HW220940   6.361   5.866   1.764
 6681SOL     OW20941   3.445   5.864   0.993
 6681SOL    HW120942   3.405   5.774   1.011
 6681SOL    HW220943   3.376   5.922   0.951
 6682SOL     OW20944   2.368   4.853   6.436
 6682SOL    HW120945   2.388   4.797   6.355
 6682SOL    HW220946   2.272   4.843   6.460
 6683SOL     OW20947   0.248   6.335   6.557
 6683SOL    HW120948   0.217   6.419   6.511
 6683SOL    HW220949   0.194   6.257   6.524
 6684SOL     OW20950   2.971   0.074   5.928
 6684SOL    HW120951   2.903   0.105   5.994
 6684SOL    HW220952   3.023   0.152   5.894
 6685SOL     OW20953   3.856   2.878   0.918
 6685SOL    HW120954   3.865   2.915   1.010
 6685SOL    HW220955   3.773   2.914   0.875
 6686SOL     OW20956   4.655   4.216   5.373
 6686SOL    HW120957   4.576   4.277   5.370
 6686SOL    HW220958   4.706   4.232   5.457
 6687SOL     OW20959   6.929   2.564   0.774
 6687SOL    HW120960   6.958   2.527   0.863
 6687SOL    HW220961   6.952   2.498   0.702
 6688SOL     OW20962   5.718   5.629   0.569
 6688SOL    HW120963   5.742   5.660   0.477
 6688SOL    HW220964   5.670   5.542   0.563
 6689SOL     OW20965   3.251   4.687   6.033
 6689SOL    HW120966   3.344   4.721   6.045
 6689SOL    HW220967   3.198   4.706   6.116
 6690SOL     OW20968   1.202   0.274   7.021
 6690SOL    HW120969   1.117   0.234   0.032
 6690SOL    HW220970   1.271   0.202   7.010
 6691SOL     OW20971   2.316   1.649   2.139
 6691SOL    HW120972   2.224   1.675   2.168
 6691SOL    HW220973   2.383   1.711   2.180
 6692SOL     OW20974   3.992   6.369   2.043
 6692SOL    HW120975   3.961   6.330   1.956
 6692SOL    HW220976   3.968   6.466   2.046
 6693SOL     OW20977   2.558   1.016   5.938
 6693SOL    HW120978   2.627   1.039   6.006
 6693SOL    HW220979   2.540   1.096   5.880
 6694SOL     OW20980   4.485   4.044   1.643
 6694SOL    HW120981   4.470   4.109   1.718
 6694SOL    HW220982   4.477   4.092   1.556
 6695SOL     OW20983   3.250   2.472   6.989
 6695SOL    HW120984   3.169   2.470   6.931
 6695SOL    HW220985   3.242   2.401   0.036
 6696SOL     OW20986   3.357   3.070   4.823
 6696SOL    HW120987   3.412   2.987   4.816
 6696SOL    HW220988   3.299   3.065   4.905
 6697SOL     OW20989   4.989   1.103   2.592
 6697SOL    HW120990   5.014   1.026   2.651
 6697SOL    HW220991   4.998   1.188   2.644
 6698SOL     OW20992   2.868   3.800   1.488
 6698SOL    HW120993   2.952   3.749   1.506
 6698SOL    HW220994   2.832   3.837   1.574
 6699SOL     OW20995   1.637   3.598   6.715
 6699SOL    HW120996   1.731   3.562   6.715
 6699SOL    HW220997   1.580   3.542   6.656
 6700SOL     OW20998   5.276   0.132   1.241
 6700SOL    HW120999   5.265   0.067   1.316
 6700SOL    HW221000   5.224   0.215   1.260
 6701SOL     OW21001   6.293   6.773   1.689
 6701SOL    HW121002   6.204   6.748   1.652
 6701SOL    HW221003   6.350   6.811   1.617
 6702SOL     OW21004   5.100   2.600   0.955
 6702SOL    HW121005   5.032   2.595   0.881
 6702SOL    HW221006   5.090   2.687   1.003
 6703SOL     OW21007   0.258   1.410   0.556
 6703SOL    HW121008   0.344   1.446   0.593
 6703SOL    HW221009   0.199   1.486   0.530
 6704SOL     OW21010   2.546   6.240   6.435
 6704SOL    HW121011   2.515   6.146   6.448
 6704SOL    HW221012   2.643   6.248   6.458
 6705SOL     OW21013   1.049   4.301   2.634
 6705SOL    HW121014   1.079   4.396   2.630
 6705SOL    HW221015   1.099   4.247   2.567
 6706SOL     OW21016   0.257   5.795   1.140
 6706SOL    HW121017   0.260   5.878   1.084
 6706SOL    HW221018   0.229   5.819   1.233
 6707SOL     OW21019   5.067   0.889   2.755
 6707SOL    HW121020   5.117   0.919   2.836
 6707SOL    HW221021   5.118   0.816   2.709
 6708SOL     OW21022   0.944   3.592   0.811
 6708SOL    HW121023   0.971   3.624   0.720
 6708SOL    HW221024   0.848   3.613   0.827
 6709SOL     OW21025   1.914   4.358   1.788
 6709SOL    HW121026   1.827   4.345   1.836
 6709SOL    HW221027   1.962   4.271   1.782
 6710SOL     OW21028   4.510   2.017   1.823
 6710SOL    HW121029   4.414   2.038   1.841
 6710SOL    HW221030   4.554   2.095   1.778
 6711SOL     OW21031   4.613   5.490   6.448
 6711SOL    HW121032   4.624   5.586   6.422
 6711SOL    HW221033   4.563   5.484   6.534
 6712SOL     OW21034   5.635   3.671   1.009
 6712SOL    HW121035   5.644   3.766   0.979
 6712SOL    HW221036   5.624   3.612   0.929
 6713SOL     OW21037   2.302   4.699   4.333
 6713SOL    HW121038   2.272   4.623   4.391
 6713SOL    HW221039   2.401   4.697   4.323
 6714SOL     OW21040   6.139   1.182   2.435
 6714SOL    HW121041   6.106   1.246   2.504
 6714SOL    HW221042   6.072   1.109   2.422
 6715SOL     OW21043   1.267   6.972   5.701
 6715SOL    HW121044   1.202   0.019   5.732
 6715SOL    HW221045   1.353   6.983   5.751
 6716SOL     OW21046   1.391   4.385   1.925
 6716SOL    HW121047   1.437   4.428   1.847
 6716SOL    HW221048   1.401   4.443   2.006
 6717SOL     OW21049   6.145   2.225   5.179
 6717SOL    HW121050   6.168   2.216   5.083
 6717SOL    HW221051   6.114   2.137   5.215
 6718SOL     OW21052   4.422   2.120   0.861
 6718SOL    HW121053   4.409   2.199   0.922
 6718SOL    HW221054   4.498   2.065   0.895
 6719SOL     OW21055   1.375   0.738   0.589
 6719SOL    HW121056   1.410   0.746   0.495
 6719SOL    HW221057   1.428   0.798   0.649
 6720SOL     OW21058   1.397   1.505   4.129
 6720SOL    HW121059   1.409   1.578   4.195
 6720SOL    HW221060   1.431   1.419   4.167
 6721SOL     OW21061   6.095   6.625   0.447
 6721SOL    HW121062   6.119   6.672   0.532
 6721SOL    HW221063   6.149   6.541   0.439
 6722SOL     OW21064   6.322   4.154   1.341
 6722SOL    HW121065   6.300   4.137   1.437
 6722SOL    HW221066   6.276   4.238   1.311
 6723SOL     OW21067   2.004   3.351   4.370
 6723SOL    HW121068   1.912   3.383   4.395
 6723SOL    HW221069   2.072   3.394   4.430
 6724SOL     OW21070   1.984   3.149   5.298
 6724SOL    HW121071   1.933   3.216   5.353
 6724SOL    HW221072   2.040   3.198   5.231
 6725SOL     OW21073   4.644   2.751   3.357
 6725SOL    HW121074   4.657   2.828   3.296
 6725SOL    HW221075   4.721   2.745   3.421
 6726SOL     OW21076   6.859   1.457   0.108
 6726SOL    HW121077   6.952   1.458   0.144
 6726SOL    HW221078   6.805   1.387   0.155
 6727SOL     OW21079   0.907   5.580   5.773
 6727SOL    HW121080   0.995   5.615   5.740
 6727SOL    HW221081   0.923   5.523   5.854
 6728SOL     OW21082   3.712   1.724   5.025
 6728SOL    HW121083   3.799   1.710   5.073
 6728SOL    HW221084   3.722   1.798   4.959
 6729SOL     OW21085   4.182   1.303   2.811
 6729SOL    HW121086   4.086   1.285   2.831
 6729SOL    HW221087   4.214   1.240   2.741
 6730SOL     OW21088   0.581   1.882   1.466
 6730SOL    HW121089   0.520   1.803   1.456
 6730SOL    HW221090   0.540   1.950   1.526
 6731SOL     OW21091   3.954   0.292   6.203
 6731SOL    HW121092   4.026   0.354   6.236
 6731SOL    HW221093   3.879   0.289   6.269
 6732SOL     OW21094   6.025   4.944   5.802
 6732SOL    HW121095   6.079   5.003   5.741
 6732SOL    HW221096   5.941   4.917   5.756
 6733SOL     OW21097   5.194   4.760   5.627
 6733SOL    HW121098   5.114   4.817   5.644
 6733SOL    HW221099   5.167   4.664   5.627
 6734SOL     OW21100   5.527   2.126   5.454
 6734SOL    HW121101   5.536   2.059   5.380
 6734SOL    HW221102   5.612   2.177   5.463
 6735SOL     OW21103   5.747   2.962   4.549
 6735SOL    HW121104   5.696   3.022   4.488
 6735SOL    HW221105   5.720   2.867   4.533
 6736SOL     OW21106   3.919   3.476   0.652
 6736SOL    HW121107   3.829   3.448   0.686
 6736SOL    HW221108   3.954   3.551   0.707
 6737SOL     OW21109   6.064   3.100   1.308
 6737SOL    HW121110   6.115   3.181   1.337
 6737SOL    HW221111   6.083   3.025   1.372
 6738SOL     OW21112   2.258   0.196   3.813
 6738SOL    HW121113   2.311   0.154   3.887
 6738SOL    HW221114   2.193   0.262   3.851
 6739SOL     OW21115   0.458   0.259   5.675
 6739SOL    HW121116   0.436   0.162   5.685
 6739SOL    HW221117   0.531   0.284   5.738
 6740SOL     OW21118   0.966   6.848   1.912
 6740SOL    HW121119   0.907   6.771   1.888
 6740SOL    HW221120   0.909   6.926   1.938
 6741SOL     OW21121   2.973   2.284   0.263
 6741SOL    HW121122   2.916   2.320   0.337
 6741SOL    HW221123   2.940   2.321   0.176
 6742SOL     OW21124   6.649   5.161   2.143
 6742SOL    HW121125   6.581   5.207   2.087
 6742SOL    HW221126   6.607   5.133   2.230
 6743SOL     OW21127   3.718   4.070   6.685
 6743SOL    HW121128   3.720   4.079   6.586
 6743SOL    HW221129   3.641   4.012   6.711
 6744SOL     OW21130   0.006   6.261   5.753
 6744SOL    HW121131   6.976   6.345   5.769
 6744SOL    HW221132   0.021   6.250   5.654
 6745SOL     OW21133   5.337   3.085   5.291
 6745SOL    HW121134   5.327   3.074   5.192
 6745SOL    HW221135   5.294   3.170   5.320
 6746SOL     OW21136   1.381   2.242   2.947
 6746SOL    HW121137   1.342   2.282   3.030
 6746SOL    HW221138   1.375   2.143   2.952
 6747SOL     OW21139   1.104   6.095   5.294
 6747SOL    HW121140   1.036   6.115   5.364
 6747SOL    HW221141   1.121   6.177   5.240
 6748SOL     OW21142   1.821   2.164   4.451
 6748SOL    HW121143   1.756   2.127   4.385
 6748SOL    HW221144   1.775   2.226   4.514
 6749SOL     OW21145   3.933   4.812   2.479
 6749SOL    HW121146   3.994   4.890   2.465
 6749SOL    HW221147   3.976   4.747   2.543
 6750SOL     OW21148   4.322   0.403   5.710
 6750SOL    HW121149   4.308   0.306   5.732
 6750SOL    HW221150   4.387   0.411   5.635
 6751SOL     OW21151   3.923   0.910   4.298
 6751SOL    HW121152   3.883   0.890   4.387
 6751SOL    HW221153   3.954   1.006   4.296
 6752SOL     OW21154   2.306   5.167   3.405
 6752SOL    HW121155   2.376   5.095   3.403
 6752SOL    HW221156   2.295   5.205   3.313
 6753SOL     OW21157   3.456   4.562   6.915
 6753SOL    HW121158   3.548   4.575   6.949
 6753SOL    HW221159   3.454   4.486   6.850
 6754SOL     OW21160   6.248   0.672   0.560
 6754SOL    HW121161   6.154   0.650   0.533
 6754SOL    HW221162   6.276   0.757   0.515
 6755SOL     OW21163   3.548   5.600   5.400
 6755SOL    HW121164   3.503   5.689   5.392
 6755SOL    HW221165   3.506   5.548   5.475
 6756SOL     OW21166   4.148   3.498   5.513
 6756SOL    HW121167   4.158   3.579   5.571
 6756SOL    HW221168   4.126   3.527   5.420
 6757SOL     OW21169   4.100   0.094   2.016
 6757SOL    HW121170   4.156   0.042   1.951
 6757SOL    HW221171   4.056   0.170   1.968
 6758SOL     OW21172   5.076   2.707   2.877
 6758SOL    HW121173   4.980   2.730   2.865
 6758SOL    HW221174   5.123   2.781   2.925
 6759SOL     OW21175   1.613   2.763   2.222
 6759SOL    HW121176   1.699   2.779   2.174
 6759SOL    HW221177   1.556   2.844   2.218
 6760SOL     OW21178   5.092   1.744   5.847
 6760SOL    HW121179   5.067   1.785   5.935
 6760SOL    HW221180   5.119   1.816   5.783
 6761SOL     OW21181   2.571   0.542   4.959
 6761SOL    HW121182   2.572   0.641   4.948
 6761SOL    HW221183   2.663   0.510   4.985
 6762SOL     OW21184   5.500   4.870   4.408
 6762SOL    HW121185   5.514   4.839   4.314
 6762SOL    HW221186   5.420   4.824   4.447
 6763SOL     OW21187   5.796   5.663   3.538
 6763SOL    HW121188   5.723   5.595   3.549
 6763SOL    HW221189   5.848   5.670   3.623
 6764SOL     OW21190   0.999   4.714   1.795
 6764SOL    HW121191   0.998   4.683   1.700
 6764SOL    HW221192   1.019   4.638   1.856
 6765SOL     OW21193   6.835   4.157   3.393
 6765SOL    HW121194   6.742   4.181   3.421
 6765SOL    HW221195   6.834   4.123   3.299
 6766SOL     OW21196   6.450   0.184   1.315
 6766SOL    HW121197   6.424   0.088   1.321
 6766SOL    HW221198   6.512   0.198   1.238
 6767SOL     OW21199   3.280   0.305   1.484
 6767SOL    HW121200   3.263   0.286   1.581
 6767SOL    HW221201   3.279   0.404   1.469
 6768SOL     OW21202   1.700   0.113   6.796
 6768SOL    HW121203   1.644   0.195   6.801
 6768SOL    HW221204   1.793   0.138   6.768
 6769SOL     OW21205   5.243   3.053   1.205
 6769SOL    HW121206   5.295   2.969   1.218
 6769SOL    HW221207   5.184   3.069   1.284
 6770SOL     OW21208   0.246   1.774   1.667
 6770SOL    HW121209   0.340   1.741   1.658
 6770SOL    HW221210   0.219   1.821   1.583
 6771SOL     OW21211   4.770   1.334   3.370
 6771SOL    HW121212   4.834   1.403   3.338
 6771SOL    HW221213   4.695   1.379   3.419
 6772SOL     OW21214   3.458   1.099   5.206
 6772SOL    HW121215   3.396   1.168   5.168
 6772SOL    HW221216   3.452   1.016   5.151
 6773SOL     OW21217   6.971   3.856   1.982
 6773SOL    HW121218   6.970   3.954   1.963
 6773SOL    HW221219   7.020   3.807   1.910
 6774SOL     OW21220   1.423   2.237   6.145
 6774SOL    HW121221   1.458   2.219   6.237
 6774SOL    HW221222   1.329   2.204   6.138
 6775SOL     OW21223   0.460   3.604   0.590
 6775SOL    HW121224   0.479   3.630   0.684
 6775SOL    HW221225   0.480   3.507   0.578
 6776SOL     OW21226   5.817   6.043   6.742
 6776SOL    HW121227   5.865   5.956   6.755
 6776SOL    HW221228   5.735   6.027   6.687
 6777SOL     OW21229   4.322   4.661   0.120
 6777SOL    HW121230   4.257   4.736   0.137
 6777SOL    HW221231   4.378   4.683   0.040
 6778SOL     OW21232   6.309   5.680   3.039
 6778SOL    HW121233   6.210   5.668   3.030
 6778SOL    HW221234   6.335   5.769   3.002
 6779SOL     OW21235   5.524   3.107   6.562
 6779SOL    HW121236   5.434   3.149   6.553
 6779SOL    HW221237   5.527   3.025   6.504
 6780SOL     OW21238   1.158   3.060   1.485
 6780SOL    HW121239   1.125   3.013   1.404
 6780SOL    HW221240   1.197   3.148   1.459
 6781SOL     OW21241   5.117   4.307   5.769
 6781SOL    HW121242   5.173   4.309   5.852
 6781SOL    HW221243   5.093   4.213   5.747
 6782SOL     OW21244   6.267   1.748   3.676
 6782SOL    HW121245   6.292   1.669   3.620
 6782SOL    HW221246   6.195   1.800   3.630
 6783SOL     OW21247   1.225   5.677   6.555
 6783SOL    HW121248   1.151   5.743   6.554
 6783SOL    HW221249   1.188   5.584   6.563
 6784SOL     OW21250   4.414   3.560   0.404
 6784SOL    HW121251   4.423   3.652   0.443
 6784SOL    HW221252   4.392   3.568   0.307
 6785SOL     OW21253   5.510   5.651   1.852
 6785SOL    HW121254   5.457   5.577   1.894
 6785SOL    HW221255   5.603   5.649   1.888
 6786SOL     OW21256   1.526   3.666   5.274
 6786SOL    HW121257   1.580   3.674   5.358
 6786SOL    HW221258   1.587   3.642   5.198
 6787SOL     OW21259   0.986   4.058   1.668
 6787SOL    HW121260   1.085   4.045   1.660
 6787SOL    HW221261   0.951   4.006   1.746
 6788SOL     OW21262   2.767   3.954   1.159
 6788SOL    HW121263   2.734   3.899   1.236
 6788SOL    HW221264   2.828   3.898   1.103
 6789SOL     OW21265   1.870   4.445   3.121
 6789SOL    HW121266   1.871   4.516   3.050
 6789SOL    HW221267   1.861   4.355   3.077
 6790SOL     OW21268   1.238   3.214   0.430
 6790SOL    HW121269   1.312   3.153   0.457
 6790SOL    HW221270   1.168   3.162   0.381
 6791SOL     OW21271   3.882   4.123   5.837
 6791SOL    HW121272   3.898   4.028   5.864
 6791SOL    HW221273   3.948   4.148   5.765
 6792SOL     OW21274   0.433   5.234   0.788
 6792SOL    HW121275   0.352   5.179   0.808
 6792SOL    HW221276   0.438   5.251   0.690
 6793SOL     OW21277   5.472   1.099   0.866
 6793SOL    HW121278   5.558   1.074   0.823
 6793SOL    HW221279   5.449   1.194   0.841
 6794SOL     OW21280   3.394   1.399   4.856
 6794SOL    HW121281   3.416   1.440   4.944
 6794SOL    HW221282   3.295   1.406   4.841
 6795SOL     OW21283   3.533   5.733   6.993
 6795SOL    HW121284   3.504   5.637   6.986
 6795SOL    HW221285   3.581   5.759   6.909
 6796SOL     OW21286   4.440   1.972   2.308
 6796SOL    HW121287   4.433   1.999   2.212
 6796SOL    HW221288   4.365   1.911   2.331
 6797SOL     OW21289   6.441   2.481   2.635
 6797SOL    HW121290   6.432   2.569   2.588
 6797SOL    HW221291   6.423   2.407   2.571
 6798SOL     OW21292   6.150   0.172   2.361
 6798SOL    HW121293   6.212   0.128   2.426
 6798SOL    HW221294   6.058   0.133   2.372
 6799SOL     OW21295   5.145   6.209   2.206
 6799SOL    HW121296   5.050   6.190   2.229
 6799SOL    HW221297   5.191   6.249   2.286
 6800SOL     OW21298   3.426   3.923   6.342
 6800SOL    HW121299   3.504   3.979   6.370
 6800SOL    HW221300   3.441   3.828   6.372
 6801SOL     OW21301   0.690   3.240   3.079
 6801SOL    HW121302   0.673   3.196   2.991
 6801SOL    HW221303   0.690   3.171   3.151
 6802SOL     OW21304   3.063   4.868   2.526
 6802SOL    HW121305   2.982   4.831   2.572
 6802SOL    HW221306   3.046   4.874   2.427
 6803SOL     OW21307   4.180   2.125   0.567
 6803SOL    HW121308   4.237   2.048   0.597
 6803SOL    HW221309   4.198   2.204   0.626
 6804SOL     OW21310   1.507   6.136   3.793
 6804SOL    HW121311   1.540   6.132   3.888
 6804SOL    HW221312   1.413   6.171   3.792
 6805SOL     OW21313   5.925   1.289   5.781
 6805SOL    HW121314   5.899   1.320   5.690
 6805SOL    HW221315   5.857   1.224   5.814
 6806SOL     OW21316   4.940   6.450   5.032
 6806SOL    HW121317   4.987   6.385   4.972
 6806SOL    HW221318   4.867   6.495   4.982
 6807SOL     OW21319   3.969   3.575   7.020
 6807SOL    HW121320   3.953   3.514   0.075
 6807SOL    HW221321   3.889   3.573   6.959
 6808SOL     OW21322   2.231   4.254   4.348
 6808SOL    HW121323   2.174   4.336   4.335
 6808SOL    HW221324   2.277   4.232   4.262
 6809SOL     OW21325   1.443   3.572   0.065
 6809SOL    HW121326   1.373   3.569   7.017
 6809SOL    HW221327   1.412   3.521   0.145
 6810SOL     OW21328   5.801   1.114   3.773
 6810SOL    HW121329   5.797   1.078   3.867
 6810SOL    HW221330   5.896   1.134   3.749
 6811SOL     OW21331   5.344   6.058   2.076
 6811SOL    HW121332   5.426   6.110   2.101
 6811SOL    HW221333   5.263   6.111   2.099
 6812SOL     OW21334   3.372   2.917   2.779
 6812SOL    HW121335   3.466   2.891   2.755
 6812SOL    HW221336   3.367   2.937   2.877
 6813SOL     OW21337   5.341   3.837   1.008
 6813SOL    HW121338   5.368   3.861   0.915
 6813SOL    HW221339   5.301   3.917   1.053
 6814SOL     OW21340   1.934   2.704   0.671
 6814SOL    HW121341   2.027   2.670   0.684
 6814SOL    HW221342   1.936   2.804   0.663
 6815SOL     OW21343   1.648   0.421   0.563
 6815SOL    HW121344   1.665   0.324   0.545
 6815SOL    HW221345   1.558   0.432   0.605
 6816SOL     OW21346   5.020   4.722   1.698
 6816SOL    HW121347   5.028   4.655   1.772
 6816SOL    HW221348   5.099   4.714   1.637
 6817SOL     OW21349   1.218   2.871   6.175
 6817SOL    HW121350   1.231   2.854   6.273
 6817SOL    HW221351   1.125   2.845   6.149
 6818SOL     OW21352   3.807   5.249   1.481
 6818SOL    HW121353   3.801   5.161   1.527
 6818SOL    HW221354   3.868   5.242   1.403
 6819SOL     OW21355   2.328   1.768   3.769
 6819SOL    HW121356   2.401   1.775   3.700
 6819SOL    HW221357   2.239   1.762   3.724
 6820SOL     OW21358   1.846   5.179   5.017
 6820SOL    HW121359   1.928   5.124   5.036
 6820SOL    HW221360   1.845   5.259   5.077
 6821SOL     OW21361   2.036   3.030   3.704
 6821SOL    HW121362   2.072   2.994   3.790
 6821SOL    HW221363   2.050   3.129   3.701
 6822SOL     OW21364   5.253   1.398   5.631
 6822SOL    HW121365   5.198   1.482   5.628
 6822SOL    HW221366   5.203   1.324   5.587
 6823SOL     OW21367   4.143   3.365   1.999
 6823SOL    HW121368   4.177   3.302   1.929
 6823SOL    HW221369   4.133   3.457   1.961
 6824SOL     OW21370   0.466   5.606   5.258
 6824SOL    HW121371   0.408   5.680   5.225
 6824SOL    HW221372   0.445   5.586   5.354
 6825SOL     OW21373   5.406   0.208   4.572
 6825SOL    HW121374   5.430   0.156   4.653
 6825SOL    HW221375   5.478   0.197   4.503
 6826SOL     OW21376   1.206   3.064   3.216
 6826SOL    HW121377   1.126   3.120   3.238
 6826SOL    HW221378   1.285   3.123   3.200
 6827SOL     OW21379   4.291   5.395   5.301
 6827SOL    HW121380   4.303   5.485   5.260
 6827SOL    HW221381   4.375   5.368   5.348
 6828SOL     OW21382   2.366   1.823   1.380
 6828SOL    HW121383   2.292   1.876   1.422
 6828SOL    HW221384   2.446   1.824   1.439
 6829SOL     OW21385   5.622   5.016   3.706
 6829SOL    HW121386   5.691   5.065   3.758
 6829SOL    HW221387   5.649   4.920   3.698
 6830SOL     OW21388   5.356   1.643   3.785
 6830SOL    HW121389   5.298   1.581   3.837
 6830SOL    HW221390   5.406   1.592   3.715
 6831SOL     OW21391   0.314   1.826   5.889
 6831SOL    HW121392   0.354   1.873   5.810
 6831SOL    HW221393   0.316   1.727   5.874
 6832SOL     OW21394   3.238   4.794   1.061
 6832SOL    HW121395   3.338   4.802   1.064
 6832SOL    HW221396   3.213   4.698   1.050
 6833SOL     OW21397   4.050   6.236   0.519
 6833SOL    HW121398   4.059   6.299   0.441
 6833SOL    HW221399   3.965   6.184   0.510
 6834SOL     OW21400   2.556   4.909   2.474
 6834SOL    HW121401   2.518   4.990   2.520
 6834SOL    HW221402   2.647   4.890   2.510
 6835SOL     OW21403   3.762   0.064   4.422
 6835SOL    HW121404   3.857   0.078   4.397
 6835SOL    HW221405   3.726   7.007   4.372
 6836SOL     OW21406   3.771   5.728   0.132
 6836SOL    HW121407   3.808   5.798   0.193
 6836SOL    HW221408   3.672   5.740   0.123
 6837SOL     OW21409   0.650   3.195   2.807
 6837SOL    HW121410   0.737   3.153   2.780
 6837SOL    HW221411   0.574   3.141   2.770
 6838SOL     OW21412   2.863   1.915   1.203
 6838SOL    HW121413   2.886   1.990   1.265
 6838SOL    HW221414   2.765   1.897   1.206
 6839SOL     OW21415   3.699   0.988   1.904
 6839SOL    HW121416   3.720   0.907   1.960
 6839SOL    HW221417   3.628   1.041   1.949
 6840SOL     OW21418   1.021   0.989   6.060
 6840SOL    HW121419   1.120   0.977   6.069
 6840SOL    HW221420   0.980   0.996   6.151
 6841SOL     OW21421   0.307   3.119   5.823
 6841SOL    HW121422   0.307   3.186   5.896
 6841SOL    HW221423   0.386   3.058   5.833
 6842SOL     OW21424   2.784   4.733   2.517
 6842SOL    HW121425   2.713   4.663   2.520
 6842SOL    HW221426   2.824   4.735   2.426
 6843SOL     OW21427   4.492   0.152   1.270
 6843SOL    HW121428   4.444   0.219   1.212
 6843SOL    HW221429   4.544   0.200   1.340
 6844SOL     OW21430   5.746   0.442   5.676
 6844SOL    HW121431   5.781   0.398   5.593
 6844SOL    HW221432   5.813   0.430   5.749
 6845SOL     OW21433   5.346   1.997   2.609
 6845SOL    HW121434   5.401   2.079   2.624
 6845SOL    HW221435   5.362   1.963   2.517
 6846SOL     OW21436   2.063   3.380   0.158
 6846SOL    HW121437   2.149   3.330   0.152
 6846SOL    HW221438   1.987   3.317   0.140
 6847SOL     OW21439   7.010   2.304   3.773
 6847SOL    HW121440   6.918   2.272   3.797
 6847SOL    HW221441   0.014   2.264   3.685
 6848SOL     OW21442   6.894   4.855   4.152
 6848SOL    HW121443   6.820   4.899   4.102
 6848SOL    HW221444   6.882   4.756   4.148
 6849SOL     OW21445   2.779   4.124   5.439
 6849SOL    HW121446   2.754   4.047   5.381
 6849SOL    HW221447   2.858   4.171   5.400
 6850SOL     OW21448   5.148   0.025   4.376
 6850SOL    HW121449   5.223   6.990   4.341
 6850SOL    HW221450   5.179   0.075   4.457
 6851SOL     OW21451   1.840   4.185   2.988
 6851SOL    HW121452   1.926   4.138   3.008
 6851SOL    HW221453   1.839   4.213   2.892
 6852SOL     OW21454   4.429   3.481   0.701
 6852SOL    HW121455   4.396   3.396   0.743
 6852SOL    HW221456   4.397   3.485   0.606
 6853SOL     OW21457   4.211   4.885   6.140
 6853SOL    HW121458   4.139   4.953   6.126
 6853SOL    HW221459   4.174   4.806   6.189
 6854SOL     OW21460   5.132   6.182   5.167
 6854SOL    HW121461   5.191   6.159   5.090
 6854SOL    HW221462   5.184   6.231   5.237
 6855SOL     OW21463   3.501   5.224   2.954
 6855SOL    HW121464   3.597   5.198   2.947
 6855SOL    HW221465   3.494   5.323   2.970
 6856SOL     OW21466   6.597   2.361   0.611
 6856SOL    HW121467   6.664   2.424   0.572
 6856SOL    HW221468   6.581   2.285   0.549
 6857SOL     OW21469   1.815   4.735   5.961
 6857SOL    HW121470   1.833   4.669   6.033
 6857SOL    HW221471   1.899   4.752   5.909
 6858SOL     OW21472   1.187   3.791   1.496
 6858SOL    HW121473   1.251   3.717   1.518
 6858SOL    HW221474   1.219   3.876   1.537
 6859SOL     OW21475   2.639   2.152   1.158
 6859SOL    HW121476   2.620   2.075   1.098
 6859SOL    HW221477   2.556   2.177   1.207
 6860SOL     OW21478   0.300   6.857   0.153
 6860SOL    HW121479   0.386   6.903   0.175
 6860SOL    HW221480   0.239   6.920   0.105
 6861SOL     OW21481   6.478   3.240   6.933
 6861SOL    HW121482   6.488   3.328   6.886
 6861SOL    HW221483   6.382   3.225   6.956
 6862SOL     OW21484   0.531   4.292   3.371
 6862SOL    HW121485   0.553   4.299   3.274
 6862SOL    HW221486   0.615   4.299   3.425
 6863SOL     OW21487   5.124   1.163   5.548
 6863SOL    HW121488   5.046   1.137   5.604
 6863SOL    HW221489   5.094   1.176   5.453
 6864SOL     OW21490   1.870   3.507   6.322
 6864SOL    HW121491   1.931   3.486   6.399
 6864SOL    HW221492   1.837   3.421   6.283
 6865SOL     OW21493   1.904   0.552   3.603
 6865SOL    HW121494   1.918   0.492   3.682
 6865SOL    HW221495   1.811   0.540   3.569
 6866SOL     OW21496   2.209   4.802   0.072
 6866SOL    HW121497   2.112   4.813   0.050
 6866SOL    HW221498   2.261   4.873   0.025
 6867SOL     OW21499   2.271   2.926   6.231
 6867SOL    HW121500   2.260   2.955   6.136
 6867SOL    HW221501   2.326   2.843   6.235
 6868SOL     OW21502   3.863   4.839   2.930
 6868SOL    HW121503   3.816   4.817   3.016
 6868SOL    HW221504   3.798   4.878   2.865
 6869SOL     OW21505   1.492   0.504   5.442
 6869SOL    HW121506   1.578   0.533   5.401
 6869SOL    HW221507   1.434   0.584   5.460
 6870SOL     OW21508   5.414   2.805   6.705
 6870SOL    HW121509   5.410   2.721   6.759
 6870SOL    HW221510   5.498   2.806   6.651
 6871SOL     OW21511   6.223   2.189   2.834
 6871SOL    HW121512   6.187   2.124   2.901
 6871SOL    HW221513   6.194   2.281   2.858
 6872SOL     OW21514   1.431   4.867   0.965
 6872SOL    HW121515   1.448   4.844   0.869
 6872SOL    HW221516   1.512   4.843   1.019
 6873SOL     OW21517   0.531   4.047   2.386
 6873SOL    HW121518   0.449   4.091   2.422
 6873SOL    HW221519   0.506   3.989   2.308
 6874SOL     OW21520   3.988   5.873   1.688
 6874SOL    HW121521   4.037   5.791   1.717
 6874SOL    HW221522   3.952   5.860   1.596
 6875SOL     OW21523   2.427   1.450   6.681
 6875SOL    HW121524   2.420   1.439   6.581
 6875SOL    HW221525   2.342   1.421   6.724
 6876SOL     OW21526   5.829   5.189   3.489
 6876SOL    HW121527   5.752   5.178   3.426
 6876SOL    HW221528   5.796   5.219   3.578
 6877SOL     OW21529   0.632   4.496   1.419
 6877SOL    HW121530   0.727   4.473   1.441
 6877SOL    HW221531   0.621   4.595   1.415
 6878SOL     OW21532   1.862   0.619   4.023
 6878SOL    HW121533   1.888   0.582   4.112
 6878SOL    HW221534   1.932   0.595   3.956
 6879SOL     OW21535   1.022   1.344   1.598
 6879SOL    HW121536   1.008   1.257   1.645
 6879SOL    HW221537   1.045   1.326   1.502
 6880SOL     OW21538   1.940   6.403   0.402
 6880SOL    HW121539   1.948   6.375   0.306
 6880SOL    HW221540   1.998   6.344   0.458
 6881SOL     OW21541   6.850   3.721   0.702
 6881SOL    HW121542   6.919   3.657   0.666
 6881SOL    HW221543   6.870   3.741   0.798
 6882SOL     OW21544   2.904   6.689   0.504
 6882SOL    HW121545   2.891   6.722   0.410
 6882SOL    HW221546   2.857   6.601   0.515
 6883SOL     OW21547   4.630   6.883   0.870
 6883SOL    HW121548   4.721   6.842   0.868
 6883SOL    HW221549   4.584   6.859   0.956
 6884SOL     OW21550   1.202   4.798   3.042
 6884SOL    HW121551   1.111   4.776   3.077
 6884SOL    HW221552   1.267   4.805   3.118
 6885SOL     OW21553   5.827   4.531   4.481
 6885SOL    HW121554   5.739   4.496   4.449
 6885SOL    HW221555   5.871   4.583   4.408
 6886SOL     OW21556   5.400   3.936   0.738
 6886SOL    HW121557   5.336   4.013   0.735
 6886SOL    HW221558   5.477   3.954   0.678
 6887SOL     OW21559   5.176   6.479   5.720
 6887SOL    HW121560   5.111   6.545   5.758
 6887SOL    HW221561   5.244   6.528   5.664
 6888SOL     OW21562   6.359   4.375   0.695
 6888SOL    HW121563   6.330   4.366   0.599
 6888SOL    HW221564   6.314   4.305   0.750
 6889SOL     OW21565   0.269   2.658   5.299
 6889SOL    HW121566   0.226   2.628   5.214
 6889SOL    HW221567   0.213   2.729   5.342
 6890SOL     OW21568   4.888   4.557   4.138
 6890SOL    HW121569   4.855   4.607   4.057
 6890SOL    HW221570   4.829   4.478   4.154
 6891SOL     OW21571   1.532   1.895   1.111
 6891SOL    HW121572   1.455   1.836   1.086
 6891SOL    HW221573   1.531   1.977   1.055
 6892SOL     OW21574   1.757   0.846   4.901
 6892SOL    HW121575   1.829   0.777   4.894
 6892SOL    HW221576   1.798   0.936   4.914
 6893SOL     OW21577   6.005   3.113   0.517
 6893SOL    HW121578   6.086   3.169   0.530
 6893SOL    HW221579   5.930   3.169   0.481
 6894SOL     OW21580   5.570   5.251   6.880
 6894SOL    HW121581   5.594   5.259   6.783
 6894SOL    HW221582   5.470   5.247   6.889
 6895SOL     OW21583   1.518   5.534   2.527
 6895SOL    HW121584   1.544   5.453   2.476
 6895SOL    HW221585   1.423   5.558   2.508
 6896SOL     OW21586   5.326   0.614   6.510
 6896SOL    HW121587   5.272   0.649   6.586
 6896SOL    HW221588   5.324   0.680   6.434
 6897SOL     OW21589   4.372   2.362   4.812
 6897SOL    HW121590   4.308   2.369   4.889
 6897SOL    HW221591   4.443   2.432   4.821
 6898SOL     OW21592   1.901   6.993   1.517
 6898SOL    HW121593   1.840   0.021   1.456
 6898SOL    HW221594   1.946   0.034   1.580
 6899SOL     OW21595   5.160   5.244   2.427
 6899SOL    HW121596   5.175   5.217   2.522
 6899SOL    HW221597   5.238   5.299   2.396
 6900SOL     OW21598   6.929   4.618   4.636
 6900SOL    HW121599   6.829   4.609   4.639
 6900SOL    HW221600   6.962   4.655   4.723
 6901SOL     OW21601   5.455   4.378   6.385
 6901SOL    HW121602   5.444   4.389   6.286
 6901SOL    HW221603   5.402   4.299   6.416
 6902SOL     OW21604   0.170   5.868   5.850
 6902SOL    HW121605   0.135   5.954   5.885
 6902SOL    HW221606   0.106   5.830   5.783
 6903SOL     OW21607   1.343   6.459   5.358
 6903SOL    HW121608   1.293   6.510   5.289
 6903SOL    HW221609   1.381   6.376   5.318
 6904SOL     OW21610   0.644   0.389   6.256
 6904SOL    HW121611   0.569   0.379   6.190
 6904SOL    HW221612   0.629   0.471   6.311
 6905SOL     OW21613   4.573   5.879   5.677
 6905SOL    HW121614   4.552   5.968   5.719
 6905SOL    HW221615   4.527   5.873   5.588
 6906SOL     OW21616   3.279   1.701   3.208
 6906SOL    HW121617   3.220   1.764   3.258
 6906SOL    HW221618   3.331   1.645   3.273
 6907SOL     OW21619   5.991   2.967   0.209
 6907SOL    HW121620   5.980   2.977   0.308
 6907SOL    HW221621   6.024   3.054   0.171
 6908SOL     OW21622   3.697   6.230   0.584
 6908SOL    HW121623   3.759   6.160   0.547
 6908SOL    HW221624   3.625   6.249   0.518
 6909SOL     OW21625   5.627   4.433   2.580
 6909SOL    HW121626   5.642   4.517   2.528
 6909SOL    HW221627   5.701   4.422   2.646
 6910SOL     OW21628   1.779   2.648   1.894
 6910SOL    HW121629   1.821   2.576   1.839
 6910SOL    HW221630   1.851   2.703   1.936
 6911SOL     OW21631   2.624   6.773   4.980
 6911SOL    HW121632   2.545   6.813   4.933
 6911SOL    HW221633   2.657   6.836   5.050
 6912SOL     OW21634   2.464   4.270   6.422
 6912SOL    HW121635   2.540   4.236   6.478
 6912SOL    HW221636   2.449   4.206   6.346
 6913SOL     OW21637   4.092   5.666   5.916
 6913SOL    HW121638   4.161   5.616   5.863
 6913SOL    HW221639   4.137   5.714   5.992
 6914SOL     OW21640   0.584   2.292   2.169
 6914SOL    HW121641   0.654   2.253   2.228
 6914SOL    HW221642   0.598   2.261   2.075
 6915SOL     OW21643   6.849   3.276   4.515
 6915SOL    HW121644   6.775   3.296   4.579
 6915SOL    HW221645   6.930   3.329   4.541
 6916SOL     OW21646   4.636   6.139   5.811
 6916SOL    HW121647   4.579   6.218   5.786
 6916SOL    HW221648   4.732   6.161   5.796
 6917SOL     OW21649   3.995   5.891   2.289
 6917SOL    HW121650   3.956   5.971   2.334
 6917SOL    HW221651   3.983   5.811   2.348
 6918SOL     OW21652   2.071   3.673   0.168
 6918SOL    HW121653   2.064   3.582   0.210
 6918SOL    HW221654   1.993   3.687   0.108
 6919SOL     OW21655   6.167   5.935   3.287
 6919SOL    HW121656   6.137   5.921   3.192
 6919SOL    HW221657   6.101   5.992   3.335
 6920SOL     OW21658   0.440   2.939   5.140
 6920SOL    HW121659   0.483   2.860   5.182
 6920SOL    HW221660   0.510   3.004   5.110
 6921SOL     OW21661   3.463   0.611   4.955
 6921SOL    HW121662   3.502   0.573   5.039
 6921SOL    HW221663   3.366   0.586   4.949
 6922SOL     OW21664   3.121   4.533   6.502
 6922SOL    HW121665   3.184   4.505   6.429
 6922SOL    HW221666   3.037   4.568   6.461
 6923SOL     OW21667   5.134   6.925   3.200
 6923SOL    HW121668   5.155   6.920   3.297
 6923SOL    HW221669   5.091   7.013   3.178
 6924SOL     OW21670   3.011   5.099   1.661
 6924SOL    HW121671   3.095   5.118   1.712
 6924SOL    HW221672   3.021   5.012   1.613
 6925SOL     OW21673   6.658   6.606   4.458
 6925SOL    HW121674   6.677   6.620   4.555
 6925SOL    HW221675   6.735   6.639   4.404
 6926SOL     OW21676   3.112   2.866   0.280
 6926SOL    HW121677   3.105   2.868   0.380
 6926SOL    HW221678   3.120   2.772   0.249
 6927SOL     OW21679   3.276   6.965   5.671
 6927SOL    HW121680   3.330   6.959   5.754
 6927SOL    HW221681   3.315   0.011   5.610
 6928SOL     OW21682   4.258   6.081   0.590
 6928SOL    HW121683   4.174   6.118   0.551
 6928SOL    HW221684   4.235   6.004   0.650
 6929SOL     OW21685   4.728   5.393   3.076
 6929SOL    HW121686   4.637   5.426   3.048
 6929SOL    HW221687   4.735   5.296   3.057
 6930SOL     OW21688   1.101   6.166   2.160
 6930SOL    HW121689   1.190   6.186   2.203
 6930SOL    HW221690   1.116   6.128   2.069
 6931SOL     OW21691   3.516   3.126   0.704
 6931SOL    HW121692   3.546   3.072   0.782
 6931SOL    HW221693   3.477   3.066   0.635
 6932SOL     OW21694   3.877   1.052   6.978
 6932SOL    HW121695   3.866   0.991   6.899
 6932SOL    HW221696   3.838   1.008   0.036
 6933SOL     OW21697   3.813   6.276   5.920
 6933SOL    HW121698   3.714   6.263   5.917
 6933SOL    HW221699   3.841   6.304   6.012
 6934SOL     OW21700   4.639   5.201   0.199
 6934SOL    HW121701   4.662   5.209   0.296
 6934SOL    HW221702   4.548   5.161   0.190
 6935SOL     OW21703   4.105   5.612   2.856
 6935SOL    HW121704   4.017   5.618   2.810
 6935SOL    HW221705   4.167   5.555   2.802
 6936SOL     OW21706   0.976   1.765   6.806
 6936SOL    HW121707   0.906   1.794   6.871
 6936SOL    HW221708   0.999   1.841   6.746
 6937SOL     OW21709   5.723   4.430   0.485
 6937SOL    HW121710   5.706   4.342   0.529
 6937SOL    HW221711   5.737   4.500   0.555
 6938SOL     OW21712   3.057   6.974   5.339
 6938SOL    HW121713   3.035   6.927   5.254
 6938SOL    HW221714   3.024   6.920   5.417
 6939SOL     OW21715   5.686   2.904   3.499
 6939SOL    HW121716   5.682   2.961   3.416
 6939SOL    HW221717   5.630   2.946   3.570
 6940SOL     OW21718   1.578   6.503   1.845
 6940SOL    HW121719   1.644   6.443   1.800
 6940SOL    HW221720   1.526   6.450   1.912
 6941SOL     OW21721   3.408   2.903   2.464
 6941SOL    HW121722   3.443   2.982   2.515
 6941SOL    HW221723   3.434   2.819   2.512
 6942SOL     OW21724   6.962   4.944   2.888
 6942SOL    HW121725   6.952   5.034   2.847
 6942SOL    HW221726   6.871   4.909   2.914
 6943SOL     OW21727   3.061   5.589   5.425
 6943SOL    HW121728   2.976   5.633   5.396
 6943SOL    HW221729   3.118   5.653   5.475
 6944SOL     OW21730   0.774   4.626   5.175
 6944SOL    HW121731   0.828   4.708   5.154
 6944SOL    HW221732   0.777   4.564   5.097
 6945SOL     OW21733   4.249   1.586   0.931
 6945SOL    HW121734   4.174   1.619   0.989
 6945SOL    HW221735   4.249   1.637   0.845
 6946SOL     OW21736   5.429   5.497   3.248
 6946SOL    HW121737   5.404   5.588   3.282
 6946SOL    HW221738   5.436   5.501   3.148
 6947SOL     OW21739   6.373   3.730   5.541
 6947SOL    HW121740   6.378   3.633   5.568
 6947SOL    HW221741   6.280   3.752   5.514
 6948SOL     OW21742   0.151   4.758   6.598
 6948SOL    HW121743   0.201   4.673   6.612
 6948SOL    HW221744   0.216   4.834   6.586
 6949SOL     OW21745   2.483   1.337   3.280
 6949SOL    HW121746   2.526   1.335   3.189
 6949SOL    HW221747   2.490   1.428   3.319
 6950SOL     OW21748   1.853   1.326   4.300
 6950SOL    HW121749   1.843   1.350   4.203
 6950SOL    HW221750   1.916   1.390   4.343
 6951SOL     OW21751   1.114   3.973   0.083
 6951SOL    HW121752   1.021   3.954   0.116
 6951SOL    HW221753   1.180   3.928   0.142
 6952SOL     OW21754   4.313   4.587   3.129
 6952SOL    HW121755   4.217   4.594   3.155
 6952SOL    HW221756   4.365   4.546   3.205
 6953SOL     OW21757   0.520   0.601   1.993
 6953SOL    HW121758   0.504   0.683   1.937
 6953SOL    HW221759   0.490   0.619   2.087
 6954SOL     OW21760   6.475   5.151   6.197
 6954SOL    HW121761   6.459   5.166   6.099
 6954SOL    HW221762   6.425   5.069   6.226
 6955SOL     OW21763   4.067   5.911   2.657
 6955SOL    HW121764   4.015   5.974   2.599
 6955SOL    HW221765   4.153   5.888   2.612
 6956SOL     OW21766   6.120   5.054   2.016
 6956SOL    HW121767   6.213   5.040   1.983
 6956SOL    HW221768   6.092   4.976   2.072
 6957SOL     OW21769   5.839   4.130   5.159
 6957SOL    HW121770   5.902   4.128   5.236
 6957SOL    HW221771   5.811   4.224   5.141
 6958SOL     OW21772   3.542   3.817   1.799
 6958SOL    HW121773   3.505   3.860   1.881
 6958SOL    HW221774   3.549   3.885   1.726
 6959SOL     OW21775   0.919   3.533   2.618
 6959SOL    HW121776   0.825   3.561   2.596
 6959SOL    HW221777   0.925   3.433   2.612
 6960SOL     OW21778   5.546   4.649   1.849
 6960SOL    HW121779   5.600   4.608   1.775
 6960SOL    HW221780   5.517   4.578   1.913
 6961SOL     OW21781   5.246   2.298   4.698
 6961SOL    HW121782   5.267   2.386   4.657
 6961SOL    HW221783   5.168   2.257   4.652
 6962SOL     OW21784   2.286   6.692   0.639
 6962SOL    HW121785   2.251   6.766   0.696
 6962SOL    HW221786   2.263   6.709   0.543
 6963SOL     OW21787   0.795   6.896   6.918
 6963SOL    HW121788   0.799   6.840   7.001
 6963SOL    HW221789   0.849   6.979   6.931
 6964SOL     OW21790   2.294   1.442   5.236
 6964SOL    HW121791   2.380   1.478   5.272
 6964SOL    HW221792   2.235   1.518   5.210
 6965SOL     OW21793   1.744   1.209   6.989
 6965SOL    HW121794   1.753   1.144   0.042
 6965SOL    HW221795   1.709   1.161   6.908
 6966SOL     OW21796   1.607   6.665   0.899
 6966SOL    HW121797   1.641   6.681   0.806
 6966SOL    HW221798   1.614   6.750   0.952
 6967SOL     OW21799   3.857   0.041   6.637
 6967SOL    HW121800   3.801   7.017   6.570
 6967SOL    HW221801   3.852   0.140   6.622
 6968SOL     OW21802   4.051   0.518   2.061
 6968SOL    HW121803   3.961   0.477   2.075
 6968SOL    HW221804   4.082   0.499   1.968
 6969SOL     OW21805   1.502   3.518   2.924
 6969SOL    HW121806   1.531   3.427   2.895
 6969SOL    HW221807   1.494   3.520   3.024
 6970SOL     OW21808   3.574   5.999   6.037
 6970SOL    HW121809   3.504   6.069   6.050
 6970SOL    HW221810   3.622   6.015   5.951
 6971SOL     OW21811   6.865   3.724   6.994
 6971SOL    HW121812   6.904   3.763   6.910
 6971SOL    HW221813   6.938   3.684   0.026
 6972SOL     OW21814   5.883   4.014   1.984
 6972SOL    HW121815   5.851   3.988   2.075
 6972SOL    HW221816   5.970   3.968   1.965
 6973SOL     OW21817   0.991   1.476   3.105
 6973SOL    HW121818   1.085   1.508   3.115
 6973SOL    HW221819   0.990   1.377   3.095
 6974SOL     OW21820   3.969   3.047   2.931
 6974SOL    HW121821   4.023   2.976   2.886
 6974SOL    HW221822   4.030   3.111   2.977
 6975SOL     OW21823   3.273   5.205   4.826
 6975SOL    HW121824   3.204   5.249   4.768
 6975SOL    HW221825   3.296   5.266   4.901
 6976SOL     OW21826   4.957   5.213   6.006
 6976SOL    HW121827   4.992   5.237   6.097
 6976SOL    HW221828   4.997   5.273   5.937
 6977SOL     OW21829   4.062   4.802   2.153
 6977SOL    HW121830   3.967   4.801   2.185
 6977SOL    HW221831   4.066   4.769   2.058
 6978SOL     OW21832   1.319   3.779   1.163
 6978SOL    HW121833   1.235   3.755   1.113
 6978SOL    HW221834   1.297   3.843   1.237
 6979SOL     OW21835   1.303   4.020   2.692
 6979SOL    HW121836   1.281   4.094   2.755
 6979SOL    HW221837   1.307   3.934   2.743
 6980SOL     OW21838   2.444   4.451   3.383
 6980SOL    HW121839   2.398   4.383   3.438
 6980SOL    HW221840   2.507   4.504   3.441
 6981SOL     OW21841   3.997   2.345   6.525
 6981SOL    HW121842   4.088   2.370   6.492
 6981SOL    HW221843   3.930   2.361   6.453
 6982SOL     OW21844   6.449   6.921   2.068
 6982SOL    HW121845   6.459   7.012   2.109
 6982SOL    HW221846   6.522   6.905   2.002
 6983SOL     OW21847   6.988   0.712   4.089
 6983SOL    HW121848   6.985   0.747   4.183
 6983SOL    HW221849   6.916   0.643   4.076
 6984SOL     OW21850   1.785   4.501   3.610
 6984SOL    HW121851   1.691   4.522   3.583
 6984SOL    HW221852   1.800   4.402   3.602
 6985SOL     OW21853   5.424   3.462   0.989
 6985SOL    HW121854   5.337   3.414   0.975
 6985SOL    HW221855   5.490   3.399   1.030
 6986SOL     OW21856   3.770   5.828   5.280
 6986SOL    HW121857   3.723   5.777   5.207
 6986SOL    HW221858   3.844   5.773   5.318
 6987SOL     OW21859   0.096   1.304   6.669
 6987SOL    HW121860   0.030   1.301   6.594
 6987SOL    HW221861   0.158   1.381   6.656
 6988SOL     OW21862   1.882   0.109   5.950
 6988SOL    HW121863   1.836   0.180   5.897
 6988SOL    HW221864   1.915   0.148   6.036
 6989SOL     OW21865   0.720   3.365   2.225
 6989SOL    HW121866   0.719   3.390   2.128
 6989SOL    HW221867   0.813   3.342   2.252
 6990SOL     OW21868   3.827   4.885   6.653
 6990SOL    HW121869   3.891   4.857   6.582
 6990SOL    HW221870   3.767   4.808   6.677
 6991SOL     OW21871   5.070   4.150   3.316
 6991SOL    HW121872   4.981   4.108   3.333
 6991SOL    HW221873   5.063   4.249   3.329
 6992SOL     OW21874   1.988   5.418   5.922
 6992SOL    HW121875   1.987   5.518   5.915
 6992SOL    HW221876   2.082   5.387   5.934
 6993SOL     OW21877   4.214   2.152   1.176
 6993SOL    HW121878   4.287   2.084   1.183
 6993SOL    HW221879   4.251   2.236   1.138
 6994SOL     OW21880   2.913   1.167   3.018
 6994SOL    HW121881   2.833   1.225   3.037
 6994SOL    HW221882   2.902   1.125   2.927
 6995SOL     OW21883   6.879   5.191   0.676
 6995SOL    HW121884   6.935   5.127   0.729
 6995SOL    HW221885   6.783   5.168   0.686
 6996SOL     OW21886   0.830   1.657   6.362
 6996SOL    HW121887   0.794   1.708   6.283
 6996SOL    HW221888   0.929   1.648   6.353
 6997SOL     OW21889   6.065   6.076   5.804
 6997SOL    HW121890   6.060   6.055   5.902
 6997SOL    HW221891   6.046   6.173   5.790
 6998SOL     OW21892   0.472   1.119   6.986
 6998SOL    HW121893   0.445   1.202   0.011
 6998SOL    HW221894   0.515   1.142   6.899
 6999SOL     OW21895   0.341   2.636   0.353
 6999SOL    HW121896   0.259   2.633   0.296
 6999SOL    HW221897   0.384   2.726   0.345
 7000SOL     OW21898   0.624   4.807   3.225
 7000SOL    HW121899   0.531   4.836   3.247
 7000SOL    HW221900   0.658   4.744   3.295
 7001SOL     OW21901   0.983   1.235   4.629
 7001SOL    HW121902   0.977   1.165   4.558
 7001SOL    HW221903   1.036   1.313   4.595
 7002SOL     OW21904   1.332   4.344   3.185
 7002SOL    HW121905   1.405   4.330   3.117
 7002SOL    HW221906   1.371   4.379   3.270
 7003SOL     OW21907   0.390   5.239   6.264
 7003SOL    HW121908   0.482   5.220   6.297
 7003SOL    HW221909   0.350   5.313   6.319
 7004SOL     OW21910   1.171   0.916   6.771
 7004SOL    HW121911   1.218   1.002   6.788
 7004SOL    HW221912   1.149   0.872   6.858
 7005SOL     OW21913   1.751   5.371   6.955
 7005SOL    HW121914   1.686   5.308   6.913
 7005SOL    HW221915   1.791   5.429   6.884
 7006SOL     OW21916   0.537   0.468   3.702
 7006SOL    HW121917   0.501   0.407   3.631
 7006SOL    HW221918   0.463   0.523   3.740
 7007SOL     OW21919   1.946   6.963   6.601
 7007SOL    HW121920   1.918   0.011   6.667
 7007SOL    HW221921   1.878   6.890   6.598
 7008SOL     OW21922   5.702   3.209   2.307
 7008SOL    HW121923   5.638   3.136   2.333
 7008SOL    HW221924   5.725   3.263   2.389
 7009SOL     OW21925   5.456   5.604   2.703
 7009SOL    HW121926   5.394   5.584   2.627
 7009SOL    HW221927   5.417   5.572   2.789
 7010SOL     OW21928   5.139   3.023   2.803
 7010SOL    HW121929   5.090   2.981   2.726
 7010SOL    HW221930   5.074   3.046   2.875
 7011SOL     OW21931   2.202   5.885   6.373
 7011SOL    HW121932   2.171   5.977   6.401
 7011SOL    HW221933   2.157   5.860   6.288
 7012SOL     OW21934   6.951   4.104   0.593
 7012SOL    HW121935   6.891   4.176   0.560
 7012SOL    HW221936   6.958   4.031   0.525
 7013SOL     OW21937   2.782   2.631   6.909
 7013SOL    HW121938   2.737   2.692   6.844
 7013SOL    HW221939   2.718   2.560   6.938
 7014SOL     OW21940   6.819   3.383   0.871
 7014SOL    HW121941   6.755   3.404   0.946
 7014SOL    HW221942   6.775   3.321   0.807
 7015SOL     OW21943   5.804   6.033   1.479
 7015SOL    HW121944   5.838   6.115   1.524
 7015SOL    HW221945   5.824   6.038   1.381
 7016SOL     OW21946   3.319   5.230   0.924
 7016SOL    HW121947   3.225   5.257   0.946
 7016SOL    HW221948   3.364   5.197   1.007
 7017SOL     OW21949   6.174   4.459   6.477
 7017SOL    HW121950   6.228   4.540   6.499
 7017SOL    HW221951   6.226   4.399   6.417
 7018SOL     OW21952   6.082   2.969   4.567
 7018SOL    HW121953   6.006   2.983   4.630
 7018SOL    HW221954   6.107   3.055   4.523
 7019SOL     OW21955   3.393   5.940   2.539
 7019SOL    HW121956   3.367   5.905   2.449
 7019SOL    HW221957   3.446   6.024   2.529
 7020SOL     OW21958   6.906   1.688   0.916
 7020SOL    HW121959   6.965   1.610   0.895
 7020SOL    HW221960   6.813   1.655   0.933
 7021SOL     OW21961   0.659   2.304   4.593
 7021SOL    HW121962   0.704   2.296   4.682
 7021SOL    HW221963   0.605   2.222   4.575
 7022SOL     OW21964   1.856   4.283   0.836
 7022SOL    HW121965   1.906   4.359   0.795
 7022SOL    HW221966   1.903   4.197   0.815
 7023SOL     OW21967   6.791   2.092   1.380
 7023SOL    HW121968   6.778   2.143   1.464
 7023SOL    HW221969   6.724   2.122   1.311
 7024SOL     OW21970   3.620   4.203   5.896
 7024SOL    HW121971   3.711   4.172   5.869
 7024SOL    HW221972   3.613   4.301   5.882
 7025SOL     OW21973   2.864   1.003   1.134
 7025SOL    HW121974   2.786   1.052   1.096
 7025SOL    HW221975   2.845   0.904   1.135
 7026SOL     OW21976   2.675   2.326   1.502
 7026SOL    HW121977   2.730   2.297   1.580
 7026SOL    HW221978   2.727   2.312   1.418
 7027SOL     OW21979   2.769   4.570   0.971
 7027SOL    HW121980   2.785   4.472   0.967
 7027SOL    HW221981   2.716   4.592   1.053
 7028SOL     OW21982   3.385   0.493   2.978
 7028SOL    HW121983   3.440   0.522   3.056
 7028SOL    HW221984   3.437   0.426   2.923
 7029SOL     OW21985   3.411   3.852   3.640
 7029SOL    HW121986   3.491   3.804   3.605
 7029SOL    HW221987   3.382   3.811   3.727
 7030SOL     OW21988   6.081   6.685   4.861
 7030SOL    HW121989   6.168   6.643   4.835
 7030SOL    HW221990   6.040   6.632   4.936
 7031SOL     OW21991   5.642   5.050   0.694
 7031SOL    HW121992   5.603   5.134   0.656
 7031SOL    HW221993   5.716   5.073   0.757
 7032SOL     OW21994   3.710   4.921   3.945
 7032SOL    HW121995   3.780   4.893   4.011
 7032SOL    HW221996   3.648   4.986   3.988
 7033SOL     OW21997   2.045   2.106   5.438
 7033SOL    HW121998   2.141   2.118   5.464
 7033SOL    HW221999   1.995   2.063   5.513
 7034SOL     OW22000   6.392   2.303   2.189
 7034SOL    HW122001   6.481   2.297   2.144
 7034SOL    HW222002   6.361   2.398   2.190
 7035SOL     OW22003   3.390   2.548   1.118
 7035SOL    HW122004   3.441   2.473   1.076
 7035SOL    HW222005   3.372   2.526   1.214
 7036SOL     OW22006   6.664   1.792   1.714
 7036SOL    HW122007   6.712   1.801   1.627
 7036SOL    HW222008   6.666   1.880   1.763
 7037SOL     OW22009   0.620   1.083   6.186
 7037SOL    HW122010   0.671   1.135   6.255
 7037SOL    HW222011   0.558   1.020   6.232
 7038SOL     OW22012   0.607   4.487   0.290
 7038SOL    HW122013   0.642   4.467   0.198
 7038SOL    HW222014   0.683   4.518   0.348
 7039SOL     OW22015   6.694   0.337   1.495
 7039SOL    HW122016   6.781   0.287   1.499
 7039SOL    HW222017   6.697   0.415   1.557
 7040SOL     OW22018   4.950   3.191   4.386
 7040SOL    HW122019   4.906   3.125   4.447
 7040SOL    HW222020   5.018   3.144   4.330
 7041SOL     OW22021   0.697   0.137   3.628
 7041SOL    HW122022   0.633   0.100   3.561
 7041SOL    HW222023   0.657   0.131   3.719
 7042SOL     OW22024   5.588   5.534   5.435
 7042SOL    HW122025   5.631   5.478   5.364
 7042SOL    HW222026   5.658   5.573   5.494
 7043SOL     OW22027   2.241   5.957   0.411
 7043SOL    HW122028   2.252   5.966   0.509
 7043SOL    HW222029   2.182   6.030   0.377
 7044SOL     OW22030   4.160   6.288   4.712
 7044SOL    HW122031   4.089   6.350   4.744
 7044SOL    HW222032   4.191   6.231   4.788
 7045SOL     OW22033   5.303   6.576   1.635
 7045SOL    HW122034   5.238   6.543   1.703
 7045SOL    HW222035   5.316   6.674   1.646
 7046SOL     OW22036   2.876   1.139   2.700
 7046SOL    HW122037   2.920   1.092   2.623
 7046SOL    HW222038   2.777   1.141   2.685
 7047SOL     OW22039   1.788   0.114   0.572
 7047SOL    HW122040   1.801   0.032   0.516
 7047SOL    HW222041   1.875   0.163   0.580
 7048SOL     OW22042   0.697   5.563   4.360
 7048SOL    HW122043   0.663   5.470   4.350
 7048SOL    HW222044   0.663   5.620   4.286
 7049SOL     OW22045   2.897   1.464   4.717
 7049SOL    HW122046   2.913   1.423   4.627
 7049SOL    HW222047   2.832   1.539   4.708
 7050SOL     OW22048   4.170   4.609   0.654
 7050SOL    HW122049   4.218   4.554   0.723
 7050SOL    HW222050   4.082   4.638   0.690
 7051SOL     OW22051   1.770   1.076   2.008
 7051SOL    HW122052   1.780   1.165   2.053
 7051SOL    HW222053   1.792   1.085   1.911
 7052SOL     OW22054   5.048   2.149   3.096
 7052SOL    HW122055   4.990   2.196   3.030
 7052SOL    HW222056   5.142   2.146   3.062
 7053SOL     OW22057   0.691   4.554   3.684
 7053SOL    HW122058   0.648   4.643   3.667
 7053SOL    HW222059   0.699   4.539   3.783
 7054SOL     OW22060   5.495   6.976   0.634
 7054SOL    HW122061   5.466   6.880   0.630
 7054SOL    HW222062   5.520   7.006   0.542
 7055SOL     OW22063   1.998   0.320   7.003
 7055SOL    HW122064   2.045   0.402   0.012
 7055SOL    HW222065   1.941   0.342   6.923
 7056SOL     OW22066   6.913   5.438   0.986
 7056SOL    HW122067   6.975   5.508   1.021
 7056SOL    HW222068   6.912   5.442   0.886
 7057SOL     OW22069   3.174   5.717   4.731
 7057SOL    HW122070   3.107   5.643   4.732
 7057SOL    HW222071   3.126   5.805   4.734
 7058SOL     OW22072   5.846   2.461   5.907
 7058SOL    HW122073   5.816   2.438   5.814
 7058SOL    HW222074   5.886   2.552   5.907
 7059SOL     OW22075   1.287   1.178   4.692
 7059SOL    HW122076   1.197   1.135   4.692
 7059SOL    HW222077   1.327   1.173   4.601
 7060SOL     OW22078   3.180   2.312   1.710
 7060SOL    HW122079   3.203   2.346   1.619
 7060SOL    HW222080   3.113   2.373   1.752
 7061SOL     OW22081   1.804   0.632   1.311
 7061SOL    HW122082   1.887   0.685   1.326
 7061SOL    HW222083   1.806   0.550   1.368
 7062SOL     OW22084   3.614   0.960   5.430
 7062SOL    HW122085   3.645   0.945   5.337
 7062SOL    HW222086   3.644   1.050   5.461
 7063SOL     OW22087   0.260   1.426   1.473
 7063SOL    HW122088   0.271   1.338   1.520
 7063SOL    HW222089   0.163   1.451   1.474
 7064SOL     OW22090   2.935   1.419   5.280
 7064SOL    HW122091   3.000   1.493   5.265
 7064SOL    HW222092   2.906   1.420   5.376
 7065SOL     OW22093   3.263   6.972   4.091
 7065SOL    HW122094   3.170   6.971   4.129
 7065SOL    HW222095   3.315   0.023   4.133
 7066SOL     OW22096   3.785   0.831   1.194
 7066SOL    HW122097   3.860   0.819   1.258
 7066SOL    HW222098   3.744   0.742   1.173
 7067SOL     OW22099   2.760   4.143   5.924
 7067SOL    HW122100   2.790   4.239   5.922
 7067SOL    HW222101   2.701   4.125   5.845
 7068SOL     OW22102   4.687   4.774   2.686
 7068SOL    HW122103   4.780   4.746   2.713
 7068SOL    HW222104   4.660   4.855   2.738
 7069SOL     OW22105   4.008   1.172   5.109
 7069SOL    HW122106   3.957   1.248   5.069
 7069SOL    HW222107   4.104   1.177   5.081
 7070SOL     OW22108   6.660   1.203   5.577
 7070SOL    HW122109   6.606   1.145   5.515
 7070SOL    HW222110   6.726   1.147   5.626
 7071SOL     OW22111   4.603   5.632   6.802
 7071SOL    HW122112   4.543   5.552   6.796
 7071SOL    HW222113   4.588   5.692   6.724
 7072SOL     OW22114   1.018   3.613   6.300
 7072SOL    HW122115   1.099   3.594   6.356
 7072SOL    HW222116   1.009   3.711   6.287
 7073SOL     OW22117   3.987   1.244   4.176
 7073SOL    HW122118   4.083   1.223   4.159
 7073SOL    HW222119   3.980   1.321   4.239
 7074SOL     OW22120   6.091   3.321   2.310
 7074SOL    HW122121   5.991   3.317   2.301
 7074SOL    HW222122   6.118   3.284   2.399
 7075SOL     OW22123   2.197   4.765   2.610
 7075SOL    HW122124   2.174   4.669   2.593
 7075SOL    HW222125   2.141   4.824   2.551
 7076SOL     OW22126   6.432   2.562   0.706
 7076SOL    HW122127   6.492   2.487   0.678
 7076SOL    HW222128   6.338   2.529   0.711
 7077SOL     OW22129   3.537   5.739   1.820
 7077SOL    HW122130   3.567   5.799   1.895
 7077SOL    HW222131   3.475   5.669   1.857
 7078SOL     OW22132   0.112   1.899   6.902
 7078SOL    HW122133   0.195   1.845   6.888
 7078SOL    HW222134   0.080   1.887   6.996
 7079SOL     OW22135   2.817   5.220   5.810
 7079SOL    HW122136   2.753   5.182   5.743
 7079SOL    HW222137   2.770   5.231   5.898
 7080SOL     OW22138   3.955   1.843   6.365
 7080SOL    HW122139   4.011   1.825   6.284
 7080SOL    HW222140   3.859   1.849   6.338
 7081SOL     OW22141   2.912   6.317   6.900
 7081SOL    HW122142   2.901   6.368   6.815
 7081SOL    HW222143   2.859   6.361   6.972
 7082SOL     OW22144   1.728   4.954   2.234
 7082SOL    HW122145   1.642   4.933   2.279
 7082SOL    HW222146   1.802   4.900   2.274
 7083SOL     OW22147   6.149   3.133   2.826
 7083SOL    HW122148   6.135   3.034   2.830
 7083SOL    HW222149   6.088   3.178   2.891
 7084SOL     OW22150   1.317   5.407   0.018
 7084SOL    HW122151   1.248   5.335   0.019
 7084SOL    HW222152   1.288   5.480   6.979
 7085SOL     OW22153   7.020   3.573   2.219
 7085SOL    HW122154   6.985   3.533   2.134
 7085SOL    HW222155   7.020   3.504   2.291
 7086SOL     OW22156   4.463   1.295   3.837
 7086SOL    HW122157   4.390   1.251   3.890
 7086SOL    HW222158   4.508   1.228   3.779
 7087SOL     OW22159   6.062   2.612   3.385
 7087SOL    HW122160   6.034   2.625   3.290
 7087SOL    HW222161   6.015   2.679   3.443
 7088SOL     OW22162   6.007   1.990   5.276
 7088SOL    HW122163   6.043   2.019   5.365
 7088SOL    HW222164   5.919   1.945   5.290
 7089SOL     OW22165   3.213   6.226   1.243
 7089SOL    HW122166   3.193   6.145   1.299
 7089SOL    HW222167   3.194   6.309   1.296
 7090SOL     OW22168   5.124   3.639   1.383
 7090SOL    HW122169   5.140   3.611   1.289
 7090SOL    HW222170   5.148   3.563   1.444
 7091SOL     OW22171   5.941   0.158   0.010
 7091SOL    HW122172   5.866   0.211   0.050
 7091SOL    HW222173   6.028   0.196   0.038
 7092SOL     OW22174   4.207   6.587   6.483
 7092SOL    HW122175   4.188   6.590   6.385
 7092SOL    HW222176   4.152   6.656   6.530
 7093SOL     OW22177   4.062   3.010   0.655
 7093SOL    HW122178   3.988   3.055   0.605
 7093SOL    HW222179   4.126   3.079   0.690
 7094SOL     OW22180   4.419   0.546   4.974
 7094SOL    HW122181   4.483   0.496   4.915
 7094SOL    HW222182   4.465   0.625   5.014
 7095SOL     OW22183   2.322   4.798   3.676
 7095SOL    HW122184   2.330   4.858   3.756
 7095SOL    HW222185   2.272   4.715   3.702
 7096SOL     OW22186   6.935   5.649   0.419
 7096SOL    HW122187   6.857   5.704   0.391
 7096SOL    HW222188   6.989   5.624   0.339
 7097SOL     OW22189   4.722   2.099   3.008
 7097SOL    HW122190   4.758   2.030   3.070
 7097SOL    HW222191   4.698   2.055   2.921
 7098SOL     OW22192   0.635   1.101   2.588
 7098SOL    HW122193   0.718   1.087   2.643
 7098SOL    HW222194   0.613   1.017   2.538
 7099SOL     OW22195   3.398   1.856   5.000
 7099SOL    HW122196   3.416   1.758   5.015
 7099SOL    HW222197   3.352   1.867   4.912
 7100SOL     OW22198   0.440   4.555   1.627
 7100SOL    HW122199   0.490   4.494   1.566
 7100SOL    HW222200   0.389   4.501   1.694
 7101SOL     OW22201   3.195   6.020   4.488
 7101SOL    HW122202   3.262   5.946   4.491
 7101SOL    HW222203   3.131   6.010   4.564
 7102SOL     OW22204   5.606   1.544   2.393
 7102SOL    HW122205   5.680   1.517   2.331
 7102SOL    HW222206   5.611   1.490   2.477
 7103SOL     OW22207   6.606   3.753   4.579
 7103SOL    HW122208   6.636   3.658   4.570
 7103SOL    HW222209   6.682   3.809   4.611
 7104SOL     OW22210   4.383   2.353   4.189
 7104SOL    HW122211   4.388   2.341   4.288
 7104SOL    HW222212   4.319   2.286   4.151
 7105SOL     OW22213   3.266   3.810   2.214
 7105SOL    HW122214   3.330   3.869   2.164
 7105SOL    HW222215   3.185   3.862   2.240
 7106SOL     OW22216   2.398   1.971   2.849
 7106SOL    HW122217   2.341   2.028   2.908
 7106SOL    HW222218   2.352   1.958   2.761
 7107SOL     OW22219   4.016   0.459   0.709
 7107SOL    HW122220   3.978   0.437   0.799
 7107SOL    HW222221   3.974   0.400   0.640
 7108SOL     OW22222   3.252   6.883   1.836
 7108SOL    HW122223   3.215   6.790   1.828
 7108SOL    HW222224   3.260   6.907   1.933
 7109SOL     OW22225   2.598   4.910   5.811
 7109SOL    HW122226   2.600   4.933   5.714
 7109SOL    HW222227   2.658   4.832   5.828
 7110SOL     OW22228   2.826   5.728   5.340
 7110SOL    HW122229   2.794   5.821   5.358
 7110SOL    HW222230   2.751   5.663   5.356
 7111SOL     OW22231   6.114   1.430   4.979
 7111SOL    HW122232   6.076   1.351   4.931
 7111SOL    HW222233   6.180   1.476   4.920
 7112SOL     OW22234   6.269   5.071   4.693
 7112SOL    HW122235   6.353   5.044   4.740
 7112SOL    HW222236   6.291   5.120   4.609
 7113SOL     OW22237   3.391   6.822   4.826
 7113SOL    HW122238   3.425   6.757   4.758
 7113SOL    HW222239   3.464   6.887   4.849
 7114SOL     OW22240   5.567   4.061   0.299
 7114SOL    HW122241   5.563   4.161   0.304
 7114SOL    HW222242   5.490   4.027   0.245
 7115SOL     OW22243   5.162   2.884   5.940
 7115SOL    HW122244   5.144   2.860   6.036
 7115SOL    HW222245   5.260   2.878   5.922
 7116SOL     OW22246   6.101   5.456   4.567
 7116SOL    HW122247   6.138   5.466   4.660
 7116SOL    HW222248   6.011   5.412   4.572
 7117SOL     OW22249   3.536   0.297   2.885
 7117SOL    HW122250   3.517   0.213   2.935
 7117SOL    HW222251   3.635   0.312   2.884
 7118SOL     OW22252   4.797   4.326   5.605
 7118SOL    HW122253   4.887   4.296   5.637
 7118SOL    HW222254   4.730   4.313   5.679
 7119SOL     OW22255   2.621   6.597   4.385
 7119SOL    HW122256   2.688   6.569   4.316
 7119SOL    HW222257   2.554   6.659   4.344
 7120SOL     OW22258   4.422   1.799   2.026
 7120SOL    HW122259   4.405   1.790   1.928
 7120SOL    HW222260   4.377   1.881   2.060
 7121SOL     OW22261   1.548   5.985   2.394
 7121SOL    HW122262   1.512   6.042   2.468
 7121SOL    HW222263   1.514   6.018   2.306
 7122SOL     OW22264   2.977   2.295   6.506
 7122SOL    HW122265   3.031   2.219   6.542
 7122SOL    HW222266   2.880   2.276   6.519
 7123SOL     OW22267   5.196   4.029   6.965
 7123SOL    HW122268   5.251   4.112   6.976
 7123SOL    HW222269   5.149   4.031   6.877
 7124SOL     OW22270   2.882   2.941   6.300
 7124SOL    HW122271   2.975   2.904   6.311
 7124SOL    HW222272   2.817   2.866   6.293
 7125SOL     OW22273   1.191   6.178   1.345
 7125SOL    HW122274   1.147   6.249   1.291
 7125SOL    HW222275   1.287   6.169   1.317
 7126SOL     OW22276   3.963   4.677   0.829
 7126SOL    HW122277   3.973   4.592   0.882
 7126SOL    HW222278   4.009   4.751   0.878
 7127SOL     OW22279   2.932   0.091   4.952
 7127SOL    HW122280   2.963   0.158   5.020
 7127SOL    HW222281   3.005   0.024   4.935
 7128SOL     OW22282   4.172   3.956   0.328
 7128SOL    HW122283   4.119   3.920   0.251
 7128SOL    HW222284   4.145   4.051   0.346
 7129SOL     OW22285   0.204   1.783   0.222
 7129SOL    HW122286   0.212   1.746   0.314
 7129SOL    HW222287   0.111   1.773   0.189
 7130SOL     OW22288   3.587   0.185   4.047
 7130SOL    HW122289   3.517   0.159   4.113
 7130SOL    HW222290   3.625   0.275   4.071
 7131SOL     OW22291   2.051   2.297   3.110
 7131SOL    HW122292   1.977   2.354   3.073
 7131SOL    HW222293   2.109   2.353   3.169
 7132SOL     OW22294   5.504   4.893   2.267
 7132SOL    HW122295   5.447   4.881   2.186
 7132SOL    HW222296   5.600   4.899   2.240
 7133SOL     OW22297   3.132   6.129   2.382
 7133SOL    HW122298   3.120   6.100   2.287
 7133SOL    HW222299   3.177   6.056   2.433
 7134SOL     OW22300   5.705   5.006   6.382
 7134SOL    HW122301   5.715   5.040   6.475
 7134SOL    HW222302   5.724   5.080   6.317
 7135SOL     OW22303   2.231   4.721   0.786
 7135SOL    HW122304   2.216   4.664   0.866
 7135SOL    HW222305   2.324   4.707   0.753
 7136SOL     OW22306   1.318   2.974   2.641
 7136SOL    HW122307   1.314   2.919   2.558
 7136SOL    HW222308   1.412   3.005   2.656
 7137SOL     OW22309   1.756   6.939   2.141
 7137SOL    HW122310   1.659   6.942   2.118
 7137SOL    HW222311   1.783   6.845   2.161
 7138SOL     OW22312   6.471   4.161   0.353
 7138SOL    HW122313   6.374   4.151   0.378
 7138SOL    HW222314   6.525   4.093   0.401
 7139SOL     OW22315   5.676   5.974   1.060
 7139SOL    HW122316   5.611   5.963   0.985
 7139SOL    HW222317   5.630   5.954   1.147
 7140SOL     OW22318   0.003   4.494   6.966
 7140SOL    HW122319   0.081   4.439   6.995
 7140SOL    HW222320   6.954   4.490   0.013
 7141SOL     OW22321   2.733   2.093   0.389
 7141SOL    HW122322   2.669   2.146   0.333
 7141SOL    HW222323   2.792   2.038   0.329
 7142SOL     OW22324   4.462   6.686   5.735
 7142SOL    HW122325   4.481   6.729   5.823
 7142SOL    HW222326   4.532   6.712   5.669
 7143SOL     OW22327   3.352   2.943   5.622
 7143SOL    HW122328   3.449   2.948   5.595
 7143SOL    HW222329   3.300   2.900   5.548
 7144SOL     OW22330   6.223   1.542   6.024
 7144SOL    HW122331   6.161   1.523   5.947
 7144SOL    HW222332   6.178   1.601   6.090
 7145SOL     OW22333   0.212   2.883   0.384
 7145SOL    HW122334   0.176   2.976   0.394
 7145SOL    HW222335   0.170   2.823   0.453
 7146SOL     OW22336   0.200   1.407   4.424
 7146SOL    HW122337   0.273   1.468   4.393
 7146SOL    HW222338   0.111   1.450   4.407
 7147SOL     OW22339   6.921   6.924   0.208
 7147SOL    HW122340   6.948   6.871   0.287
 7147SOL    HW222341   7.000   6.939   0.148
 7148SOL     OW22342   5.249   6.332   0.804
 7148SOL    HW122343   5.347   6.325   0.783
 7148SOL    HW222344   5.199   6.359   0.721
 7149SOL     OW22345   6.834   3.816   6.562
 7149SOL    HW122346   6.760   3.877   6.534
 7149SOL    HW222347   6.840   3.739   6.498
 7150SOL     OW22348   2.638   2.212   0.125
 7150SOL    HW122349   2.645   2.112   0.129
 7150SOL    HW222350   2.728   2.252   0.142
 7151SOL     OW22351   5.496   2.259   6.939
 7151SOL    HW122352   5.585   2.296   6.964
 7151SOL    HW222353   5.492   2.246   6.839
 7152SOL     OW22354   5.364   0.368   4.863
 7152SOL    HW122355   5.455   0.407   4.849
 7152SOL    HW222356   5.315   0.366   4.775
 7153SOL     OW22357   5.508   5.485   0.404
 7153SOL    HW122358   5.454   5.568   0.392
 7153SOL    HW222359   5.516   5.437   0.316
 7154SOL     OW22360   4.723   0.019   2.150
 7154SOL    HW122361   4.762   7.019   2.060
 7154SOL    HW222362   4.711   6.958   2.203
 7155SOL     OW22363   1.896   0.419   1.632
 7155SOL    HW122364   1.892   0.400   1.730
 7155SOL    HW222365   1.924   0.337   1.582
 7156SOL     OW22366   6.299   2.951   5.626
 7156SOL    HW122367   6.215   2.997   5.598
 7156SOL    HW222368   6.338   2.998   5.705
 7157SOL     OW22369   6.894   3.385   5.661
 7157SOL    HW122370   6.818   3.350   5.605
 7157SOL    HW222371   6.897   3.485   5.653
 7158SOL     OW22372   5.299   6.850   4.133
 7158SOL    HW122373   5.314   6.821   4.039
 7158SOL    HW222374   5.207   6.822   4.162
 7159SOL     OW22375   0.559   6.804   3.463
 7159SOL    HW122376   0.623   6.728   3.457
 7159SOL    HW222377   0.609   6.891   3.460
 7160SOL     OW22378   5.499   6.429   2.541
 7160SOL    HW122379   5.556   6.494   2.490
 7160SOL    HW222380   5.403   6.454   2.532
 7161SOL     OW22381   3.928   2.901   1.925
 7161SOL    HW122382   3.869   2.830   1.962
 7161SOL    HW222383   3.872   2.977   1.891
 7162SOL     OW22384   0.887   6.265   0.661
 7162SOL    HW122385   0.932   6.325   0.726
 7162SOL    HW222386   0.929   6.276   0.571
 7163SOL     OW22387   0.019   6.323   0.074
 7163SOL    HW122388   0.093   6.347   0.137
 7163SOL    HW222389   0.019   6.224   0.059
 7164SOL     OW22390   0.684   6.333   6.885
 7164SOL    HW122391   0.655   6.426   6.865
 7164SOL    HW222392   0.653   6.272   6.812
 7165SOL     OW22393   4.132   2.549   6.204
 7165SOL    HW122394   4.190   2.629   6.195
 7165SOL    HW222395   4.147   2.507   6.294
 7166SOL     OW22396   0.132   6.388   4.996
 7166SOL    HW122397   0.049   6.336   5.018
 7166SOL    HW222398   0.203   6.366   5.062
 7167SOL     OW22399   0.625   3.602   5.290
 7167SOL    HW122400   0.631   3.516   5.239
 7167SOL    HW222401   0.531   3.635   5.290
 7168SOL     OW22402   0.792   6.995   2.795
 7168SOL    HW122403   0.878   6.957   2.829
 7168SOL    HW222404   0.734   6.922   2.759
 7169SOL     OW22405   2.021   5.078   5.818
 7169SOL    HW122406   1.929   5.110   5.839
 7169SOL    HW222407   2.023   4.978   5.820
 7170SOL     OW22408   4.243   2.115   1.795
 7170SOL    HW122409   4.209   2.208   1.781
 7170SOL    HW222410   4.165   2.054   1.812
 7171SOL     OW22411   0.889   5.723   1.929
 7171SOL    HW122412   0.952   5.650   1.956
 7171SOL    HW222413   0.901   5.743   1.832
 7172SOL     OW22414   1.425   2.666   3.710
 7172SOL    HW122415   1.504   2.686   3.653
 7172SOL    HW222416   1.364   2.746   3.712
 7173SOL     OW22417   3.447   5.474   4.162
 7173SOL    HW122418   3.402   5.424   4.236
 7173SOL    HW222419   3.536   5.506   4.193
 7174SOL     OW22420   6.713   3.633   2.180
 7174SOL    HW122421   6.757   3.546   2.205
 7174SOL    HW222422   6.739   3.703   2.247
 7175SOL     OW22423   5.937   2.998   6.140
 7175SOL    HW122424   6.030   3.035   6.145
 7175SOL    HW222425   5.888   3.017   6.225
 7176SOL     OW22426   6.356   1.964   6.504
 7176SOL    HW122427   6.337   1.884   6.447
 7176SOL    HW222428   6.422   2.023   6.457
 7177SOL     OW22429   1.222   5.908   3.758
 7177SOL    HW122430   1.192   5.949   3.844
 7177SOL    HW222431   1.306   5.953   3.727
 7178SOL     OW22432   1.176   6.037   5.684
 7178SOL    HW122433   1.184   6.128   5.645
 7178SOL    HW222434   1.115   6.041   5.764
 7179SOL     OW22435   5.095   4.515   5.599
 7179SOL    HW122436   5.057   4.478   5.514
 7179SOL    HW222437   5.096   4.443   5.669
 7180SOL     OW22438   0.117   2.566   1.931
 7180SOL    HW122439   0.182   2.605   1.997
 7180SOL    HW222440   0.168   2.519   1.858
 7181SOL     OW22441   3.199   0.134   0.197
 7181SOL    HW122442   3.189   0.152   0.295
 7181SOL    HW222443   3.220   0.220   0.150
 7182SOL     OW22444   2.206   1.052   2.543
 7182SOL    HW122445   2.256   0.967   2.559
 7182SOL    HW222446   2.184   1.060   2.446
 7183SOL     OW22447   1.802   0.148   1.109
 7183SOL    HW122448   1.793   0.162   1.011
 7183SOL    HW222449   1.711   0.145   1.151
 7184SOL     OW22450   0.056   1.454   3.081
 7184SOL    HW122451   0.066   1.531   3.144
 7184SOL    HW222452   7.021   1.481   3.004
 7185SOL     OW22453   3.813   0.128   3.620
 7185SOL    HW122454   3.809   0.115   3.719
 7185SOL    HW222455   3.877   0.202   3.598
 7186SOL     OW22456   6.223   2.204   6.300
 7186SOL    HW122457   6.287   2.183   6.374
 7186SOL    HW222458   6.269   2.259   6.230
 7187SOL     OW22459   3.354   3.798   4.253
 7187SOL    HW122460   3.371   3.869   4.185
 7187SOL    HW222461   3.285   3.734   4.217
 7188SOL     OW22462   4.944   4.855   0.079
 7188SOL    HW122463   4.999   4.879   7.022
 7188SOL    HW222464   4.847   4.862   0.056
 7189SOL     OW22465   0.014   2.264   5.784
 7189SOL    HW122466   6.969   2.321   5.737
 7189SOL    HW222467   0.035   2.184   5.729
 7190SOL     OW22468   5.725   5.788   0.787
 7190SOL    HW122469   5.717   5.722   0.712
 7190SOL    HW222470   5.656   5.859   0.776
 7191SOL     OW22471   0.188   4.945   2.752
 7191SOL    HW122472   0.108   4.938   2.812
 7191SOL    HW222473   0.271   4.925   2.804
 7192SOL     OW22474   3.741   3.814   5.640
 7192SOL    HW122475   3.796   3.742   5.682
 7192SOL    HW222476   3.793   3.900   5.638
 7193SOL     OW22477   3.673   1.135   3.695
 7193SOL    HW122478   3.767   1.102   3.691
 7193SOL    HW222479   3.666   1.209   3.762
 7194SOL     OW22480   3.465   2.543   5.386
 7194SOL    HW122481   3.508   2.455   5.366
 7194SOL    HW222482   3.431   2.543   5.480
 7195SOL     OW22483   6.806   4.098   5.361
 7195SOL    HW122484   6.812   3.999   5.365
 7195SOL    HW222485   6.856   4.138   5.438
 7196SOL     OW22486   3.016   4.226   1.782
 7196SOL    HW122487   3.113   4.246   1.769
 7196SOL    HW222488   2.969   4.308   1.814
 7197SOL     OW22489   3.336   4.117   6.156
 7197SOL    HW122490   3.355   4.053   6.231
 7197SOL    HW222491   3.274   4.074   6.091
 7198SOL     OW22492   1.179   6.984   2.378
 7198SOL    HW122493   1.122   6.902   2.372
 7198SOL    HW222494   1.266   6.960   2.421
 7199SOL     OW22495   6.050   1.143   3.423
 7199SOL    HW122496   6.141   1.153   3.383
 7199SOL    HW222497   5.987   1.207   3.379
 7200SOL     OW22498   1.009   4.113   6.553
 7200SOL    HW122499   0.989   4.019   6.581
 7200SOL    HW222500   0.942   4.142   6.485
 7201SOL     OW22501   5.751   5.873   4.790
 7201SOL    HW122502   5.667   5.925   4.776
 7201SOL    HW222503   5.793   5.899   4.877
 7202SOL     OW22504   4.818   0.374   5.573
 7202SOL    HW122505   4.730   0.398   5.531
 7202SOL    HW222506   4.858   0.455   5.615
 7203SOL     OW22507   0.888   1.447   0.753
 7203SOL    HW122508   0.867   1.528   0.699
 7203SOL    HW222509   0.816   1.432   0.821
 7204SOL     OW22510   5.459   0.930   2.905
 7204SOL    HW122511   5.459   1.027   2.928
 7204SOL    HW222512   5.406   0.880   2.973
 7205SOL     OW22513   2.907   1.326   4.203
 7205SOL    HW122514   2.853   1.243   4.193
 7205SOL    HW222515   2.925   1.365   4.112
 7206SOL     OW22516   2.380   2.724   6.594
 7206SOL    HW122517   2.324   2.695   6.516
 7206SOL    HW222518   2.349   2.814   6.625
 7207SOL     OW22519   1.810   2.410   3.032
 7207SOL    HW122520   1.764   2.325   3.059
 7207SOL    HW222521   1.753   2.459   2.966
 7208SOL     OW22522   3.014   0.157   3.670
 7208SOL    HW122523   2.957   0.216   3.727
 7208SOL    HW222524   3.075   0.103   3.727
 7209SOL     OW22525   4.571   0.908   1.944
 7209SOL    HW122526   4.555   0.821   1.897
 7209SOL    HW222527   4.572   0.893   2.043
 7210SOL     OW22528   3.248   1.229   5.061
 7210SOL    HW122529   3.203   1.163   5.001
 7210SOL    HW222530   3.201   1.317   5.054
 7211SOL     OW22531   4.861   5.937   6.146
 7211SOL    HW122532   4.880   5.946   6.243
 7211SOL    HW222533   4.767   5.966   6.128
 7212SOL     OW22534   0.561   5.751   4.201
 7212SOL    HW122535   0.644   5.804   4.217
 7212SOL    HW222536   0.513   5.786   4.120
 7213SOL     OW22537   4.731   2.927   7.016
 7213SOL    HW122538   4.780   2.843   6.993
 7213SOL    HW222539   4.643   2.904   0.035
 7214SOL     OW22540   6.828   1.420   5.805
 7214SOL    HW122541   6.843   1.482   5.882
 7214SOL    HW222542   6.774   1.341   5.836
 7215SOL     OW22543   6.366   1.367   2.377
 7215SOL    HW122544   6.293   1.313   2.420
 7215SOL    HW222545   6.427   1.306   2.327
 7216SOL     OW22546   5.842   6.372   4.230
 7216SOL    HW122547   5.824   6.295   4.291
 7216SOL    HW222548   5.940   6.392   4.230
 7217SOL     OW22549   1.125   3.424   3.272
 7217SOL    HW122550   1.147   3.401   3.177
 7217SOL    HW222551   1.027   3.445   3.280
 7218SOL     OW22552   6.569   2.685   5.236
 7218SOL    HW122553   6.598   2.664   5.142
 7218SOL    HW222554   6.649   2.704   5.292
 7219SOL     OW22555   3.408   5.477   0.985
 7219SOL    HW122556   3.350   5.522   0.918
 7219SOL    HW222557   3.362   5.395   1.019
 7220SOL     OW22558   6.971   3.077   3.683
 7220SOL    HW122559   0.003   3.021   3.745
 7220SOL    HW222560   6.945   3.162   3.729
 7221SOL     OW22561   4.865   4.672   3.893
 7221SOL    HW122562   4.959   4.650   3.871
 7221SOL    HW222563   4.833   4.745   3.833
 7222SOL     OW22564   6.526   6.027   3.915
 7222SOL    HW122565   6.518   5.958   3.843
 7222SOL    HW222566   6.434   6.053   3.947
 7223SOL     OW22567   6.492   5.686   1.523
 7223SOL    HW122568   6.439   5.663   1.604
 7223SOL    HW222569   6.432   5.725   1.454
 7224SOL     OW22570   5.430   2.790   2.367
 7224SOL    HW122571   5.480   2.704   2.376
 7224SOL    HW222572   5.413   2.810   2.271
 7225SOL     OW22573   1.089   5.422   0.267
 7225SOL    HW122574   1.066   5.385   0.177
 7225SOL    HW222575   1.087   5.349   0.335
 7226SOL     OW22576   6.329   6.070   0.536
 7226SOL    HW122577   6.286   5.980   0.531
 7226SOL    HW222578   6.401   6.077   0.467
 7227SOL     OW22579   1.957   0.850   2.065
 7227SOL    HW122580   1.955   0.851   2.165
 7227SOL    HW222581   1.911   0.932   2.031
 7228SOL     OW22582   6.303   3.343   3.074
 7228SOL    HW122583   6.294   3.308   3.167
 7228SOL    HW222584   6.221   3.321   3.021
 7229SOL     OW22585   6.373   0.025   4.996
 7229SOL    HW122586   6.468   0.018   5.025
 7229SOL    HW222587   6.365   0.000   4.900
 7230SOL     OW22588   2.358   4.782   5.367
 7230SOL    HW122589   2.270   4.739   5.387
 7230SOL    HW222590   2.416   4.718   5.317
 7231SOL     OW22591   3.645   3.714   6.358
 7231SOL    HW122592   3.675   3.700   6.452
 7231SOL    HW222593   3.651   3.628   6.307
 7232SOL     OW22594   4.632   5.980   3.330
 7232SOL    HW122595   4.555   5.972   3.267
 7232SOL    HW222596   4.629   5.905   3.396
 7233SOL     OW22597   0.337   1.887   6.413
 7233SOL    HW122598   0.386   1.966   6.448
 7233SOL    HW222599   0.393   1.840   6.345
 7234SOL     OW22600   5.639   4.632   3.263
 7234SOL    HW122601   5.705   4.570   3.305
 7234SOL    HW222602   5.590   4.584   3.190
 7235SOL     OW22603   6.928   0.374   0.736
 7235SOL    HW122604   6.988   0.426   0.796
 7235SOL    HW222605   6.838   0.365   0.778
 7236SOL     OW22606   0.423   3.784   2.291
 7236SOL    HW122607   0.469   3.695   2.294
 7236SOL    HW222608   0.325   3.771   2.309
 7237SOL     OW22609   5.025   1.237   0.309
 7237SOL    HW122610   5.067   1.309   0.254
 7237SOL    HW222611   5.096   1.172   0.339
 7238SOL     OW22612   4.507   3.342   0.140
 7238SOL    HW122613   4.470   3.382   0.224
 7238SOL    HW222614   4.443   3.274   0.105
 7239SOL     OW22615   5.756   3.029   1.930
 7239SOL    HW122616   5.804   3.115   1.914
 7239SOL    HW222617   5.809   2.973   1.995
 7240SOL     OW22618   0.404   1.858   0.549
 7240SOL    HW122619   0.438   1.781   0.602
 7240SOL    HW222620   0.436   1.944   0.590
 7241SOL     OW22621   1.950   0.507   2.760
 7241SOL    HW122622   1.975   0.449   2.838
 7241SOL    HW222623   1.872   0.466   2.713
 7242SOL     OW22624   6.271   3.766   5.930
 7242SOL    HW122625   6.229   3.837   5.874
 7242SOL    HW222626   6.255   3.785   6.027
 7243SOL     OW22627   6.069   4.580   6.182
 7243SOL    HW122628   6.073   4.660   6.122
 7243SOL    HW222629   5.984   4.529   6.165
 7244SOL     OW22630   6.783   6.014   6.918
 7244SOL    HW122631   6.769   5.966   7.004
 7244SOL    HW222632   6.877   6.045   6.912
 7245SOL     OW22633   1.765   2.409   6.880
 7245SOL    HW122634   1.769   2.382   6.784
 7245SOL    HW222635   1.852   2.449   6.907
 7246SOL     OW22636   5.051   6.784   4.246
 7246SOL    HW122637   5.050   6.701   4.302
 7246SOL    HW222638   5.004   6.858   4.295
 7247SOL     OW22639   3.353   4.107   4.786
 7247SOL    HW122640   3.400   4.170   4.723
 7247SOL    HW222641   3.370   4.135   4.880
 7248SOL     OW22642   2.121   1.680   5.256
 7248SOL    HW122643   2.106   1.645   5.163
 7248SOL    HW222644   2.034   1.706   5.297
 7249SOL     OW22645   3.300   5.471   2.721
 7249SOL    HW122646   3.379   5.500   2.775
 7249SOL    HW222647   3.330   5.410   2.648
 7250SOL     OW22648   5.076   5.930   5.466
 7250SOL    HW122649   5.012   5.955   5.538
 7250SOL    HW222650   5.027   5.921   5.379
 7251SOL     OW22651   0.791   5.887   4.218
 7251SOL    HW122652   0.771   5.976   4.258
 7251SOL    HW222653   0.860   5.840   4.273
 7252SOL     OW22654   3.866   3.786   1.935
 7252SOL    HW122655   3.818   3.721   1.994
 7252SOL    HW222656   3.836   3.879   1.956
 7253SOL     OW22657   1.364   5.240   5.591
 7253SOL    HW122658   1.385   5.337   5.589
 7253SOL    HW222659   1.422   5.194   5.658
 7254SOL     OW22660   6.859   3.444   4.151
 7254SOL    HW122661   6.822   3.423   4.242
 7254SOL    HW222662   6.832   3.372   4.087
 7255SOL     OW22663   4.806   3.833   0.572
 7255SOL    HW122664   4.727   3.867   0.521
 7255SOL    HW222665   4.802   3.733   0.578
 7256SOL     OW22666   2.999   6.937   4.274
 7256SOL    HW122667   3.026   6.923   4.370
 7256SOL    HW222668   2.974   6.850   4.233
 7257SOL     OW22669   0.545   1.426   5.377
 7257SOL    HW122670   0.555   1.526   5.370
 7257SOL    HW222671   0.613   1.390   5.441
 7258SOL     OW22672   6.247   2.484   2.857
 7258SOL    HW122673   6.316   2.503   2.927
 7258SOL    HW222674   6.291   2.483   2.767
 7259SOL     OW22675   1.201   4.093   2.263
 7259SOL    HW122676   1.226   4.184   2.297
 7259SOL    HW222677   1.232   4.024   2.328
 7260SOL     OW22678   6.184   2.948   1.084
 7260SOL    HW122679   6.131   2.997   1.153
 7260SOL    HW222680   6.210   2.858   1.118
 7261SOL     OW22681   0.198   4.270   0.091
 7261SOL    HW122682   0.193   4.259   0.190
 7261SOL    HW222683   0.201   4.180   0.047
 7262SOL     OW22684   3.466   0.293   5.317
 7262SOL    HW122685   3.558   0.288   5.279
 7262SOL    HW222686   3.454   0.380   5.366
 7263SOL     OW22687   6.283   5.889   4.955
 7263SOL    HW122688   6.240   5.843   4.877
 7263SOL    HW222689   6.282   5.827   5.034
 7264SOL     OW22690   5.439   1.375   1.340
 7264SOL    HW122691   5.517   1.345   1.286
 7264SOL    HW222692   5.403   1.298   1.393
 7265SOL     OW22693   3.861   0.271   5.739
 7265SOL    HW122694   3.774   0.307   5.772
 7265SOL    HW222695   3.891   0.197   5.799
 7266SOL     OW22696   6.713   0.720   3.064
 7266SOL    HW122697   6.750   0.656   3.132
 7266SOL    HW222698   6.664   0.794   3.111
 7267SOL     OW22699   0.086   3.664   5.445
 7267SOL    HW122700   0.060   3.681   5.350
 7267SOL    HW222701   0.143   3.740   5.477
 7268SOL     OW22702   5.550   5.962   4.009
 7268SOL    HW122703   5.594   5.959   3.919
 7268SOL    HW222704   5.539   6.057   4.038
 7269SOL     OW22705   2.959   5.459   4.198
 7269SOL    HW122706   2.879   5.431   4.144
 7269SOL    HW222707   3.041   5.417   4.159
 7270SOL     OW22708   0.346   0.950   4.576
 7270SOL    HW122709   0.386   1.022   4.520
 7270SOL    HW222710   0.419   0.902   4.625
 7271SOL     OW22711   0.652   4.659   2.981
 7271SOL    HW122712   0.664   4.732   3.049
 7271SOL    HW222713   0.607   4.697   2.900
 7272SOL     OW22714   6.234   4.055   1.592
 7272SOL    HW122715   6.230   4.130   1.658
 7272SOL    HW222716   6.264   3.971   1.639
 7273SOL     OW22717   0.055   0.998   4.910
 7273SOL    HW122718   0.048   0.936   4.832
 7273SOL    HW222719   6.999   0.985   4.970
 7274SOL     OW22720   0.372   5.618   6.192
 7274SOL    HW122721   0.449   5.652   6.246
 7274SOL    HW222722   0.369   5.518   6.198
 7275SOL     OW22723   0.673   5.044   3.094
 7275SOL    HW122724   0.671   4.969   3.160
 7275SOL    HW222725   0.581   5.061   3.060
 7276SOL     OW22726   5.086   6.408   3.471
 7276SOL    HW122727   5.121   6.454   3.389
 7276SOL    HW222728   5.141   6.435   3.550
 7277SOL     OW22729   4.909   0.926   0.454
 7277SOL    HW122730   4.848   0.928   0.375
 7277SOL    HW222731   4.979   0.856   0.441
 7278SOL     OW22732   3.712   3.042   2.208
 7278SOL    HW122733   3.809   3.050   2.231
 7278SOL    HW222734   3.694   2.951   2.171
 7279SOL     OW22735   3.516   6.419   6.150
 7279SOL    HW122736   3.611   6.391   6.157
 7279SOL    HW222737   3.479   6.438   6.241
 7280SOL     OW22738   4.415   0.971   5.864
 7280SOL    HW122739   4.489   1.016   5.814
 7280SOL    HW222740   4.329   0.986   5.815
 7281SOL     OW22741   5.588   0.824   6.360
 7281SOL    HW122742   5.600   0.726   6.341
 7281SOL    HW222743   5.491   0.848   6.349
 7282SOL     OW22744   6.111   5.826   2.786
 7282SOL    HW122745   6.118   5.727   2.789
 7282SOL    HW222746   6.083   5.856   2.695
 7283SOL     OW22747   2.114   1.745   3.574
 7283SOL    HW122748   2.122   1.804   3.494
 7283SOL    HW222749   2.077   1.657   3.547
 7284SOL     OW22750   1.388   1.538   4.544
 7284SOL    HW122751   1.400   1.472   4.618
 7284SOL    HW222752   1.336   1.496   4.470
 7285SOL     OW22753   5.902   5.854   1.919
 7285SOL    HW122754   5.886   5.860   1.821
 7285SOL    HW222755   5.880   5.762   1.951
 7286SOL     OW22756   1.669   4.440   0.524
 7286SOL    HW122757   1.647   4.499   0.601
 7286SOL    HW222758   1.752   4.473   0.479
 7287SOL     OW22759   6.449   1.668   6.127
 7287SOL    HW122760   6.380   1.607   6.089
 7287SOL    HW222761   6.423   1.763   6.107
 7288SOL     OW22762   2.710   0.421   6.946
 7288SOL    HW122763   2.719   0.515   6.978
 7288SOL    HW222764   2.733   0.358   7.020
 7289SOL     OW22765   4.502   2.130   3.672
 7289SOL    HW122766   4.420   2.077   3.653
 7289SOL    HW222767   4.477   2.226   3.688
 7290SOL     OW22768   2.889   5.679   4.046
 7290SOL    HW122769   2.938   5.631   4.119
 7290SOL    HW222770   2.949   5.688   3.967
 7291SOL     OW22771   3.574   5.222   1.334
 7291SOL    HW122772   3.618   5.227   1.245
 7291SOL    HW222773   3.640   5.245   1.406
 7292SOL     OW22774   3.607   0.408   4.619
 7292SOL    HW122775   3.613   0.419   4.520
 7292SOL    HW222776   3.646   0.489   4.664
 7293SOL     OW22777   2.267   1.262   6.248
 7293SOL    HW122778   2.227   1.204   6.318
 7293SOL    HW222779   2.335   1.323   6.289
 7294SOL     OW22780   5.644   5.300   6.629
 7294SOL    HW122781   5.719   5.291   6.563
 7294SOL    HW222782   5.607   5.393   6.624
 7295SOL     OW22783   4.688   6.987   1.269
 7295SOL    HW122784   4.619   0.030   1.238
 7295SOL    HW222785   4.776   0.011   1.281
 7296SOL     OW22786   4.214   4.960   0.835
 7296SOL    HW122787   4.190   4.905   0.915
 7296SOL    HW222788   4.282   4.911   0.780
 7297SOL     OW22789   4.561   6.573   2.245
 7297SOL    HW122790   4.521   6.563   2.336
 7297SOL    HW222791   4.495   6.617   2.184
 7298SOL     OW22792   6.345   3.250   4.244
 7298SOL    HW122793   6.281   3.322   4.216
 7298SOL    HW222794   6.438   3.277   4.219
 7299SOL     OW22795   5.732   3.274   6.710
 7299SOL    HW122796   5.666   3.212   6.669
 7299SOL    HW222797   5.762   3.236   6.798
 7300SOL     OW22798   4.885   5.364   1.424
 7300SOL    HW122799   4.862   5.273   1.460
 7300SOL    HW222800   4.847   5.434   1.484
 7301SOL     OW22801   6.926   1.354   6.345
 7301SOL    HW122802   6.863   1.341   6.269
 7301SOL    HW222803   6.919   1.448   6.379
 7302SOL     OW22804   6.430   0.654   6.184
 7302SOL    HW122805   6.476   0.590   6.246
 7302SOL    HW222806   6.358   0.702   6.234
 7303SOL     OW22807   4.340   0.629   0.879
 7303SOL    HW122808   4.307   0.712   0.926
 7303SOL    HW222809   4.329   0.550   0.940
 7304SOL     OW22810   3.854   3.138   4.840
 7304SOL    HW122811   3.871   3.095   4.752
 7304SOL    HW222812   3.821   3.069   4.905
 7305SOL     OW22813   5.791   2.105   6.932
 7305SOL    HW122814   5.733   2.024   6.943
 7305SOL    HW222815   5.797   2.129   6.836
 7306SOL     OW22816   5.148   5.051   1.984
 7306SOL    HW122817   5.069   5.041   1.923
 7306SOL    HW222818   5.144   4.983   2.056
 7307SOL     OW22819   4.272   6.323   2.083
 7307SOL    HW122820   4.297   6.332   2.179
 7307SOL    HW222821   4.178   6.353   2.069
 7308SOL     OW22822   5.617   0.722   4.155
 7308SOL    HW122823   5.617   0.691   4.250
 7308SOL    HW222824   5.527   0.703   4.114
 7309SOL     OW22825   4.725   4.868   1.188
 7309SOL    HW122826   4.651   4.834   1.130
 7309SOL    HW222827   4.775   4.791   1.227
 7310SOL     OW22828   2.414   5.969   1.930
 7310SOL    HW122829   2.385   6.065   1.940
 7310SOL    HW222830   2.514   5.965   1.921
 7311SOL     OW22831   3.074   1.970   2.152
 7311SOL    HW122832   3.161   1.970   2.202
 7311SOL    HW222833   3.075   2.041   2.082
 7312SOL     OW22834   0.066   2.504   6.315
 7312SOL    HW122835   6.994   2.518   6.344
 7312SOL    HW222836   0.116   2.456   6.387
 7313SOL     OW22837   3.395   2.245   6.317
 7313SOL    HW122838   3.471   2.284   6.368
 7313SOL    HW222839   3.319   2.310   6.316
 7314SOL     OW22840   0.859   2.003   4.603
 7314SOL    HW122841   0.904   2.001   4.693
 7314SOL    HW222842   0.767   1.964   4.611
 7315SOL     OW22843   0.217   0.956   6.071
 7315SOL    HW122844   0.212   0.939   5.972
 7315SOL    HW222845   0.138   0.915   6.116
 7316SOL     OW22846   4.108   3.623   4.321
 7316SOL    HW122847   4.033   3.679   4.286
 7316SOL    HW222848   4.185   3.682   4.347
 7317SOL     OW22849   2.893   0.862   4.054
 7317SOL    HW122850   2.799   0.848   4.023
 7317SOL    HW222851   2.911   0.960   4.064
 7318SOL     OW22852   1.325   1.362   1.377
 7318SOL    HW122853   1.333   1.389   1.473
 7318SOL    HW222854   1.368   1.272   1.364
 7319SOL     OW22855   0.233   4.174   6.132
 7319SOL    HW122856   0.223   4.075   6.121
 7319SOL    HW222857   0.217   4.199   6.227
 7320SOL     OW22858   0.630   1.775   2.192
 7320SOL    HW122859   0.629   1.741   2.286
 7320SOL    HW222860   0.545   1.748   2.146
 7321SOL     OW22861   2.965   1.409   3.966
 7321SOL    HW122862   2.987   1.506   3.956
 7321SOL    HW222863   2.964   1.365   3.875
 7322SOL     OW22864   1.091   3.406   1.482
 7322SOL    HW122865   1.104   3.417   1.384
 7322SOL    HW222866   1.180   3.404   1.528
 7323SOL     OW22867   2.364   4.215   2.906
 7323SOL    HW122868   2.395   4.126   2.938
 7323SOL    HW222869   2.373   4.282   2.981
 7324SOL     OW22870   5.095   4.908   3.754
 7324SOL    HW122871   5.068   4.846   3.680
 7324SOL    HW222872   5.105   5.001   3.719
 7325SOL     OW22873   2.858   6.275   0.929
 7325SOL    HW122874   2.786   6.325   0.978
 7325SOL    HW222875   2.947   6.295   0.971
 7326SOL     OW22876   2.218   0.965   4.072
 7326SOL    HW122877   2.174   0.876   4.085
 7326SOL    HW222878   2.177   1.032   4.134
 7327SOL     OW22879   1.176   3.094   5.782
 7327SOL    HW122880   1.148   3.095   5.878
 7327SOL    HW222881   1.217   3.005   5.760
 7328SOL     OW22882   2.216   6.699   6.690
 7328SOL    HW122883   2.313   6.684   6.709
 7328SOL    HW222884   2.201   6.707   6.591
 7329SOL     OW22885   4.716   3.667   1.654
 7329SOL    HW122886   4.707   3.766   1.654
 7329SOL    HW222887   4.627   3.624   1.642
 7330SOL     OW22888   3.951   1.976   0.883
 7330SOL    HW122889   3.941   2.007   0.977
 7330SOL    HW222890   3.935   2.052   0.820
 7331SOL     OW22891   5.113   1.641   1.752
 7331SOL    HW122892   5.135   1.573   1.682
 7331SOL    HW222893   5.031   1.691   1.725
 7332SOL     OW22894   3.459   6.586   0.542
 7332SOL    HW122895   3.394   6.510   0.538
 7332SOL    HW222896   3.537   6.561   0.599
 7333SOL     OW22897   0.508   4.728   2.453
 7333SOL    HW122898   0.421   4.702   2.411
 7333SOL    HW222899   0.543   4.810   2.407
 7334SOL     OW22900   2.938   0.605   4.757
 7334SOL    HW122901   2.864   0.607   4.689
 7334SOL    HW222902   2.988   0.519   4.748
 7335SOL     OW22903   1.852   3.229   2.928
 7335SOL    HW122904   1.897   3.163   2.988
 7335SOL    HW222905   1.916   3.260   2.858
 7336SOL     OW22906   1.611   6.515   4.165
 7336SOL    HW122907   1.673   6.462   4.223
 7336SOL    HW222908   1.518   6.480   4.173
 7337SOL     OW22909   4.892   2.584   1.511
 7337SOL    HW122910   4.945   2.630   1.440
 7337SOL    HW222911   4.919   2.618   1.601
 7338SOL     OW22912   0.131   3.562   0.401
 7338SOL    HW122913   0.099   3.550   0.494
 7338SOL    HW222914   0.199   3.635   0.398
 7339SOL     OW22915   1.546   5.914   4.791
 7339SOL    HW122916   1.561   5.844   4.861
 7339SOL    HW222917   1.625   5.975   4.788
 7340SOL     OW22918   2.759   6.629   6.519
 7340SOL    HW122919   2.849   6.673   6.523
 7340SOL    HW222920   2.690   6.697   6.496
 7341SOL     OW22921   6.202   2.012   0.811
 7341SOL    HW122922   6.110   2.051   0.802
 7341SOL    HW222923   6.207   1.925   0.763
 7342SOL     OW22924   0.172   6.295   2.140
 7342SOL    HW122925   0.129   6.315   2.228
 7342SOL    HW222926   0.183   6.380   2.088
 7343SOL     OW22927   6.440   2.639   0.423
 7343SOL    HW122928   6.520   2.589   0.455
 7343SOL    HW222929   6.410   2.704   0.494
 7344SOL     OW22930   2.417   6.755   6.067
 7344SOL    HW122931   2.390   6.795   6.155
 7344SOL    HW222932   2.367   6.670   6.053
 7345SOL     OW22933   3.682   5.660   6.231
 7345SOL    HW122934   3.729   5.655   6.142
 7345SOL    HW222935   3.689   5.754   6.266
 7346SOL     OW22936   4.191   5.059   2.048
 7346SOL    HW122937   4.116   5.013   2.095
 7346SOL    HW222938   4.181   5.158   2.058
 7347SOL     OW22939   5.774   1.218   6.880
 7347SOL    HW122940   5.854   1.163   6.856
 7347SOL    HW222941   5.692   1.161   6.876
 7348SOL     OW22942   0.366   5.455   0.337
 7348SOL    HW122943   0.304   5.525   0.371
 7348SOL    HW222944   0.332   5.420   0.249
 7349SOL     OW22945   4.390   1.370   1.511
 7349SOL    HW122946   4.482   1.349   1.543
 7349SOL    HW222947   4.363   1.460   1.542
 7350SOL     OW22948   4.107   0.901   4.970
 7350SOL    HW122949   4.039   0.970   4.994
 7350SOL    HW222950   4.068   0.837   4.904
 7351SOL     OW22951   2.149   4.525   4.503
 7351SOL    HW122952   2.109   4.614   4.527
 7351SOL    HW222953   2.191   4.485   4.584
 7352SOL     OW22954   5.996   3.308   4.233
 7352SOL    HW122955   5.996   3.324   4.331
 7352SOL    HW222956   6.001   3.209   4.215
 7353SOL     OW22957   6.597   1.379   5.203
 7353SOL    HW122958   6.587   1.416   5.110
 7353SOL    HW222959   6.669   1.310   5.204
 7354SOL     OW22960   1.163   1.865   2.632
 7354SOL    HW122961   1.166   1.835   2.727
 7354SOL    HW222962   1.098   1.809   2.581
 7355SOL     OW22963   3.309   1.824   0.415
 7355SOL    HW122964   3.279   1.794   0.506
 7355SOL    HW222965   3.330   1.744   0.359
 7356SOL     OW22966   3.996   4.444   6.347
 7356SOL    HW122967   3.983   4.371   6.279
 7356SOL    HW222968   3.940   4.522   6.322
 7357SOL     OW22969   4.271   6.444   1.806
 7357SOL    HW122970   4.192   6.460   1.747
 7357SOL    HW222971   4.247   6.376   1.875
 7358SOL     OW22972   4.468   6.866   3.198
 7358SOL    HW122973   4.552   6.896   3.154
 7358SOL    HW222974   4.454   6.769   3.180
 7359SOL     OW22975   3.813   0.382   2.113
 7359SOL    HW122976   3.718   0.391   2.144
 7359SOL    HW222977   3.849   0.293   2.140
 7360SOL     OW22978   2.774   3.567   5.782
 7360SOL    HW122979   2.708   3.628   5.739
 7360SOL    HW222980   2.804   3.498   5.715
 7361SOL     OW22981   6.473   0.623   3.320
 7361SOL    HW122982   6.479   0.562   3.399
 7361SOL    HW222983   6.533   0.702   3.334
 7362SOL     OW22984   3.580   5.975   0.314
 7362SOL    HW122985   3.549   6.007   0.403
 7362SOL    HW222986   3.537   5.887   0.293
 7363SOL     OW22987   4.630   0.647   1.206
 7363SOL    HW122988   4.625   0.548   1.191
 7363SOL    HW222989   4.697   0.687   1.144
 7364SOL     OW22990   5.793   6.261   1.994
 7364SOL    HW122991   5.870   6.267   1.930
 7364SOL    HW222992   5.773   6.352   2.032
 7365SOL     OW22993   4.805   2.903   2.467
 7365SOL    HW122994   4.785   2.889   2.370
 7365SOL    HW222995   4.729   2.867   2.522
 7366SOL     OW22996   2.511   0.158   3.551
 7366SOL    HW122997   2.456   0.095   3.495
 7366SOL    HW222998   2.554   0.106   3.625
 7367SOL     OW22999   4.580   1.136   6.854
 7367SOL    HW123000   4.558   1.053   6.904
 7367SOL    HW223001   4.589   1.116   6.757
 7368SOL     OW23002   3.126   3.951   3.140
 7368SOL    HW123003   3.083   3.916   3.223
 7368SOL    HW223004   3.225   3.944   3.148
 7369SOL     OW23005   5.890   3.439   0.161
 7369SOL    HW123006   5.905   3.535   0.183
 7369SOL    HW223007   5.792   3.421   0.155
 7370SOL     OW23008   1.897   0.905   4.228
 7370SOL    HW123009   1.806   0.902   4.269
 7370SOL    HW223010   1.889   0.923   4.129
 7371SOL     OW23011   4.061   0.638   3.613
 7371SOL    HW123012   3.984   0.696   3.589
 7371SOL    HW223013   4.095   0.592   3.531
 7372SOL     OW23014   4.823   1.194   5.490
 7372SOL    HW123015   4.799   1.230   5.580
 7372SOL    HW223016   4.740   1.182   5.435
 7373SOL     OW23017   6.446   3.225   3.869
 7373SOL    HW123018   6.347   3.235   3.875
 7373SOL    HW223019   6.471   3.190   3.779
 7374SOL     OW23020   0.433   2.951   6.558
 7374SOL    HW123021   0.402   2.870   6.609
 7374SOL    HW223022   0.353   3.002   6.527
 7375SOL     OW23023   2.071   2.947   0.655
 7375SOL    HW123024   2.042   3.037   0.686
 7375SOL    HW223025   2.169   2.948   0.636
 7376SOL     OW23026   6.590   5.162   0.634
 7376SOL    HW123027   6.595   5.112   0.548
 7376SOL    HW223028   6.495   5.162   0.666
 7377SOL     OW23029   2.447   5.754   0.867
 7377SOL    HW123030   2.429   5.732   0.962
 7377SOL    HW223031   2.383   5.704   0.808
 7378SOL     OW23032   2.278   5.335   5.850
 7378SOL    HW123033   2.247   5.262   5.790
 7378SOL    HW223034   2.356   5.303   5.905
 7379SOL     OW23035   5.267   2.263   2.273
 7379SOL    HW123036   5.221   2.174   2.281
 7379SOL    HW223037   5.237   2.308   2.189
 7380SOL     OW23038   5.177   3.462   1.855
 7380SOL    HW123039   5.197   3.417   1.942
 7380SOL    HW223040   5.080   3.488   1.853
 7381SOL     OW23041   3.642   6.750   1.718
 7381SOL    HW123042   3.734   6.787   1.732
 7381SOL    HW223043   3.628   6.671   1.777
 7382SOL     OW23044   0.330   2.727   6.717
 7382SOL    HW123045   0.339   2.627   6.719
 7382SOL    HW223046   0.234   2.752   6.705
 7383SOL     OW23047   2.357   6.824   1.109
 7383SOL    HW123048   2.447   6.822   1.153
 7383SOL    HW223049   2.368   6.816   1.010
 7384SOL     OW23050   6.684   6.818   0.223
 7384SOL    HW123051   6.678   6.734   0.171
 7384SOL    HW223052   6.777   6.854   0.218
 7385SOL     OW23053   6.408   4.610   3.021
 7385SOL    HW123054   6.390   4.592   3.118
 7385SOL    HW223055   6.331   4.578   2.967
 7386SOL     OW23056   6.054   4.685   0.272
 7386SOL    HW123057   6.142   4.672   0.227
 7386SOL    HW223058   6.008   4.597   0.283
 7387SOL     OW23059   6.809   5.756   4.201
 7387SOL    HW123060   6.909   5.754   4.207
 7387SOL    HW223061   6.770   5.698   4.273
 7388SOL     OW23062   2.567   4.551   2.572
 7388SOL    HW123063   2.547   4.537   2.475
 7388SOL    HW223064   2.535   4.473   2.624
 7389SOL     OW23065   6.492   2.831   0.701
 7389SOL    HW123066   6.583   2.821   0.741
 7389SOL    HW223067   6.441   2.747   0.714
 7390SOL     OW23068   3.731   2.067   4.156
 7390SOL    HW123069   3.793   2.083   4.233
 7390SOL    HW223070   3.739   1.972   4.125
 7391SOL     OW23071   3.738   3.813   3.229
 7391SOL    HW123072   3.775   3.764   3.150
 7391SOL    HW223073   3.802   3.884   3.258
 7392SOL     OW23074   3.508   6.151   0.883
 7392SOL    HW123075   3.536   6.121   0.975
 7392SOL    HW223076   3.444   6.227   0.891
 7393SOL     OW23077   5.102   5.426   3.335
 7393SOL    HW123078   5.086   5.447   3.431
 7393SOL    HW223079   5.190   5.463   3.307
 7394SOL     OW23080   1.828   2.236   6.087
 7394SOL    HW123081   1.886   2.162   6.054
 7394SOL    HW223082   1.799   2.216   6.181
 7395SOL     OW23083   2.575   6.142   1.506
 7395SOL    HW123084   2.482   6.121   1.538
 7395SOL    HW223085   2.615   6.060   1.465
 7396SOL     OW23086   1.406   5.269   2.422
 7396SOL    HW123087   1.353   5.313   2.350
 7396SOL    HW223088   1.478   5.213   2.381
 7397SOL     OW23089   6.169   4.697   4.275
 7397SOL    HW123090   6.118   4.759   4.215
 7397SOL    HW223091   6.118   4.612   4.286
 7398SOL     OW23092   3.185   5.115   2.347
 7398SOL    HW123093   3.241   5.055   2.404
 7398SOL    HW223094   3.148   5.063   2.270
 7399SOL     OW23095   6.208   1.753   5.250
 7399SOL    HW123096   6.161   1.783   5.167
 7399SOL    HW223097   6.187   1.657   5.267
 7400SOL     OW23098   3.940   3.727   5.338
 7400SOL    HW123099   3.867   3.667   5.374
 7400SOL    HW223100   3.998   3.674   5.276
 7401SOL     OW23101   1.721   2.584   3.692
 7401SOL    HW123102   1.698   2.501   3.641
 7401SOL    HW223103   1.690   2.664   3.641
 7402SOL     OW23104   3.651   5.316   3.979
 7402SOL    HW123105   3.747   5.307   4.004
 7402SOL    HW223106   3.626   5.413   3.978
 7403SOL     OW23107   1.881   4.716   4.454
 7403SOL    HW123108   1.942   4.675   4.386
 7403SOL    HW223109   1.808   4.765   4.407
 7404SOL     OW23110   1.998   3.721   0.819
 7404SOL    HW123111   1.999   3.689   0.724
 7404SOL    HW223112   2.054   3.804   0.826
 7405SOL     OW23113   3.543   6.704   5.863
 7405SOL    HW123114   3.478   6.636   5.895
 7405SOL    HW223115   3.636   6.677   5.889
 7406SOL     OW23116   0.452   2.624   4.276
 7406SOL    HW123117   0.486   2.583   4.360
 7406SOL    HW223118   0.525   2.677   4.233
 7407SOL     OW23119   1.203   6.449   4.685
 7407SOL    HW123120   1.190   6.351   4.694
 7407SOL    HW223121   1.294   6.474   4.717
 7408SOL     OW23122   4.109   5.374   5.640
 7408SOL    HW123123   4.177   5.446   5.659
 7408SOL    HW223124   4.052   5.401   5.563
 7409SOL     OW23125   6.469   5.294   1.788
 7409SOL    HW123126   6.555   5.344   1.780
 7409SOL    HW223127   6.405   5.326   1.717
 7410SOL     OW23128   6.357   0.840   0.921
 7410SOL    HW123129   6.417   0.798   0.853
 7410SOL    HW223130   6.377   0.801   1.011
 7411SOL     OW23131   3.863   1.998   5.397
 7411SOL    HW123132   3.879   2.087   5.355
 7411SOL    HW223133   3.774   1.963   5.369
 7412SOL     OW23134   4.256   6.855   6.960
 7412SOL    HW123135   4.290   6.765   6.987
 7412SOL    HW223136   4.172   6.845   6.907
 7413SOL     OW23137   5.101   0.808   3.795
 7413SOL    HW123138   5.124   0.714   3.820
 7413SOL    HW223139   5.163   0.840   3.724
 7414SOL     OW23140   2.735   1.116   4.163
 7414SOL    HW123141   2.704   1.024   4.142
 7414SOL    HW223142   2.677   1.154   4.236
 7415SOL     OW23143   4.025   0.892   6.512
 7415SOL    HW123144   4.039   0.977   6.562
 7415SOL    HW223145   3.974   0.911   6.428
 7416SOL     OW23146   1.273   0.163   1.849
 7416SOL    HW123147   1.201   0.169   1.780
 7416SOL    HW223148   1.256   0.086   1.910
 7417SOL     OW23149   0.688   0.324   2.346
 7417SOL    HW123150   0.767   0.300   2.290
 7417SOL    HW223151   0.659   0.417   2.324
 7418SOL     OW23152   1.564   3.670   6.121
 7418SOL    HW123153   1.659   3.675   6.153
 7418SOL    HW223154   1.529   3.762   6.107
 7419SOL     OW23155   6.520   2.884   4.575
 7419SOL    HW123156   6.495   2.897   4.479
 7419SOL    HW223157   6.478   2.800   4.610
 7420SOL     OW23158   6.728   6.781   1.039
 7420SOL    HW123159   6.693   6.695   1.001
 7420SOL    HW223160   6.820   6.765   1.077
 7421SOL     OW23161   6.510   3.773   1.265
 7421SOL    HW123162   6.505   3.680   1.303
 7421SOL    HW223163   6.420   3.799   1.231
 7422SOL     OW23164   5.660   3.353   1.436
 7422SOL    HW123165   5.619   3.309   1.516
 7422SOL    HW223166   5.715   3.286   1.385
 7423SOL     OW23167   4.431   2.305   5.749
 7423SOL    HW123168   4.356   2.355   5.792
 7423SOL    HW223169   4.511   2.364   5.740
 7424SOL     OW23170   0.455   1.782   3.894
 7424SOL    HW123171   0.509   1.853   3.938
 7424SOL    HW223172   0.438   1.708   3.959
 7425SOL     OW23173   5.605   0.162   1.254
 7425SOL    HW123174   5.529   0.220   1.283
 7425SOL    HW223175   5.692   0.204   1.282
 7426SOL     OW23176   3.402   3.436   5.144
 7426SOL    HW123177   3.329   3.454   5.210
 7426SOL    HW223178   3.440   3.345   5.160
 7427SOL     OW23179   2.956   0.538   2.182
 7427SOL    HW123180   2.866   0.498   2.199
 7427SOL    HW223181   3.027   0.477   2.218
 7428SOL     OW23182   2.275   6.980   5.216
 7428SOL    HW123183   2.260   7.000   5.119
 7428SOL    HW223184   2.209   0.008   5.272
 7429SOL     OW23185   0.884   1.098   2.357
 7429SOL    HW123186   0.824   1.053   2.424
 7429SOL    HW223187   0.831   1.165   2.305
 7430SOL     OW23188   6.779   4.449   2.917
 7430SOL    HW123189   6.806   4.531   2.865
 7430SOL    HW223190   6.824   4.369   2.878
 7431SOL     OW23191   1.060   2.281   4.548
 7431SOL    HW123192   1.091   2.243   4.635
 7431SOL    HW223193   1.001   2.216   4.502
 7432SOL     OW23194   1.661   1.244   3.044
 7432SOL    HW123195   1.726   1.308   3.004
 7432SOL    HW223196   1.687   1.225   3.139
 7433SOL     OW23197   3.496   0.151   6.581
 7433SOL    HW123198   3.590   0.177   6.601
 7433SOL    HW223199   3.457   0.102   6.658
 7434SOL     OW23200   4.230   0.066   3.684
 7434SOL    HW123201   4.326   0.039   3.680
 7434SOL    HW223202   4.222   0.157   3.724
 7435SOL     OW23203   5.237   4.646   2.943
 7435SOL    HW123204   5.217   4.739   2.911
 7435SOL    HW223205   5.303   4.603   2.882
 7436SOL     OW23206   4.436   2.779   5.957
 7436SOL    HW123207   4.374   2.728   5.897
 7436SOL    HW223208   4.530   2.759   5.931
 7437SOL     OW23209   3.232   0.570   1.415
 7437SOL    HW123210   3.306   0.637   1.407
 7437SOL    HW223211   3.148   0.609   1.378
 7438SOL     OW23212   1.848   0.421   6.783
 7438SOL    HW123213   1.898   0.474   6.714
 7438SOL    HW223214   1.769   0.473   6.815
 7439SOL     OW23215   1.633   4.360   6.153
 7439SOL    HW123216   1.583   4.333   6.235
 7439SOL    HW223217   1.568   4.365   6.076
 7440SOL     OW23218   5.591   2.896   4.123
 7440SOL    HW123219   5.574   2.975   4.063
 7440SOL    HW223220   5.557   2.916   4.215
 7441SOL     OW23221   4.200   6.460   0.342
 7441SOL    HW123222   4.259   6.539   0.358
 7441SOL    HW223223   4.251   6.376   0.359
 7442SOL     OW23224   6.162   0.876   5.906
 7442SOL    HW123225   6.148   0.904   6.001
 7442SOL    HW223226   6.148   0.954   5.845
 7443SOL     OW23227   0.361   6.696   1.088
 7443SOL    HW123228   0.288   6.629   1.087
 7443SOL    HW223229   0.437   6.663   1.145
 7444SOL     OW23230   1.409   5.791   6.744
 7444SOL    HW123231   1.360   5.747   6.669
 7444SOL    HW223232   1.505   5.762   6.741
 7445SOL     OW23233   3.371   5.585   2.424
 7445SOL    HW123234   3.372   5.684   2.413
 7445SOL    HW223235   3.465   5.552   2.437
 7446SOL     OW23236   6.675   4.917   0.503
 7446SOL    HW123237   6.743   4.940   0.434
 7446SOL    HW223238   6.586   4.953   0.475
 7447SOL     OW23239   0.833   5.614   0.608
 7447SOL    HW123240   0.858   5.523   0.642
 7447SOL    HW223241   0.910   5.676   0.618
 7448SOL     OW23242   4.710   4.745   6.738
 7448SOL    HW123243   4.706   4.840   6.771
 7448SOL    HW223244   4.784   4.697   6.784
 7449SOL     OW23245   6.867   4.133   6.767
 7449SOL    HW123246   6.897   4.083   6.849
 7449SOL    HW223247   6.936   4.124   6.695
 7450SOL     OW23248   5.597   2.986   0.684
 7450SOL    HW123249   5.682   2.940   0.710
 7450SOL    HW223250   5.615   3.084   0.674
 7451SOL     OW23251   4.508   4.938   2.886
 7451SOL    HW123252   4.424   4.947   2.831
 7451SOL    HW223253   4.485   4.901   2.976
 7452SOL     OW23254   6.625   5.885   6.284
 7452SOL    HW123255   6.579   5.962   6.327
 7452SOL    HW223256   6.671   5.915   6.200
 7453SOL     OW23257   4.307   5.517   6.319
 7453SOL    HW123258   4.249   5.449   6.365
 7453SOL    HW223259   4.398   5.517   6.361
 7454SOL     OW23260   3.672   1.838   0.768
 7454SOL    HW123261   3.631   1.924   0.798
 7454SOL    HW223262   3.745   1.812   0.831
 7455SOL     OW23263   6.492   0.280   3.204
 7455SOL    HW123264   6.544   0.276   3.289
 7455SOL    HW223265   6.406   0.232   3.214
 7456SOL     OW23266   2.939   1.429   5.568
 7456SOL    HW123267   3.022   1.402   5.616
 7456SOL    HW223268   2.906   1.516   5.605
 7457SOL     OW23269   1.131   1.449   2.274
 7457SOL    HW123270   1.218   1.401   2.263
 7457SOL    HW223271   1.144   1.532   2.328
 7458SOL     OW23272   0.303   5.786   5.125
 7458SOL    HW123273   0.300   5.852   5.050
 7458SOL    HW223274   0.212   5.748   5.141
 7459SOL     OW23275   5.495   6.878   3.348
 7459SOL    HW123276   5.571   6.818   3.373
 7459SOL    HW223277   5.526   6.945   3.281
 7460SOL     OW23278   0.586   0.121   1.171
 7460SOL    HW123279   0.678   0.117   1.133
 7460SOL    HW223280   0.579   0.058   1.249
 7461SOL     OW23281   1.958   4.197   4.748
 7461SOL    HW123282   2.052   4.226   4.728
 7461SOL    HW223283   1.929   4.128   4.681
 7462SOL     OW23284   1.948   4.849   0.005
 7462SOL    HW123285   1.884   4.823   6.956
 7462SOL    HW223286   1.910   4.923   0.060
 7463SOL     OW23287   4.962   4.959   1.346
 7463SOL    HW123288   5.059   4.968   1.324
 7463SOL    HW223289   4.920   4.889   1.287
 7464SOL     OW23290   5.268   4.966   5.307
 7464SOL    HW123291   5.319   4.906   5.245
 7464SOL    HW223292   5.331   5.030   5.351
 7465SOL     OW23293   1.411   4.024   6.820
 7465SOL    HW123294   1.387   4.118   6.796
 7465SOL    HW223295   1.502   4.023   6.862
 7466SOL     OW23296   0.500   0.371   5.308
 7466SOL    HW123297   0.548   0.444   5.260
 7466SOL    HW223298   0.563   0.323   5.368
 7467SOL     OW23299   1.019   3.632   4.087
 7467SOL    HW123300   0.925   3.617   4.114
 7467SOL    HW223301   1.078   3.566   4.133
 7468SOL     OW23302   5.575   2.652   4.604
 7468SOL    HW123303   5.672   2.634   4.589
 7468SOL    HW223304   5.543   2.600   4.683
 7469SOL     OW23305   6.928   2.065   0.338
 7469SOL    HW123306   6.923   2.119   0.422
 7469SOL    HW223307   6.836   2.047   0.305
 7470SOL     OW23308   4.870   2.513   3.901
 7470SOL    HW123309   4.804   2.587   3.894
 7470SOL    HW223310   4.823   2.425   3.893
 7471SOL     OW23311   3.371   6.615   6.337
 7471SOL    HW123312   3.430   6.680   6.386
 7471SOL    HW223313   3.337   6.658   6.254
 7472SOL     OW23314   0.091   0.514   5.589
 7472SOL    HW123315   0.144   0.506   5.674
 7472SOL    HW223316   0.127   0.449   5.522
 7473SOL     OW23317   4.112   6.212   3.464
 7473SOL    HW123318   4.046   6.287   3.472
 7473SOL    HW223319   4.103   6.170   3.373
 7474SOL     OW23320   6.303   2.199   0.625
 7474SOL    HW123321   6.265   2.127   0.684
 7474SOL    HW223322   6.230   2.237   0.568
 7475SOL     OW23323   5.105   2.521   0.613
 7475SOL    HW123324   5.008   2.506   0.590
 7475SOL    HW223325   5.131   2.614   0.588
 7476SOL     OW23326   2.732   1.488   2.655
 7476SOL    HW123327   2.683   1.425   2.595
 7476SOL    HW223328   2.728   1.454   2.749
 7477SOL     OW23329   2.424   3.485   5.720
 7477SOL    HW123330   2.504   3.545   5.709
 7477SOL    HW223331   2.444   3.413   5.786
 7478SOL     OW23332   0.483   2.588   6.438
 7478SOL    HW123333   0.406   2.605   6.377
 7478SOL    HW223334   0.531   2.506   6.408
 7479SOL     OW23335   5.095   3.149   1.419
 7479SOL    HW123336   5.008   3.199   1.422
 7479SOL    HW223337   5.105   3.094   1.502
 7480SOL     OW23338   3.734   6.004   2.310
 7480SOL    HW123339   3.651   6.053   2.283
 7480SOL    HW223340   3.759   5.937   2.241
 7481SOL     OW23341   0.228   3.765   6.736
 7481SOL    HW123342   0.266   3.799   6.650
 7481SOL    HW223343   0.289   3.788   6.811
 7482SOL     OW23344   4.346   1.999   4.462
 7482SOL    HW123345   4.380   2.056   4.537
 7482SOL    HW223346   4.382   2.033   4.375
 7483SOL     OW23347   5.357   1.294   5.856
 7483SOL    HW123348   5.309   1.323   5.773
 7483SOL    HW223349   5.426   1.362   5.881
 7484SOL     OW23350   2.176   0.875   4.500
 7484SOL    HW123351   2.092   0.928   4.508
 7484SOL    HW223352   2.255   0.937   4.501
 7485SOL     OW23353   4.236   0.229   6.648
 7485SOL    HW123354   4.245   0.129   6.650
 7485SOL    HW223355   4.206   0.262   6.737
 7486SOL     OW23356   4.379   6.380   1.122
 7486SOL    HW123357   4.420   6.293   1.093
 7486SOL    HW223358   4.308   6.406   1.058
 7487SOL     OW23359   3.184   6.459   4.487
 7487SOL    HW123360   3.248   6.384   4.471
 7487SOL    HW223361   3.185   6.482   4.585
 7488SOL     OW23362   1.572   6.233   4.037
 7488SOL    HW123363   1.628   6.210   4.116
 7488SOL    HW223364   1.481   6.262   4.067
 7489SOL     OW23365   4.965   3.127   6.355
 7489SOL    HW123366   5.012   3.129   6.443
 7489SOL    HW223367   5.033   3.139   6.282
 7490SOL     OW23368   1.936   2.415   1.459
 7490SOL    HW123369   2.026   2.392   1.424
 7490SOL    HW223370   1.870   2.345   1.432
 7491SOL     OW23371   4.813   4.041   6.607
 7491SOL    HW123372   4.769   3.954   6.632
 7491SOL    HW223373   4.751   4.094   6.549
 7492SOL     OW23374   1.663   0.680   3.794
 7492SOL    HW123375   1.641   0.775   3.818
 7492SOL    HW223376   1.624   0.658   3.705
 7493SOL     OW23377   6.113   4.897   4.536
 7493SOL    HW123378   6.139   4.803   4.558
 7493SOL    HW223379   6.183   4.960   4.570
 7494SOL     OW23380   6.165   1.167   2.150
 7494SOL    HW123381   6.167   1.183   2.248
 7494SOL    HW223382   6.200   1.075   2.131
 7495SOL     OW23383   1.563   3.397   4.511
 7495SOL    HW123384   1.532   3.321   4.568
 7495SOL    HW223385   1.651   3.430   4.544
 7496SOL     OW23386   6.136   3.016   3.384
 7496SOL    HW123387   6.207   2.949   3.364
 7496SOL    HW223388   6.062   3.008   3.317
 7497SOL     OW23389   6.606   0.124   1.656
 7497SOL    HW123390   6.549   0.176   1.720
 7497SOL    HW223391   6.631   0.182   1.579
 7498SOL     OW23392   2.235   6.585   3.736
 7498SOL    HW123393   2.314   6.640   3.765
 7498SOL    HW223394   2.267   6.494   3.709
 7499SOL     OW23395   2.925   1.551   3.614
 7499SOL    HW123396   2.892   1.645   3.608
 7499SOL    HW223397   3.005   1.548   3.674
 7500SOL     OW23398   3.674   1.421   4.745
 7500SOL    HW123399   3.577   1.411   4.767
 7500SOL    HW223400   3.694   1.517   4.724
 7501SOL     OW23401   6.229   2.168   3.626
 7501SOL    HW123402   6.162   2.224   3.576
 7501SOL    HW223403   6.200   2.159   3.721
 7502SOL     OW23404   3.927   0.987   3.615
 7502SOL    HW123405   3.987   1.023   3.544
 7502SOL    HW223406   3.865   0.918   3.575
 7503SOL     OW23407   1.499   6.052   1.021
 7503SOL    HW123408   1.559   5.980   0.988
 7503SOL    HW223409   1.411   6.013   1.049
 7504SOL     OW23410   5.798   6.178   4.420
 7504SOL    HW123411   5.725   6.115   4.392
 7504SOL    HW223412   5.800   6.183   4.520
 7505SOL     OW23413   0.786   6.499   5.890
 7505SOL    HW123414   0.826   6.449   5.967
 7505SOL    HW223415   0.693   6.527   5.913
 7506SOL     OW23416   3.684   1.908   4.416
 7506SOL    HW123417   3.603   1.955   4.451
 7506SOL    HW223418   3.756   1.975   4.399
 7507SOL     OW23419   6.958   3.701   6.146
 7507SOL    HW123420   6.928   3.766   6.077
 7507SOL    HW223421   6.982   3.615   6.102
 7508SOL     OW23422   3.329   6.419   0.262
 7508SOL    HW123423   3.274   6.456   0.336
 7508SOL    HW223424   3.401   6.360   0.300
 7509SOL     OW23425   5.763   4.301   2.811
 7509SOL    HW123426   5.696   4.259   2.873
 7509SOL    HW223427   5.855   4.277   2.842
 7510SOL     OW23428   3.275   4.454   1.473
 7510SOL    HW123429   3.203   4.490   1.414
 7510SOL    HW223430   3.362   4.456   1.425
 7511SOL     OW23431   4.631   6.143   3.674
 7511SOL    HW123432   4.536   6.170   3.693
 7511SOL    HW223433   4.650   6.155   3.577
 7512SOL     OW23434   4.180   6.527   0.974
 7512SOL    HW123435   4.178   6.595   0.900
 7512SOL    HW223436   4.110   6.459   0.958
 7513SOL     OW23437   0.769   0.391   2.622
 7513SOL    HW123438   0.820   0.332   2.684
 7513SOL    HW223439   0.770   0.351   2.530
 7514SOL     OW23440   0.275   0.190   0.808
 7514SOL    HW123441   0.182   0.166   0.779
 7514SOL    HW223442   0.288   0.289   0.801
 7515SOL     OW23443   6.951   4.703   4.876
 7515SOL    HW123444   6.931   4.615   4.919
 7515SOL    HW223445   6.881   4.770   4.902
 7516SOL     OW23446   1.942   6.043   5.124
 7516SOL    HW123447   1.959   6.090   5.210
 7516SOL    HW223448   1.875   5.970   5.138
 7517SOL     OW23449   0.306   2.350   0.211
 7517SOL    HW123450   0.307   2.445   0.242
 7517SOL    HW223451   0.255   2.343   0.125
 7518SOL     OW23452   4.087   2.247   4.394
 7518SOL    HW123453   4.156   2.317   4.377
 7518SOL    HW223454   4.111   2.196   4.477
 7519SOL     OW23455   3.626   6.585   5.227
 7519SOL    HW123456   3.629   6.684   5.211
 7519SOL    HW223457   3.588   6.568   5.317
 7520SOL     OW23458   1.902   1.067   0.918
 7520SOL    HW123459   1.928   0.986   0.970
 7520SOL    HW223460   1.958   1.072   0.835
 7521SOL     OW23461   4.180   1.804   5.637
 7521SOL    HW123462   4.272   1.766   5.639
 7521SOL    HW223463   4.185   1.903   5.622
 7522SOL     OW23464   1.981   6.763   4.211
 7522SOL    HW123465   1.983   6.778   4.112
 7522SOL    HW223466   2.070   6.787   4.250
 7523SOL     OW23467   5.856   1.717   6.926
 7523SOL    HW123468   5.776   1.775   6.937
 7523SOL    HW223469   5.939   1.774   6.927
 7524SOL     OW23470   0.323   3.686   4.933
 7524SOL    HW123471   0.234   3.647   4.958
 7524SOL    HW223472   0.317   3.726   4.842
 7525SOL     OW23473   1.689   4.554   5.567
 7525SOL    HW123474   1.744   4.504   5.499
 7525SOL    HW223475   1.702   4.513   5.657
 7526SOL     OW23476   1.399   4.591   0.692
 7526SOL    HW123477   1.373   4.588   0.789
 7526SOL    HW223478   1.459   4.669   0.676
 7527SOL     OW23479   2.785   5.433   2.310
 7527SOL    HW123480   2.851   5.505   2.284
 7527SOL    HW223481   2.831   5.344   2.310
 7528SOL     OW23482   6.259   2.461   6.767
 7528SOL    HW123483   6.354   2.489   6.777
 7528SOL    HW223484   6.201   2.542   6.757
 7529SOL     OW23485   5.647   3.529   4.631
 7529SOL    HW123486   5.700   3.512   4.715
 7529SOL    HW223487   5.580   3.456   4.618
 7530SOL     OW23488   1.170   2.783   3.170
 7530SOL    HW123489   1.256   2.748   3.134
 7530SOL    HW223490   1.182   2.877   3.202
 7531SOL     OW23491   4.068   1.851   3.876
 7531SOL    HW123492   4.045   1.891   3.965
 7531SOL    HW223493   3.990   1.862   3.814
 7532SOL     OW23494   4.611   5.139   6.445
 7532SOL    HW123495   4.625   5.177   6.353
 7532SOL    HW223496   4.696   5.145   6.497
 7533SOL     OW23497   4.409   4.833   1.481
 7533SOL    HW123498   4.459   4.908   1.437
 7533SOL    HW223499   4.459   4.748   1.469
 7534SOL     OW23500   4.491   6.024   5.282
 7534SOL    HW123501   4.561   5.972   5.331
 7534SOL    HW223502   4.533   6.067   5.202
 7535SOL     OW23503   0.548   6.878   4.270
 7535SOL    HW123504   0.625   6.899   4.331
 7535SOL    HW223505   0.498   6.962   4.250
 7536SOL     OW23506   6.257   6.885   2.732
 7536SOL    HW123507   6.293   6.950   2.799
 7536SOL    HW223508   6.212   6.809   2.780
 7537SOL     OW23509   2.154   0.226   2.426
 7537SOL    HW123510   2.056   0.226   2.448
 7537SOL    HW223511   2.169   0.277   2.342
 7538SOL     OW23512   0.200   4.850   0.025
 7538SOL    HW123513   0.229   4.784   6.978
 7538SOL    HW223514   0.246   4.830   0.112
 7539SOL     OW23515   6.495   0.428   4.598
 7539SOL    HW123516   6.593   0.420   4.618
 7539SOL    HW223517   6.473   0.371   4.518
 7540SOL     OW23518   4.826   4.064   3.429
 7540SOL    HW123519   4.854   4.012   3.510
 7540SOL    HW223520   4.778   4.147   3.457
 7541SOL     OW23521   2.418   4.424   0.090
 7541SOL    HW123522   2.503   4.389   0.130
 7541SOL    HW223523   2.423   4.416   7.013
 7542SOL     OW23524   6.196   5.743   4.753
 7542SOL    HW123525   6.209   5.650   4.789
 7542SOL    HW223526   6.156   5.738   4.662
 7543SOL     OW23527   2.078   1.534   0.926
 7543SOL    HW123528   2.045   1.565   1.015
 7543SOL    HW223529   2.176   1.552   0.918
 7544SOL     OW23530   5.784   1.246   4.849
 7544SOL    HW123531   5.820   1.337   4.869
 7544SOL    HW223532   5.850   1.177   4.877
 7545SOL     OW23533   1.557   5.358   5.157
 7545SOL    HW123534   1.551   5.422   5.234
 7545SOL    HW223535   1.588   5.269   5.190
 7546SOL     OW23536   2.581   2.641   1.789
 7546SOL    HW123537   2.542   2.717   1.841
 7546SOL    HW223538   2.594   2.562   1.849
 7547SOL     OW23539   4.214   0.283   2.477
 7547SOL    HW123540   4.166   0.292   2.563
 7547SOL    HW223541   4.180   0.350   2.411
 7548SOL     OW23542   2.498   2.096   6.497
 7548SOL    HW123543   2.490   2.095   6.398
 7548SOL    HW223544   2.495   2.002   6.532
 7549SOL     OW23545   5.237   0.667   4.375
 7549SOL    HW123546   5.289   0.616   4.443
 7549SOL    HW223547   5.176   0.605   4.326
 7550SOL     OW23548   2.145   5.965   4.981
 7550SOL    HW123549   2.071   6.013   5.028
 7550SOL    HW223550   2.117   5.871   4.961
 7551SOL     OW23551   6.195   3.347   6.318
 7551SOL    HW123552   6.151   3.302   6.240
 7551SOL    HW223553   6.250   3.424   6.286
 7552SOL     OW23554   2.701   6.697   4.704
 7552SOL    HW123555   2.680   6.727   4.797
 7552SOL    HW223556   2.672   6.767   4.639
 7553SOL     OW23557   6.459   6.968   5.980
 7553SOL    HW123558   6.399   0.020   5.950
 7553SOL    HW223559   6.503   6.926   5.900
 7554SOL     OW23560   5.247   1.586   1.307
 7554SOL    HW123561   5.288   1.503   1.345
 7554SOL    HW223562   5.149   1.571   1.291
 7555SOL     OW23563   4.514   5.273   4.244
 7555SOL    HW123564   4.483   5.178   4.242
 7555SOL    HW223565   4.567   5.289   4.327
 7556SOL     OW23566   1.134   6.188   0.839
 7556SOL    HW123567   1.107   6.126   0.912
 7556SOL    HW223568   1.143   6.137   0.753
 7557SOL     OW23569   4.621   6.523   1.027
 7557SOL    HW123570   4.573   6.457   1.085
 7557SOL    HW223571   4.586   6.615   1.044
 7558SOL     OW23572   0.892   1.528   3.771
 7558SOL    HW123573   0.978   1.530   3.719
 7558SOL    HW223574   0.831   1.599   3.736
 7559SOL     OW23575   2.275   0.279   5.095
 7559SOL    HW123576   2.286   0.377   5.109
 7559SOL    HW223577   2.179   0.259   5.072
 7560SOL     OW23578   0.913   0.727   5.567
 7560SOL    HW123579   0.972   0.773   5.501
 7560SOL    HW223580   0.950   0.739   5.659
 7561SOL     OW23581   4.888   1.216   5.188
 7561SOL    HW123582   4.903   1.118   5.204
 7561SOL    HW223583   4.956   1.269   5.240
 7562SOL     OW23584   2.076   5.702   3.621
 7562SOL    HW123585   1.988   5.735   3.656
 7562SOL    HW223586   2.141   5.777   3.615
 7563SOL     OW23587   2.612   6.545   3.060
 7563SOL    HW123588   2.523   6.584   3.082
 7563SOL    HW223589   2.660   6.521   3.145
 7564SOL     OW23590   4.684   2.727   5.833
 7564SOL    HW123591   4.689   2.736   5.733
 7564SOL    HW223592   4.763   2.773   5.874
 7565SOL     OW23593   6.632   3.284   5.537
 7565SOL    HW123594   6.536   3.256   5.534
 7565SOL    HW223595   6.671   3.278   5.445
 7566SOL     OW23596   4.623   4.365   1.652
 7566SOL    HW123597   4.585   4.432   1.588
 7566SOL    HW223598   4.551   4.337   1.716
 7567SOL     OW23599   1.649   0.540   3.533
 7567SOL    HW123600   1.560   0.583   3.539
 7567SOL    HW223601   1.641   0.451   3.488
 7568SOL     OW23602   6.700   4.185   0.865
 7568SOL    HW123603   6.660   4.277   0.864
 7568SOL    HW223604   6.644   4.124   0.808
 7569SOL     OW23605   4.306   3.624   1.388
 7569SOL    HW123606   4.256   3.613   1.474
 7569SOL    HW223607   4.395   3.664   1.407
 7570SOL     OW23608   1.160   2.809   1.837
 7570SOL    HW123609   1.090   2.741   1.818
 7570SOL    HW223610   1.246   2.763   1.861
 7571SOL     OW23611   4.937   1.481   3.197
 7571SOL    HW123612   5.021   1.534   3.185
 7571SOL    HW223613   4.880   1.492   3.115
 7572SOL     OW23614   4.490   6.310   3.283
 7572SOL    HW123615   4.572   6.286   3.336
 7572SOL    HW223616   4.483   6.409   3.277
 7573SOL     OW23617   3.927   6.763   6.480
 7573SOL    HW123618   3.847   6.820   6.459
 7573SOL    HW223619   3.897   6.669   6.496
 7574SOL     OW23620   0.814   3.074   3.911
 7574SOL    HW123621   0.724   3.044   3.944
 7574SOL    HW223622   0.808   3.167   3.876
 7575SOL     OW23623   0.157   6.699   0.717
 7575SOL    HW123624   0.213   6.771   0.756
 7575SOL    HW223625   0.167   6.700   0.617
 7576SOL     OW23626   4.419   2.867   0.138
 7576SOL    HW123627   4.391   2.951   0.093
 7576SOL    HW223628   4.341   2.805   0.146
 7577SOL     OW23629   6.799   0.467   6.682
 7577SOL    HW123630   6.775   0.378   6.645
 7577SOL    HW223631   6.899   0.477   6.683
 7578SOL     OW23632   5.924   5.502   2.849
 7578SOL    HW123633   5.870   5.465   2.773
 7578SOL    HW223634   6.011   5.537   2.815
 7579SOL     OW23635   1.486   1.697   6.752
 7579SOL    HW123636   1.423   1.643   6.696
 7579SOL    HW223637   1.559   1.638   6.785
 7580SOL     OW23638   2.093   4.967   3.093
 7580SOL    HW123639   2.082   4.943   2.997
 7580SOL    HW223640   2.068   4.889   3.150
 7581SOL     OW23641   0.323   6.932   0.787
 7581SOL    HW123642   0.324   0.009   0.779
 7581SOL    HW223643   0.323   6.906   0.884
 7582SOL     OW23644   1.990   1.055   6.323
 7582SOL    HW123645   1.938   1.026   6.404
 7582SOL    HW223646   2.045   1.135   6.346
 7583SOL     OW23647   5.585   3.878   2.204
 7583SOL    HW123648   5.505   3.844   2.251
 7583SOL    HW223649   5.589   3.840   2.111
 7584SOL     OW23650   0.078   0.966   3.288
 7584SOL    HW123651   0.169   0.934   3.259
 7584SOL    HW223652   0.015   0.961   3.211
 7585SOL     OW23653   0.921   1.080   5.588
 7585SOL    HW123654   1.009   1.129   5.592
 7585SOL    HW223655   0.933   0.997   5.533
 7586SOL     OW23656   1.878   6.949   3.680
 7586SOL    HW123657   1.825   7.017   3.731
 7586SOL    HW223658   1.817   6.895   3.622
 7587SOL     OW23659   5.075   6.837   2.342
 7587SOL    HW123660   5.048   6.746   2.309
 7587SOL    HW223661   5.168   6.832   2.378
 7588SOL     OW23662   2.131   3.297   4.827
 7588SOL    HW123663   2.178   3.246   4.756
 7588SOL    HW223664   2.105   3.388   4.793
 7589SOL     OW23665   6.583   6.991   2.431
 7589SOL    HW123666   6.564   6.895   2.411
 7589SOL    HW223667   6.500   0.012   2.468
 7590SOL     OW23668   5.829   0.907   0.417
 7590SOL    HW123669   5.918   0.908   0.464
 7590SOL    HW223670   5.798   1.001   0.404
 7591SOL     OW23671   3.077   4.058   4.802
 7591SOL    HW123672   3.174   4.079   4.802
 7591SOL    HW223673   3.032   4.108   4.876
 7592SOL     OW23674   0.688   6.568   3.647
 7592SOL    HW123675   0.661   6.659   3.679
 7592SOL    HW223676   0.621   6.501   3.678
 7593SOL     OW23677   6.738   1.298   6.127
 7593SOL    HW123678   6.771   1.227   6.065
 7593SOL    HW223679   6.640   1.289   6.140
 7594SOL     OW23680   6.537   3.786   6.003
 7594SOL    HW123681   6.617   3.791   5.943
 7594SOL    HW223682   6.454   3.801   5.950
 7595SOL     OW23683   0.211   2.958   0.092
 7595SOL    HW123684   0.146   3.033   0.098
 7595SOL    HW223685   0.208   2.905   0.177
 7596SOL     OW23686   3.119   1.582   6.748
 7596SOL    HW123687   3.075   1.613   6.663
 7596SOL    HW223688   3.055   1.593   6.824
 7597SOL     OW23689   2.502   4.683   0.677
 7597SOL    HW123690   2.600   4.689   0.697
 7597SOL    HW223691   2.482   4.734   0.594
 7598SOL     OW23692   5.115   0.622   1.819
 7598SOL    HW123693   5.141   0.623   1.915
 7598SOL    HW223694   5.175   0.684   1.768
 7599SOL     OW23695   3.112   3.331   6.903
 7599SOL    HW123696   3.102   3.424   6.938
 7599SOL    HW223697   3.053   3.269   6.956
 7600SOL     OW23698   0.934   0.151   3.734
 7600SOL    HW123699   0.923   0.185   3.827
 7600SOL    HW223700   0.846   0.151   3.687
 7601SOL     OW23701   3.038   6.249   1.576
 7601SOL    HW123702   2.987   6.302   1.508
 7601SOL    HW223703   3.105   6.308   1.620
 7602SOL     OW23704   0.868   1.392   1.168
 7602SOL    HW123705   0.832   1.467   1.223
 7602SOL    HW223706   0.965   1.380   1.187
 7603SOL     OW23707   4.474   1.062   6.451
 7603SOL    HW123708   4.410   1.129   6.414
 7603SOL    HW223709   4.431   1.013   6.527
 7604SOL     OW23710   2.530   2.507   5.158
 7604SOL    HW123711   2.593   2.505   5.080
 7604SOL    HW223712   2.436   2.499   5.125
 7605SOL     OW23713   2.917   5.627   0.363
 7605SOL    HW123714   2.841   5.687   0.341
 7605SOL    HW223715   2.993   5.646   0.301
 7606SOL     OW23716   6.409   0.512   3.077
 7606SOL    HW123717   6.444   0.433   3.126
 7606SOL    HW223718   6.401   0.589   3.140
 7607SOL     OW23719   1.826   5.777   5.560
 7607SOL    HW123720   1.785   5.811   5.475
 7607SOL    HW223721   1.908   5.724   5.539
 7608SOL     OW23722   0.320   2.561   6.217
 7608SOL    HW123723   0.358   2.580   6.126
 7608SOL    HW223724   0.220   2.562   6.212
 7609SOL     OW23725   3.297   0.316   5.118
 7609SOL    HW123726   3.331   0.253   5.048
 7609SOL    HW223727   3.357   0.312   5.198
 7610SOL     OW23728   4.091   4.833   4.430
 7610SOL    HW123729   4.135   4.821   4.519
 7610SOL    HW223730   4.148   4.791   4.359
 7611SOL     OW23731   4.200   2.141   0.196
 7611SOL    HW123732   4.252   2.225   0.208
 7611SOL    HW223733   4.257   2.063   0.221
 7612SOL     OW23734   4.772   1.725   2.386
 7612SOL    HW123735   4.853   1.773   2.420
 7612SOL    HW223736   4.799   1.654   2.322
 7613SOL     OW23737   0.215   0.824   6.903
 7613SOL    HW123738   0.230   0.865   6.813
 7613SOL    HW223739   0.258   0.734   6.906
 7614SOL     OW23740   6.001   5.113   6.556
 7614SOL    HW123741   6.029   5.089   6.463
 7614SOL    HW223742   5.922   5.058   6.582
 7615SOL     OW23743   4.836   2.477   6.307
 7615SOL    HW123744   4.856   2.554   6.368
 7615SOL    HW223745   4.771   2.416   6.351
 7616SOL     OW23746   6.632   6.548   2.170
 7616SOL    HW123747   6.705   6.594   2.119
 7616SOL    HW223748   6.642   6.449   2.161
 7617SOL     OW23749   6.098   4.437   3.084
 7617SOL    HW123750   6.165   4.364   3.068
 7617SOL    HW223751   6.015   4.398   3.122
 7618SOL     OW23752   2.714   2.078   6.900
 7618SOL    HW123753   2.665   1.991   6.907
 7618SOL    HW223754   2.812   2.061   6.889
 7619SOL     OW23755   0.622   0.617   5.197
 7619SOL    HW123756   0.680   0.698   5.210
 7619SOL    HW223757   0.534   0.644   5.158
 7620SOL     OW23758   3.482   3.981   0.099
 7620SOL    HW123759   3.482   3.958   0.197
 7620SOL    HW223760   3.531   3.910   0.048
 7621SOL     OW23761   6.055   5.134   0.725
 7621SOL    HW123762   6.030   5.226   0.693
 7621SOL    HW223763   6.072   5.075   0.647
 7622SOL     OW23764   3.307   4.140   1.150
 7622SOL    HW123765   3.208   4.132   1.138
 7622SOL    HW223766   3.331   4.118   1.244
 7623SOL     OW23767   5.196   4.467   2.542
 7623SOL    HW123768   5.230   4.471   2.448
 7623SOL    HW223769   5.198   4.558   2.582
 7624SOL     OW23770   0.175   2.995   2.818
 7624SOL    HW123771   0.216   2.919   2.868
 7624SOL    HW223772   0.087   2.966   2.780
 7625SOL     OW23773   5.073   0.034   1.894
 7625SOL    HW123774   5.079   0.078   1.983
 7625SOL    HW223775   5.006   6.982   1.898
 7626SOL     OW23776   4.664   6.536   0.081
 7626SOL    HW123777   4.628   6.540   7.011
 7626SOL    HW223778   4.762   6.551   0.080
 7627SOL     OW23779   4.247   2.407   5.919
 7627SOL    HW123780   4.183   2.373   5.988
 7627SOL    HW223781   4.335   2.426   5.963
 7628SOL     OW23782   3.359   2.818   0.756
 7628SOL    HW123783   3.378   2.871   0.673
 7628SOL    HW223784   3.401   2.727   0.748
 7629SOL     OW23785   5.547   2.719   3.279
 7629SOL    HW123786   5.508   2.632   3.310
 7629SOL    HW223787   5.632   2.736   3.329
 7630SOL     OW23788   1.443   6.516   3.754
 7630SOL    HW123789   1.495   6.596   3.787
 7630SOL    HW223790   1.400   6.538   3.667
 7631SOL     OW23791   1.374   1.286   6.050
 7631SOL    HW123792   1.453   1.296   5.990
 7631SOL    HW223793   1.389   1.338   6.134
 7632SOL     OW23794   4.067   5.699   1.005
 7632SOL    HW123795   4.119   5.620   1.036
 7632SOL    HW223796   4.029   5.681   0.914
 7633SOL     OW23797   5.223   0.872   1.508
 7633SOL    HW123798   5.231   0.805   1.433
 7633SOL    HW223799   5.127   0.882   1.533
 7634SOL     OW23800   0.320   2.463   6.779
 7634SOL    HW123801   0.308   2.396   6.706
 7634SOL    HW223802   0.302   2.419   6.867
 7635SOL     OW23803   1.230   3.471   5.572
 7635SOL    HW123804   1.238   3.430   5.663
 7635SOL    HW223805   1.249   3.569   5.578
 7636SOL     OW23806   6.714   3.083   3.233
 7636SOL    HW123807   6.801   3.105   3.278
 7636SOL    HW223808   6.648   3.053   3.302
 7637SOL     OW23809   1.242   3.945   5.458
 7637SOL    HW123810   1.229   3.983   5.549
 7637SOL    HW223811   1.161   3.963   5.402
 7638SOL     OW23812   0.550   6.272   1.310
 7638SOL    HW123813   0.607   6.310   1.382
 7638SOL    HW223814   0.606   6.216   1.249
 7639SOL     OW23815   2.552   6.374   0.440
 7639SOL    HW123816   2.512   6.436   0.507
 7639SOL    HW223817   2.480   6.327   0.390
 7640SOL     OW23818   2.881   0.757   0.983
 7640SOL    HW123819   2.816   0.809   0.928
 7640SOL    HW223820   2.854   0.660   0.983
 7641SOL     OW23821   6.512   4.969   4.786
 7641SOL    HW123822   6.586   5.017   4.739
 7641SOL    HW223823   6.547   4.927   4.870
 7642SOL     OW23824   5.751   0.941   4.024
 7642SOL    HW123825   5.821   0.897   3.967
 7642SOL    HW223826   5.702   0.872   4.076
 7643SOL     OW23827   4.970   2.336   4.190
 7643SOL    HW123828   5.046   2.402   4.188
 7643SOL    HW223829   4.938   2.321   4.096
 7644SOL     OW23830   5.329   3.775   0.488
 7644SOL    HW123831   5.395   3.701   0.485
 7644SOL    HW223832   5.348   3.835   0.566
 7645SOL     OW23833   4.861   5.139   6.558
 7645SOL    HW123834   4.929   5.076   6.521
 7645SOL    HW223835   4.902   5.192   6.632
 7646SOL     OW23836   6.910   2.265   1.819
 7646SOL    HW123837   6.895   2.218   1.906
 7646SOL    HW223838   6.979   2.216   1.766
 7647SOL     OW23839   6.903   1.834   4.214
 7647SOL    HW123840   6.984   1.776   4.209
 7647SOL    HW223841   6.873   1.858   4.122
 7648SOL     OW23842   1.798   2.424   0.999
 7648SOL    HW123843   1.735   2.461   0.931
 7648SOL    HW223844   1.843   2.499   1.047
 7649SOL     OW23845   4.068   0.596   0.111
 7649SOL    HW123846   4.066   0.689   0.149
 7649SOL    HW223847   4.073   0.601   0.012
 7650SOL     OW23848   3.513   2.482   0.448
 7650SOL    HW123849   3.532   2.557   0.511
 7650SOL    HW223850   3.594   2.465   0.391
 7651SOL     OW23851   3.570   5.620   6.485
 7651SOL    HW123852   3.599   5.625   6.390
 7651SOL    HW223853   3.474   5.646   6.492
 7652SOL     OW23854   6.970   0.975   5.481
 7652SOL    HW123855   0.008   1.047   5.448
 7652SOL    HW223856   7.014   0.886   5.468
 7653SOL     OW23857   1.823   6.580   6.712
 7653SOL    HW123858   1.870   6.552   6.628
 7653SOL    HW223859   1.891   6.604   6.781
 7654SOL     OW23860   6.616   2.597   5.639
 7654SOL    HW123861   6.647   2.564   5.550
 7654SOL    HW223862   6.659   2.543   5.712
 7655SOL     OW23863   3.168   1.527   5.132
 7655SOL    HW123864   3.249   1.522   5.190
 7655SOL    HW223865   3.138   1.622   5.126
 7656SOL     OW23866   6.205   3.664   6.984
 7656SOL    HW123867   6.269   3.702   6.917
 7656SOL    HW223868   6.154   3.589   6.943
 7657SOL     OW23869   1.051   3.686   4.689
 7657SOL    HW123870   1.116   3.610   4.688
 7657SOL    HW223871   1.005   3.693   4.601
 7658SOL     OW23872   2.893   0.459   1.268
 7658SOL    HW123873   2.852   0.478   1.179
 7658SOL    HW223874   2.831   0.488   1.340
 7659SOL     OW23875   5.394   4.148   5.277
 7659SOL    HW123876   5.484   4.115   5.306
 7659SOL    HW223877   5.391   4.154   5.178
 7660SOL     OW23878   0.169   6.411   5.354
 7660SOL    HW123879   0.081   6.444   5.319
 7660SOL    HW223880   0.227   6.384   5.278
 7661SOL     OW23881   1.953   0.513   5.207
 7661SOL    HW123882   1.936   0.414   5.203
 7661SOL    HW223883   1.961   0.549   5.115
 7662SOL     OW23884   0.116   6.555   1.460
 7662SOL    HW123885   0.127   6.471   1.408
 7662SOL    HW223886   0.200   6.609   1.455
 7663SOL     OW23887   1.664   6.013   4.471
 7663SOL    HW123888   1.569   5.983   4.469
 7663SOL    HW223889   1.696   6.016   4.566
 7664SOL     OW23890   5.699   2.101   2.741
 7664SOL    HW123891   5.646   2.146   2.669
 7664SOL    HW223892   5.690   2.152   2.826
 7665SOL     OW23893   2.700   0.584   5.312
 7665SOL    HW123894   2.693   0.498   5.363
 7665SOL    HW223895   2.723   0.564   5.217
 7666SOL     OW23896   6.109   5.323   4.270
 7666SOL    HW123897   6.195   5.346   4.315
 7666SOL    HW223898   6.087   5.227   4.286
 7667SOL     OW23899   4.179   5.221   1.404
 7667SOL    HW123900   4.219   5.311   1.420
 7667SOL    HW223901   4.142   5.185   1.489
 7668SOL     OW23902   1.666   5.699   0.288
 7668SOL    HW123903   1.596   5.661   0.349
 7668SOL    HW223904   1.642   5.793   0.264
 7669SOL     OW23905   3.111   1.906   6.832
 7669SOL    HW123906   3.025   1.887   6.785
 7669SOL    HW223907   3.188   1.871   6.779
 7670SOL     OW23908   0.766   0.222   0.535
 7670SOL    HW123909   0.833   0.185   0.599
 7670SOL    HW223910   0.676   0.223   0.577
 7671SOL     OW23911   3.785   0.307   1.584
 7671SOL    HW123912   3.750   0.217   1.558
 7671SOL    HW223913   3.718   0.377   1.559
 7672SOL     OW23914   5.506   3.356   2.138
 7672SOL    HW123915   5.588   3.316   2.178
 7672SOL    HW223916   5.516   3.363   2.039
 7673SOL     OW23917   1.988   6.271   5.346
 7673SOL    HW123918   2.027   6.201   5.406
 7673SOL    HW223919   2.035   6.358   5.362
 7674SOL     OW23920   3.320   5.591   3.558
 7674SOL    HW123921   3.384   5.519   3.531
 7674SOL    HW223922   3.293   5.643   3.477
 7675SOL     OW23923   3.767   6.189   3.346
 7675SOL    HW123924   3.763   6.239   3.260
 7675SOL    HW223925   3.796   6.251   3.420
 7676SOL     OW23926   3.016   3.430   4.735
 7676SOL    HW123927   3.009   3.382   4.647
 7676SOL    HW223928   2.993   3.367   4.809
 7677SOL     OW23929   0.516   6.595   0.183
 7677SOL    HW123930   0.511   6.623   0.087
 7677SOL    HW223931   0.467   6.509   0.195
 7678SOL     OW23932   3.607   1.480   5.460
 7678SOL    HW123933   3.680   1.446   5.520
 7678SOL    HW223934   3.521   1.436   5.484
 7679SOL     OW23935   2.756   4.980   4.018
 7679SOL    HW123936   2.811   5.048   4.067
 7679SOL    HW223937   2.813   4.902   3.994
 7680SOL     OW23938   1.718   6.639   3.934
 7680SOL    HW123939   1.760   6.723   3.967
 7680SOL    HW223940   1.694   6.581   4.013
 7681SOL     OW23941   1.848   2.083   5.619
 7681SOL    HW123942   1.768   2.142   5.620
 7681SOL    HW223943   1.850   2.028   5.702
 7682SOL     OW23944   3.441   0.460   1.923
 7682SOL    HW123945   3.514   0.526   1.908
 7682SOL    HW223946   3.369   0.502   1.978
 7683SOL     OW23947   0.883   4.427   4.727
 7683SOL    HW123948   0.786   4.407   4.712
 7683SOL    HW223949   0.893   4.478   4.812
 7684SOL     OW23950   4.918   3.488   1.824
 7684SOL    HW123951   4.859   3.502   1.744
 7684SOL    HW223952   4.905   3.395   1.858
 7685SOL     OW23953   2.504   0.179   0.135
 7685SOL    HW123954   2.577   0.214   0.194
 7685SOL    HW223955   2.416   0.187   0.183
 7686SOL     OW23956   5.888   0.641   4.193
 7686SOL    HW123957   5.803   0.686   4.165
 7686SOL    HW223958   5.962   0.709   4.194
 7687SOL     OW23959   5.355   3.248   5.977
 7687SOL    HW123960   5.368   3.211   5.885
 7687SOL    HW223961   5.348   3.347   5.973
 7688SOL     OW23962   6.587   3.040   0.403
 7688SOL    HW123963   6.526   3.047   0.481
 7688SOL    HW223964   6.558   3.105   0.332
 7689SOL     OW23965   5.498   0.097   2.674
 7689SOL    HW123966   5.574   0.051   2.627
 7689SOL    HW223967   5.421   0.034   2.684
 7690SOL     OW23968   6.112   4.647   2.428
 7690SOL    HW123969   6.025   4.679   2.390
 7690SOL    HW223970   6.117   4.668   2.525
 7691SOL     OW23971   4.993   2.891   3.981
 7691SOL    HW123972   5.072   2.893   3.921
 7691SOL    HW223973   4.909   2.885   3.926
 7692SOL     OW23974   2.142   6.569   2.095
 7692SOL    HW123975   2.091   6.654   2.083
 7692SOL    HW223976   2.147   6.547   2.192
 7693SOL     OW23977   2.864   2.231   1.289
 7693SOL    HW123978   2.778   2.197   1.251
 7693SOL    HW223979   2.928   2.251   1.215
 7694SOL     OW23980   4.372   2.366   0.995
 7694SOL    HW123981   4.274   2.372   0.980
 7694SOL    HW223982   4.408   2.455   1.022
 7695SOL     OW23983   5.228   6.414   4.176
 7695SOL    HW123984   5.254   6.388   4.269
 7695SOL    HW223985   5.237   6.335   4.116
 7696SOL     OW23986   2.845   1.208   5.724
 7696SOL    HW123987   2.765   1.247   5.770
 7696SOL    HW223988   2.879   1.273   5.656
 7697SOL     OW23989   5.641   6.898   3.116
 7697SOL    HW123990   5.629   6.820   3.056
 7697SOL    HW223991   5.738   6.906   3.141
 7698SOL     OW23992   6.160   2.202   1.344
 7698SOL    HW123993   6.106   2.158   1.416
 7698SOL    HW223994   6.102   2.266   1.294
 7699SOL     OW23995   3.737   5.946   6.249
 7699SOL    HW123996   3.685   5.965   6.165
 7699SOL    HW223997   3.701   6.001   6.323
 7700SOL     OW23998   6.696   5.425   1.757
 7700SOL    HW123999   6.740   5.469   1.679
 7700SOL    HW224000   6.764   5.377   1.812
 7701SOL     OW24001   3.123   1.336   6.578
 7701SOL    HW124002   3.155   1.411   6.636
 7701SOL    HW224003   3.101   1.372   6.487
 7702SOL     OW24004   6.290   5.950   5.670
 7702SOL    HW124005   6.305   5.863   5.717
 7702SOL    HW224006   6.222   6.004   5.720
 7703SOL     OW24007   0.194   6.505   6.267
 7703SOL    HW124008   0.121   6.574   6.270
 7703SOL    HW224009   0.245   6.513   6.182
 7704SOL     OW24010   1.875   2.052   4.799
 7704SOL    HW124011   1.905   2.111   4.725
 7704SOL    HW224012   1.854   2.107   4.880
 7705SOL     OW24013   0.789   4.598   0.435
 7705SOL    HW124014   0.782   4.689   0.477
 7705SOL    HW224015   0.849   4.540   0.489
 7706SOL     OW24016   3.102   4.035   2.243
 7706SOL    HW124017   3.030   4.103   2.235
 7706SOL    HW224018   3.160   4.056   2.322
 7707SOL     OW24019   0.121   5.373   5.880
 7707SOL    HW124020   0.045   5.387   5.943
 7707SOL    HW224021   0.205   5.357   5.932
 7708SOL     OW24022   0.221   0.443   4.582
 7708SOL    HW124023   0.313   0.406   4.600
 7708SOL    HW224024   0.209   0.528   4.633
 7709SOL     OW24025   6.232   4.775   0.947
 7709SOL    HW124026   6.287   4.858   0.955
 7709SOL    HW224027   6.264   4.721   0.869
 7710SOL     OW24028   6.454   3.213   2.668
 7710SOL    HW124029   6.531   3.276   2.654
 7710SOL    HW224030   6.440   3.199   2.765
 7711SOL     OW24031   0.941   3.957   3.228
 7711SOL    HW124032   0.913   3.925   3.319
 7711SOL    HW224033   1.029   4.004   3.234
 7712SOL     OW24034   1.052   4.628   4.397
 7712SOL    HW124035   1.113   4.635   4.318
 7712SOL    HW224036   1.013   4.536   4.400
 7713SOL     OW24037   1.193   6.019   0.618
 7713SOL    HW124038   1.165   5.999   0.524
 7713SOL    HW224039   1.293   6.029   0.621
 7714SOL     OW24040   5.575   1.691   5.118
 7714SOL    HW124041   5.521   1.620   5.074
 7714SOL    HW224042   5.647   1.722   5.055
 7715SOL     OW24043   4.065   3.733   6.589
 7715SOL    HW124044   4.057   3.801   6.661
 7715SOL    HW224045   4.162   3.711   6.574
 7716SOL     OW24046   1.299   1.143   6.849
 7716SOL    HW124047   1.348   1.135   6.762
 7716SOL    HW224048   1.363   1.167   6.921
 7717SOL     OW24049   1.116   1.618   6.179
 7717SOL    HW124050   1.083   1.679   6.106
 7717SOL    HW224051   1.214   1.633   6.193
 7718SOL     OW24052   0.399   3.639   3.291
 7718SOL    HW124053   0.348   3.632   3.377
 7718SOL    HW224054   0.479   3.698   3.304
 7719SOL     OW24055   2.020   6.304   4.925
 7719SOL    HW124056   2.019   6.215   4.879
 7719SOL    HW224057   2.077   6.299   5.007
 7720SOL     OW24058   4.672   1.472   6.520
 7720SOL    HW124059   4.616   1.465   6.437
 7720SOL    HW224060   4.764   1.504   6.496
 7721SOL     OW24061   6.182   5.487   2.708
 7721SOL    HW124062   6.249   5.505   2.636
 7721SOL    HW224063   6.106   5.434   2.671
 7722SOL     OW24064   0.059   6.037   4.603
 7722SOL    HW124065   0.087   6.120   4.651
 7722SOL    HW224066   0.121   5.962   4.627
 7723SOL     OW24067   4.132   4.498   6.956
 7723SOL    HW124068   4.071   4.470   0.008
 7723SOL    HW224069   4.227   4.478   6.981
 7724SOL     OW24070   1.249   4.658   0.326
 7724SOL    HW124071   1.202   4.628   0.409
 7724SOL    HW224072   1.254   4.582   0.261
 7725SOL     OW24073   5.447   3.335   4.628
 7725SOL    HW124074   5.417   3.294   4.542
 7725SOL    HW224075   5.484   3.264   4.687
 7726SOL     OW24076   2.067   3.119   0.307
 7726SOL    HW124077   2.089   3.173   0.389
 7726SOL    HW224078   1.974   3.084   0.315
 7727SOL     OW24079   5.420   0.472   3.207
 7727SOL    HW124080   5.386   0.504   3.118
 7727SOL    HW224081   5.519   0.483   3.211
 7728SOL     OW24082   2.177   3.242   5.466
 7728SOL    HW124083   2.255   3.184   5.445
 7728SOL    HW224084   2.095   3.206   5.420
 7729SOL     OW24085   6.881   1.239   2.876
 7729SOL    HW124086   6.958   1.185   2.843
 7729SOL    HW224087   6.836   1.189   2.951
 7730SOL     OW24088   6.036   3.569   6.138
 7730SOL    HW124089   5.991   3.481   6.120
 7730SOL    HW224090   6.134   3.560   6.121
 7731SOL     OW24091   6.837   0.616   6.187
 7731SOL    HW124092   6.818   0.681   6.260
 7731SOL    HW224093   6.826   0.662   6.098
 7732SOL     OW24094   4.273   1.199   0.030
 7732SOL    HW124095   4.260   1.296   0.051
 7732SOL    HW224096   4.332   1.157   0.099
 7733SOL     OW24097   6.082   6.359   1.251
 7733SOL    HW124098   6.041   6.331   1.338
 7733SOL    HW224099   6.162   6.416   1.269
 7734SOL     OW24100   4.117   3.383   3.371
 7734SOL    HW124101   4.160   3.393   3.461
 7734SOL    HW224102   4.080   3.472   3.342
 7735SOL     OW24103   1.078   6.045   1.069
 7735SOL    HW124104   1.021   5.964   1.080
 7735SOL    HW224105   1.175   6.019   1.073
 7736SOL     OW24106   1.729   1.474   1.191
 7736SOL    HW124107   1.757   1.378   1.185
 7736SOL    HW224108   1.635   1.483   1.159
 7737SOL     OW24109   4.790   4.570   6.262
 7737SOL    HW124110   4.704   4.519   6.263
 7737SOL    HW224111   4.830   4.570   6.353
 7738SOL     OW24112   1.273   1.181   5.501
 7738SOL    HW124113   1.229   1.188   5.412
 7738SOL    HW224114   1.319   1.268   5.522
 7739SOL     OW24115   0.833   3.087   6.505
 7739SOL    HW124116   0.787   3.099   6.417
 7739SOL    HW224117   0.805   3.000   6.546
 7740SOL     OW24118   2.079   1.126   4.267
 7740SOL    HW124119   2.065   1.041   4.318
 7740SOL    HW224120   1.992   1.176   4.262
 7741SOL     OW24121   6.779   4.081   6.388
 7741SOL    HW124122   6.727   4.085   6.473
 7741SOL    HW224123   6.777   4.171   6.343
 7742SOL     OW24124   4.764   2.285   3.997
 7742SOL    HW124125   4.671   2.279   3.959
 7742SOL    HW224126   4.809   2.196   3.987
 7743SOL     OW24127   3.494   0.941   6.322
 7743SOL    HW124128   3.562   0.884   6.276
 7743SOL    HW224129   3.538   1.019   6.365
 7744SOL     OW24130   0.397   6.323   4.665
 7744SOL    HW124131   0.441   6.289   4.582
 7744SOL    HW224132   0.299   6.334   4.649
 7745SOL     OW24133   2.714   0.169   0.397
 7745SOL    HW124134   2.696   0.072   0.379
 7745SOL    HW224135   2.761   0.178   0.485
 7746SOL     OW24136   0.213   6.186   0.786
 7746SOL    HW124137   0.135   6.140   0.744
 7746SOL    HW224138   0.197   6.285   0.784
 7747SOL     OW24139   7.004   5.999   1.658
 7747SOL    HW124140   6.904   5.989   1.656
 7747SOL    HW224141   0.014   5.989   1.752
 7748SOL     OW24142   4.312   1.038   6.125
 7748SOL    HW124143   4.341   1.121   6.172
 7748SOL    HW224144   4.380   1.013   6.056
 7749SOL     OW24145   3.103   4.001   2.651
 7749SOL    HW124146   3.140   4.008   2.743
 7749SOL    HW224147   3.016   4.050   2.646
 7750SOL     OW24148   5.481   4.351   6.092
 7750SOL    HW124149   5.443   4.439   6.063
 7750SOL    HW224150   5.580   4.350   6.078
 7751SOL     OW24151   0.284   1.564   5.306
 7751SOL    HW124152   0.192   1.568   5.344
 7751SOL    HW224153   0.337   1.494   5.354
 7752SOL     OW24154   5.832   3.885   6.058
 7752SOL    HW124155   5.877   3.940   6.129
 7752SOL    HW224156   5.740   3.920   6.042
 7753SOL     OW24157   2.785   1.012   5.009
 7753SOL    HW124158   2.838   1.059   4.939
 7753SOL    HW224159   2.810   1.047   5.099
 7754SOL     OW24160   6.515   1.056   0.960
 7754SOL    HW124161   6.429   1.005   0.951
 7754SOL    HW224162   6.592   0.992   0.961
 7755SOL     OW24163   1.619   5.843   5.404
 7755SOL    HW124164   1.598   5.875   5.496
 7755SOL    HW224165   1.536   5.806   5.362
 7756SOL     OW24166   3.936   6.485   3.007
 7756SOL    HW124167   4.012   6.455   3.066
 7756SOL    HW224168   3.858   6.509   3.063
 7757SOL     OW24169   3.533   0.956   5.696
 7757SOL    HW124170   3.545   0.871   5.749
 7757SOL    HW224171   3.567   0.941   5.603
 7758SOL     OW24172   2.318   1.748   6.624
 7758SOL    HW124173   2.409   1.758   6.584
 7758SOL    HW224174   2.321   1.681   6.698
 7759SOL     OW24175   2.280   0.689   4.720
 7759SOL    HW124176   2.275   0.590   4.727
 7759SOL    HW224177   2.260   0.717   4.626
 7760SOL     OW24178   5.377   2.072   3.046
 7760SOL    HW124179   5.427   2.157   3.061
 7760SOL    HW224180   5.320   2.081   2.964
 7761SOL     OW24181   4.658   1.305   0.015
 7761SOL    HW124182   4.646   1.256   6.951
 7761SOL    HW224183   4.686   1.240   0.086
 7762SOL     OW24184   1.472   2.292   0.705
 7762SOL    HW124185   1.387   2.344   0.704
 7762SOL    HW224186   1.550   2.354   0.705
 7763SOL     OW24187   2.712   2.512   0.828
 7763SOL    HW124188   2.779   2.566   0.879
 7763SOL    HW224189   2.663   2.452   0.892
 7764SOL     OW24190   3.452   3.037   1.940
 7764SOL    HW124191   3.356   3.043   1.969
 7764SOL    HW224192   3.504   2.987   2.008
 7765SOL     OW24193   6.937   1.780   2.250
 7765SOL    HW124194   6.920   1.691   2.294
 7765SOL    HW224195   6.853   1.811   2.205
 7766SOL     OW24196   0.002   3.042   6.712
 7766SOL    HW124197   6.988   2.950   6.707
 7766SOL    HW224198   0.099   3.038   6.736
 7767SOL     OW24199   5.633   3.928   5.101
 7767SOL    HW124200   5.707   3.995   5.104
 7767SOL    HW224201   5.569   3.952   5.028
 7768SOL     OW24202   3.292   5.098   1.538
 7768SOL    HW124203   3.334   5.186   1.515
 7768SOL    HW224204   3.363   5.037   1.574
 7769SOL     OW24205   5.315   1.840   3.213
 7769SOL    HW124206   5.396   1.818   3.266
 7769SOL    HW224207   5.341   1.894   3.132
 7770SOL     OW24208   3.501   6.538   1.393
 7770SOL    HW124209   3.525   6.574   1.303
 7770SOL    HW224210   3.576   6.481   1.427
 7771SOL     OW24211   1.890   0.988   4.515
 7771SOL    HW124212   1.809   1.045   4.505
 7771SOL    HW224213   1.939   1.013   4.599
 7772SOL     OW24214   5.482   0.338   5.356
 7772SOL    HW124215   5.453   0.276   5.429
 7772SOL    HW224216   5.579   0.359   5.367
 7773SOL     OW24217   4.024   4.692   5.949
 7773SOL    HW124218   4.033   4.761   5.877
 7773SOL    HW224219   3.957   4.623   5.921
 7774SOL     OW24220   4.953   1.855   6.959
 7774SOL    HW124221   4.995   1.940   6.926
 7774SOL    HW224222   5.003   1.821   0.016
 7775SOL     OW24223   1.595   6.717   2.395
 7775SOL    HW124224   1.617   6.680   2.486
 7775SOL    HW224225   1.656   6.676   2.327
 7776SOL     OW24226   3.195   4.894   0.639
 7776SOL    HW124227   3.167   4.934   0.726
 7776SOL    HW224228   3.295   4.893   0.633
 7777SOL     OW24229   0.407   0.684   6.472
 7777SOL    HW124230   0.309   0.688   6.452
 7777SOL    HW224231   0.422   0.717   6.565
 7778SOL     OW24232   4.801   2.009   2.152
 7778SOL    HW124233   4.835   1.927   2.107
 7778SOL    HW224234   4.711   1.991   2.192
 7779SOL     OW24235   4.328   3.146   0.574
 7779SOL    HW124236   4.285   3.206   0.507
 7779SOL    HW224237   4.393   3.085   0.527
 7780SOL     OW24238   0.859   0.380   4.318
 7780SOL    HW124239   0.822   0.296   4.356
 7780SOL    HW224240   0.959   0.375   4.316
 7781SOL     OW24241   1.959   4.177   5.864
 7781SOL    HW124242   1.883   4.172   5.928
 7781SOL    HW224243   2.002   4.087   5.856
 7782SOL     OW24244   4.803   4.900   0.319
 7782SOL    HW124245   4.848   4.924   0.233
 7782SOL    HW224246   4.814   4.802   0.336
 7783SOL     OW24247   3.393   5.911   6.693
 7783SOL    HW124248   3.444   5.889   6.610
 7783SOL    HW224249   3.406   6.008   6.715
 7784SOL     OW24250   6.178   3.727   0.400
 7784SOL    HW124251   6.274   3.701   0.390
 7784SOL    HW224252   6.134   3.725   0.310
 7785SOL     OW24253   1.266   6.340   6.268
 7785SOL    HW124254   1.357   6.338   6.310
 7785SOL    HW224255   1.244   6.434   6.239
 7786SOL     OW24256   3.838   4.363   5.457
 7786SOL    HW124257   3.891   4.360   5.372
 7786SOL    HW224258   3.757   4.305   5.449
 7787SOL     OW24259   3.249   2.122   5.537
 7787SOL    HW124260   3.277   2.111   5.442
 7787SOL    HW224261   3.322   2.166   5.588
 7788SOL     OW24262   6.845   2.343   1.019
 7788SOL    HW124263   6.878   2.407   1.089
 7788SOL    HW224264   6.766   2.383   0.973
 7789SOL     OW24265   1.541   0.118   1.703
 7789SOL    HW124266   1.495   0.121   1.792
 7789SOL    HW224267   1.580   0.208   1.683
 7790SOL     OW24268   0.113   3.791   2.603
 7790SOL    HW124269   0.046   3.717   2.603
 7790SOL    HW224270   0.146   3.807   2.510
 7791SOL     OW24271   6.727   5.530   5.441
 7791SOL    HW124272   6.633   5.561   5.460
 7791SOL    HW224273   6.751   5.550   5.347
 7792SOL     OW24274   2.053   5.904   6.145
 7792SOL    HW124275   1.997   5.821   6.140
 7792SOL    HW224276   1.996   5.982   6.171
 7793SOL     OW24277   2.517   0.918   6.670
 7793SOL    HW124278   2.466   0.979   6.732
 7793SOL    HW224279   2.567   0.974   6.603
 7794SOL     OW24280   5.386   4.981   2.489
 7794SOL    HW124281   5.442   4.946   2.414
 7794SOL    HW224282   5.378   5.081   2.481
 7795SOL     OW24283   1.480   4.258   6.379
 7795SOL    HW124284   1.548   4.231   6.447
 7795SOL    HW224285   1.404   4.193   6.379
 7796SOL     OW24286   3.927   3.368   4.974
 7796SOL    HW124287   3.843   3.421   4.985
 7796SOL    HW224288   3.906   3.281   4.930
 7797SOL     OW24289   1.310   6.611   3.995
 7797SOL    HW124290   1.232   6.673   4.002
 7797SOL    HW224291   1.350   6.618   3.904
 7798SOL     OW24292   4.140   5.345   6.131
 7798SOL    HW124293   4.222   5.400   6.149
 7798SOL    HW224294   4.061   5.387   6.174
 7799SOL     OW24295   6.107   6.047   1.782
 7799SOL    HW124296   6.093   5.964   1.728
 7799SOL    HW224297   6.071   6.033   1.875
 7800SOL     OW24298   0.734   6.131   1.842
 7800SOL    HW124299   0.785   6.074   1.906
 7800SOL    HW224300   0.642   6.146   1.877
 7801SOL     OW24301   4.513   2.249   5.310
 7801SOL    HW124302   4.509   2.221   5.406
 7801SOL    HW224303   4.601   2.291   5.290
 7802SOL     OW24304   5.472   2.488   6.692
 7802SOL    HW124305   5.375   2.480   6.667
 7802SOL    HW224306   5.526   2.424   6.638
 7803SOL     OW24307   3.476   3.520   5.925
 7803SOL    HW124308   3.425   3.530   5.839
 7803SOL    HW224309   3.412   3.511   6.001
 7804SOL     OW24310   5.235   1.226   6.096
 7804SOL    HW124311   5.291   1.242   6.015
 7804SOL    HW224312   5.170   1.301   6.108
 7805SOL     OW24313   5.551   2.964   1.567
 7805SOL    HW124314   5.520   2.888   1.625
 7805SOL    HW224315   5.484   2.979   1.494
 7806SOL     OW24316   5.099   2.781   0.456
 7806SOL    HW124317   5.178   2.781   0.395
 7806SOL    HW224318   5.023   2.830   0.413
 7807SOL     OW24319   0.307   4.043   6.975
 7807SOL    HW124320   0.404   4.053   6.994
 7807SOL    HW224321   0.291   4.043   6.877
 7808SOL     OW24322   6.995   1.549   5.097
 7808SOL    HW124323   0.002   1.572   5.189
 7808SOL    HW224324   0.014   1.463   5.069
 7809SOL     OW24325   1.125   5.703   5.663
 7809SOL    HW124326   1.132   5.785   5.607
 7809SOL    HW224327   1.178   5.714   5.746
 7810SOL     OW24328   2.676   1.442   6.842
 7810SOL    HW124329   2.673   1.382   6.923
 7810SOL    HW224330   2.583   1.471   6.819
 7811SOL     OW24331   6.355   5.077   5.063
 7811SOL    HW124332   6.392   5.052   5.152
 7811SOL    HW224333   6.308   4.998   5.023
 7812SOL     OW24334   0.483   2.064   3.516
 7812SOL    HW124335   0.434   2.075   3.603
 7812SOL    HW224336   0.575   2.102   3.526
 7813SOL     OW24337   6.219   1.584   0.919
 7813SOL    HW124338   6.211   1.657   0.851
 7813SOL    HW224339   6.130   1.542   0.933
 7814SOL     OW24340   2.184   2.829   4.114
 7814SOL    HW124341   2.231   2.868   4.193
 7814SOL    HW224342   2.094   2.872   4.104
 7815SOL     OW24343   6.768   1.914   5.562
 7815SOL    HW124344   6.766   1.816   5.578
 7815SOL    HW224345   6.806   1.933   5.471
 7816SOL     OW24346   0.380   4.761   4.979
 7816SOL    HW124347   0.326   4.755   5.063
 7816SOL    HW224348   0.467   4.806   4.998
 7817SOL     OW24349   5.505   3.034   5.517
 7817SOL    HW124350   5.449   3.042   5.435
 7817SOL    HW224351   5.601   3.047   5.494
 7818SOL     OW24352   5.605   3.152   3.945
 7818SOL    HW124353   5.564   3.220   3.884
 7818SOL    HW224354   5.705   3.165   3.946
 7819SOL     OW24355   0.953   0.921   1.001
 7819SOL    HW124356   0.939   0.925   1.100
 7819SOL    HW224357   0.919   1.006   0.959
 7820SOL     OW24358   2.700   6.779   6.195
 7820SOL    HW124359   2.653   6.712   6.139
 7820SOL    HW224360   2.799   6.768   6.184
 7821SOL     OW24361   3.093   6.360   1.030
 7821SOL    HW124362   3.136   6.296   1.094
 7821SOL    HW224363   3.080   6.449   1.074
 7822SOL     OW24364   1.317   6.589   5.091
 7822SOL    HW124365   1.389   6.603   5.022
 7822SOL    HW224366   1.282   6.677   5.121
 7823SOL     OW24367   1.838   3.323   5.447
 7823SOL    HW124368   1.893   3.403   5.422
 7823SOL    HW224369   1.748   3.353   5.478
 7824SOL     OW24370   0.978   3.096   5.378
 7824SOL    HW124371   1.027   3.183   5.388
 7824SOL    HW224372   1.043   3.025   5.350
 7825SOL     OW24373   2.261   0.674   0.194
 7825SOL    HW124374   2.295   0.581   0.186
 7825SOL    HW224375   2.322   0.737   0.146
 7826SOL     OW24376   0.868   4.131   6.036
 7826SOL    HW124377   0.782   4.082   6.049
 7826SOL    HW224378   0.928   4.079   5.976
 7827SOL     OW24379   6.233   4.881   3.831
 7827SOL    HW124380   6.278   4.802   3.789
 7827SOL    HW224381   6.161   4.914   3.770
 7828SOL     OW24382   0.988   5.831   6.033
 7828SOL    HW124383   0.972   5.911   5.976
 7828SOL    HW224384   0.940   5.842   6.120
 7829SOL     OW24385   4.754   5.142   0.455
 7829SOL    HW124386   4.686   5.137   0.528
 7829SOL    HW224387   4.762   5.052   0.411
 7830SOL     OW24388   1.852   5.093   4.674
 7830SOL    HW124389   1.779   5.114   4.738
 7830SOL    HW224390   1.822   5.112   4.580
 7831SOL     OW24391   1.975   0.347   6.390
 7831SOL    HW124392   1.885   0.310   6.412
 7831SOL    HW224393   2.009   0.398   6.469
 7832SOL     OW24394   6.738   1.159   5.194
 7832SOL    HW124395   6.721   1.204   5.106
 7832SOL    HW224396   6.670   1.088   5.210
 7833SOL     OW24397   0.720   0.204   3.153
 7833SOL    HW124398   0.813   0.235   3.174
 7833SOL    HW224399   0.654   0.268   3.194
 7834SOL     OW24400   0.072   3.259   5.256
 7834SOL    HW124401   0.073   3.160   5.240
 7834SOL    HW224402   0.091   3.306   5.170
 7835SOL     OW24403   3.032   2.331   5.703
 7835SOL    HW124404   3.103   2.400   5.690
 7835SOL    HW224405   3.004   2.295   5.614
 7836SOL     OW24406   2.918   3.657   4.869
 7836SOL    HW124407   2.908   3.728   4.799
 7836SOL    HW224408   2.902   3.568   4.828
 7837SOL     OW24409   0.996   5.657   6.848
 7837SOL    HW124410   0.985   5.563   6.813
 7837SOL    HW224411   0.934   5.670   6.926
 7838SOL     OW24412   4.121   5.029   1.615
 7838SOL    HW124413   4.159   5.005   1.525
 7838SOL    HW224414   4.076   4.949   1.654
 7839SOL     OW24415   6.067   3.580   5.292
 7839SOL    HW124416   6.115   3.507   5.245
 7839SOL    HW224417   5.973   3.585   5.259
 7840SOL     OW24418   2.195   2.434   3.310
 7840SOL    HW124419   2.184   2.516   3.365
 7840SOL    HW224420   2.284   2.436   3.265
 7841SOL     OW24421   4.737   1.869   5.361
 7841SOL    HW124422   4.638   1.884   5.368
 7841SOL    HW224423   4.782   1.897   5.446
 7842SOL     OW24424   0.846   0.162   1.124
 7842SOL    HW124425   0.867   0.257   1.101
 7842SOL    HW224426   0.897   0.101   1.063
 7843SOL     OW24427   6.576   6.396   1.858
 7843SOL    HW124428   6.554   6.494   1.867
 7843SOL    HW224429   6.491   6.343   1.857
 7844SOL     OW24430   4.029   0.087   2.357
 7844SOL    HW124431   4.071   0.177   2.371
 7844SOL    HW224432   4.002   0.078   2.261
 7845SOL     OW24433   6.549   3.213   1.573
 7845SOL    HW124434   6.647   3.209   1.593
 7845SOL    HW224435   6.527   3.151   1.499
 7846SOL     OW24436   0.546   1.776   0.323
 7846SOL    HW124437   0.635   1.736   0.344
 7846SOL    HW224438   0.500   1.801   0.408
 7847SOL     OW24439   5.563   3.880   6.041
 7847SOL    HW124440   5.498   3.860   5.968
 7847SOL    HW224441   5.548   3.972   6.077
 7848SOL     OW24442   4.518   5.119   0.622
 7848SOL    HW124443   4.448   5.190   0.614
 7848SOL    HW224444   4.483   5.043   0.677
 7849SOL     OW24445   4.435   4.799   6.911
 7849SOL    HW124446   4.446   4.715   6.857
 7849SOL    HW224447   4.370   4.859   6.866
 7850SOL     OW24448   6.600   0.879   3.311
 7850SOL    HW124449   6.688   0.872   3.359
 7850SOL    HW224450   6.532   0.920   3.372
 7851SOL     OW24451   0.443   4.738   0.503
 7851SOL    HW124452   0.409   4.725   0.596
 7851SOL    HW224453   0.530   4.787   0.505
 7852SOL     OW24454   1.031   3.541   5.826
 7852SOL    HW124455   0.992   3.527   5.736
 7852SOL    HW224456   1.109   3.480   5.839
 7853SOL     OW24457   4.411   2.947   1.675
 7853SOL    HW124458   4.475   2.991   1.738
 7853SOL    HW224459   4.324   2.930   1.722
 7854SOL     OW24460   4.413   1.223   1.140
 7854SOL    HW124461   4.453   1.151   1.197
 7854SOL    HW224462   4.316   1.204   1.125
 7855SOL     OW24463   4.948   6.259   3.927
 7855SOL    HW124464   5.047   6.247   3.920
 7855SOL    HW224465   4.923   6.272   4.023
 7856SOL     OW24466   2.199   6.153   6.476
 7856SOL    HW124467   2.137   6.219   6.518
 7856SOL    HW224468   2.218   6.181   6.382
 7857SOL     OW24469   6.849   5.177   0.402
 7857SOL    HW124470   6.837   5.208   0.496
 7857SOL    HW224471   6.866   5.078   0.401
 7858SOL     OW24472   0.640   3.960   6.083
 7858SOL    HW124473   0.636   3.861   6.098
 7858SOL    HW224474   0.593   4.007   6.158
 7859SOL     OW24475   4.995   2.244   1.282
 7859SOL    HW124476   5.013   2.264   1.378
 7859SOL    HW224477   4.899   2.263   1.261
 7860SOL     OW24478   2.610   1.859   3.262
 7860SOL    HW124479   2.619   1.892   3.168
 7860SOL    HW224480   2.627   1.934   3.326
 7861SOL     OW24481   1.873   5.818   0.844
 7861SOL    HW124482   1.959   5.839   0.797
 7861SOL    HW224483   1.881   5.841   0.941
 7862SOL     OW24484   1.341   6.558   6.946
 7862SOL    HW124485   1.434   6.595   6.939
 7862SOL    HW224486   1.275   6.632   6.940
 7863SOL     OW24487   0.186   3.662   3.516
 7863SOL    HW124488   0.154   3.754   3.493
 7863SOL    HW224489   0.117   3.616   3.573
 7864SOL     OW24490   3.281   5.373   5.055
 7864SOL    HW124491   3.275   5.458   5.003
 7864SOL    HW224492   3.364   5.374   5.110
 7865SOL     OW24493   6.216   5.172   3.672
 7865SOL    HW124494   6.249   5.083   3.638
 7865SOL    HW224495   6.230   5.177   3.771
 7866SOL     OW24496   0.698   1.056   5.246
 7866SOL    HW124497   0.641   1.131   5.279
 7866SOL    HW224498   0.794   1.074   5.271
 7867SOL     OW24499   4.085   5.263   2.748
 7867SOL    HW124500   4.154   5.262   2.820
 7867SOL    HW224501   4.050   5.171   2.733
 7868SOL     OW24502   4.034   6.101   1.316
 7868SOL    HW124503   4.052   6.006   1.290
 7868SOL    HW224504   4.114   6.138   1.363
 7869SOL     OW24505   5.801   4.972   6.936
 7869SOL    HW124506   5.794   4.874   6.956
 7869SOL    HW224507   5.791   5.024   7.020
 7870SOL     OW24508   6.670   0.240   3.419
 7870SOL    HW124509   6.682   0.141   3.425
 7870SOL    HW224510   6.719   0.284   3.494
 7871SOL     OW24511   4.389   0.890   0.598
 7871SOL    HW124512   4.321   0.832   0.553
 7871SOL    HW224513   4.481   0.858   0.576
 7872SOL     OW24514   6.884   4.558   4.101
 7872SOL    HW124515   6.866   4.484   4.037
 7872SOL    HW224516   6.864   4.528   4.194
 7873SOL     OW24517   4.587   2.459   6.803
 7873SOL    HW124518   4.676   2.498   6.778
 7873SOL    HW224519   4.531   2.530   6.845
 7874SOL     OW24520   6.483   2.378   0.109
 7874SOL    HW124521   6.411   2.441   0.080
 7874SOL    HW224522   6.446   2.319   0.181
 7875SOL     OW24523   6.961   4.893   7.005
 7875SOL    HW124524   0.035   4.883   0.008
 7875SOL    HW224525   6.948   4.862   6.911
 7876SOL     OW24526   1.188   6.584   2.967
 7876SOL    HW124527   1.221   6.607   3.058
 7876SOL    HW224528   1.089   6.568   2.971
 7877SOL     OW24529   1.058   3.080   1.794
 7877SOL    HW124530   1.096   3.001   1.842
 7877SOL    HW224531   1.089   3.079   1.699
 7878SOL     OW24532   3.783   0.672   2.359
 7878SOL    HW124533   3.749   0.762   2.332
 7878SOL    HW224534   3.714   0.626   2.415
 7879SOL     OW24535   2.587   5.478   1.796
 7879SOL    HW124536   2.632   5.393   1.770
 7879SOL    HW224537   2.557   5.473   1.892
 7880SOL     OW24538   1.218   4.652   2.244
 7880SOL    HW124539   1.270   4.685   2.165
 7880SOL    HW224540   1.120   4.655   2.223
 7881SOL     OW24541   5.035   2.798   3.186
 7881SOL    HW124542   5.021   2.699   3.183
 7881SOL    HW224543   5.121   2.818   3.234
 7882SOL     OW24544   0.155   2.379   6.996
 7882SOL    HW124545   0.102   2.301   0.006
 7882SOL    HW224546   0.106   2.425   6.922
 7883SOL     OW24547   0.221   6.822   4.565
 7883SOL    HW124548   0.203   6.845   4.469
 7883SOL    HW224549   0.223   6.905   4.620
 7884SOL     OW24550   1.624   2.918   3.883
 7884SOL    HW124551   1.650   2.998   3.937
 7884SOL    HW224552   1.533   2.887   3.910
 7885SOL     OW24553   6.885   5.728   0.001
 7885SOL    HW124554   6.984   5.728   7.006
 7885SOL    HW224555   6.846   5.641   6.994
 7886SOL     OW24556   4.915   4.121   0.360
 7886SOL    HW124557   4.928   4.164   0.271
 7886SOL    HW224558   4.817   4.116   0.380
 7887SOL     OW24559   4.427   1.834   6.483
 7887SOL    HW124560   4.525   1.819   6.470
 7887SOL    HW224561   4.408   1.854   6.579
 7888SOL     OW24562   4.158   5.588   3.960
 7888SOL    HW124563   4.162   5.647   4.041
 7888SOL    HW224564   4.220   5.511   3.973
 7889SOL     OW24565   6.410   4.645   3.802
 7889SOL    HW124566   6.483   4.691   3.751
 7889SOL    HW224567   6.430   4.650   3.900
 7890SOL     OW24568   2.088   3.779   2.694
 7890SOL    HW124569   2.007   3.830   2.722
 7890SOL    HW224570   2.113   3.804   2.601
 7891SOL     OW24571   0.377   4.256   2.878
 7891SOL    HW124572   0.338   4.172   2.915
 7891SOL    HW224573   0.444   4.233   2.807
 7892SOL     OW24574   2.350   2.322   4.819
 7892SOL    HW124575   2.410   2.398   4.793
 7892SOL    HW224576   2.329   2.267   4.738
 7893SOL     OW24577   5.063   6.474   1.130
 7893SOL    HW124578   5.087   6.379   1.115
 7893SOL    HW224579   5.086   6.500   1.224
 7894SOL     OW24580   2.892   0.075   1.334
 7894SOL    HW124581   2.971   0.131   1.307
 7894SOL    HW224582   2.827   0.070   1.258
 7895SOL     OW24583   0.718   1.555   4.224
 7895SOL    HW124584   0.812   1.524   4.207
 7895SOL    HW224585   0.653   1.490   4.184
 7896SOL     OW24586   3.735   2.662   6.281
 7896SOL    HW124587   3.643   2.634   6.255
 7896SOL    HW224588   3.743   2.761   6.277
 7897SOL     OW24589   2.745   3.647   0.423
 7897SOL    HW124590   2.717   3.639   0.327
 7897SOL    HW224591   2.834   3.603   0.435
 7898SOL     OW24592   5.103   1.324   4.252
 7898SOL    HW124593   5.041   1.282   4.186
 7898SOL    HW224594   5.059   1.326   4.342
 7899SOL     OW24595   4.698   0.823   1.440
 7899SOL    HW124596   4.656   0.794   1.353
 7899SOL    HW224597   4.627   0.856   1.502
 7900SOL     OW24598   0.310   6.009   1.346
 7900SOL    HW124599   0.302   6.033   1.443
 7900SOL    HW224600   0.399   5.967   1.329
 7901SOL     OW24601   5.857   5.050   1.232
 7901SOL    HW124602   5.830   5.038   1.136
 7901SOL    HW224603   5.797   4.996   1.291
 7902SOL     OW24604   4.818   4.848   6.241
 7902SOL    HW124605   4.732   4.875   6.199
 7902SOL    HW224606   4.814   4.751   6.267
 7903SOL     OW24607   0.532   2.800   1.909
 7903SOL    HW124608   0.542   2.710   1.951
 7903SOL    HW224609   0.477   2.792   1.825
 7904SOL     OW24610   5.695   2.389   3.237
 7904SOL    HW124611   5.645   2.439   3.307
 7904SOL    HW224612   5.664   2.295   3.234
 7905SOL     OW24613   2.540   1.538   1.997
 7905SOL    HW124614   2.619   1.554   2.056
 7905SOL    HW224615   2.462   1.589   2.032
 7906SOL     OW24616   1.395   4.751   6.964
 7906SOL    HW124617   1.488   4.727   6.935
 7906SOL    HW224618   1.359   4.823   6.905
 7907SOL     OW24619   0.671   2.605   2.773
 7907SOL    HW124620   0.703   2.675   2.837
 7907SOL    HW224621   0.587   2.635   2.730
 7908SOL     OW24622   0.593   1.603   3.092
 7908SOL    HW124623   0.665   1.595   3.022
 7908SOL    HW224624   0.551   1.693   3.086
 7909SOL     OW24625   4.315   6.257   5.155
 7909SOL    HW124626   4.329   6.356   5.156
 7909SOL    HW224627   4.401   6.210   5.176
 7910SOL     OW24628   6.171   3.123   6.087
 7910SOL    HW124629   6.215   3.034   6.097
 7910SOL    HW224630   6.240   3.192   6.065
 7911SOL     OW24631   6.827   5.996   6.088
 7911SOL    HW124632   6.809   5.899   6.069
 7911SOL    HW224633   6.814   6.050   6.005
 7912SOL     OW24634   0.020   5.492   4.742
 7912SOL    HW124635   0.100   5.508   4.684
 7912SOL    HW224636   7.013   5.397   4.735
 7913SOL     OW24637   1.806   6.225   6.510
 7913SOL    HW124638   1.902   6.256   6.515
 7913SOL    HW224639   1.752   6.292   6.459
 7914SOL     OW24640   5.825   4.670   0.652
 7914SOL    HW124641   5.840   4.709   0.742
 7914SOL    HW224642   5.730   4.684   0.624
 7915SOL     OW24643   3.245   1.295   2.993
 7915SOL    HW124644   3.184   1.349   3.050
 7915SOL    HW224645   3.222   1.198   3.001
 7916SOL     OW24646   4.322   3.712   5.310
 7916SOL    HW124647   4.360   3.684   5.398
 7916SOL    HW224648   4.318   3.812   5.306
 7917SOL     OW24649   3.729   4.073   3.783
 7917SOL    HW124650   3.719   3.977   3.810
 7917SOL    HW224651   3.655   4.097   3.720
 7918SOL     OW24652   5.638   2.376   2.195
 7918SOL    HW124653   5.657   2.326   2.280
 7918SOL    HW224654   5.722   2.384   2.142
 7919SOL     OW24655   5.350   3.991   2.553
 7919SOL    HW124656   5.368   4.089   2.565
 7919SOL    HW224657   5.349   3.969   2.455
 7920SOL     OW24658   6.910   6.337   1.022
 7920SOL    HW124659   6.906   6.324   0.923
 7920SOL    HW224660   6.957   6.259   1.064
 7921SOL     OW24661   3.553   4.878   2.330
 7921SOL    HW124662   3.492   4.896   2.407
 7921SOL    HW224663   3.505   4.895   2.244
 7922SOL     OW24664   1.073   4.164   4.702
 7922SOL    HW124665   1.169   4.169   4.674
 7922SOL    HW224666   1.024   4.244   4.666
 7923SOL     OW24667   1.408   2.622   3.191
 7923SOL    HW124668   1.503   2.593   3.200
 7923SOL    HW224669   1.365   2.627   3.281
 7924SOL     OW24670   2.795   1.085   3.651
 7924SOL    HW124671   2.755   1.114   3.739
 7924SOL    HW224672   2.733   1.112   3.577
 7925SOL     OW24673   1.418   1.072   0.396
 7925SOL    HW124674   1.393   1.067   0.492
 7925SOL    HW224675   1.392   1.161   0.358
 7926SOL     OW24676   3.290   0.675   1.698
 7926SOL    HW124677   3.232   0.705   1.622
 7926SOL    HW224678   3.370   0.734   1.705
 7927SOL     OW24679   4.389   5.353   4.711
 7927SOL    HW124680   4.336   5.409   4.647
 7927SOL    HW224681   4.327   5.310   4.777
 7928SOL     OW24682   0.217   4.029   0.528
 7928SOL    HW124683   0.149   3.966   0.493
 7928SOL    HW224684   0.203   4.119   0.487
 7929SOL     OW24685   3.328   4.357   5.376
 7929SOL    HW124686   3.261   4.400   5.436
 7929SOL    HW224687   3.420   4.376   5.410
 7930SOL     OW24688   3.832   0.117   2.151
 7930SOL    HW124689   3.809   0.118   2.054
 7930SOL    HW224690   3.749   0.110   2.205
 7931SOL     OW24691   3.058   3.172   5.558
 7931SOL    HW124692   3.105   3.185   5.471
 7931SOL    HW224693   2.995   3.094   5.550
 7932SOL     OW24694   3.057   1.127   0.694
 7932SOL    HW124695   2.962   1.153   0.713
 7932SOL    HW224696   3.118   1.200   0.726
 7933SOL     OW24697   2.135   1.666   6.012
 7933SOL    HW124698   2.116   1.568   6.001
 7933SOL    HW224699   2.048   1.715   6.026
 7934SOL     OW24700   4.454   2.095   5.979
 7934SOL    HW124701   4.528   2.033   5.957
 7934SOL    HW224702   4.455   2.174   5.917
 7935SOL     OW24703   4.615   5.727   2.065
 7935SOL    HW124704   4.623   5.687   1.974
 7935SOL    HW224705   4.526   5.771   2.076
 7936SOL     OW24706   4.086   6.125   1.793
 7936SOL    HW124707   4.182   6.124   1.819
 7936SOL    HW224708   4.069   6.055   1.724
 7937SOL     OW24709   5.767   1.843   6.349
 7937SOL    HW124710   5.745   1.799   6.262
 7937SOL    HW224711   5.758   1.942   6.339
 7938SOL     OW24712   6.602   4.667   4.258
 7938SOL    HW124713   6.562   4.755   4.286
 7938SOL    HW224714   6.690   4.683   4.215
 7939SOL     OW24715   6.785   6.240   3.429
 7939SOL    HW124716   6.748   6.286   3.510
 7939SOL    HW224717   6.854   6.173   3.457
 7940SOL     OW24718   1.852   6.272   0.845
 7940SOL    HW124719   1.886   6.363   0.825
 7940SOL    HW224720   1.921   6.220   0.896
 7941SOL     OW24721   0.895   0.541   0.736
 7941SOL    HW124722   0.954   0.605   0.688
 7941SOL    HW224723   0.850   0.587   0.813
 7942SOL     OW24724   1.094   6.896   1.634
 7942SOL    HW124725   1.152   6.969   1.600
 7942SOL    HW224726   1.077   6.909   1.732
 7943SOL     OW24727   6.108   1.801   6.641
 7943SOL    HW124728   6.111   1.900   6.635
 7943SOL    HW224729   6.028   1.766   6.594
 7944SOL     OW24730   6.909   4.435   1.984
 7944SOL    HW124731   6.838   4.471   2.044
 7944SOL    HW224732   6.981   4.393   2.039
 7945SOL     OW24733   5.499   6.704   0.928
 7945SOL    HW124734   5.508   6.665   0.837
 7945SOL    HW224735   5.409   6.681   0.966
 7946SOL     OW24736   1.991   1.601   5.560
 7946SOL    HW124737   1.963   1.547   5.480
 7946SOL    HW224738   1.923   1.672   5.578
 7947SOL     OW24739   4.422   5.454   6.633
 7947SOL    HW124740   4.330   5.492   6.627
 7947SOL    HW224741   4.422   5.360   6.600
 7948SOL     OW24742   0.932   5.148   5.099
 7948SOL    HW124743   0.926   5.054   5.132
 7948SOL    HW224744   1.021   5.186   5.122
 7949SOL     OW24745   6.900   3.035   4.436
 7949SOL    HW124746   6.885   3.131   4.459
 7949SOL    HW224747   6.911   2.982   4.520
 7950SOL     OW24748   2.624   5.822   3.774
 7950SOL    HW124749   2.617   5.873   3.688
 7950SOL    HW224750   2.710   5.772   3.777
 7951SOL     OW24751   2.342   3.475   0.458
 7951SOL    HW124752   2.425   3.477   0.403
 7951SOL    HW224753   2.331   3.563   0.504
 7952SOL     OW24754   5.745   4.122   0.722
 7952SOL    HW124755   5.832   4.169   0.717
 7952SOL    HW224756   5.760   4.023   0.719
 7953SOL     OW24757   1.954   4.053   1.277
 7953SOL    HW124758   2.033   4.014   1.324
 7953SOL    HW224759   1.935   4.144   1.313
 7954SOL     OW24760   6.040   4.906   4.054
 7954SOL    HW124761   6.110   4.864   3.997
 7954SOL    HW224762   5.979   4.961   3.997
 7955SOL     OW24763   1.747   6.676   6.429
 7955SOL    HW124764   1.676   6.742   6.405
 7955SOL    HW224765   1.706   6.587   6.444
 7956SOL     OW24766   5.445   5.723   3.016
 7956SOL    HW124767   5.443   5.811   3.065
 7956SOL    HW224768   5.372   5.722   2.948
 7957SOL     OW24769   1.653   2.771   0.680
 7957SOL    HW124770   1.734   2.754   0.623
 7957SOL    HW224771   1.591   2.834   0.633
 7958SOL     OW24772   2.055   5.443   3.580
 7958SOL    HW124773   2.063   5.542   3.573
 7958SOL    HW224774   2.011   5.418   3.666
 7959SOL     OW24775   4.675   5.301   1.928
 7959SOL    HW124776   4.687   5.282   2.026
 7959SOL    HW224777   4.687   5.216   1.877
 7960SOL     OW24778   1.711   2.243   1.358
 7960SOL    HW124779   1.641   2.288   1.303
 7960SOL    HW224780   1.774   2.193   1.298
 7961SOL     OW24781   1.256   6.188   0.307
 7961SOL    HW124782   1.253   6.153   0.213
 7961SOL    HW224783   1.347   6.175   0.345
 7962SOL     OW24784   1.766   6.953   2.693
 7962SOL    HW124785   1.730   6.948   2.600
 7962SOL    HW224786   1.767   6.862   2.734
 7963SOL     OW24787   0.042   6.066   6.200
 7963SOL    HW124788   6.974   6.027   6.179
 7963SOL    HW224789   0.101   6.060   6.120
 7964SOL     OW24790   5.918   5.608   3.108
 7964SOL    HW124791   5.933   5.574   3.015
 7964SOL    HW224792   5.941   5.537   3.174
 7965SOL     OW24793   3.920   1.591   0.707
 7965SOL    HW124794   3.923   1.685   0.673
 7965SOL    HW224795   3.998   1.540   0.672
 7966SOL     OW24796   0.005   1.192   4.386
 7966SOL    HW124797   0.041   1.157   4.299
 7966SOL    HW224798   0.082   1.222   4.443
 7967SOL     OW24799   2.474   0.906   3.782
 7967SOL    HW124800   2.450   0.964   3.704
 7967SOL    HW224801   2.476   0.963   3.865
 7968SOL     OW24802   2.044   1.194   0.666
 7968SOL    HW124803   1.997   1.144   0.593
 7968SOL    HW224804   2.132   1.151   0.685
 7969SOL     OW24805   3.634   1.656   3.611
 7969SOL    HW124806   3.672   1.643   3.702
 7969SOL    HW224807   3.706   1.640   3.542
 7970SOL     OW24808   0.507   4.339   3.098
 7970SOL    HW124809   0.492   4.437   3.081
 7970SOL    HW224810   0.459   4.286   3.028
 7971SOL     OW24811   3.179   2.183   2.612
 7971SOL    HW124812   3.181   2.275   2.574
 7971SOL    HW224813   3.272   2.152   2.631
 7972SOL     OW24814   5.505   6.023   1.504
 7972SOL    HW124815   5.587   6.076   1.479
 7972SOL    HW224816   5.500   6.015   1.603
 7973SOL     OW24817   5.404   1.805   2.908
 7973SOL    HW124818   5.377   1.887   2.958
 7973SOL    HW224819   5.337   1.733   2.924
 7974SOL     OW24820   4.685   6.150   4.683
 7974SOL    HW124821   4.634   6.079   4.635
 7974SOL    HW224822   4.631   6.185   4.760
 7975SOL     OW24823   1.920   1.478   2.262
 7975SOL    HW124824   1.856   1.535   2.211
 7975SOL    HW224825   2.012   1.515   2.253
 7976SOL     OW24826   0.612   0.120   6.360
 7976SOL    HW124827   0.659   0.033   6.346
 7976SOL    HW224828   0.603   0.168   6.272
 7977SOL     OW24829   4.840   5.843   1.114
 7977SOL    HW124830   4.830   5.942   1.107
 7977SOL    HW224831   4.824   5.801   1.025
 7978SOL     OW24832   2.959   1.870   5.854
 7978SOL    HW124833   2.986   1.964   5.875
 7978SOL    HW224834   2.931   1.823   5.937
 7979SOL     OW24835   4.992   5.513   4.409
 7979SOL    HW124836   4.907   5.538   4.456
 7979SOL    HW224837   4.986   5.542   4.313
 7980SOL     OW24838   2.962   0.755   1.987
 7980SOL    HW124839   2.870   0.779   2.015
 7980SOL    HW224840   2.999   0.685   2.048
 7981SOL     OW24841   0.693   6.524   2.400
 7981SOL    HW124842   0.601   6.564   2.395
 7981SOL    HW224843   0.689   6.429   2.370
 7982SOL     OW24844   0.538   3.371   1.155
 7982SOL    HW124845   0.590   3.318   1.088
 7982SOL    HW224846   0.601   3.422   1.213
 7983SOL     OW24847   5.514   2.151   0.718
 7983SOL    HW124848   5.581   2.217   0.684
 7983SOL    HW224849   5.432   2.199   0.749
 7984SOL     OW24850   6.520   0.751   0.659
 7984SOL    HW124851   6.578   0.688   0.711
 7984SOL    HW224852   6.463   0.698   0.596
 7985SOL     OW24853   1.036   1.216   0.757
 7985SOL    HW124854   1.090   1.234   0.840
 7985SOL    HW224855   0.972   1.292   0.742
 7986SOL     OW24856   5.058   3.823   0.696
 7986SOL    HW124857   5.098   3.768   0.623
 7986SOL    HW224858   4.962   3.842   0.675
 7987SOL     OW24859   0.677   3.597   4.871
 7987SOL    HW124860   0.704   3.539   4.794
 7987SOL    HW224861   0.585   3.632   4.855
 7988SOL     OW24862   2.625   1.048   5.323
 7988SOL    HW124863   2.656   0.991   5.399
 7988SOL    HW224864   2.525   1.042   5.316
 7989SOL     OW24865   3.593   3.741   0.049
 7989SOL    HW124866   3.620   3.665   0.109
 7989SOL    HW224867   3.499   3.726   0.018
 7990SOL     OW24868   2.339   2.810   4.557
 7990SOL    HW124869   2.283   2.880   4.511
 7990SOL    HW224870   2.371   2.744   4.490
 7991SOL     OW24871   2.304   3.098   5.789
 7991SOL    HW124872   2.258   3.182   5.762
 7991SOL    HW224873   2.400   3.101   5.761
 7992SOL     OW24874   2.862   1.481   0.234
 7992SOL    HW124875   2.832   1.574   0.257
 7992SOL    HW224876   2.850   1.422   0.314
 7993SOL     OW24877   2.579   5.590   6.228
 7993SOL    HW124878   2.582   5.490   6.222
 7993SOL    HW224879   2.505   5.616   6.291
 7994SOL     OW24880   5.613   0.199   4.923
 7994SOL    HW124881   5.690   0.139   4.944
 7994SOL    HW224882   5.647   0.286   4.887
 7995SOL     OW24883   4.433   5.045   2.449
 7995SOL    HW124884   4.439   5.052   2.350
 7995SOL    HW224885   4.459   4.953   2.478
 7996SOL     OW24886   4.368   1.582   5.508
 7996SOL    HW124887   4.436   1.612   5.441
 7996SOL    HW224888   4.276   1.595   5.471
 7997SOL     OW24889   5.412   3.354   0.544
 7997SOL    HW124890   5.493   3.315   0.589
 7997SOL    HW224891   5.401   3.449   0.572
 7998SOL     OW24892   6.615   5.356   6.428
 7998SOL    HW124893   6.540   5.301   6.394
 7998SOL    HW224894   6.584   5.450   6.442
 7999SOL     OW24895   2.867   2.640   5.623
 7999SOL    HW124896   2.790   2.612   5.679
 7999SOL    HW224897   2.904   2.726   5.658
 8000SOL     OW24898   4.846   0.170   5.762
 8000SOL    HW124899   4.768   0.191   5.822
 8000SOL    HW224900   4.862   0.248   5.701
 8001SOL     OW24901   2.389   4.715   0.431
 8001SOL    HW124902   2.387   4.659   0.349
 8001SOL    HW224903   2.364   4.809   0.408
 8002SOL     OW24904   4.580   1.874   5.714
 8002SOL    HW124905   4.517   1.796   5.721
 8002SOL    HW224906   4.643   1.874   5.791
 8003SOL     OW24907   4.876   5.263   3.349
 8003SOL    HW124908   4.954   5.326   3.355
 8003SOL    HW224909   4.851   5.250   3.253
 8004SOL     OW24910   1.038   4.336   3.322
 8004SOL    HW124911   1.112   4.366   3.382
 8004SOL    HW224912   1.076   4.304   3.235
 8005SOL     OW24913   1.780   1.174   2.616
 8005SOL    HW124914   1.873   1.141   2.599
 8005SOL    HW224915   1.728   1.103   2.664
 8006SOL     OW24916   4.241   5.652   2.306
 8006SOL    HW124917   4.160   5.624   2.358
 8006SOL    HW224918   4.252   5.591   2.227
 8007SOL     OW24919   0.419   1.127   4.102
 8007SOL    HW124920   0.424   1.032   4.070
 8007SOL    HW224921   0.344   1.174   4.055
 8008SOL     OW24922   5.850   5.127   1.560
 8008SOL    HW124923   5.809   5.056   1.502
 8008SOL    HW224924   5.793   5.209   1.558
 8009SOL     OW24925   6.641   6.541   2.856
 8009SOL    HW124926   6.562   6.479   2.864
 8009SOL    HW224927   6.710   6.500   2.796
 8010SOL     OW24928   2.056   2.127   6.944
 8010SOL    HW124929   2.149   2.108   6.974
 8010SOL    HW224930   2.039   2.226   6.948
 8011SOL     OW24931   2.267   2.911   7.013
 8011SOL    HW124932   2.364   2.933   7.015
 8011SOL    HW224933   2.253   2.818   0.026
 8012SOL     OW24934   2.294   6.340   3.363
 8012SOL    HW124935   2.274   6.435   3.386
 8012SOL    HW224936   2.210   6.287   3.361
 8013SOL     OW24937   6.544   5.249   4.921
 8013SOL    HW124938   6.479   5.183   4.958
 8013SOL    HW224939   6.505   5.295   4.842
 8014SOL     OW24940   2.883   0.383   6.564
 8014SOL    HW124941   2.920   0.476   6.568
 8014SOL    HW224942   2.856   0.363   6.470
 8015SOL     OW24943   1.122   1.875   0.436
 8015SOL    HW124944   1.054   1.934   0.392
 8015SOL    HW224945   1.119   1.887   0.535
 8016SOL     OW24946   4.068   5.891   2.021
 8016SOL    HW124947   4.033   5.965   1.964
 8016SOL    HW224948   4.023   5.893   2.111
 8017SOL     OW24949   6.368   3.470   5.636
 8017SOL    HW124950   6.367   3.458   5.736
 8017SOL    HW224951   6.462   3.459   5.603
 8018SOL     OW24952   4.773   2.977   3.759
 8018SOL    HW124953   4.804   2.886   3.730
 8018SOL    HW224954   4.806   3.046   3.695
 8019SOL     OW24955   3.093   5.334   1.048
 8019SOL    HW124956   3.127   5.404   1.112
 8019SOL    HW224957   3.011   5.291   1.087
 8020SOL     OW24958   5.606   6.855   6.540
 8020SOL    HW124959   5.666   6.809   6.474
 8020SOL    HW224960   5.661   6.889   6.616
 8021SOL     OW24961   6.405   1.205   1.477
 8021SOL    HW124962   6.368   1.297   1.492
 8021SOL    HW224963   6.389   1.149   1.559
 8022SOL     OW24964   5.319   5.018   3.886
 8022SOL    HW124965   5.364   5.081   3.822
 8022SOL    HW224966   5.240   4.976   3.841
 8023SOL     OW24967   0.239   5.605   3.619
 8023SOL    HW124968   0.252   5.620   3.717
 8023SOL    HW224969   0.153   5.645   3.589
 8024SOL     OW24970   4.363   5.378   4.002
 8024SOL    HW124971   4.293   5.306   4.006
 8024SOL    HW224972   4.428   5.365   4.077
 8025SOL     OW24973   3.037   5.948   0.730
 8025SOL    HW124974   3.018   5.879   0.660
 8025SOL    HW224975   3.105   6.013   0.696
 8026SOL     OW24976   2.226   2.105   6.673
 8026SOL    HW124977   2.254   2.015   6.641
 8026SOL    HW224978   2.301   2.148   6.724
 8027SOL     OW24979   4.557   2.948   5.308
 8027SOL    HW124980   4.463   2.927   5.335
 8027SOL    HW224981   4.597   3.014   5.371
 8028SOL     OW24982   6.383   5.542   0.961
 8028SOL    HW124983   6.481   5.556   0.978
 8028SOL    HW224984   6.363   5.444   0.962
 8029SOL     OW24985   3.328   4.256   5.861
 8029SOL    HW124986   3.354   4.329   5.924
 8029SOL    HW224987   3.407   4.198   5.843
 8030SOL     OW24988   0.007   3.448   1.199
 8030SOL    HW124989   0.056   3.362   1.192
 8030SOL    HW224990   7.018   3.488   1.108
 8031SOL     OW24991   4.301   6.328   0.723
 8031SOL    HW124992   4.276   6.248   0.669
 8031SOL    HW224993   4.221   6.387   0.735
 8032SOL     OW24994   4.660   3.846   5.739
 8032SOL    HW124995   4.590   3.809   5.800
 8032SOL    HW224996   4.723   3.773   5.712
 8033SOL     OW24997   6.507   1.192   1.824
 8033SOL    HW124998   6.441   1.130   1.783
 8033SOL    HW224999   6.459   1.265   1.873
 8034SOL     OW25000   6.472   1.867   5.552
 8034SOL    HW125001   6.389   1.879   5.606
 8034SOL    HW225002   6.550   1.904   5.602
 8035SOL     OW25003   5.489   6.077   5.917
 8035SOL    HW125004   5.499   6.171   5.949
 8035SOL    HW225005   5.557   6.019   5.961
 8036SOL     OW25006   1.619   4.585   1.376
 8036SOL    HW125007   1.648   4.599   1.471
 8036SOL    HW225008   1.552   4.511   1.373
 8037SOL     OW25009   2.443   2.968   1.705
 8037SOL    HW125010   2.417   2.918   1.787
 8037SOL    HW225011   2.385   3.049   1.696
 8038SOL     OW25012   5.771   1.366   4.099
 8038SOL    HW125013   5.723   1.450   4.075
 8038SOL    HW225014   5.706   1.302   4.141
 8039SOL     OW25015   2.106   5.926   3.399
 8039SOL    HW125016   2.054   5.844   3.422
 8039SOL    HW225017   2.178   5.940   3.467
 8040SOL     OW25018   5.884   6.270   6.588
 8040SOL    HW125019   5.860   6.176   6.612
 8040SOL    HW225020   5.937   6.311   6.662
 8041SOL     OW25021   3.443   2.837   1.130
 8041SOL    HW125022   3.413   2.741   1.125
 8041SOL    HW225023   3.457   2.862   1.226
 8042SOL     OW25024   1.850   5.163   6.616
 8042SOL    HW125025   1.774   5.110   6.654
 8042SOL    HW225026   1.930   5.104   6.604
 8043SOL     OW25027   3.202   0.485   1.099
 8043SOL    HW125028   3.290   0.529   1.084
 8043SOL    HW225029   3.216   0.388   1.119
 8044SOL     OW25030   3.141   3.003   1.960
 8044SOL    HW125031   3.175   2.983   2.052
 8044SOL    HW225032   3.059   3.060   1.966
 8045SOL     OW25033   6.268   2.850   3.782
 8045SOL    HW125034   6.336   2.878   3.850
 8045SOL    HW225035   6.216   2.929   3.752
 8046SOL     OW25036   6.452   5.489   5.143
 8046SOL    HW125037   6.502   5.426   5.083
 8046SOL    HW225038   6.399   5.437   5.210
 8047SOL     OW25039   2.646   0.190   4.447
 8047SOL    HW125040   2.629   0.197   4.545
 8047SOL    HW225041   2.680   0.098   4.426
 8048SOL     OW25042   5.406   0.152   5.547
 8048SOL    HW125043   5.317   0.197   5.544
 8048SOL    HW225044   5.394   0.053   5.542
 8049SOL     OW25045   2.158   0.085   6.904
 8049SOL    HW125046   2.249   0.047   6.915
 8049SOL    HW225047   2.091   0.024   6.946
 8050SOL     OW25048   0.348   3.215   2.071
 8050SOL    HW125049   0.412   3.250   2.002
 8050SOL    HW225050   0.391   3.220   2.161
 8051SOL     OW25051   2.558   1.975   4.164
 8051SOL    HW125052   2.656   1.956   4.158
 8051SOL    HW225053   2.519   1.977   4.072
 8052SOL     OW25054   4.307   1.611   2.808
 8052SOL    HW125055   4.364   1.531   2.790
 8052SOL    HW225056   4.365   1.690   2.824
 8053SOL     OW25057   4.456   3.562   1.683
 8053SOL    HW125058   4.485   3.467   1.690
 8053SOL    HW225059   4.359   3.567   1.659
 8054SOL     OW25060   4.879   6.018   4.514
 8054SOL    HW125061   4.827   6.090   4.559
 8054SOL    HW225062   4.817   5.954   4.469
 8055SOL     OW25063   1.636   0.004   5.273
 8055SOL    HW125064   1.588   7.013   5.186
 8055SOL    HW225065   1.726   6.985   5.268
 8056SOL     OW25066   4.492   0.998   2.557
 8056SOL    HW125067   4.588   1.006   2.532
 8056SOL    HW225068   4.450   0.925   2.504
 8057SOL     OW25069   3.620   6.812   3.901
 8057SOL    HW125070   3.712   6.773   3.895
 8057SOL    HW225071   3.590   6.840   3.809
 8058SOL     OW25072   1.820   0.319   3.071
 8058SOL    HW125073   1.812   0.229   3.113
 8058SOL    HW225074   1.914   0.333   3.039
 8059SOL     OW25075   1.619   1.222   3.914
 8059SOL    HW125076   1.614   1.321   3.909
 8059SOL    HW225077   1.699   1.189   3.863
 8060SOL     OW25078   0.530   2.699   5.208
 8060SOL    HW125079   0.612   2.694   5.264
 8060SOL    HW225080   0.449   2.683   5.265
 8061SOL     OW25081   5.691   6.716   3.439
 8061SOL    HW125082   5.690   6.711   3.539
 8061SOL    HW225083   5.636   6.642   3.401
 8062SOL     OW25084   1.640   2.341   1.618
 8062SOL    HW125085   1.645   2.313   1.522
 8062SOL    HW225086   1.544   2.359   1.642
 8063SOL     OW25087   2.460   2.763   5.710
 8063SOL    HW125088   2.378   2.789   5.659
 8063SOL    HW225089   2.473   2.664   5.705
 8064SOL     OW25090   5.981   2.350   5.350
 8064SOL    HW125091   5.998   2.449   5.350
 8064SOL    HW225092   6.050   2.304   5.294
 8065SOL     OW25093   4.481   0.364   6.433
 8065SOL    HW125094   4.472   0.459   6.404
 8065SOL    HW225095   4.518   0.360   6.526
 8066SOL     OW25096   1.616   0.388   1.690
 8066SOL    HW125097   1.549   0.404   1.762
 8066SOL    HW225098   1.702   0.434   1.714
 8067SOL     OW25099   4.783   2.158   2.691
 8067SOL    HW125100   4.862   2.201   2.648
 8067SOL    HW225101   4.722   2.121   2.621
 8068SOL     OW25102   6.978   4.248   4.411
 8068SOL    HW125103   6.986   4.191   4.493
 8068SOL    HW225104   0.007   4.333   4.425
 8069SOL     OW25105   0.392   6.120   2.272
 8069SOL    HW125106   0.475   6.163   2.310
 8069SOL    HW225107   0.328   6.191   2.244
 8070SOL     OW25108   3.603   0.579   2.527
 8070SOL    HW125109   3.546   0.622   2.597
 8070SOL    HW225110   3.603   0.480   2.539
 8071SOL     OW25111   5.411   4.591   0.171
 8071SOL    HW125112   5.470   4.526   0.125
 8071SOL    HW225113   5.465   4.671   0.199
 8072SOL     OW25114   3.937   0.397   3.624
 8072SOL    HW125115   3.960   0.488   3.659
 8072SOL    HW225116   3.979   0.385   3.534
 8073SOL     OW25117   4.934   0.057   6.187
 8073SOL    HW125118   4.935   0.020   6.280
 8073SOL    HW225119   5.027   0.072   6.156
 8074SOL     OW25120   3.155   4.096   0.056
 8074SOL    HW125121   3.182   4.041   0.135
 8074SOL    HW225122   3.069   4.061   0.019
 8075SOL     OW25123   6.331   1.685   4.410
 8075SOL    HW125124   6.325   1.701   4.311
 8075SOL    HW225125   6.423   1.654   4.433
 8076SOL     OW25126   5.106   3.166   6.604
 8076SOL    HW125127   5.078   3.148   6.698
 8076SOL    HW225128   5.175   3.098   6.576
 8077SOL     OW25129   1.089   0.785   7.020
 8077SOL    HW125130   1.103   0.822   0.089
 8077SOL    HW225131   1.105   0.686   7.021
 8078SOL     OW25132   5.817   3.591   1.515
 8078SOL    HW125133   5.786   3.685   1.505
 8078SOL    HW225134   5.754   3.530   1.466
 8079SOL     OW25135   1.650   2.492   0.791
 8079SOL    HW125136   1.660   2.578   0.740
 8079SOL    HW225137   1.574   2.501   0.856
 8080SOL     OW25138   4.113   4.874   0.223
 8080SOL    HW125139   4.085   4.934   0.298
 8080SOL    HW225140   4.156   4.929   0.152
 8081SOL     OW25141   5.742   2.307   4.089
 8081SOL    HW125142   5.754   2.406   4.099
 8081SOL    HW225143   5.650   2.286   4.057
 8082SOL     OW25144   6.748   3.371   4.858
 8082SOL    HW125145   6.752   3.293   4.920
 8082SOL    HW225146   6.653   3.398   4.845
 8083SOL     OW25147   5.750   1.874   4.798
 8083SOL    HW125148   5.788   1.937   4.867
 8083SOL    HW225149   5.764   1.913   4.707
 8084SOL     OW25150   6.130   0.200   0.200
 8084SOL    HW125151   6.141   0.297   0.221
 8084SOL    HW225152   6.190   0.146   0.259
 8085SOL     OW25153   5.115   2.160   1.054
 8085SOL    HW125154   5.104   2.061   1.061
 8085SOL    HW225155   5.082   2.204   1.137
 8086SOL     OW25156   2.721   5.063   6.298
 8086SOL    HW125157   2.627   5.076   6.328
 8086SOL    HW225158   2.765   4.992   6.352
 8087SOL     OW25159   2.229   3.794   0.593
 8087SOL    HW125160   2.268   3.836   0.511
 8087SOL    HW225161   2.147   3.742   0.567
 8088SOL     OW25162   4.529   0.237   3.214
 8088SOL    HW125163   4.444   0.243   3.163
 8088SOL    HW225164   4.509   0.213   3.309
 8089SOL     OW25165   6.750   2.837   0.458
 8089SOL    HW125166   6.686   2.910   0.434
 8089SOL    HW225167   6.843   2.870   0.447
 8090SOL     OW25168   4.683   1.401   5.176
 8090SOL    HW125169   4.741   1.320   5.185
 8090SOL    HW225170   4.587   1.372   5.173
 8091SOL     OW25171   1.613   3.697   5.528
 8091SOL    HW125172   1.647   3.787   5.555
 8091SOL    HW225173   1.579   3.648   5.608
 8092SOL     OW25174   6.427   1.968   4.248
 8092SOL    HW125175   6.393   1.910   4.173
 8092SOL    HW225176   6.513   1.930   4.283
 8093SOL     OW25177   5.880   5.422   0.934
 8093SOL    HW125178   5.797   5.473   0.960
 8093SOL    HW225179   5.925   5.387   1.016
 8094SOL     OW25180   0.467   3.231   3.944
 8094SOL    HW125181   0.477   3.321   3.988
 8094SOL    HW225182   0.475   3.242   3.845
 8095SOL     OW25183   6.229   3.008   5.320
 8095SOL    HW125184   6.261   3.072   5.251
 8095SOL    HW225185   6.259   2.915   5.296
 8096SOL     OW25186   4.457   0.512   0.461
 8096SOL    HW125187   4.438   0.532   0.365
 8096SOL    HW225188   4.378   0.536   0.517
 8097SOL     OW25189   4.681   1.999   3.828
 8097SOL    HW125190   4.608   2.050   3.781
 8097SOL    HW225191   4.641   1.923   3.878
 8098SOL     OW25192   2.118   2.314   4.017
 8098SOL    HW125193   2.058   2.320   4.097
 8098SOL    HW225194   2.167   2.400   4.005
 8099SOL     OW25195   3.812   6.688   4.155
 8099SOL    HW125196   3.802   6.640   4.242
 8099SOL    HW225197   3.832   6.623   4.082
 8100SOL     OW25198   6.631   6.251   1.615
 8100SOL    HW125199   6.615   6.314   1.692
 8100SOL    HW225200   6.546   6.201   1.594
 8101SOL     OW25201   0.984   4.959   1.992
 8101SOL    HW125202   0.904   5.016   1.975
 8101SOL    HW225203   0.988   4.886   1.924
 8102SOL     OW25204   6.917   6.993   5.195
 8102SOL    HW125205   7.014   7.001   5.215
 8102SOL    HW225206   6.870   6.953   5.274
 8103SOL     OW25207   2.640   2.295   2.477
 8103SOL    HW125208   2.718   2.308   2.417
 8103SOL    HW225209   2.651   2.210   2.530
 8104SOL     OW25210   2.494   6.902   5.817
 8104SOL    HW125211   2.474   6.834   5.887
 8104SOL    HW225212   2.580   6.879   5.772
 8105SOL     OW25213   2.233   2.144   2.967
 8105SOL    HW125214   2.169   2.142   3.043
 8105SOL    HW225215   2.270   2.236   2.957
 8106SOL     OW25216   0.429   3.742   5.702
 8106SOL    HW125217   0.524   3.722   5.727
 8106SOL    HW225218   0.369   3.720   5.779
 8107SOL     OW25219   1.189   5.077   7.014
 8107SOL    HW125220   1.250   5.071   6.934
 8107SOL    HW225221   1.181   4.986   0.033
 8108SOL     OW25222   2.196   2.679   6.385
 8108SOL    HW125223   2.205   2.600   6.325
 8108SOL    HW225224   2.120   2.736   6.354
 8109SOL     OW25225   0.716   5.548   5.359
 8109SOL    HW125226   0.628   5.560   5.312
 8109SOL    HW225227   0.753   5.638   5.383
 8110SOL     OW25228   1.246   5.207   0.338
 8110SOL    HW125229   1.195   5.121   0.345
 8110SOL    HW225230   1.201   5.267   0.272
 8111SOL     OW25231   3.227   6.300   4.056
 8111SOL    HW125232   3.266   6.384   4.094
 8111SOL    HW225233   3.219   6.231   4.128
 8112SOL     OW25234   3.733   1.293   4.102
 8112SOL    HW125235   3.677   1.212   4.112
 8112SOL    HW225236   3.830   1.269   4.114
 8113SOL     OW25237   2.782   2.391   5.809
 8113SOL    HW125238   2.724   2.332   5.752
 8113SOL    HW225239   2.878   2.372   5.789
 8114SOL     OW25240   3.266   3.873   1.053
 8114SOL    HW125241   3.324   3.955   1.055
 8114SOL    HW225242   3.237   3.850   1.146
 8115SOL     OW25243   4.204   2.895   1.247
 8115SOL    HW125244   4.300   2.890   1.277
 8115SOL    HW225245   4.201   2.916   1.150
 8116SOL     OW25246   5.653   1.618   5.829
 8116SOL    HW125247   5.637   1.596   5.733
 8116SOL    HW225248   5.739   1.576   5.858
 8117SOL     OW25249   2.801   2.648   5.337
 8117SOL    HW125250   2.727   2.694   5.287
 8117SOL    HW225251   2.774   2.635   5.432
 8118SOL     OW25252   1.114   1.677   4.261
 8118SOL    HW125253   1.086   1.746   4.328
 8118SOL    HW225254   1.068   1.694   4.174
 8119SOL     OW25255   1.385   6.803   2.737
 8119SOL    HW125256   1.292   6.799   2.776
 8119SOL    HW225257   1.379   6.819   2.639
 8120SOL     OW25258   4.750   4.089   2.497
 8120SOL    HW125259   4.685   4.116   2.569
 8120SOL    HW225260   4.792   4.002   2.522
 8121SOL     OW25261   6.924   5.769   3.410
 8121SOL    HW125262   6.828   5.738   3.408
 8121SOL    HW225263   6.940   5.830   3.332
 8122SOL     OW25264   0.089   5.101   1.894
 8122SOL    HW125265   0.072   5.071   1.988
 8122SOL    HW225266   0.114   5.198   1.894
 8123SOL     OW25267   1.327   5.378   6.287
 8123SOL    HW125268   1.413   5.414   6.324
 8123SOL    HW225269   1.273   5.340   6.362
 8124SOL     OW25270   1.820   6.031   2.427
 8124SOL    HW125271   1.843   6.052   2.522
 8124SOL    HW225272   1.725   6.000   2.421
 8125SOL     OW25273   5.137   5.168   3.640
 8125SOL    HW125274   5.150   5.112   3.558
 8125SOL    HW225275   5.225   5.204   3.670
 8126SOL     OW25276   0.465   5.008   1.810
 8126SOL    HW125277   0.373   5.019   1.772
 8126SOL    HW225278   0.511   5.097   1.810
 8127SOL     OW25279   4.312   5.127   1.003
 8127SOL    HW125280   4.278   5.070   0.928
 8127SOL    HW225281   4.408   5.150   0.986
 8128SOL     OW25282   3.918   2.243   5.213
 8128SOL    HW125283   3.902   2.338   5.242
 8128SOL    HW225284   3.847   2.215   5.149
 8129SOL     OW25285   4.598   5.794   6.603
 8129SOL    HW125286   4.696   5.775   6.595
 8129SOL    HW225287   4.564   5.829   6.516
 8130SOL     OW25288   0.321   0.440   6.143
 8130SOL    HW125289   0.265   0.472   6.220
 8130SOL    HW225290   0.270   0.449   6.058
 8131SOL     OW25291   2.212   1.607   1.641
 8131SOL    HW125292   2.201   1.603   1.740
 8131SOL    HW225293   2.285   1.544   1.613
 8132SOL     OW25294   5.604   4.249   3.509
 8132SOL    HW125295   5.694   4.220   3.543
 8132SOL    HW225296   5.590   4.212   3.418
 8133SOL     OW25297   0.399   5.498   2.548
 8133SOL    HW125298   0.465   5.492   2.472
 8133SOL    HW225299   0.444   5.473   2.633
 8134SOL     OW25300   3.129   3.648   1.531
 8134SOL    HW125301   3.105   3.554   1.507
 8134SOL    HW225302   3.159   3.652   1.626
 8135SOL     OW25303   4.174   6.290   2.351
 8135SOL    HW125304   4.250   6.225   2.357
 8135SOL    HW225305   4.087   6.240   2.348
 8136SOL     OW25306   2.657   5.732   1.743
 8136SOL    HW125307   2.659   5.637   1.775
 8136SOL    HW225308   2.662   5.734   1.643
 8137SOL     OW25309   3.070   4.425   5.523
 8137SOL    HW125310   2.987   4.479   5.532
 8137SOL    HW225311   3.066   4.371   5.439
 8138SOL     OW25312   4.062   0.895   3.354
 8138SOL    HW125313   4.050   0.810   3.303
 8138SOL    HW225314   4.157   0.900   3.387
 8139SOL     OW25315   1.900   3.249   5.716
 8139SOL    HW125316   1.865   3.303   5.639
 8139SOL    HW225317   1.940   3.164   5.682
 8140SOL     OW25318   5.508   1.858   1.245
 8140SOL    HW125319   5.598   1.890   1.215
 8140SOL    HW225320   5.518   1.769   1.289
 8141SOL     OW25321   5.892   1.388   5.540
 8141SOL    HW125322   5.965   1.353   5.482
 8141SOL    HW225323   5.817   1.422   5.483
 8142SOL     OW25324   3.840   6.026   0.499
 8142SOL    HW125325   3.810   5.941   0.544
 8142SOL    HW225326   3.871   6.005   0.406
 8143SOL     OW25327   5.732   5.251   0.087
 8143SOL    HW125328   5.686   5.196   0.157
 8143SOL    HW225329   5.687   5.239   7.021
 8144SOL     OW25330   1.937   5.641   6.148
 8144SOL    HW125331   2.021   5.627   6.095
 8144SOL    HW225332   1.957   5.631   6.245
 8145SOL     OW25333   5.140   5.622   5.150
 8145SOL    HW125334   5.168   5.677   5.229
 8145SOL    HW225335   5.049   5.585   5.165
 8146SOL     OW25336   6.896   6.280   5.058
 8146SOL    HW125337   6.804   6.242   5.048
 8146SOL    HW225338   6.897   6.345   5.134
 8147SOL     OW25339   2.260   6.839   4.630
 8147SOL    HW125340   2.173   6.793   4.650
 8147SOL    HW225341   2.333   6.796   4.684
 8148SOL     OW25342   5.360   4.407   0.691
 8148SOL    HW125343   5.453   4.380   0.718
 8148SOL    HW225344   5.300   4.404   0.771
 8149SOL     OW25345   1.591   6.562   4.977
 8149SOL    HW125346   1.661   6.524   4.917
 8149SOL    HW225347   1.632   6.586   5.065
 8150SOL     OW25348   0.112   4.473   0.720
 8150SOL    HW125349   0.014   4.470   0.704
 8150SOL    HW225350   0.144   4.384   0.754
 8151SOL     OW25351   6.137   3.954   2.215
 8151SOL    HW125352   6.095   3.905   2.138
 8151SOL    HW225353   6.236   3.952   2.205
 8152SOL     OW25354   4.987   2.100   4.000
 8152SOL    HW125355   4.973   2.009   4.041
 8152SOL    HW225356   4.972   2.095   3.902
 8153SOL     OW25357   0.403   1.856   1.033
 8153SOL    HW125358   0.303   1.848   1.035
 8153SOL    HW225359   0.430   1.939   1.083
 8154SOL     OW25360   6.999   0.299   3.812
 8154SOL    HW125361   6.985   0.279   3.909
 8154SOL    HW225362   0.047   0.370   3.802
 8155SOL     OW25363   1.238   5.134   4.506
 8155SOL    HW125364   1.167   5.091   4.449
 8155SOL    HW225365   1.296   5.063   4.545
 8156SOL     OW25366   1.059   3.995   0.396
 8156SOL    HW125367   1.037   4.027   0.488
 8156SOL    HW225368   0.975   3.991   0.341
 8157SOL     OW25369   6.063   4.440   5.238
 8157SOL    HW125370   6.119   4.448   5.320
 8157SOL    HW225371   6.006   4.358   5.244
 8158SOL     OW25372   6.347   5.161   5.958
 8158SOL    HW125373   6.406   5.231   5.919
 8158SOL    HW225374   6.269   5.146   5.898
 8159SOL     OW25375   1.868   6.417   5.126
 8159SOL    HW125376   1.906   6.376   5.043
 8159SOL    HW225377   1.916   6.380   5.206
 8160SOL     OW25378   5.411   2.977   2.873
 8160SOL    HW125379   5.312   2.994   2.865
 8160SOL    HW225380   5.430   2.883   2.843
 8161SOL     OW25381   0.425   2.391   1.110
 8161SOL    HW125382   0.469   2.396   1.020
 8161SOL    HW225383   0.440   2.477   1.159
 8162SOL     OW25384   0.213   5.974   4.932
 8162SOL    HW125385   0.137   5.986   4.996
 8162SOL    HW225386   0.182   5.922   4.853
 8163SOL     OW25387   3.177   4.887   5.749
 8163SOL    HW125388   3.117   4.913   5.824
 8163SOL    HW225389   3.240   4.962   5.729
 8164SOL     OW25390   5.642   1.870   0.008
 8164SOL    HW125391   5.632   1.934   0.085
 8164SOL    HW225392   5.596   1.784   0.030
 8165SOL     OW25393   0.824   3.009   5.834
 8165SOL    HW125394   0.868   2.923   5.809
 8165SOL    HW225395   0.814   3.067   5.753
 8166SOL     OW25396   3.206   2.161   4.453
 8166SOL    HW125397   3.161   2.131   4.537
 8166SOL    HW225398   3.148   2.227   4.406
 8167SOL     OW25399   1.877   2.526   2.459
 8167SOL    HW125400   1.779   2.518   2.442
 8167SOL    HW225401   1.901   2.476   2.542
 8168SOL     OW25402   1.217   6.046   3.163
 8168SOL    HW125403   1.205   5.969   3.225
 8168SOL    HW225404   1.314   6.068   3.155
 8169SOL     OW25405   5.549   4.646   6.774
 8169SOL    HW125406   5.470   4.706   6.785
 8169SOL    HW225407   5.620   4.694   6.722
 8170SOL     OW25408   6.810   4.476   3.397
 8170SOL    HW125409   6.824   4.414   3.320
 8170SOL    HW225410   6.712   4.482   3.417
 8171SOL     OW25411   2.140   1.566   1.899
 8171SOL    HW125412   2.186   1.569   1.988
 8171SOL    HW225413   2.047   1.600   1.908
 8172SOL     OW25414   1.609   5.175   0.328
 8172SOL    HW125415   1.690   5.233   0.320
 8172SOL    HW225416   1.576   5.177   0.423
 8173SOL     OW25417   5.757   6.957   1.497
 8173SOL    HW125418   5.851   6.956   1.463
 8173SOL    HW225419   5.707   6.879   1.458
 8174SOL     OW25420   2.438   6.704   4.147
 8174SOL    HW125421   2.448   6.611   4.113
 8174SOL    HW225422   2.505   6.764   4.102
 8175SOL     OW25423   0.703   2.411   6.177
 8175SOL    HW125424   0.631   2.367   6.124
 8175SOL    HW225425   0.692   2.389   6.274
 8176SOL     OW25426   2.932   4.270   0.202
 8176SOL    HW125427   3.030   4.283   0.186
 8176SOL    HW225428   2.914   4.174   0.222
 8177SOL     OW25429   3.289   1.082   2.528
 8177SOL    HW125430   3.236   1.052   2.449
 8177SOL    HW225431   3.267   1.178   2.549
 8178SOL     OW25432   2.156   6.342   1.139
 8178SOL    HW125433   2.211   6.424   1.155
 8178SOL    HW225434   2.118   6.309   1.226
 8179SOL     OW25435   6.251   0.022   4.090
 8179SOL    HW125436   6.249   6.945   4.101
 8179SOL    HW225437   6.166   0.061   4.128
 8180SOL     OW25438   4.728   5.549   0.731
 8180SOL    HW125439   4.692   5.529   0.821
 8180SOL    HW225440   4.811   5.604   0.739
 8181SOL     OW25441   6.545   0.542   6.411
 8181SOL    HW125442   6.608   0.612   6.443
 8181SOL    HW225443   6.464   0.540   6.470
 8182SOL     OW25444   3.732   3.753   2.893
 8182SOL    HW125445   3.638   3.788   2.894
 8182SOL    HW225446   3.796   3.825   2.919
 8183SOL     OW25447   0.415   0.176   5.079
 8183SOL    HW125448   0.441   0.229   5.161
 8183SOL    HW225449   0.349   0.228   5.025
 8184SOL     OW25450   0.180   5.794   4.711
 8184SOL    HW125451   0.169   5.698   4.736
 8184SOL    HW225452   0.273   5.809   4.677
 8185SOL     OW25453   0.135   6.250   4.730
 8185SOL    HW125454   0.041   6.280   4.718
 8185SOL    HW225455   0.162   6.265   4.825
 8186SOL     OW25456   1.384   5.903   0.231
 8186SOL    HW125457   1.360   5.872   0.323
 8186SOL    HW225458   1.300   5.925   0.180
 8187SOL     OW25459   1.485   6.211   4.655
 8187SOL    HW125460   1.392   6.196   4.622
 8187SOL    HW225461   1.518   6.128   4.700
 8188SOL     OW25462   1.595   3.068   2.669
 8188SOL    HW125463   1.592   3.125   2.586
 8188SOL    HW225464   1.633   3.121   2.744
 8189SOL     OW25465   0.046   5.494   4.051
 8189SOL    HW125466   0.014   5.421   4.111
 8189SOL    HW225467   0.100   5.560   4.103
 8190SOL     OW25468   5.638   3.820   2.853
 8190SOL    HW125469   5.598   3.760   2.922
 8190SOL    HW225470   5.598   3.800   2.763
 8191SOL     OW25471   5.115   5.177   0.890
 8191SOL    HW125472   5.041   5.178   0.823
 8191SOL    HW225473   5.086   5.222   0.974
 8192SOL     OW25474   0.117   5.583   2.861
 8192SOL    HW125475   0.107   5.615   2.767
 8192SOL    HW225476   0.076   5.648   2.924
 8193SOL     OW25477   1.020   5.011   4.375
 8193SOL    HW125478   1.019   4.933   4.438
 8193SOL    HW225479   0.933   5.059   4.380
 8194SOL     OW25480   5.288   0.127   2.343
 8194SOL    HW125481   5.319   0.038   2.376
 8194SOL    HW225482   5.245   0.177   2.417
 8195SOL     OW25483   6.515   6.734   3.078
 8195SOL    HW125484   6.529   6.823   3.035
 8195SOL    HW225485   6.534   6.661   3.013
 8196SOL     OW25486   4.838   6.965   2.845
 8196SOL    HW125487   4.910   0.012   2.854
 8196SOL    HW225488   4.839   6.905   2.925
 8197SOL     OW25489   4.186   1.137   3.170
 8197SOL    HW125490   4.182   1.082   3.087
 8197SOL    HW225491   4.094   1.144   3.210
 8198SOL     OW25492   1.997   5.513   0.221
 8198SOL    HW125493   2.095   5.520   0.237
 8198SOL    HW225494   1.970   5.580   0.151
 8199SOL     OW25495   6.172   2.585   0.335
 8199SOL    HW125496   6.251   2.599   0.394
 8199SOL    HW225497   6.090   2.620   0.380
 8200SOL     OW25498   5.882   4.909   0.234
 8200SOL    HW125499   5.937   4.828   0.252
 8200SOL    HW225500   5.880   4.967   0.315
 8201SOL     OW25501   5.204   0.902   5.478
 8201SOL    HW125502   5.242   0.957   5.403
 8201SOL    HW225503   5.163   0.963   5.546
 8202SOL     OW25504   0.382   5.556   1.869
 8202SOL    HW125505   0.414   5.515   1.783
 8202SOL    HW225506   0.419   5.505   1.946
 8203SOL     OW25507   1.330   2.911   0.355
 8203SOL    HW125508   1.282   2.961   0.283
 8203SOL    HW225509   1.388   2.975   0.406
 8204SOL     OW25510   1.648   3.669   0.512
 8204SOL    HW125511   1.678   3.752   0.465
 8204SOL    HW225512   1.652   3.683   0.611
 8205SOL     OW25513   0.159   3.917   6.129
 8205SOL    HW125514   0.084   3.851   6.131
 8205SOL    HW225515   0.238   3.879   6.175
 8206SOL     OW25516   3.467   0.864   1.101
 8206SOL    HW125517   3.549   0.902   1.058
 8206SOL    HW225518   3.388   0.923   1.081
 8207SOL     OW25519   3.971   3.850   4.270
 8207SOL    HW125520   3.979   3.938   4.222
 8207SOL    HW225521   3.880   3.844   4.311
 8208SOL     OW25522   3.189   0.192   6.078
 8208SOL    HW125523   3.140   0.246   6.146
 8208SOL    HW225524   3.187   0.095   6.105
 8209SOL     OW25525   6.062   2.364   3.523
 8209SOL    HW125526   6.081   2.452   3.478
 8209SOL    HW225527   5.998   2.379   3.599
 8210SOL     OW25528   1.734   2.232   6.351
 8210SOL    HW125529   1.638   2.254   6.369
 8210SOL    HW225530   1.782   2.222   6.438
 8211SOL     OW25531   3.823   4.760   1.115
 8211SOL    HW125532   3.761   4.745   1.192
 8211SOL    HW225533   3.800   4.698   1.041
 8212SOL     OW25534   1.792   3.611   2.634
 8212SOL    HW125535   1.862   3.552   2.675
 8212SOL    HW225536   1.799   3.703   2.674
 8213SOL     OW25537   6.292   4.636   0.720
 8213SOL    HW125538   6.224   4.657   0.650
 8213SOL    HW225539   6.325   4.543   0.707
 8214SOL     OW25540   4.893   3.171   3.584
 8214SOL    HW125541   4.901   3.227   3.667
 8214SOL    HW225542   4.984   3.156   3.545
 8215SOL     OW25543   3.697   4.943   1.550
 8215SOL    HW125544   3.604   4.968   1.576
 8215SOL    HW225545   3.724   4.861   1.601
 8216SOL     OW25546   5.426   3.162   4.159
 8216SOL    HW125547   5.331   3.164   4.129
 8216SOL    HW225548   5.486   3.179   4.081
 8217SOL     OW25549   2.516   6.060   0.245
 8217SOL    HW125550   2.609   6.095   0.237
 8217SOL    HW225551   2.519   5.963   0.271
 8218SOL     OW25552   4.890   2.200   0.102
 8218SOL    HW125553   4.806   2.221   0.153
 8218SOL    HW225554   4.940   2.127   0.149
 8219SOL     OW25555   5.384   2.716   0.331
 8219SOL    HW125556   5.409   2.644   0.267
 8219SOL    HW225557   5.381   2.679   0.424
 8220SOL     OW25558   3.907   3.602   1.496
 8220SOL    HW125559   3.923   3.593   1.398
 8220SOL    HW225560   3.913   3.512   1.540
 8221SOL     OW25561   5.775   3.914   3.683
 8221SOL    HW125562   5.779   3.838   3.748
 8221SOL    HW225563   5.753   3.878   3.593
 8222SOL     OW25564   5.759   0.925   2.831
 8222SOL    HW125565   5.676   0.871   2.816
 8222SOL    HW225566   5.837   0.879   2.789
 8223SOL     OW25567   0.676   4.466   7.018
 8223SOL    HW125568   0.775   4.465   7.003
 8223SOL    HW225569   0.630   4.417   6.944
 8224SOL     OW25570   0.717   3.775   2.427
 8224SOL    HW125571   0.634   3.828   2.408
 8224SOL    HW225572   0.755   3.804   2.515
 8225SOL     OW25573   5.003   0.617   1.212
 8225SOL    HW125574   4.964   0.640   1.123
 8225SOL    HW225575   4.932   0.627   1.282
 8226SOL     OW25576   3.741   0.597   6.861
 8226SOL    HW125577   3.685   0.655   6.921
 8226SOL    HW225578   3.687   0.572   6.781
 8227SOL     OW25579   6.051   3.961   3.157
 8227SOL    HW125580   5.985   3.976   3.084
 8227SOL    HW225581   6.034   4.025   3.232
 8228SOL     OW25582   0.338   1.347   3.698
 8228SOL    HW125583   0.358   1.445   3.694
 8228SOL    HW225584   0.262   1.325   3.636
 8229SOL     OW25585   5.480   5.387   0.154
 8229SOL    HW125586   5.423   5.307   0.134
 8229SOL    HW225587   5.522   5.420   0.069
 8230SOL     OW25588   5.069   0.168   3.140
 8230SOL    HW125589   5.068   0.267   3.159
 8230SOL    HW225590   5.151   0.146   3.088
 8231SOL     OW25591   3.980   5.839   1.227
 8231SOL    HW125592   4.004   5.782   1.149
 8231SOL    HW225593   3.881   5.853   1.230
 8232SOL     OW25594   2.553   1.306   0.425
 8232SOL    HW125595   2.621   1.337   0.359
 8232SOL    HW225596   2.571   1.348   0.514
 8233SOL     OW25597   0.784   5.818   5.692
 8233SOL    HW125598   0.777   5.875   5.774
 8233SOL    HW225599   0.778   5.722   5.718
 8234SOL     OW25600   2.021   3.440   6.524
 8234SOL    HW125601   2.098   3.468   6.468
 8234SOL    HW225602   2.052   3.423   6.618
 8235SOL     OW25603   4.407   2.300   6.665
 8235SOL    HW125604   4.453   2.368   6.723
 8235SOL    HW225605   4.462   2.217   6.661
 8236SOL     OW25606   6.109   2.339   1.838
 8236SOL    HW125607   6.020   2.315   1.799
 8236SOL    HW225608   6.134   2.271   1.908
 8237SOL     OW25609   3.564   6.275   5.868
 8237SOL    HW125610   3.517   6.363   5.859
 8237SOL    HW225611   3.586   6.240   5.777
 8238SOL     OW25612   0.885   1.048   6.308
 8238SOL    HW125613   0.950   1.012   6.375
 8238SOL    HW225614   0.847   1.135   6.341
 8239SOL     OW25615   5.425   1.341   6.724
 8239SOL    HW125616   5.420   1.247   6.690
 8239SOL    HW225617   5.333   1.379   6.731
 8240SOL     OW25618   3.572   3.132   2.976
 8240SOL    HW125619   3.632   3.057   2.948
 8240SOL    HW225620   3.486   3.094   3.011
 8241SOL     OW25621   4.716   6.221   1.141
 8241SOL    HW125622   4.746   6.302   1.192
 8241SOL    HW225623   4.729   6.236   1.043
 8242SOL     OW25624   1.511   4.257   5.239
 8242SOL    HW125625   1.568   4.260   5.157
 8242SOL    HW225626   1.443   4.330   5.235
 8243SOL     OW25627   0.456   3.265   4.784
 8243SOL    HW125628   0.415   3.331   4.847
 8243SOL    HW225629   0.402   3.181   4.784
 8244SOL     OW25630   2.983   5.574   5.129
 8244SOL    HW125631   2.915   5.502   5.112
 8244SOL    HW225632   3.013   5.569   5.224
 8245SOL     OW25633   4.471   3.836   1.121
 8245SOL    HW125634   4.385   3.866   1.163
 8245SOL    HW225635   4.536   3.809   1.192
 8246SOL     OW25636   5.512   3.166   4.845
 8246SOL    HW125637   5.608   3.171   4.874
 8246SOL    HW225638   5.457   3.229   4.899
 8247SOL     OW25639   0.877   6.579   6.824
 8247SOL    HW125640   0.971   6.608   6.840
 8247SOL    HW225641   0.876   6.483   6.797
 8248SOL     OW25642   0.219   4.167   3.226
 8248SOL    HW125643   0.189   4.162   3.322
 8248SOL    HW225644   0.277   4.248   3.214
 8249SOL     OW25645   0.978   5.337   3.021
 8249SOL    HW125646   0.907   5.312   3.087
 8249SOL    HW225647   0.937   5.349   2.931
 8250SOL     OW25648   2.951   3.463   2.842
 8250SOL    HW125649   2.961   3.561   2.828
 8250SOL    HW225650   2.956   3.416   2.753
 8251SOL     OW25651   5.410   0.871   4.700
 8251SOL    HW125652   5.493   0.920   4.671
 8251SOL    HW225653   5.330   0.911   4.655
 8252SOL     OW25654   1.122   3.887   4.064
 8252SOL    HW125655   1.081   3.963   4.113
 8252SOL    HW225656   1.092   3.801   4.105
 8253SOL     OW25657   3.243   3.142   5.773
 8253SOL    HW125658   3.288   3.062   5.732
 8253SOL    HW225659   3.161   3.164   5.719
 8254SOL     OW25660   5.165   5.473   2.840
 8254SOL    HW125661   5.185   5.569   2.861
 8254SOL    HW225662   5.104   5.435   2.909
 8255SOL     OW25663   3.826   4.819   3.262
 8255SOL    HW125664   3.735   4.860   3.257
 8255SOL    HW225665   3.838   4.776   3.352
 8256SOL     OW25666   5.231   2.446   3.179
 8256SOL    HW125667   5.224   2.430   3.080
 8256SOL    HW225668   5.141   2.436   3.221
 8257SOL     OW25669   6.287   4.364   4.222
 8257SOL    HW125670   6.326   4.447   4.262
 8257SOL    HW225671   6.352   4.289   4.234
 8258SOL     OW25672   5.312   2.128   0.060
 8258SOL    HW125673   5.393   2.165   0.015
 8258SOL    HW225674   5.328   2.033   0.084
 8259SOL     OW25675   4.776   0.516   0.835
 8259SOL    HW125676   4.781   0.611   0.804
 8259SOL    HW225677   4.722   0.462   0.771
 8260SOL     OW25678   3.299   5.675   6.496
 8260SOL    HW125679   3.200   5.672   6.511
 8260SOL    HW225680   3.320   5.748   6.431
 8261SOL     OW25681   5.150   1.430   1.572
 8261SOL    HW125682   5.076   1.423   1.506
 8261SOL    HW225683   5.231   1.382   1.537
 8262SOL     OW25684   6.444   2.809   1.735
 8262SOL    HW125685   6.455   2.710   1.743
 8262SOL    HW225686   6.401   2.844   1.818
 8263SOL     OW25687   5.835   1.627   0.668
 8263SOL    HW125688   5.828   1.633   0.767
 8263SOL    HW225689   5.865   1.716   0.632
 8264SOL     OW25690   1.392   4.399   1.379
 8264SOL    HW125691   1.390   4.299   1.384
 8264SOL    HW225692   1.430   4.436   1.464
 8265SOL     OW25693   1.751   0.364   2.632
 8265SOL    HW125694   1.676   0.299   2.645
 8265SOL    HW225695   1.719   0.443   2.581
 8266SOL     OW25696   3.109   0.771   2.819
 8266SOL    HW125697   3.161   0.752   2.902
 8266SOL    HW225698   3.121   0.866   2.792
 8267SOL     OW25699   0.099   3.866   0.935
 8267SOL    HW125700   0.058   3.796   0.993
 8267SOL    HW225701   0.031   3.934   0.912
 8268SOL     OW25702   2.729   4.798   6.838
 8268SOL    HW125703   2.723   4.742   6.920
 8268SOL    HW225704   2.713   4.741   6.757
 8269SOL     OW25705   6.108   1.834   6.920
 8269SOL    HW125706   6.170   1.913   6.925
 8269SOL    HW225707   6.111   1.795   6.828
 8270SOL     OW25708   2.562   6.273   4.505
 8270SOL    HW125709   2.511   6.197   4.547
 8270SOL    HW225710   2.551   6.269   4.406
 8271SOL     OW25711   0.265   2.502   2.538
 8271SOL    HW125712   0.182   2.503   2.482
 8271SOL    HW225713   0.345   2.491   2.479
 8272SOL     OW25714   3.284   1.297   3.992
 8272SOL    HW125715   3.231   1.248   3.924
 8272SOL    HW225716   3.333   1.373   3.948
 8273SOL     OW25717   1.682   6.274   2.062
 8273SOL    HW125718   1.762   6.222   2.091
 8273SOL    HW225719   1.707   6.369   2.047
 8274SOL     OW25720   5.226   3.822   3.706
 8274SOL    HW125721   5.203   3.727   3.730
 8274SOL    HW225722   5.190   3.843   3.615
 8275SOL     OW25723   5.959   2.198   0.109
 8275SOL    HW125724   6.034   2.247   0.064
 8275SOL    HW225725   5.894   2.167   0.039
 8276SOL     OW25726   0.674   2.112   2.547
 8276SOL    HW125727   0.760   2.117   2.598
 8276SOL    HW225728   0.690   2.140   2.452
 8277SOL     OW25729   0.106   1.411   0.237
 8277SOL    HW125730   0.161   1.462   0.171
 8277SOL    HW225731   0.161   1.338   0.277
 8278SOL     OW25732   1.317   2.512   0.808
 8278SOL    HW125733   1.364   2.578   0.866
 8278SOL    HW225734   1.242   2.558   0.760
 8279SOL     OW25735   0.161   5.977   3.949
 8279SOL    HW125736   0.089   6.035   3.987
 8279SOL    HW225737   0.183   6.007   3.857
 8280SOL     OW25738   3.082   2.502   6.031
 8280SOL    HW125739   3.108   2.438   5.959
 8280SOL    HW225740   3.129   2.589   6.018
 8281SOL     OW25741   4.116   5.249   2.337
 8281SOL    HW125742   4.105   5.150   2.351
 8281SOL    HW225743   4.214   5.269   2.328
 8282SOL     OW25744   6.252   2.870   6.136
 8282SOL    HW125745   6.225   2.785   6.181
 8282SOL    HW225746   6.344   2.895   6.164
 8283SOL     OW25747   2.104   3.011   5.975
 8283SOL    HW125748   2.168   3.044   5.906
 8283SOL    HW225749   2.039   2.948   5.933
 8284SOL     OW25750   6.324   4.271   1.801
 8284SOL    HW125751   6.414   4.302   1.833
 8284SOL    HW225752   6.281   4.215   1.872
 8285SOL     OW25753   3.813   2.972   3.808
 8285SOL    HW125754   3.825   3.071   3.809
 8285SOL    HW225755   3.784   2.942   3.716
 8286SOL     OW25756   0.654   2.693   0.223
 8286SOL    HW125757   0.601   2.710   0.140
 8286SOL    HW225758   0.709   2.774   0.245
 8287SOL     OW25759   1.700   0.232   4.219
 8287SOL    HW125760   1.761   0.168   4.171
 8287SOL    HW225761   1.638   0.275   4.153
 8288SOL     OW25762   3.116   1.473   3.160
 8288SOL    HW125763   3.069   1.459   3.248
 8288SOL    HW225764   3.172   1.556   3.166
 8289SOL     OW25765   0.569   6.675   6.957
 8289SOL    HW125766   0.501   6.747   6.943
 8289SOL    HW225767   0.645   6.688   6.894
 8290SOL     OW25768   6.411   1.993   1.028
 8290SOL    HW125769   6.333   2.021   0.972
 8290SOL    HW225770   6.413   2.047   1.112
 8291SOL     OW25771   3.998   0.726   0.951
 8291SOL    HW125772   4.076   0.787   0.963
 8291SOL    HW225773   3.990   0.701   0.854
 8292SOL     OW25774   2.758   0.687   6.087
 8292SOL    HW125775   2.750   0.725   6.179
 8292SOL    HW225776   2.854   0.665   6.069
 8293SOL     OW25777   6.057   5.329   5.414
 8293SOL    HW125778   5.999   5.282   5.347
 8293SOL    HW225779   6.021   5.315   5.506
 8294SOL     OW25780   6.289   2.572   0.062
 8294SOL    HW125781   6.327   2.650   0.014
 8294SOL    HW225782   6.241   2.603   0.144
 8295SOL     OW25783   5.079   2.760   6.629
 8295SOL    HW125784   5.154   2.826   6.618
 8295SOL    HW225785   5.113   2.678   6.675
 8296SOL     OW25786   0.265   4.770   5.252
 8296SOL    HW125787   0.192   4.834   5.227
 8296SOL    HW225788   0.234   4.677   5.235
 8297SOL     OW25789   1.486   3.207   4.095
 8297SOL    HW125790   1.488   3.233   3.998
 8297SOL    HW225791   1.411   3.143   4.110
 8298SOL     OW25792   4.788   1.751   1.827
 8298SOL    HW125793   4.842   1.800   1.759
 8298SOL    HW225794   4.804   1.790   1.917
 8299SOL     OW25795   5.613   2.050   1.809
 8299SOL    HW125796   5.685   2.061   1.877
 8299SOL    HW225797   5.649   2.074   1.718
 8300SOL     OW25798   1.739   5.311   3.025
 8300SOL    HW125799   1.684   5.317   2.942
 8300SOL    HW225800   1.814   5.247   3.010
 8301SOL     OW25801   2.741   1.493   5.937
 8301SOL    HW125802   2.691   1.566   5.891
 8301SOL    HW225803   2.691   1.407   5.926
 8302SOL     OW25804   5.972   5.859   5.688
 8302SOL    HW125805   6.052   5.799   5.690
 8302SOL    HW225806   5.979   5.927   5.760
 8303SOL     OW25807   0.037   0.142   6.801
 8303SOL    HW125808   0.127   0.165   6.764
 8303SOL    HW225809   0.025   0.043   6.800
 8304SOL     OW25810   6.921   3.082   0.666
 8304SOL    HW125811   7.010   3.108   0.701
 8304SOL    HW225812   6.891   2.996   0.708
 8305SOL     OW25813   2.888   5.047   2.838
 8305SOL    HW125814   2.874   4.949   2.824
 8305SOL    HW225815   2.939   5.061   2.923
 8306SOL     OW25816   2.126   2.771   3.807
 8306SOL    HW125817   2.027   2.767   3.799
 8306SOL    HW225818   2.151   2.803   3.898
 8307SOL     OW25819   3.838   6.121   0.808
 8307SOL    HW125820   3.773   6.178   0.758
 8307SOL    HW225821   3.790   6.073   0.882
 8308SOL     OW25822   2.908   0.726   2.435
 8308SOL    HW125823   2.885   0.726   2.533
 8308SOL    HW225824   3.001   0.692   2.423
 8309SOL     OW25825   5.875   6.534   2.074
 8309SOL    HW125826   5.793   6.586   2.095
 8309SOL    HW225827   5.940   6.592   2.026
 8310SOL     OW25828   6.302   4.668   6.642
 8310SOL    HW125829   6.397   4.693   6.621
 8310SOL    HW225830   6.301   4.583   6.695
 8311SOL     OW25831   6.458   0.203   6.366
 8311SOL    HW125832   6.512   0.127   6.331
 8311SOL    HW225833   6.504   0.245   6.444
 8312SOL     OW25834   4.927   6.293   1.468
 8312SOL    HW125835   4.855   6.344   1.421
 8312SOL    HW225836   4.974   6.233   1.403
 8313SOL     OW25837   4.096   1.535   2.627
 8313SOL    HW125838   4.020   1.598   2.610
 8313SOL    HW225839   4.137   1.555   2.716
 8314SOL     OW25840   0.084   6.921   3.569
 8314SOL    HW125841   0.141   6.972   3.633
 8314SOL    HW225842   0.127   6.921   3.479
 8315SOL     OW25843   5.136   4.580   6.583
 8315SOL    HW125844   5.074   4.626   6.647
 8315SOL    HW225845   5.202   4.645   6.547
 8316SOL     OW25846   2.794   5.543   6.730
 8316SOL    HW125847   2.762   5.451   6.706
 8316SOL    HW225848   2.736   5.581   6.801
 8317SOL     OW25849   2.575   4.675   1.309
 8317SOL    HW125850   2.544   4.703   1.399
 8317SOL    HW225851   2.632   4.593   1.317
 8318SOL     OW25852   3.045   1.061   5.798
 8318SOL    HW125853   2.973   1.116   5.755
 8318SOL    HW225854   3.005   0.982   5.844
 8319SOL     OW25855   2.492   0.760   5.381
 8319SOL    HW125856   2.574   0.707   5.361
 8319SOL    HW225857   2.488   0.780   5.478
 8320SOL     OW25858   3.938   5.215   1.267
 8320SOL    HW125859   4.032   5.237   1.293
 8320SOL    HW225860   3.939   5.164   1.181
 8321SOL     OW25861   6.717   0.830   1.000
 8321SOL    HW125862   6.800   0.785   1.033
 8321SOL    HW225863   6.637   0.794   1.048
 8322SOL     OW25864   5.231   6.799   0.607
 8322SOL    HW125865   5.162   6.738   0.567
 8322SOL    HW225866   5.187   6.877   0.651
 8323SOL     OW25867   2.002   0.585   2.096
 8323SOL    HW125868   2.018   0.591   2.195
 8323SOL    HW225869   1.942   0.659   2.068
 8324SOL     OW25870   6.725   0.882   2.478
 8324SOL    HW125871   6.669   0.801   2.497
 8324SOL    HW225872   6.821   0.860   2.491
 8325SOL     OW25873   3.853   4.075   4.576
 8325SOL    HW125874   3.813   4.119   4.656
 8325SOL    HW225875   3.900   3.992   4.604
 8326SOL     OW25876   4.267   3.027   6.341
 8326SOL    HW125877   4.183   3.069   6.306
 8326SOL    HW225878   4.268   3.033   6.441
 8327SOL     OW25879   5.153   2.205   5.978
 8327SOL    HW125880   5.137   2.245   6.068
 8327SOL    HW225881   5.221   2.260   5.929
 8328SOL     OW25882   2.358   2.725   3.669
 8328SOL    HW125883   2.432   2.681   3.720
 8328SOL    HW225884   2.280   2.741   3.730
 8329SOL     OW25885   0.588   2.990   4.540
 8329SOL    HW125886   0.671   2.942   4.511
 8329SOL    HW225887   0.575   3.071   4.483
 8330SOL     OW25888   2.383   0.018   0.407
 8330SOL    HW125889   2.414   0.083   0.476
 8330SOL    HW225890   2.461   6.991   0.370
 8331SOL     OW25891   2.706   0.072   1.147
 8331SOL    HW125892   2.612   0.102   1.135
 8331SOL    HW225893   2.751   0.063   1.058
 8332SOL     OW25894   4.292   6.206   3.666
 8332SOL    HW125895   4.313   6.296   3.706
 8332SOL    HW225896   4.226   6.218   3.592
 8333SOL     OW25897   2.204   5.165   5.635
 8333SOL    HW125898   2.152   5.196   5.555
 8333SOL    HW225899   2.141   5.151   5.711
 8334SOL     OW25900   6.616   6.815   3.697
 8334SOL    HW125901   6.550   6.751   3.658
 8334SOL    HW225902   6.688   6.833   3.629
 8335SOL     OW25903   6.581   6.388   5.258
 8335SOL    HW125904   6.591   6.486   5.272
 8335SOL    HW225905   6.562   6.343   5.345
 8336SOL     OW25906   1.474   2.087   2.742
 8336SOL    HW125907   1.568   2.112   2.716
 8336SOL    HW225908   1.424   2.168   2.769
 8337SOL     OW25909   6.892   6.475   2.402
 8337SOL    HW125910   6.822   6.518   2.459
 8337SOL    HW225911   6.883   6.376   2.408
 8338SOL     OW25912   2.075   5.309   0.660
 8338SOL    HW125913   2.086   5.371   0.738
 8338SOL    HW225914   2.053   5.218   0.693
 8339SOL     OW25915   5.402   0.826   3.171
 8339SOL    HW125916   5.425   0.917   3.207
 8339SOL    HW225917   5.306   0.825   3.144
 8340SOL     OW25918   4.745   3.950   1.653
 8340SOL    HW125919   4.659   4.001   1.656
 8340SOL    HW225920   4.781   3.952   1.560
 8341SOL     OW25921   2.299   0.227   0.727
 8341SOL    HW125922   2.308   0.324   0.752
 8341SOL    HW225923   2.390   0.187   0.718
 8342SOL     OW25924   5.112   6.836   1.290
 8342SOL    HW125925   5.065   6.836   1.378
 8342SOL    HW225926   5.210   6.831   1.304
 8343SOL     OW25927   0.219   4.457   5.289
 8343SOL    HW125928   0.294   4.400   5.255
 8343SOL    HW225929   0.242   4.493   5.379
 8344SOL     OW25930   3.633   0.029   4.712
 8344SOL    HW125931   3.684   0.040   4.626
 8344SOL    HW225932   3.645   0.111   4.769
 8345SOL     OW25933   6.282   1.357   3.033
 8345SOL    HW125934   6.329   1.441   3.006
 8345SOL    HW225935   6.206   1.379   3.094
 8346SOL     OW25936   4.162   4.980   2.458
 8346SOL    HW125937   4.239   5.044   2.447
 8346SOL    HW225938   4.189   4.890   2.422
 8347SOL     OW25939   3.447   5.192   4.596
 8347SOL    HW125940   3.390   5.175   4.676
 8347SOL    HW225941   3.453   5.109   4.541
 8348SOL     OW25942   2.028   0.548   0.878
 8348SOL    HW125943   1.930   0.564   0.861
 8348SOL    HW225944   2.046   0.450   0.874
 8349SOL     OW25945   6.076   5.290   1.696
 8349SOL    HW125946   6.163   5.289   1.646
 8349SOL    HW225947   6.005   5.248   1.640
 8350SOL     OW25948   6.279   0.966   4.905
 8350SOL    HW125949   6.355   1.028   4.888
 8350SOL    HW225950   6.314   0.878   4.936
 8351SOL     OW25951   3.162   6.480   2.330
 8351SOL    HW125952   3.130   6.396   2.373
 8351SOL    HW225953   3.205   6.538   2.398
 8352SOL     OW25954   6.442   6.082   1.525
 8352SOL    HW125955   6.464   6.036   1.439
 8352SOL    HW225956   6.442   6.016   1.600
 8353SOL     OW25957   1.775   3.667   1.967
 8353SOL    HW125958   1.803   3.651   1.872
 8353SOL    HW225959   1.801   3.588   2.023
 8354SOL     OW25960   2.953   0.664   0.658
 8354SOL    HW125961   2.972   0.598   0.731
 8354SOL    HW225962   3.036   0.717   0.639
 8355SOL     OW25963   3.174   1.456   0.862
 8355SOL    HW125964   3.106   1.470   0.934
 8355SOL    HW225965   3.263   1.437   0.903
 8356SOL     OW25966   2.840   5.331   0.177
 8356SOL    HW125967   2.797   5.282   0.253
 8356SOL    HW225968   2.939   5.334   0.191
 8357SOL     OW25969   4.401   5.700   3.083
 8357SOL    HW125970   4.498   5.723   3.090
 8357SOL    HW225971   4.354   5.769   3.027
 8358SOL     OW25972   3.518   2.084   5.055
 8358SOL    HW125973   3.507   2.085   5.154
 8358SOL    HW225974   3.491   1.994   5.019
 8359SOL     OW25975   3.525   5.090   4.039
 8359SOL    HW125976   3.519   5.062   4.134
 8359SOL    HW225977   3.569   5.180   4.033
 8360SOL     OW25978   4.452   0.497   3.157
 8360SOL    HW125979   4.489   0.590   3.162
 8360SOL    HW225980   4.524   0.432   3.182
 8361SOL     OW25981   1.447   0.558   3.146
 8361SOL    HW125982   1.394   0.563   3.062
 8361SOL    HW225983   1.541   0.587   3.127
 8362SOL     OW25984   2.586   3.132   0.580
 8362SOL    HW125985   2.620   3.042   0.609
 8362SOL    HW225986   2.537   3.175   0.656
 8363SOL     OW25987   0.761   3.559   1.449
 8363SOL    HW125988   0.805   3.632   1.500
 8363SOL    HW225989   0.828   3.512   1.392
 8364SOL     OW25990   6.917   4.724   5.559
 8364SOL    HW125991   6.977   4.803   5.566
 8364SOL    HW225992   6.869   4.726   5.471
 8365SOL     OW25993   1.323   3.704   5.836
 8365SOL    HW125994   1.314   3.729   5.933
 8365SOL    HW225995   1.239   3.661   5.804
 8366SOL     OW25996   2.419   6.978   2.222
 8366SOL    HW125997   2.481   0.031   2.240
 8366SOL    HW225998   2.468   6.891   2.233
 8367SOL     OW25999   5.075   5.512   3.641
 8367SOL    HW126000   4.991   5.542   3.596
 8367SOL    HW226001   5.053   5.450   3.716
 8368SOL     OW26002   3.086   5.671   6.165
 8368SOL    HW126003   3.145   5.603   6.209
 8368SOL    HW226004   3.057   5.637   6.075
 8369SOL     OW26005   2.615   1.794   1.208
 8369SOL    HW126006   2.614   1.713   1.266
 8369SOL    HW226007   2.521   1.823   1.190
 8370SOL     OW26008   2.084   1.345   0.377
 8370SOL    HW126009   1.998   1.330   0.328
 8370SOL    HW226010   2.071   1.415   0.447
 8371SOL     OW26011   1.476   2.377   0.293
 8371SOL    HW126012   1.456   2.313   0.219
 8371SOL    HW226013   1.403   2.373   0.361
 8372SOL     OW26014   6.516   0.536   0.475
 8372SOL    HW126015   6.461   0.532   0.392
 8372SOL    HW226016   6.613   0.545   0.451
 8373SOL     OW26017   1.531   6.785   4.207
 8373SOL    HW126018   1.566   6.701   4.164
 8373SOL    HW226019   1.532   6.859   4.140
 8374SOL     OW26020   6.770   0.804   5.805
 8374SOL    HW126021   6.786   0.883   5.745
 8374SOL    HW226022   6.727   0.730   5.752
 8375SOL     OW26023   4.199   0.696   6.471
 8375SOL    HW126024   4.131   0.768   6.469
 8375SOL    HW226025   4.155   0.609   6.493
 8376SOL     OW26026   4.248   0.551   4.098
 8376SOL    HW126027   4.295   0.464   4.117
 8376SOL    HW226028   4.185   0.539   4.021
 8377SOL     OW26029   5.479   4.980   1.019
 8377SOL    HW126030   5.447   4.987   0.924
 8377SOL    HW226031   5.544   4.905   1.026
 8378SOL     OW26032   4.862   2.754   3.621
 8378SOL    HW126033   4.911   2.819   3.562
 8378SOL    HW226034   4.907   2.665   3.616
 8379SOL     OW26035   5.252   2.667   2.533
 8379SOL    HW126036   5.278   2.572   2.520
 8379SOL    HW226037   5.298   2.724   2.466
 8380SOL     OW26038   5.840   1.535   3.752
 8380SOL    HW126039   5.757   1.531   3.808
 8380SOL    HW226040   5.920   1.529   3.810
 8381SOL     OW26041   1.763   5.435   4.110
 8381SOL    HW126042   1.786   5.506   4.044
 8381SOL    HW226043   1.740   5.351   4.061
 8382SOL     OW26044   0.732   4.503   2.174
 8382SOL    HW126045   0.705   4.469   2.264
 8382SOL    HW226046   0.651   4.506   2.115
 8383SOL     OW26047   3.446   1.510   5.667
 8383SOL    HW126048   3.385   1.448   5.715
 8383SOL    HW226049   3.496   1.566   5.733
 8384SOL     OW26050   0.763   6.957   1.549
 8384SOL    HW126051   0.857   6.939   1.576
 8384SOL    HW226052   0.738   0.028   1.574
 8385SOL     OW26053   3.994   1.604   1.180
 8385SOL    HW126054   3.935   1.577   1.104
 8385SOL    HW226055   4.033   1.522   1.222
 8386SOL     OW26056   0.366   2.938   2.131
 8386SOL    HW126057   0.360   3.034   2.103
 8386SOL    HW226058   0.398   2.883   2.053
 8387SOL     OW26059   0.750   2.035   1.708
 8387SOL    HW126060   0.743   2.008   1.804
 8387SOL    HW226061   0.659   2.056   1.673
 8388SOL     OW26062   1.113   6.792   2.827
 8388SOL    HW126063   1.142   6.707   2.872
 8388SOL    HW226064   1.072   6.770   2.738
 8389SOL     OW26065   5.987   3.096   3.832
 8389SOL    HW126066   5.939   3.183   3.843
 8389SOL    HW226067   6.034   3.095   3.744
 8390SOL     OW26068   6.136   2.077   6.627
 8390SOL    HW126069   6.218   2.048   6.577
 8390SOL    HW226070   6.101   2.162   6.588
 8391SOL     OW26071   6.626   0.183   1.105
 8391SOL    HW126072   6.712   0.153   1.147
 8391SOL    HW226073   6.608   0.129   1.023
 8392SOL     OW26074   3.538   2.887   4.783
 8392SOL    HW126075   3.539   2.880   4.683
 8392SOL    HW226076   3.628   2.918   4.815
 8393SOL     OW26077   5.998   0.086   1.030
 8393SOL    HW126078   5.984   7.011   1.014
 8393SOL    HW226079   6.095   0.104   1.044
 8394SOL     OW26080   5.788   2.817   2.552
 8394SOL    HW126081   5.786   2.729   2.504
 8394SOL    HW226082   5.806   2.801   2.649
 8395SOL     OW26083   2.369   0.926   4.814
 8395SOL    HW126084   2.355   0.961   4.722
 8395SOL    HW226085   2.351   0.827   4.816
 8396SOL     OW26086   5.279   5.342   4.283
 8396SOL    HW126087   5.327   5.429   4.279
 8396SOL    HW226088   5.194   5.348   4.231
 8397SOL     OW26089   6.159   6.694   2.884
 8397SOL    HW126090   6.182   6.612   2.831
 8397SOL    HW226091   6.088   6.672   2.950
 8398SOL     OW26092   5.937   1.602   6.494
 8398SOL    HW126093   5.868   1.560   6.554
 8398SOL    HW226094   5.891   1.660   6.427
 8399SOL     OW26095   0.348   4.465   2.585
 8399SOL    HW126096   0.297   4.549   2.604
 8399SOL    HW226097   0.443   4.488   2.565
 8400SOL     OW26098   0.752   1.023   4.816
 8400SOL    HW126099   0.840   0.990   4.782
 8400SOL    HW226100   0.767   1.090   4.888
 8401SOL     OW26101   1.932   0.519   5.794
 8401SOL    HW126102   1.860   0.554   5.853
 8401SOL    HW226103   2.007   0.483   5.850
 8402SOL     OW26104   3.037   0.383   6.179
 8402SOL    HW126105   3.070   0.468   6.220
 8402SOL    HW226106   3.020   0.398   6.081
 8403SOL     OW26107   5.780   4.953   5.674
 8403SOL    HW126108   5.735   5.030   5.719
 8403SOL    HW226109   5.758   4.954   5.576
 8404SOL     OW26110   1.363   1.334   0.342
 8404SOL    HW126111   1.286   1.389   0.313
 8404SOL    HW226112   1.389   1.359   0.435
 8405SOL     OW26113   4.060   6.901   5.953
 8405SOL    HW126114   4.060   6.842   5.872
 8405SOL    HW226115   4.150   6.942   5.964
 8406SOL     OW26116   5.983   0.656   5.934
 8406SOL    HW126117   6.051   0.728   5.919
 8406SOL    HW226118   5.977   0.635   6.032
 8407SOL     OW26119   4.540   0.819   4.648
 8407SOL    HW126120   4.474   0.769   4.704
 8407SOL    HW226121   4.518   0.805   4.551
 8408SOL     OW26122   3.981   2.193   1.578
 8408SOL    HW126123   4.079   2.199   1.561
 8408SOL    HW226124   3.956   2.255   1.652
 8409SOL     OW26125   4.214   2.404   1.791
 8409SOL    HW126126   4.117   2.395   1.767
 8409SOL    HW226127   4.269   2.404   1.707
 8410SOL     OW26128   0.252   1.953   1.441
 8410SOL    HW126129   0.313   2.031   1.425
 8410SOL    HW226130   0.218   1.919   1.353
 8411SOL     OW26131   1.292   5.860   1.061
 8411SOL    HW126132   1.280   5.796   0.985
 8411SOL    HW226133   1.286   5.811   1.148
 8412SOL     OW26134   2.606   2.804   0.457
 8412SOL    HW126135   2.645   2.883   0.409
 8412SOL    HW226136   2.661   2.785   0.538
 8413SOL     OW26137   3.852   5.807   4.806
 8413SOL    HW126138   3.895   5.874   4.747
 8413SOL    HW226139   3.777   5.761   4.758
 8414SOL     OW26140   2.136   6.917   0.753
 8414SOL    HW126141   2.124   7.006   0.707
 8414SOL    HW226142   2.073   6.912   0.831
 8415SOL     OW26143   3.326   1.650   6.222
 8415SOL    HW126144   3.294   1.735   6.182
 8415SOL    HW226145   3.252   1.605   6.271
 8416SOL     OW26146   0.551   2.473   4.836
 8416SOL    HW126147   0.614   2.530   4.783
 8416SOL    HW226148   0.508   2.405   4.776
 8417SOL     OW26149   2.016   3.618   6.117
 8417SOL    HW126150   2.090   3.554   6.096
 8417SOL    HW226151   1.972   3.590   6.202
 8418SOL     OW26152   6.834   6.211   2.719
 8418SOL    HW126153   6.860   6.203   2.623
 8418SOL    HW226154   6.736   6.198   2.729
 8419SOL     OW26155   3.516   1.494   4.515
 8419SOL    HW126156   3.557   1.450   4.595
 8419SOL    HW226157   3.543   1.445   4.433
 8420SOL     OW26158   3.474   1.203   1.948
 8420SOL    HW126159   3.401   1.227   2.013
 8420SOL    HW226160   3.548   1.270   1.957
 8421SOL     OW26161   4.814   0.184   6.650
 8421SOL    HW126162   4.774   0.275   6.640
 8421SOL    HW226163   4.807   0.135   6.563
 8422SOL     OW26164   5.124   1.974   4.311
 8422SOL    HW126165   5.079   2.015   4.391
 8422SOL    HW226166   5.095   2.022   4.228
 8423SOL     OW26167   6.186   5.847   6.958
 8423SOL    HW126168   6.266   5.790   6.939
 8423SOL    HW226169   6.113   5.790   6.996
 8424SOL     OW26170   2.932   0.333   5.385
 8424SOL    HW126171   2.926   0.311   5.483
 8424SOL    HW226172   2.995   0.410   5.372
 8425SOL     OW26173   3.720   3.083   1.900
 8425SOL    HW126174   3.624   3.066   1.877
 8425SOL    HW226175   3.725   3.135   1.985
 8426SOL     OW26176   3.665   3.085   1.528
 8426SOL    HW126177   3.608   3.167   1.514
 8426SOL    HW226178   3.736   3.104   1.595
 8427SOL     OW26179   3.966   3.202   2.644
 8427SOL    HW126180   3.972   3.184   2.743
 8427SOL    HW226181   3.875   3.176   2.611
 8428SOL     OW26182   5.777   0.273   1.825
 8428SOL    HW126183   5.849   0.226   1.773
 8428SOL    HW226184   5.688   0.235   1.801
 8429SOL     OW26185   3.219   6.088   5.537
 8429SOL    HW126186   3.259   6.137   5.459
 8429SOL    HW226187   3.225   6.146   5.619
 8430SOL     OW26188   5.379   7.021   5.274
 8430SOL    HW126189   5.376   0.079   5.215
 8430SOL    HW226190   5.454   6.962   5.245
 8431SOL     OW26191   2.064   3.215   6.174
 8431SOL    HW126192   2.093   3.305   6.142
 8431SOL    HW226193   2.065   3.149   6.099
 8432SOL     OW26194   6.574   5.273   5.803
 8432SOL    HW126195   6.614   5.193   5.848
 8432SOL    HW226196   6.647   5.326   5.759
 8433SOL     OW26197   5.006   1.898   1.064
 8433SOL    HW126198   5.094   1.860   1.093
 8433SOL    HW226199   4.940   1.893   1.139
 8434SOL     OW26200   2.699   6.364   4.756
 8434SOL    HW126201   2.673   6.267   4.757
 8434SOL    HW226202   2.737   6.389   4.845
 8435SOL     OW26203   6.649   1.691   3.127
 8435SOL    HW126204   6.666   1.700   3.225
 8435SOL    HW226205   6.690   1.770   3.079
 8436SOL     OW26206   1.805   4.998   2.956
 8436SOL    HW126207   1.903   5.018   2.949
 8436SOL    HW226208   1.760   5.019   2.869
 8437SOL     OW26209   1.756   6.077   0.686
 8437SOL    HW126210   1.796   6.151   0.740
 8437SOL    HW226211   1.792   5.989   0.716
 8438SOL     OW26212   0.873   4.106   2.680
 8438SOL    HW126213   0.921   4.023   2.710
 8438SOL    HW226214   0.939   4.181   2.669
 8439SOL     OW26215   6.359   4.196   2.463
 8439SOL    HW126216   6.381   4.288   2.494
 8439SOL    HW226217   6.347   4.197   2.363
 8440SOL     OW26218   1.288   1.617   2.468
 8440SOL    HW126219   1.202   1.581   2.503
 8440SOL    HW226220   1.340   1.658   2.543
 8441SOL     OW26221   6.980   2.612   5.795
 8441SOL    HW126222   0.005   2.645   5.713
 8441SOL    HW226223   0.025   2.587   5.865
 8442SOL     OW26224   3.815   2.659   6.573
 8442SOL    HW126225   3.880   2.733   6.561
 8442SOL    HW226226   3.805   2.609   6.486
 8443SOL     OW26227   2.125   4.188   2.696
 8443SOL    HW126228   2.224   4.195   2.706
 8443SOL    HW226229   2.102   4.146   2.609
 8444SOL     OW26230   5.402   5.465   5.095
 8444SOL    HW126231   5.337   5.539   5.079
 8444SOL    HW226232   5.402   5.441   5.192
 8445SOL     OW26233   4.212   6.209   6.851
 8445SOL    HW126234   4.242   6.190   6.944
 8445SOL    HW226235   4.224   6.127   6.794
 8446SOL     OW26236   6.690   5.853   4.471
 8446SOL    HW126237   6.610   5.869   4.528
 8446SOL    HW226238   6.705   5.932   4.411
 8447SOL     OW26239   3.339   1.768   4.514
 8447SOL    HW126240   3.397   1.689   4.491
 8447SOL    HW226241   3.383   1.852   4.482
 8448SOL     OW26242   3.452   6.595   2.704
 8448SOL    HW126243   3.435   6.682   2.657
 8448SOL    HW226244   3.378   6.577   2.769
 8449SOL     OW26245   1.407   2.520   4.178
 8449SOL    HW126246   1.360   2.452   4.235
 8449SOL    HW226247   1.492   2.549   4.224
 8450SOL     OW26248   6.903   1.057   0.617
 8450SOL    HW126249   6.903   1.130   0.549
 8450SOL    HW226250   6.874   0.971   0.574
 8451SOL     OW26251   3.950   2.719   1.358
 8451SOL    HW126252   3.907   2.808   1.367
 8451SOL    HW226253   4.047   2.731   1.338
 8452SOL     OW26254   5.173   0.745   5.910
 8452SOL    HW126255   5.271   0.766   5.912
 8452SOL    HW226256   5.150   0.682   5.984
 8453SOL     OW26257   0.197   0.314   0.389
 8453SOL    HW126258   0.232   0.361   0.470
 8453SOL    HW226259   0.137   0.376   0.338
 8454SOL     OW26260   6.292   5.973   6.742
 8454SOL    HW126261   6.249   5.952   6.830
 8454SOL    HW226262   6.227   5.958   6.668
 8455SOL     OW26263   6.103   0.795   3.064
 8455SOL    HW126264   6.079   0.733   3.138
 8455SOL    HW226265   6.072   0.757   2.977
 8456SOL     OW26266   6.953   0.783   2.489
 8456SOL    HW126267   0.023   0.820   2.480
 8456SOL    HW226268   6.959   0.687   2.519
 8457SOL     OW26269   6.412   6.833   4.768
 8457SOL    HW126270   6.505   6.854   4.798
 8457SOL    HW226271   6.389   6.739   4.792
 8458SOL     OW26272   1.195   6.749   0.097
 8458SOL    HW126273   1.142   6.772   0.179
 8458SOL    HW226274   1.289   6.726   0.124
 8459SOL     OW26275   0.651   5.717   2.824
 8459SOL    HW126276   0.562   5.759   2.805
 8459SOL    HW226277   0.668   5.719   2.922
 8460SOL     OW26278   3.913   3.191   3.389
 8460SOL    HW126279   3.879   3.162   3.299
 8460SOL    HW226280   3.983   3.261   3.377
 8461SOL     OW26281   6.376   3.390   3.577
 8461SOL    HW126282   6.345   3.475   3.618
 8461SOL    HW226283   6.347   3.387   3.481
 8462SOL     OW26284   2.600   2.410   1.927
 8462SOL    HW126285   2.653   2.326   1.926
 8462SOL    HW226286   2.509   2.392   1.965
 8463SOL     OW26287   6.363   0.615   1.818
 8463SOL    HW126288   6.412   0.695   1.851
 8463SOL    HW226289   6.290   0.643   1.756
 8464SOL     OW26290   6.871   0.889   4.500
 8464SOL    HW126291   6.803   0.822   4.469
 8464SOL    HW226292   6.827   0.954   4.562
 8465SOL     OW26293   1.937   1.442   0.700
 8465SOL    HW126294   1.964   1.485   0.787
 8465SOL    HW226295   1.977   1.351   0.695
 8466SOL     OW26296   0.783   6.996   4.349
 8466SOL    HW126297   0.850   6.967   4.417
 8466SOL    HW226298   0.827   6.999   4.259
 8467SOL     OW26299   3.931   5.589   0.663
 8467SOL    HW126300   3.869   5.656   0.621
 8467SOL    HW226301   4.008   5.572   0.601
 8468SOL     OW26302   3.818   2.439   7.005
 8468SOL    HW126303   3.856   2.468   6.917
 8468SOL    HW226304   3.720   2.458   7.007
 8469SOL     OW26305   4.738   2.277   5.540
 8469SOL    HW126306   4.778   2.323   5.619
 8469SOL    HW226307   4.785   2.190   5.525
 8470SOL     OW26308   2.083   3.002   6.857
 8470SOL    HW126309   2.086   2.931   6.786
 8470SOL    HW226310   2.154   2.984   6.924
 8471SOL     OW26311   4.031   1.477   4.827
 8471SOL    HW126312   3.957   1.454   4.891
 8471SOL    HW226313   4.039   1.577   4.822
 8472SOL     OW26314   1.104   6.292   3.225
 8472SOL    HW126315   1.160   6.370   3.196
 8472SOL    HW226316   1.148   6.207   3.197
 8473SOL     OW26317   6.565   5.960   6.716
 8473SOL    HW126318   6.643   5.974   6.777
 8473SOL    HW226319   6.481   5.980   6.766
 8474SOL     OW26320   4.084   5.762   0.033
 8474SOL    HW126321   4.008   5.697   0.027
 8474SOL    HW226322   4.166   5.722   7.016
 8475SOL     OW26323   4.703   1.847   2.798
 8475SOL    HW126324   4.665   1.786   2.729
 8475SOL    HW226325   4.802   1.854   2.785
 8476SOL     OW26326   4.760   0.265   2.948
 8476SOL    HW126327   4.731   0.354   2.913
 8476SOL    HW226328   4.839   0.232   2.897
 8477SOL     OW26329   3.223   0.212   3.170
 8477SOL    HW126330   3.178   0.267   3.100
 8477SOL    HW226331   3.277   0.270   3.230
 8478SOL     OW26332   1.363   0.238   6.070
 8478SOL    HW126333   1.341   0.252   5.973
 8478SOL    HW226334   1.422   0.157   6.079
 8479SOL     OW26335   5.247   0.711   2.107
 8479SOL    HW126336   5.216   0.616   2.108
 8479SOL    HW226337   5.342   0.715   2.136
 8480SOL     OW26338   1.871   1.066   1.734
 8480SOL    HW126339   1.950   1.127   1.743
 8480SOL    HW226340   1.898   0.985   1.682
 8481SOL     OW26341   4.330   0.133   5.780
 8481SOL    HW126342   4.403   0.091   5.726
 8481SOL    HW226343   4.314   0.079   5.862
 8482SOL     OW26344   6.802   0.654   1.308
 8482SOL    HW126345   6.896   0.668   1.340
 8482SOL    HW226346   6.803   0.629   1.211
 8483SOL     OW26347   5.145   6.492   1.847
 8483SOL    HW126348   5.058   6.444   1.854
 8483SOL    HW226349   5.190   6.494   1.936
 8484SOL     OW26350   6.671   4.740   5.707
 8484SOL    HW126351   6.764   4.740   5.668
 8484SOL    HW226352   6.608   4.781   5.642
 8485SOL     OW26353   1.732   3.233   6.262
 8485SOL    HW126354   1.758   3.233   6.165
 8485SOL    HW226355   1.791   3.170   6.313
 8486SOL     OW26356   4.321   0.798   2.735
 8486SOL    HW126357   4.322   0.894   2.761
 8486SOL    HW226358   4.227   0.763   2.740
 8487SOL     OW26359   4.226   0.609   0.607
 8487SOL    HW126360   4.269   0.626   0.696
 8487SOL    HW226361   4.146   0.550   0.621
 8488SOL     OW26362   6.693   3.524   5.243
 8488SOL    HW126363   6.620   3.459   5.262
 8488SOL    HW226364   6.766   3.514   5.311
 8489SOL     OW26365   3.161   6.942   3.412
 8489SOL    HW126366   3.082   6.998   3.390
 8489SOL    HW226367   3.218   6.990   3.479
 8490SOL     OW26368   4.014   5.024   2.733
 8490SOL    HW126369   3.932   4.999   2.681
 8490SOL    HW226370   4.028   4.957   2.807
 8491SOL     OW26371   0.983   0.666   1.658
 8491SOL    HW126372   0.892   0.694   1.687
 8491SOL    HW226373   0.976   0.605   1.579
 8492SOL     OW26374   5.700   4.123   4.872
 8492SOL    HW126375   5.778   4.184   4.880
 8492SOL    HW226376   5.728   4.038   4.827
 8493SOL     OW26377   3.559   2.949   0.902
 8493SOL    HW126378   3.525   2.939   0.996
 8493SOL    HW226379   3.502   2.895   0.840
 8494SOL     OW26380   3.564   6.418   6.653
 8494SOL    HW126381   3.471   6.440   6.624
 8494SOL    HW226382   3.571   6.426   6.752
 8495SOL     OW26383   0.757   2.876   6.635
 8495SOL    HW126384   0.658   2.884   6.639
 8495SOL    HW226385   0.791   2.836   6.721
 8496SOL     OW26386   1.127   2.178   3.436
 8496SOL    HW126387   1.175   2.102   3.392
 8496SOL    HW226388   1.048   2.144   3.486
 8497SOL     OW26389   5.846   4.180   3.623
 8497SOL    HW126390   5.818   4.091   3.659
 8497SOL    HW226391   5.922   4.167   3.558
 8498SOL     OW26392   6.597   0.777   1.452
 8498SOL    HW126393   6.636   0.869   1.451
 8498SOL    HW226394   6.664   0.712   1.416
 8499SOL     OW26395   7.004   4.484   0.467
 8499SOL    HW126396   6.926   4.426   0.489
 8499SOL    HW226397   0.046   4.483   0.544
 8500SOL     OW26398   2.162   0.648   5.396
 8500SOL    HW126399   2.117   0.585   5.333
 8500SOL    HW226400   2.233   0.599   5.447
 8501SOL     OW26401   2.663   3.797   6.328
 8501SOL    HW126402   2.700   3.864   6.265
 8501SOL    HW226403   2.719   3.714   6.326
 8502SOL     OW26404   0.807   6.638   1.815
 8502SOL    HW126405   0.808   6.540   1.798
 8502SOL    HW226406   0.718   6.675   1.790
 8503SOL     OW26407   3.864   5.356   3.274
 8503SOL    HW126408   3.897   5.334   3.366
 8503SOL    HW226409   3.791   5.424   3.280
 8504SOL     OW26410   1.381   4.821   3.248
 8504SOL    HW126411   1.432   4.846   3.166
 8504SOL    HW226412   1.414   4.875   3.326
 8505SOL     OW26413   4.464   2.116   3.240
 8505SOL    HW126414   4.526   2.112   3.161
 8505SOL    HW226415   4.427   2.209   3.248
 8506SOL     OW26416   0.586   5.468   6.984
 8506SOL    HW126417   0.517   5.403   6.950
 8506SOL    HW226418   0.540   5.549   7.021
 8507SOL     OW26419   1.610   0.428   4.570
 8507SOL    HW126420   1.669   0.504   4.597
 8507SOL    HW226421   1.542   0.462   4.505
 8508SOL     OW26422   0.606   3.272   5.444
 8508SOL    HW126423   0.600   3.288   5.345
 8508SOL    HW226424   0.518   3.239   5.478
 8509SOL     OW26425   6.310   2.464   4.782
 8509SOL    HW126426   6.219   2.436   4.813
 8509SOL    HW226427   6.344   2.537   4.842
 8510SOL     OW26428   5.278   6.977   2.740
 8510SOL    HW126429   5.235   0.035   2.699
 8510SOL    HW226430   5.233   6.895   2.706
 8511SOL     OW26431   6.813   5.350   1.377
 8511SOL    HW126432   6.772   5.349   1.286
 8511SOL    HW226433   6.772   5.423   1.431
 8512SOL     OW26434   4.281   3.069   1.045
 8512SOL    HW126435   4.281   3.140   1.115
 8512SOL    HW226436   4.342   3.096   0.970
 8513SOL     OW26437   0.704   3.257   0.687
 8513SOL    HW126438   0.746   3.294   0.770
 8513SOL    HW226439   0.761   3.279   0.608
 8514SOL     OW26440   2.244   3.010   4.772
 8514SOL    HW126441   2.300   2.933   4.742
 8514SOL    HW226442   2.279   3.045   4.859
 8515SOL     OW26443   2.884   1.123   0.234
 8515SOL    HW126444   2.890   1.140   0.135
 8515SOL    HW226445   2.872   1.210   0.282
 8516SOL     OW26446   6.215   3.342   5.143
 8516SOL    HW126447   6.125   3.305   5.166
 8516SOL    HW226448   6.267   3.273   5.091
 8517SOL     OW26449   1.511   2.022   5.875
 8517SOL    HW126450   1.448   1.945   5.875
 8517SOL    HW226451   1.512   2.065   5.965
 8518SOL     OW26452   5.551   4.821   0.105
 8518SOL    HW126453   5.636   4.796   0.058
 8518SOL    HW226454   5.569   4.897   0.168
 8519SOL     OW26455   0.665   3.880   0.529
 8519SOL    HW126456   0.635   3.785   0.516
 8519SOL    HW226457   0.608   3.941   0.474
 8520SOL     OW26458   3.071   3.592   6.176
 8520SOL    HW126459   3.093   3.660   6.106
 8520SOL    HW226460   3.144   3.525   6.182
 8521SOL     OW26461   1.981   6.755   4.675
 8521SOL    HW126462   1.896   6.752   4.622
 8521SOL    HW226463   2.009   6.661   4.697
 8522SOL     OW26464   0.358   0.615   0.036
 8522SOL    HW126465   0.407   0.644   0.118
 8522SOL    HW226466   0.314   0.527   0.052
 8523SOL     OW26467   3.947   1.836   1.354
 8523SOL    HW126468   3.980   1.781   1.278
 8523SOL    HW226469   3.978   1.795   1.440
 8524SOL     OW26470   3.037   6.389   5.315
 8524SOL    HW126471   3.076   6.398   5.406
 8524SOL    HW226472   2.950   6.437   5.310
 8525SOL     OW26473   6.254   2.821   2.930
 8525SOL    HW126474   6.318   2.746   2.945
 8525SOL    HW226475   6.244   2.838   2.832
 8526SOL     OW26476   0.263   4.535   6.683
 8526SOL    HW126477   0.232   4.440   6.676
 8526SOL    HW226478   0.341   4.549   6.621
 8527SOL     OW26479   2.531   0.741   5.967
 8527SOL    HW126480   2.619   0.718   6.008
 8527SOL    HW226481   2.521   0.840   5.963
 8528SOL     OW26482   5.765   0.509   0.771
 8528SOL    HW126483   5.670   0.505   0.739
 8528SOL    HW226484   5.783   0.432   0.832
 8529SOL     OW26485   0.900   6.384   6.535
 8529SOL    HW126486   0.868   6.476   6.510
 8529SOL    HW226487   1.000   6.383   6.537
 8530SOL     OW26488   4.052   3.715   2.982
 8530SOL    HW126489   4.068   3.720   2.883
 8530SOL    HW226490   4.008   3.628   3.004
 8531SOL     OW26491   6.367   5.761   3.295
 8531SOL    HW126492   6.291   5.822   3.315
 8531SOL    HW226493   6.351   5.714   3.208
 8532SOL     OW26494   3.511   5.418   0.350
 8532SOL    HW126495   3.454   5.438   0.271
 8532SOL    HW226496   3.495   5.324   0.380
 8533SOL     OW26497   2.693   6.068   5.088
 8533SOL    HW126498   2.602   6.073   5.128
 8533SOL    HW226499   2.759   6.044   5.160
 8534SOL     OW26500   1.880   3.444   2.100
 8534SOL    HW126501   1.872   3.381   2.023
 8534SOL    HW226502   1.965   3.426   2.149
 8535SOL     OW26503   6.364   0.213   2.157
 8535SOL    HW126504   6.284   0.197   2.216
 8535SOL    HW226505   6.334   0.231   2.064
 8536SOL     OW26506   1.798   0.898   3.966
 8536SOL    HW126507   1.815   0.916   3.870
 8536SOL    HW226508   1.820   0.803   3.988
 8537SOL     OW26509   5.726   1.094   3.070
 8537SOL    HW126510   5.646   1.065   3.122
 8537SOL    HW226511   5.723   1.054   2.979
 8538SOL     OW26512   0.649   2.332   6.705
 8538SOL    HW126513   0.745   2.315   6.727
 8538SOL    HW226514   0.595   2.334   6.790
 8539SOL     OW26515   5.249   3.342   2.108
 8539SOL    HW126516   5.348   3.332   2.099
 8539SOL    HW226517   5.209   3.255   2.136
 8540SOL     OW26518   4.165   0.198   1.221
 8540SOL    HW126519   4.106   0.222   1.298
 8540SOL    HW226520   4.240   0.141   1.253
 8541SOL     OW26521   1.469   3.156   3.336
 8541SOL    HW126522   1.567   3.177   3.330
 8541SOL    HW226523   1.457   3.056   3.342
 8542SOL     OW26524   2.812   4.569   6.467
 8542SOL    HW126525   2.822   4.511   6.548
 8542SOL    HW226526   2.715   4.591   6.454
 8543SOL     OW26527   3.708   2.154   6.659
 8543SOL    HW126528   3.693   2.055   6.671
 8543SOL    HW226529   3.785   2.183   6.715
 8544SOL     OW26530   6.018   1.665   4.198
 8544SOL    HW126531   6.001   1.760   4.221
 8544SOL    HW226532   6.004   1.608   4.280
 8545SOL     OW26533   4.527   6.471   5.312
 8545SOL    HW126534   4.585   6.506   5.238
 8545SOL    HW226535   4.460   6.541   5.337
 8546SOL     OW26536   4.133   2.083   6.934
 8546SOL    HW126537   4.140   2.121   0.004
 8546SOL    HW226538   4.048   2.115   6.891
 8547SOL     OW26539   1.714   4.440   2.316
 8547SOL    HW126540   1.677   4.522   2.361
 8547SOL    HW226541   1.648   4.406   2.250
 8548SOL     OW26542   6.183   2.113   5.496
 8548SOL    HW126543   6.201   2.205   5.463
 8548SOL    HW226544   6.118   2.116   5.572
 8549SOL     OW26545   5.241   3.042   5.053
 8549SOL    HW126546   5.159   2.990   5.077
 8549SOL    HW226547   5.251   3.044   4.953
 8550SOL     OW26548   1.562   4.672   5.189
 8550SOL    HW126549   1.521   4.723   5.114
 8550SOL    HW226550   1.627   4.605   5.152
 8551SOL     OW26551   2.221   4.612   1.039
 8551SOL    HW126552   2.219   4.706   1.070
 8551SOL    HW226553   2.160   4.556   1.095
 8552SOL     OW26554   2.960   6.751   4.632
 8552SOL    HW126555   2.866   6.732   4.660
 8552SOL    HW226556   2.966   6.843   4.592
 8553SOL     OW26557   6.252   5.550   0.327
 8553SOL    HW126558   6.285   5.507   0.411
 8553SOL    HW226559   6.157   5.579   0.340
 8554SOL     OW26560   5.813   3.866   0.712
 8554SOL    HW126561   5.888   3.868   0.777
 8554SOL    HW226562   5.837   3.806   0.635
 8555SOL     OW26563   2.220   6.492   4.057
 8555SOL    HW126564   2.193   6.401   4.089
 8555SOL    HW226565   2.186   6.506   3.964
 8556SOL     OW26566   5.770   6.879   5.007
 8556SOL    HW126567   5.836   6.952   4.987
 8556SOL    HW226568   5.753   6.826   4.924
 8557SOL     OW26569   6.450   1.703   1.044
 8557SOL    HW126570   6.365   1.663   1.011
 8557SOL    HW226571   6.465   1.791   0.999
 8558SOL     OW26572   1.499   4.335   2.573
 8558SOL    HW126573   1.491   4.259   2.509
 8558SOL    HW226574   1.408   4.361   2.606
 8559SOL     OW26575   0.982   1.461   5.161
 8559SOL    HW126576   1.038   1.459   5.078
 8559SOL    HW226577   1.018   1.530   5.223
 8560SOL     OW26578   6.535   2.510   6.698
 8560SOL    HW126579   6.606   2.548   6.757
 8560SOL    HW226580   6.578   2.466   6.619
 8561SOL     OW26581   4.880   5.986   6.405
 8561SOL    HW126582   4.957   6.039   6.440
 8561SOL    HW226583   4.855   5.916   6.472
 8562SOL     OW26584   3.840   0.515   4.447
 8562SOL    HW126585   3.838   0.455   4.526
 8562SOL    HW226586   3.792   0.471   4.371
 8563SOL     OW26587   2.758   3.105   6.486
 8563SOL    HW126588   2.825   3.059   6.428
 8563SOL    HW226589   2.667   3.067   6.468
 8564SOL     OW26590   0.672   5.543   3.250
 8564SOL    HW126591   0.692   5.450   3.219
 8564SOL    HW226592   0.610   5.539   3.329
 8565SOL     OW26593   3.605   0.944   1.395
 8565SOL    HW126594   3.652   0.935   1.308
 8565SOL    HW226595   3.623   0.864   1.452
 8566SOL     OW26596   1.621   4.138   4.483
 8566SOL    HW126597   1.637   4.065   4.549
 8566SOL    HW226598   1.708   4.181   4.459
 8567SOL     OW26599   5.368   6.549   6.430
 8567SOL    HW126600   5.292   6.501   6.387
 8567SOL    HW226601   5.443   6.486   6.447
 8568SOL     OW26602   5.571   6.961   0.886
 8568SOL    HW126603   5.551   6.865   0.905
 8568SOL    HW226604   5.549   6.982   0.791
 8569SOL     OW26605   3.115   0.600   5.376
 8569SOL    HW126606   3.063   0.628   5.457
 8569SOL    HW226607   3.133   0.680   5.319
 8570SOL     OW26608   6.614   3.451   6.360
 8570SOL    HW126609   6.622   3.366   6.411
 8570SOL    HW226610   6.688   3.513   6.386
 8571SOL     OW26611   6.647   4.264   5.899
 8571SOL    HW126612   6.586   4.344   5.897
 8571SOL    HW226613   6.739   4.293   5.926
 8572SOL     OW26614   2.757   4.849   6.473
 8572SOL    HW126615   2.686   4.831   6.541
 8572SOL    HW226616   2.814   4.768   6.462
 8573SOL     OW26617   3.180   6.058   4.219
 8573SOL    HW126618   3.268   6.026   4.185
 8573SOL    HW226619   3.175   6.041   4.318
 8574SOL     OW26620   1.071   4.143   4.112
 8574SOL    HW126621   1.149   4.174   4.167
 8574SOL    HW226622   1.009   4.220   4.096
 8575SOL     OW26623   2.920   3.416   6.017
 8575SOL    HW126624   2.975   3.494   6.048
 8575SOL    HW226625   2.866   3.443   5.937
 8576SOL     OW26626   2.063   0.277   0.877
 8576SOL    HW126627   2.140   0.229   0.834
 8576SOL    HW226628   1.978   0.230   0.854
 8577SOL     OW26629   6.593   5.605   4.368
 8577SOL    HW126630   6.625   5.697   4.389
 8577SOL    HW226631   6.494   5.606   4.352
 8578SOL     OW26632   4.631   0.566   4.109
 8578SOL    HW126633   4.540   0.592   4.079
 8578SOL    HW226634   4.664   0.632   4.176
 8579SOL     OW26635   0.723   4.358   2.491
 8579SOL    HW126636   0.801   4.410   2.526
 8579SOL    HW226637   0.673   4.318   2.568
 8580SOL     OW26638   2.466   5.579   5.958
 8580SOL    HW126639   2.523   5.552   6.037
 8580SOL    HW226640   2.524   5.620   5.888
 8581SOL     OW26641   3.595   3.533   0.241
 8581SOL    HW126642   3.570   3.444   0.281
 8581SOL    HW226643   3.550   3.606   0.293
 8582SOL     OW26644   3.874   4.783   0.142
 8582SOL    HW126645   3.960   4.828   0.166
 8582SOL    HW226646   3.800   4.823   0.196
 8583SOL     OW26647   5.449   6.902   4.538
 8583SOL    HW126648   5.444   6.950   4.625
 8583SOL    HW226649   5.544   6.881   4.516
 8584SOL     OW26650   0.235   5.823   6.295
 8584SOL    HW126651   0.145   5.817   6.253
 8584SOL    HW226652   0.285   5.738   6.279
 8585SOL     OW26653   1.475   1.614   0.781
 8585SOL    HW126654   1.393   1.671   0.774
 8585SOL    HW226655   1.542   1.643   0.713
 8586SOL     OW26656   3.829   4.892   3.714
 8586SOL    HW126657   3.772   4.925   3.639
 8586SOL    HW226658   3.776   4.894   3.799
 8587SOL     OW26659   6.615   1.425   1.385
 8587SOL    HW126660   6.544   1.479   1.428
 8587SOL    HW226661   6.688   1.406   1.451
 8588SOL     OW26662   3.720   2.950   6.285
 8588SOL    HW126663   3.675   2.973   6.371
 8588SOL    HW226664   3.812   2.989   6.284
 8589SOL     OW26665   2.716   1.810   4.399
 8589SOL    HW126666   2.618   1.809   4.381
 8589SOL    HW226667   2.764   1.754   4.332
 8590SOL     OW26668   5.457   4.818   5.565
 8590SOL    HW126669   5.473   4.903   5.516
 8590SOL    HW226670   5.359   4.797   5.564
 8591SOL     OW26671   0.765   3.028   0.520
 8591SOL    HW126672   0.785   3.067   0.610
 8591SOL    HW226673   0.670   2.996   0.517
 8592SOL     OW26674   6.485   6.237   7.007
 8592SOL    HW126675   6.478   6.315   0.046
 8592SOL    HW226676   6.580   6.205   7.004
 8593SOL     OW26677   0.413   5.107   2.977
 8593SOL    HW126678   0.452   5.111   2.885
 8593SOL    HW226679   0.338   5.173   2.985
 8594SOL     OW26680   4.001   3.466   2.568
 8594SOL    HW126681   3.975   3.374   2.597
 8594SOL    HW226682   4.021   3.466   2.471
 8595SOL     OW26683   1.768   3.018   1.822
 8595SOL    HW126684   1.691   2.963   1.855
 8595SOL    HW226685   1.834   2.959   1.777
 8596SOL     OW26686   6.632   4.170   2.431
 8596SOL    HW126687   6.656   4.226   2.510
 8596SOL    HW226688   6.535   4.179   2.411
 8597SOL     OW26689   2.025   1.667   1.159
 8597SOL    HW126690   1.953   1.729   1.191
 8597SOL    HW226691   2.066   1.620   1.237
 8598SOL     OW26692   6.070   2.708   1.827
 8598SOL    HW126693   6.004   2.660   1.885
 8598SOL    HW226694   6.162   2.675   1.847
 8599SOL     OW26695   0.996   2.592   1.068
 8599SOL    HW126696   1.023   2.511   1.017
 8599SOL    HW226697   0.903   2.618   1.043
 8600SOL     OW26698   0.102   2.455   5.993
 8600SOL    HW126699   0.097   2.383   5.924
 8600SOL    HW226700   0.081   2.417   6.083
 8601SOL     OW26701   0.626   0.568   4.858
 8601SOL    HW126702   0.726   0.573   4.856
 8601SOL    HW226703   0.597   0.473   4.860
 8602SOL     OW26704   1.157   6.219   2.506
 8602SOL    HW126705   1.230   6.203   2.439
 8602SOL    HW226706   1.128   6.132   2.545
 8603SOL     OW26707   4.921   3.622   2.102
 8603SOL    HW126708   4.920   3.585   2.009
 8603SOL    HW226709   4.894   3.718   2.100
 8604SOL     OW26710   6.151   1.958   3.458
 8604SOL    HW126711   6.061   1.988   3.427
 8604SOL    HW226712   6.197   2.032   3.506
 8605SOL     OW26713   2.678   5.022   1.560
 8605SOL    HW126714   2.657   5.021   1.462
 8605SOL    HW226715   2.760   4.968   1.577
 8606SOL     OW26716   4.179   5.254   4.451
 8606SOL    HW126717   4.103   5.242   4.388
 8606SOL    HW226718   4.153   5.218   4.541
 8607SOL     OW26719   2.804   6.432   0.336
 8607SOL    HW126720   2.874   6.421   0.407
 8607SOL    HW226721   2.713   6.427   0.378
 8608SOL     OW26722   5.752   6.621   2.496
 8608SOL    HW126723   5.819   6.570   2.549
 8608SOL    HW226724   5.796   6.657   2.413
 8609SOL     OW26725   5.493   0.251   6.019
 8609SOL    HW126726   5.577   0.282   6.063
 8609SOL    HW226727   5.500   0.267   5.920
 8610SOL     OW26728   6.855   6.437   5.254
 8610SOL    HW126729   6.890   6.461   5.344
 8610SOL    HW226730   6.766   6.392   5.264
 8611SOL     OW26731   1.894   1.920   2.795
 8611SOL    HW126732   1.978   1.875   2.825
 8611SOL    HW226733   1.846   1.862   2.729
 8612SOL     OW26734   5.248   3.317   4.391
 8612SOL    HW126735   5.165   3.355   4.432
 8612SOL    HW226736   5.231   3.222   4.364
 8613SOL     OW26737   1.184   0.277   0.585
 8613SOL    HW126738   1.102   0.328   0.558
 8613SOL    HW226739   1.157   0.193   0.631
 8614SOL     OW26740   1.593   3.293   2.840
 8614SOL    HW126741   1.591   3.324   2.745
 8614SOL    HW226742   1.688   3.289   2.872
 8615SOL     OW26743   5.015   1.862   6.066
 8615SOL    HW126744   4.972   1.785   6.113
 8615SOL    HW226745   5.086   1.901   6.124
 8616SOL     OW26746   1.196   3.421   0.645
 8616SOL    HW126747   1.201   3.366   0.561
 8616SOL    HW226748   1.260   3.498   0.638
 8617SOL     OW26749   6.186   3.110   0.862
 8617SOL    HW126750   6.093   3.147   0.856
 8617SOL    HW226751   6.196   3.060   0.948
 8618SOL     OW26752   3.541   1.310   2.920
 8618SOL    HW126753   3.485   1.393   2.918
 8618SOL    HW226754   3.492   1.238   2.969
 8619SOL     OW26755   3.741   6.537   0.970
 8619SOL    HW126756   3.742   6.635   0.989
 8619SOL    HW226757   3.716   6.522   0.874
 8620SOL     OW26758   5.953   6.119   3.917
 8620SOL    HW126759   5.968   6.083   3.825
 8620SOL    HW226760   5.989   6.053   3.984
 8621SOL     OW26761   4.791   1.081   3.421
 8621SOL    HW126762   4.881   1.111   3.452
 8621SOL    HW226763   4.737   1.160   3.392
 8622SOL     OW26764   5.129   5.492   6.097
 8622SOL    HW126765   5.218   5.524   6.129
 8622SOL    HW226766   5.099   5.415   6.153
 8623SOL     OW26767   5.928   1.998   3.839
 8623SOL    HW126768   5.910   2.094   3.860
 8623SOL    HW226769   6.026   1.979   3.849
 8624SOL     OW26770   6.161   3.112   3.630
 8624SOL    HW126771   6.159   3.079   3.535
 8624SOL    HW226772   6.224   3.189   3.637
 8625SOL     OW26773   3.472   1.495   6.438
 8625SOL    HW126774   3.563   1.535   6.453
 8625SOL    HW226775   3.440   1.520   6.347
 8626SOL     OW26776   3.181   3.759   1.778
 8626SOL    HW126777   3.111   3.825   1.803
 8626SOL    HW226778   3.271   3.803   1.778
 8627SOL     OW26779   3.156   0.298   6.758
 8627SOL    HW126780   3.059   0.318   6.746
 8627SOL    HW226781   3.167   0.232   6.832
 8628SOL     OW26782   6.349   1.512   1.569
 8628SOL    HW126783   6.266   1.488   1.619
 8628SOL    HW226784   6.325   1.563   1.487
 8629SOL     OW26785   1.593   5.942   3.327
 8629SOL    HW126786   1.636   5.876   3.389
 8629SOL    HW226787   1.504   5.907   3.298
 8630SOL     OW26788   5.250   4.827   4.228
 8630SOL    HW126789   5.274   4.918   4.193
 8630SOL    HW226790   5.259   4.827   4.328
 8631SOL     OW26791   4.025   6.705   3.448
 8631SOL    HW126792   4.097   6.636   3.434
 8631SOL    HW226793   3.991   6.737   3.360
 8632SOL     OW26794   3.258   0.793   3.058
 8632SOL    HW126795   3.221   0.809   3.150
 8632SOL    HW226796   3.358   0.789   3.063
 8633SOL     OW26797   6.437   6.694   2.625
 8633SOL    HW126798   6.395   6.784   2.636
 8633SOL    HW226799   6.437   6.669   2.528
 8634SOL     OW26800   6.168   6.186   1.547
 8634SOL    HW126801   6.179   6.219   1.641
 8634SOL    HW226802   6.257   6.154   1.513
 8635SOL     OW26803   5.940   3.725   5.863
 8635SOL    HW126804   5.872   3.652   5.868
 8635SOL    HW226805   5.916   3.798   5.928
 8636SOL     OW26806   5.587   5.211   1.166
 8636SOL    HW126807   5.511   5.277   1.165
 8636SOL    HW226808   5.557   5.125   1.126
 8637SOL     OW26809   0.936   0.382   2.271
 8637SOL    HW126810   0.867   0.452   2.286
 8637SOL    HW226811   0.984   0.400   2.185
 8638SOL     OW26812   5.926   4.431   1.168
 8638SOL    HW126813   5.922   4.531   1.181
 8638SOL    HW226814   6.018   4.399   1.189
 8639SOL     OW26815   5.965   2.430   2.845
 8639SOL    HW126816   6.052   2.480   2.836
 8639SOL    HW226817   5.957   2.395   2.938
 8640SOL     OW26818   4.959   5.941   1.594
 8640SOL    HW126819   4.960   5.870   1.524
 8640SOL    HW226820   4.875   5.933   1.648
 8641SOL     OW26821   5.449   4.321   3.737
 8641SOL    HW126822   5.440   4.243   3.799
 8641SOL    HW226823   5.502   4.293   3.657
 8642SOL     OW26824   4.709   1.240   1.085
 8642SOL    HW126825   4.727   1.143   1.099
 8642SOL    HW226826   4.612   1.254   1.068
 8643SOL     OW26827   4.598   0.004   6.808
 8643SOL    HW126828   4.592   6.936   6.765
 8643SOL    HW226829   4.615   0.073   6.738
 8644SOL     OW26830   6.381   3.207   5.456
 8644SOL    HW126831   6.318   3.247   5.523
 8644SOL    HW226832   6.340   3.125   5.417
 8645SOL     OW26833   6.622   3.612   1.640
 8645SOL    HW126834   6.690   3.615   1.714
 8645SOL    HW226835   6.533   3.638   1.676
 8646SOL     OW26836   5.139   6.363   0.575
 8646SOL    HW126837   5.154   6.429   0.501
 8646SOL    HW226838   5.055   6.386   0.624
 8647SOL     OW26839   4.815   5.117   2.179
 8647SOL    HW126840   4.811   5.100   2.277
 8647SOL    HW226841   4.904   5.155   2.155
 8648SOL     OW26842   5.996   0.531   3.840
 8648SOL    HW126843   5.968   0.626   3.854
 8648SOL    HW226844   6.016   0.516   3.744
 8649SOL     OW26845   6.179   3.995   5.822
 8649SOL    HW126846   6.097   4.039   5.785
 8649SOL    HW226847   6.222   4.056   5.889
 8650SOL     OW26848   0.387   5.734   1.491
 8650SOL    HW126849   0.484   5.712   1.504
 8650SOL    HW226850   0.354   5.786   1.570
 8651SOL     OW26851   4.370   3.407   1.244
 8651SOL    HW126852   4.387   3.332   1.308
 8651SOL    HW226853   4.369   3.494   1.294
 8652SOL     OW26854   0.607   2.253   4.193
 8652SOL    HW126855   0.593   2.314   4.115
 8652SOL    HW226856   0.543   2.277   4.266
 8653SOL     OW26857   5.250   2.943   6.536
 8653SOL    HW126858   5.290   2.928   6.446
 8653SOL    HW226859   5.314   2.912   6.606
 8654SOL     OW26860   1.388   4.848   1.657
 8654SOL    HW126861   1.386   4.885   1.565
 8654SOL    HW226862   1.482   4.846   1.691
 8655SOL     OW26863   5.428   6.085   2.850
 8655SOL    HW126864   5.470   6.100   2.939
 8655SOL    HW226865   5.450   5.993   2.817
 8656SOL     OW26866   6.307   2.503   1.886
 8656SOL    HW126867   6.247   2.431   1.852
 8656SOL    HW226868   6.301   2.508   1.986
 8657SOL     OW26869   2.741   5.228   0.423
 8657SOL    HW126870   2.772   5.305   0.480
 8657SOL    HW226871   2.815   5.163   0.411
 8658SOL     OW26872   1.226   5.760   5.910
 8658SOL    HW126873   1.257   5.677   5.957
 8658SOL    HW226874   1.138   5.788   5.945
 8659SOL     OW26875   4.046   0.097   4.434
 8659SOL    HW126876   4.042   0.048   4.347
 8659SOL    HW226877   4.116   0.056   4.492
 8660SOL     OW26878   4.794   4.618   0.051
 8660SOL    HW126879   4.852   4.613   0.132
 8660SOL    HW226880   4.745   4.706   0.050
 8661SOL     OW26881   6.331   3.184   2.019
 8661SOL    HW126882   6.426   3.184   1.986
 8661SOL    HW226883   6.319   3.260   2.083
 8662SOL     OW26884   0.236   0.975   0.105
 8662SOL    HW126885   0.238   0.924   0.020
 8662SOL    HW226886   0.302   1.050   0.101
 8663SOL     OW26887   2.447   5.338   0.983
 8663SOL    HW126888   2.406   5.403   1.047
 8663SOL    HW226889   2.509   5.386   0.921
 8664SOL     OW26890   4.810   4.711   1.516
 8664SOL    HW126891   4.888   4.684   1.572
 8664SOL    HW226892   4.836   4.713   1.420
 8665SOL     OW26893   5.367   5.408   4.741
 8665SOL    HW126894   5.405   5.493   4.705
 8665SOL    HW226895   5.286   5.383   4.689
 8666SOL     OW26896   6.861   4.501   4.359
 8666SOL    HW126897   6.933   4.472   4.421
 8666SOL    HW226898   6.771   4.478   4.398
 8667SOL     OW26899   5.444   2.474   3.382
 8667SOL    HW126900   5.354   2.450   3.345
 8667SOL    HW226901   5.444   2.459   3.481
 8668SOL     OW26902   3.369   0.829   5.410
 8668SOL    HW126903   3.315   0.860   5.332
 8668SOL    HW226904   3.450   0.887   5.419
 8669SOL     OW26905   3.690   6.907   6.458
 8669SOL    HW126906   3.668   6.937   6.365
 8669SOL    HW226907   3.619   6.844   6.491
 8670SOL     OW26908   4.474   4.562   2.391
 8670SOL    HW126909   4.509   4.498   2.458
 8670SOL    HW226910   4.516   4.544   2.302
 8671SOL     OW26911   6.115   5.998   2.075
 8671SOL    HW126912   6.176   5.926   2.041
 8671SOL    HW226913   6.023   5.960   2.089
 8672SOL     OW26914   3.774   4.875   4.432
 8672SOL    HW126915   3.836   4.803   4.403
 8672SOL    HW226916   3.795   4.901   4.527
 8673SOL     OW26917   4.773   2.240   6.841
 8673SOL    HW126918   4.699   2.308   6.838
 8673SOL    HW226919   4.754   2.173   6.912
 8674SOL     OW26920   0.748   6.931   3.137
 8674SOL    HW126921   0.826   6.969   3.187
 8674SOL    HW226922   0.730   6.987   3.056
 8675SOL     OW26923   2.440   1.617   2.751
 8675SOL    HW126924   2.493   1.687   2.800
 8675SOL    HW226925   2.491   1.588   2.670
 8676SOL     OW26926   4.773   1.247   3.928
 8676SOL    HW126927   4.682   1.268   3.963
 8676SOL    HW226928   4.828   1.205   4.001
 8677SOL     OW26929   1.991   3.660   5.803
 8677SOL    HW126930   1.896   3.685   5.821
 8677SOL    HW226931   2.014   3.578   5.856
 8678SOL     OW26932   1.057   0.820   5.763
 8678SOL    HW126933   1.107   0.903   5.737
 8678SOL    HW226934   1.122   0.753   5.800
 8679SOL     OW26935   6.315   2.076   4.659
 8679SOL    HW126936   6.308   2.123   4.747
 8679SOL    HW226937   6.224   2.045   4.630
 8680SOL     OW26938   0.829   3.568   0.265
 8680SOL    HW126939   0.871   3.554   0.176
 8680SOL    HW226940   0.833   3.665   0.289
 8681SOL     OW26941   4.269   4.016   1.247
 8681SOL    HW126942   4.208   4.089   1.218
 8681SOL    HW226943   4.242   3.982   1.337
 8682SOL     OW26944   1.436   5.940   2.918
 8682SOL    HW126945   1.362   6.005   2.905
 8682SOL    HW226946   1.432   5.869   2.848
 8683SOL     OW26947   4.861   3.139   0.114
 8683SOL    HW126948   4.811   3.077   0.054
 8683SOL    HW226949   4.797   3.183   0.177
 8684SOL     OW26950   6.406   2.514   3.433
 8684SOL    HW126951   6.328   2.488   3.376
 8684SOL    HW226952   6.486   2.461   3.406
 8685SOL     OW26953   0.072   1.736   5.636
 8685SOL    HW126954   0.129   1.698   5.709
 8685SOL    HW226955   6.998   1.715   5.655
 8686SOL     OW26956   6.341   1.343   4.085
 8686SOL    HW126957   6.253   1.312   4.049
 8686SOL    HW226958   6.414   1.317   4.021
 8687SOL     OW26959   3.696   0.979   3.063
 8687SOL    HW126960   3.720   1.070   3.097
 8687SOL    HW226961   3.749   0.959   2.980
 8688SOL     OW26962   0.980   6.692   2.611
 8688SOL    HW126963   0.980   6.720   2.515
 8688SOL    HW226964   0.919   6.614   2.624
 8689SOL     OW26965   5.105   4.127   1.494
 8689SOL    HW126966   5.112   4.140   1.592
 8689SOL    HW226967   5.150   4.041   1.469
 8690SOL     OW26968   1.732   0.705   2.324
 8690SOL    HW126969   1.820   0.750   2.312
 8690SOL    HW226970   1.713   0.696   2.422
 8691SOL     OW26971   6.226   1.392   0.384
 8691SOL    HW126972   6.212   1.374   0.481
 8691SOL    HW226973   6.181   1.322   0.330
 8692SOL     OW26974   1.636   0.911   3.567
 8692SOL    HW126975   1.733   0.903   3.540
 8692SOL    HW226976   1.579   0.879   3.491
 8693SOL     OW26977   5.020   1.986   6.638
 8693SOL    HW126978   5.052   2.026   6.724
 8693SOL    HW226979   5.039   2.048   6.563
 8694SOL     OW26980   3.886   0.176   6.868
 8694SOL    HW126981   3.840   0.154   6.954
 8694SOL    HW226982   3.869   0.103   6.802
 8695SOL     OW26983   4.437   4.401   5.347
 8695SOL    HW126984   4.367   4.394   5.276
 8695SOL    HW226985   4.462   4.497   5.359
 8696SOL     OW26986   2.206   5.422   0.433
 8696SOL    HW126987   2.176   5.367   0.511
 8696SOL    HW226988   2.173   5.515   0.442
 8697SOL     OW26989   5.115   5.003   6.555
 8697SOL    HW126990   5.195   5.063   6.550
 8697SOL    HW226991   5.075   4.994   6.464
 8698SOL     OW26992   5.647   5.941   5.156
 8698SOL    HW126993   5.554   5.912   5.133
 8698SOL    HW226994   5.712   5.873   5.123
 8699SOL     OW26995   1.696   1.174   4.475
 8699SOL    HW126996   1.597   1.187   4.486
 8699SOL    HW226997   1.728   1.231   4.399
 8700SOL     OW26998   2.461   2.075   6.219
 8700SOL    HW126999   2.502   2.125   6.143
 8700SOL    HW227000   2.363   2.096   6.223
 8701SOL     OW27001   1.190   0.949   3.809
 8701SOL    HW127002   1.216   0.941   3.713
 8701SOL    HW227003   1.146   0.864   3.839
 8702SOL     OW27004   4.976   6.531   6.669
 8702SOL    HW127005   4.910   6.459   6.649
 8702SOL    HW227006   4.994   6.534   6.767
 8703SOL     OW27007   1.117   4.955   1.373
 8703SOL    HW127008   1.184   5.029   1.380
 8703SOL    HW227009   1.110   4.925   1.278
 8704SOL     OW27010   1.116   4.518   1.947
 8704SOL    HW127011   1.205   4.478   1.924
 8704SOL    HW227012   1.066   4.456   2.006
 8705SOL     OW27013   4.570   6.517   4.454
 8705SOL    HW127014   4.581   6.528   4.553
 8705SOL    HW227015   4.487   6.465   4.436
 8706SOL     OW27016   4.694   0.678   6.126
 8706SOL    HW127017   4.653   0.749   6.185
 8706SOL    HW227018   4.647   0.677   6.038
 8707SOL     OW27019   4.017   1.933   5.859
 8707SOL    HW127020   3.961   1.973   5.787
 8707SOL    HW227021   4.073   2.004   5.901
 8708SOL     OW27022   3.853   1.545   0.958
 8708SOL    HW127023   3.871   1.574   0.864
 8708SOL    HW227024   3.845   1.446   0.961
 8709SOL     OW27025   5.498   3.348   0.198
 8709SOL    HW127026   5.429   3.278   0.213
 8709SOL    HW227027   5.457   3.426   0.149
 8710SOL     OW27028   6.433   3.606   4.151
 8710SOL    HW127029   6.349   3.554   4.136
 8710SOL    HW227030   6.509   3.561   4.104
 8711SOL     OW27031   1.442   1.166   4.465
 8711SOL    HW127032   1.424   1.208   4.376
 8711SOL    HW227033   1.433   1.067   4.457
 8712SOL     OW27034   3.412   0.412   6.790
 8712SOL    HW127035   3.418   0.359   6.875
 8712SOL    HW227036   3.319   0.406   6.753
 8713SOL     OW27037   6.293   4.854   2.803
 8713SOL    HW127038   6.326   4.941   2.767
 8713SOL    HW227039   6.370   4.795   2.826
 8714SOL     OW27040   1.740   1.704   3.802
 8714SOL    HW127041   1.774   1.694   3.709
 8714SOL    HW227042   1.708   1.798   3.816
 8715SOL     OW27043   5.574   1.003   2.425
 8715SOL    HW127044   5.626   1.055   2.493
 8715SOL    HW227045   5.638   0.952   2.366
 8716SOL     OW27046   0.548   0.912   2.220
 8716SOL    HW127047   0.495   0.997   2.214
 8716SOL    HW227048   0.491   0.835   2.191
 8717SOL     OW27049   4.223   3.535   0.932
 8717SOL    HW127050   4.173   3.448   0.925
 8717SOL    HW227051   4.313   3.525   0.891
 8718SOL     OW27052   0.175   2.707   5.629
 8718SOL    HW127053   0.233   2.636   5.588
 8718SOL    HW227054   0.225   2.794   5.631
 8719SOL     OW27055   6.252   0.620   5.800
 8719SOL    HW127056   6.241   0.713   5.833
 8719SOL    HW227057   6.348   0.592   5.813
 8720SOL     OW27058   5.106   3.283   5.159
 8720SOL    HW127059   5.165   3.306   5.236
 8720SOL    HW227060   5.129   3.191   5.125
 8721SOL     OW27061   6.852   0.696   5.178
 8721SOL    HW127062   6.940   0.660   5.206
 8721SOL    HW227063   6.780   0.631   5.203
 8722SOL     OW27064   3.004   2.870   0.579
 8722SOL    HW127065   2.985   2.881   0.676
 8722SOL    HW227066   3.012   2.960   0.535
 8723SOL     OW27067   0.363   5.683   0.572
 8723SOL    HW127068   0.449   5.730   0.592
 8723SOL    HW227069   0.331   5.636   0.654
 8724SOL     OW27070   4.863   5.781   6.615
 8724SOL    HW127071   4.924   5.749   6.543
 8724SOL    HW227072   4.907   5.771   6.704
 8725SOL     OW27073   2.513   6.509   1.216
 8725SOL    HW127074   2.502   6.472   1.308
 8725SOL    HW227075   2.425   6.543   1.183
 8726SOL     OW27076   0.148   0.250   1.057
 8726SOL    HW127077   0.168   0.231   1.153
 8726SOL    HW227078   0.207   0.194   0.998
 8727SOL     OW27079   5.556   6.521   1.184
 8727SOL    HW127080   5.569   6.546   1.088
 8727SOL    HW227081   5.529   6.425   1.190
 8728SOL     OW27082   2.395   6.014   5.086
 8728SOL    HW127083   2.312   6.015   5.030
 8728SOL    HW227084   2.457   5.942   5.054
 8729SOL     OW27085   4.746   5.796   4.403
 8729SOL    HW127086   4.731   5.703   4.435
 8729SOL    HW227087   4.675   5.821   4.337
 8730SOL     OW27088   6.086   5.958   1.027
 8730SOL    HW127089   6.043   5.892   1.089
 8730SOL    HW227090   6.183   5.937   1.018
 8731SOL     OW27091   0.547   1.657   2.440
 8731SOL    HW127092   0.601   1.600   2.503
 8731SOL    HW227093   0.510   1.735   2.489
 8732SOL     OW27094   6.878   6.185   1.936
 8732SOL    HW127095   6.953   6.130   1.972
 8732SOL    HW227096   6.816   6.126   1.883
 8733SOL     OW27097   6.958   0.536   0.499
 8733SOL    HW127098   6.926   0.457   0.551
 8733SOL    HW227099   6.960   0.513   0.402
 8734SOL     OW27100   6.607   6.260   0.947
 8734SOL    HW127101   6.539   6.213   0.890
 8734SOL    HW227102   6.562   6.328   1.004
 8735SOL     OW27103   0.762   3.218   6.256
 8735SOL    HW127104   0.856   3.249   6.238
 8735SOL    HW227105   0.722   3.182   6.172
 8736SOL     OW27106   0.071   4.878   5.910
 8736SOL    HW127107   0.077   4.967   5.865
 8736SOL    HW227108   6.999   4.863   5.940
 8737SOL     OW27109   3.883   5.837   6.638
 8737SOL    HW127110   3.827   5.789   6.705
 8737SOL    HW227111   3.971   5.861   6.678
 8738SOL     OW27112   0.905   4.207   5.439
 8738SOL    HW127113   0.943   4.233   5.528
 8738SOL    HW227114   0.955   4.128   5.404
 8739SOL     OW27115   1.333   3.721   5.540
 8739SOL    HW127116   1.383   3.755   5.620
 8739SOL    HW227117   1.271   3.792   5.507
 8740SOL     OW27118   1.687   6.464   0.489
 8740SOL    HW127119   1.627   6.406   0.434
 8740SOL    HW227120   1.782   6.434   0.478
 8741SOL     OW27121   1.260   3.681   2.077
 8741SOL    HW127122   1.233   3.774   2.055
 8741SOL    HW227123   1.351   3.662   2.040
 8742SOL     OW27124   4.577   5.471   2.313
 8742SOL    HW127125   4.619   5.489   2.402
 8742SOL    HW227126   4.642   5.492   2.240
 8743SOL     OW27127   2.754   5.085   2.133
 8743SOL    HW127128   2.790   5.127   2.050
 8743SOL    HW227129   2.818   5.097   2.208
 8744SOL     OW27130   2.870   3.371   5.618
 8744SOL    HW127131   2.816   3.381   5.534
 8744SOL    HW227132   2.932   3.292   5.608
 8745SOL     OW27133   5.426   2.145   6.660
 8745SOL    HW127134   5.330   2.169   6.648
 8745SOL    HW227135   5.481   2.188   6.589
 8746SOL     OW27136   5.361   3.603   4.391
 8746SOL    HW127137   5.374   3.603   4.490
 8746SOL    HW227138   5.264   3.612   4.370
 8747SOL     OW27139   0.425   1.611   4.102
 8747SOL    HW127140   0.471   1.522   4.096
 8747SOL    HW227141   0.415   1.637   4.198
 8748SOL     OW27142   2.975   0.016   6.499
 8748SOL    HW127143   3.069   7.004   6.501
 8748SOL    HW227144   2.921   6.988   6.567
 8749SOL     OW27145   4.100   1.352   3.413
 8749SOL    HW127146   4.141   1.280   3.469
 8749SOL    HW227147   4.026   1.313   3.358
 8750SOL     OW27148   1.904   0.607   4.875
 8750SOL    HW127149   1.969   0.660   4.928
 8750SOL    HW227150   1.949   0.568   4.796
 8751SOL     OW27151   1.813   6.519   2.990
 8751SOL    HW127152   1.878   6.447   2.967
 8751SOL    HW227153   1.728   6.477   3.025
 8752SOL     OW27154   2.184   0.989   5.967
 8752SOL    HW127155   2.269   0.955   6.010
 8752SOL    HW227156   2.106   0.941   6.006
 8753SOL     OW27157   5.405   1.416   4.955
 8753SOL    HW127158   5.368   1.455   4.871
 8753SOL    HW227159   5.336   1.418   5.027
 8754SOL     OW27160   1.516   0.949   5.492
 8754SOL    HW127161   1.590   0.911   5.548
 8754SOL    HW227162   1.546   0.957   5.397
 8755SOL     OW27163   2.157   1.897   0.578
 8755SOL    HW127164   2.119   1.974   0.630
 8755SOL    HW227165   2.087   1.826   0.568
 8756SOL     OW27166   2.794   5.389   4.577
 8756SOL    HW127167   2.857   5.355   4.646
 8756SOL    HW227168   2.754   5.312   4.528
 8757SOL     OW27169   3.173   5.330   3.549
 8757SOL    HW127170   3.244   5.284   3.497
 8757SOL    HW227171   3.214   5.404   3.602
 8758SOL     OW27172   4.954   6.665   2.588
 8758SOL    HW127173   4.980   6.637   2.495
 8758SOL    HW227174   4.876   6.728   2.583
 8759SOL     OW27175   5.535   0.335   6.374
 8759SOL    HW127176   5.443   0.316   6.409
 8759SOL    HW227177   5.531   0.412   6.309
 8760SOL     OW27178   1.770   3.040   3.606
 8760SOL    HW127179   1.712   3.109   3.650
 8760SOL    HW227180   1.864   3.051   3.637
 8761SOL     OW27181   5.224   6.020   1.774
 8761SOL    HW127182   5.199   5.987   1.865
 8761SOL    HW227183   5.320   5.998   1.757
 8762SOL     OW27184   1.238   5.216   1.303
 8762SOL    HW127185   1.293   5.195   1.222
 8762SOL    HW227186   1.284   5.286   1.357
 8763SOL     OW27187   0.587   6.104   6.749
 8763SOL    HW127188   0.506   6.161   6.765
 8763SOL    HW227189   0.566   6.009   6.773
 8764SOL     OW27190   3.030   2.090   6.264
 8764SOL    HW127191   3.109   2.148   6.285
 8764SOL    HW227192   2.958   2.146   6.223
 8765SOL     OW27193   5.946   0.061   4.934
 8765SOL    HW127194   6.033   0.043   4.888
 8765SOL    HW227195   5.938   0.158   4.954
 8766SOL     OW27196   2.365   4.384   2.120
 8766SOL    HW127197   2.318   4.362   2.206
 8766SOL    HW227198   2.448   4.435   2.140
 8767SOL     OW27199   4.444   0.271   5.106
 8767SOL    HW127200   4.392   0.283   5.190
 8767SOL    HW227201   4.531   0.320   5.113
 8768SOL     OW27202   0.501   4.118   0.465
 8768SOL    HW127203   0.415   4.077   0.497
 8768SOL    HW227204   0.504   4.214   0.492
 8769SOL     OW27205   1.838   0.632   6.293
 8769SOL    HW127206   1.849   0.710   6.230
 8769SOL    HW227207   1.829   0.548   6.240
 8770SOL     OW27208   5.688   1.516   2.914
 8770SOL    HW127209   5.631   1.470   2.983
 8770SOL    HW227210   5.710   1.608   2.946
 8771SOL     OW27211   2.988   3.006   5.214
 8771SOL    HW127212   3.054   3.074   5.249
 8771SOL    HW227213   2.905   3.009   5.269
 8772SOL     OW27214   6.662   6.626   6.681
 8772SOL    HW127215   6.575   6.586   6.709
 8772SOL    HW227216   6.647   6.691   6.606
 8773SOL     OW27217   2.910   1.455   2.924
 8773SOL    HW127218   2.994   1.473   2.976
 8773SOL    HW227219   2.839   1.421   2.987
 8774SOL     OW27220   1.477   1.322   6.997
 8774SOL    HW127221   1.403   1.384   0.000
 8774SOL    HW227222   1.533   1.302   0.055
 8775SOL     OW27223   6.707   6.280   4.188
 8775SOL    HW127224   6.692   6.184   4.211
 8775SOL    HW227225   6.642   6.337   4.238
 8776SOL     OW27226   3.016   3.790   5.328
 8776SOL    HW127227   3.073   3.765   5.250
 8776SOL    HW227228   3.045   3.879   5.364
 8777SOL     OW27229   6.080   5.930   3.023
 8777SOL    HW127230   5.984   5.952   3.040
 8777SOL    HW227231   6.094   5.917   2.925
 8778SOL     OW27232   1.263   3.218   2.735
 8778SOL    HW127233   1.290   3.137   2.684
 8778SOL    HW227234   1.294   3.210   2.830
 8779SOL     OW27235   1.643   4.858   1.127
 8779SOL    HW127236   1.707   4.934   1.121
 8779SOL    HW227237   1.694   4.772   1.125
 8780SOL     OW27238   2.017   5.602   5.307
 8780SOL    HW127239   2.089   5.551   5.259
 8780SOL    HW227240   1.928   5.559   5.289
 8781SOL     OW27241   1.608   2.523   2.421
 8781SOL    HW127242   1.587   2.618   2.399
 8781SOL    HW227243   1.577   2.463   2.347
 8782SOL     OW27244   5.577   1.290   3.716
 8782SOL    HW127245   5.526   1.291   3.802
 8782SOL    HW227246   5.666   1.246   3.731
 8783SOL     OW27247   6.335   2.573   5.842
 8783SOL    HW127248   6.406   2.577   5.913
 8783SOL    HW227249   6.375   2.595   5.753
 8784SOL     OW27250   5.388   4.190   5.858
 8784SOL    HW127251   5.336   4.168   5.940
 8784SOL    HW227252   5.327   4.190   5.779
 8785SOL     OW27253   5.383   3.887   6.402
 8785SOL    HW127254   5.464   3.879   6.460
 8785SOL    HW227255   5.396   3.961   6.336
 8786SOL     OW27256   1.669   6.075   6.873
 8786SOL    HW127257   1.721   6.158   6.893
 8786SOL    HW227258   1.708   6.029   6.794
 8787SOL     OW27259   1.288   2.583   6.717
 8787SOL    HW127260   1.322   2.497   6.754
 8787SOL    HW227261   1.211   2.565   6.656
 8788SOL     OW27262   1.252   2.254   5.153
 8788SOL    HW127263   1.313   2.328   5.127
 8788SOL    HW227264   1.306   2.170   5.168
 8789SOL     OW27265   6.678   1.252   0.546
 8789SOL    HW127266   6.769   1.239   0.506
 8789SOL    HW227267   6.660   1.178   0.611
 8790SOL     OW27268   4.075   1.396   6.436
 8790SOL    HW127269   4.130   1.479   6.448
 8790SOL    HW227270   4.003   1.393   6.505
 8791SOL     OW27271   5.305   6.117   4.964
 8791SOL    HW127272   5.361   6.200   4.962
 8791SOL    HW227273   5.358   6.041   5.000
 8792SOL     OW27274   5.206   6.726   2.670
 8792SOL    HW127275   5.109   6.705   2.672
 8792SOL    HW227276   5.253   6.663   2.607
 8793SOL     OW27277   0.802   4.463   3.228
 8793SOL    HW127278   0.878   4.411   3.268
 8793SOL    HW227279   0.746   4.502   3.301
 8794SOL     OW27280   2.790   6.353   2.712
 8794SOL    HW127281   2.743   6.278   2.664
 8794SOL    HW227282   2.741   6.439   2.695
 8795SOL     OW27283   2.987   6.520   4.777
 8795SOL    HW127284   3.012   6.596   4.717
 8795SOL    HW227285   2.891   6.496   4.763
 8796SOL     OW27286   4.659   2.342   4.586
 8796SOL    HW127287   4.641   2.255   4.633
 8796SOL    HW227288   4.753   2.343   4.552
 8797SOL     OW27289   0.276   5.590   6.683
 8797SOL    HW127290   0.364   5.627   6.654
 8797SOL    HW227291   0.203   5.651   6.654
 8798SOL     OW27292   3.197   3.462   5.322
 8798SOL    HW127293   3.152   3.522   5.255
 8798SOL    HW227294   3.172   3.491   5.415
 8799SOL     OW27295   3.767   0.790   2.074
 8799SOL    HW127296   3.710   0.762   2.152
 8799SOL    HW227297   3.861   0.763   2.091
 8800SOL     OW27298   3.847   3.880   0.658
 8800SOL    HW127299   3.862   3.830   0.573
 8800SOL    HW227300   3.922   3.862   0.721
 8801SOL     OW27301   3.129   6.485   5.549
 8801SOL    HW127302   3.176   6.573   5.540
 8801SOL    HW227303   3.049   6.496   5.609
 8802SOL     OW27304   1.759   6.436   1.495
 8802SOL    HW127305   1.660   6.448   1.491
 8802SOL    HW227306   1.798   6.449   1.404
 8803SOL     OW27307   3.813   6.011   1.963
 8803SOL    HW127308   3.788   5.990   1.868
 8803SOL    HW227309   3.824   6.110   1.973
 8804SOL     OW27310   2.658   0.645   1.614
 8804SOL    HW127311   2.701   0.711   1.676
 8804SOL    HW227312   2.664   0.554   1.654
 8805SOL     OW27313   0.527   0.359   4.040
 8805SOL    HW127314   0.551   0.398   3.951
 8805SOL    HW227315   0.487   0.430   4.098
 8806SOL     OW27316   2.432   4.726   6.859
 8806SOL    HW127317   2.358   4.662   6.881
 8806SOL    HW227318   2.460   4.774   6.943
 8807SOL     OW27319   2.129   5.360   6.908
 8807SOL    HW127320   2.181   5.314   6.836
 8807SOL    HW227321   2.156   5.324   6.997
 8808SOL     OW27322   5.867   2.569   0.695
 8808SOL    HW127323   5.816   2.630   0.755
 8808SOL    HW227324   5.885   2.615   0.608
 8809SOL     OW27325   6.280   4.514   0.149
 8809SOL    HW127326   6.257   4.417   0.142
 8809SOL    HW227327   6.359   4.533   0.091
 8810SOL     OW27328   5.027   1.313   3.693
 8810SOL    HW127329   4.945   1.371   3.692
 8810SOL    HW227330   5.073   1.319   3.605
 8811SOL     OW27331   0.831   0.881   3.258
 8811SOL    HW127332   0.767   0.898   3.333
 8811SOL    HW227333   0.911   0.939   3.268
 8812SOL     OW27334   2.678   1.269   0.055
 8812SOL    HW127335   2.758   1.229   0.011
 8812SOL    HW227336   2.623   1.198   0.098
 8813SOL     OW27337   1.185   5.645   1.235
 8813SOL    HW127338   1.146   5.590   1.309
 8813SOL    HW227339   1.112   5.698   1.192
 8814SOL     OW27340   5.492   6.999   5.845
 8814SOL    HW127341   5.465   0.073   5.854
 8814SOL    HW227342   5.548   6.988   5.763
 8815SOL     OW27343   6.175   4.877   3.094
 8815SOL    HW127344   6.107   4.807   3.073
 8815SOL    HW227345   6.229   4.896   3.012
 8816SOL     OW27346   0.824   5.594   2.472
 8816SOL    HW127347   0.797   5.499   2.489
 8816SOL    HW227348   0.851   5.637   2.558
 8817SOL     OW27349   2.130   3.974   5.282
 8817SOL    HW127350   2.218   3.989   5.236
 8817SOL    HW227351   2.072   3.917   5.224
 8818SOL     OW27352   6.645   4.785   5.173
 8818SOL    HW127353   6.698   4.731   5.239
 8818SOL    HW227354   6.597   4.858   5.220
 8819SOL     OW27355   0.089   0.867   4.649
 8819SOL    HW127356   0.178   0.910   4.632
 8819SOL    HW227357   0.030   0.881   4.569
 8820SOL     OW27358   0.906   2.695   3.003
 8820SOL    HW127359   0.935   2.654   2.917
 8820SOL    HW227360   0.980   2.750   3.041
 8821SOL     OW27361   1.074   6.781   6.865
 8821SOL    HW127362   0.983   6.822   6.871
 8821SOL    HW227363   1.120   6.789   6.954
 8822SOL     OW27364   1.109   2.575   4.104
 8822SOL    HW127365   1.033   2.517   4.135
 8822SOL    HW227366   1.196   2.532   4.129
 8823SOL     OW27367   2.308   5.115   0.912
 8823SOL    HW127368   2.386   5.057   0.892
 8823SOL    HW227369   2.340   5.202   0.950
 8824SOL     OW27370   4.833   3.996   1.409
 8824SOL    HW127371   4.795   3.998   1.317
 8824SOL    HW227372   4.933   3.994   1.405
 8825SOL     OW27373   2.599   1.902   0.200
 8825SOL    HW127374   2.563   1.839   0.131
 8825SOL    HW227375   2.525   1.927   0.263
 8826SOL     OW27376   5.601   0.143   1.650
 8826SOL    HW127377   5.654   0.082   1.591
 8826SOL    HW227378   5.528   0.186   1.597
 8827SOL     OW27379   6.626   1.773   3.876
 8827SOL    HW127380   6.618   1.718   3.793
 8827SOL    HW227381   6.537   1.810   3.900
 8828SOL     OW27382   1.834   6.030   3.865
 8828SOL    HW127383   1.837   6.055   3.962
 8828SOL    HW227384   1.785   6.101   3.814
 8829SOL     OW27385   0.732   0.390   1.417
 8829SOL    HW127386   0.675   0.452   1.472
 8829SOL    HW227387   0.736   0.423   1.323
 8830SOL     OW27388   1.501   1.422   0.951
 8830SOL    HW127389   1.504   1.493   0.882
 8830SOL    HW227390   1.556   1.343   0.921
 8831SOL     OW27391   6.751   0.722   1.817
 8831SOL    HW127392   6.796   0.757   1.899
 8831SOL    HW227393   6.683   0.789   1.785
 8832SOL     OW27394   6.291   1.346   1.947
 8832SOL    HW127395   6.373   1.397   1.972
 8832SOL    HW227396   6.265   1.286   2.022
 8833SOL     OW27397   1.020   5.263   2.054
 8833SOL    HW127398   1.108   5.215   2.045
 8833SOL    HW227399   1.034   5.348   2.104
 8834SOL     OW27400   6.711   4.708   3.840
 8834SOL    HW127401   6.695   4.610   3.854
 8834SOL    HW227402   6.741   4.724   3.747
 8835SOL     OW27403   0.483   1.365   0.753
 8835SOL    HW127404   0.548   1.335   0.822
 8835SOL    HW227405   0.532   1.393   0.670
 8836SOL     OW27406   4.735   1.503   1.827
 8836SOL    HW127407   4.806   1.450   1.874
 8836SOL    HW227408   4.756   1.600   1.833
 8837SOL     OW27409   0.296   2.613   2.154
 8837SOL    HW127410   0.378   2.663   2.181
 8837SOL    HW227411   0.297   2.522   2.196
 8838SOL     OW27412   1.376   0.074   3.334
 8838SOL    HW127413   1.402   0.164   3.298
 8838SOL    HW227414   1.299   0.084   3.397
 8839SOL     OW27415   5.491   5.156   4.791
 8839SOL    HW127416   5.463   5.249   4.767
 8839SOL    HW227417   5.483   5.143   4.889
 8840SOL     OW27418   4.367   0.647   1.985
 8840SOL    HW127419   4.280   0.608   2.017
 8840SOL    HW227420   4.432   0.573   1.970
 8841SOL     OW27421   3.789   6.967   3.419
 8841SOL    HW127422   3.800   0.010   3.494
 8841SOL    HW227423   3.874   6.962   3.367
 8842SOL     OW27424   1.410   1.667   1.976
 8842SOL    HW127425   1.502   1.703   1.987
 8842SOL    HW227426   1.343   1.740   1.991
 8843SOL     OW27427   6.715   3.042   4.224
 8843SOL    HW127428   6.753   3.030   4.132
 8843SOL    HW227429   6.785   3.017   4.291
 8844SOL     OW27430   6.154   1.728   0.153
 8844SOL    HW127431   6.240   1.684   0.178
 8844SOL    HW227432   6.148   1.737   0.054
 8845SOL     OW27433   5.053   2.447   7.022
 8845SOL    HW127434   5.003   2.390   0.065
 8845SOL    HW227435   5.000   2.530   7.003
 8846SOL     OW27436   2.990   5.111   4.420
 8846SOL    HW127437   3.038   5.132   4.334
 8846SOL    HW227438   2.899   5.076   4.400
 8847SOL     OW27439   0.967   1.566   3.371
 8847SOL    HW127440   0.981   1.545   3.274
 8847SOL    HW227441   0.905   1.499   3.411
 8848SOL     OW27442   0.854   1.364   3.494
 8848SOL    HW127443   0.841   1.384   3.591
 8848SOL    HW227444   0.782   1.302   3.462
 8849SOL     OW27445   3.219   6.926   1.200
 8849SOL    HW127446   3.222   6.946   1.298
 8849SOL    HW227447   3.144   6.976   1.158
 8850SOL     OW27448   3.122   1.874   0.092
 8850SOL    HW127449   3.098   1.863   7.019
 8850SOL    HW227450   3.207   1.823   0.111
 8851SOL     OW27451   1.762   3.943   1.750
 8851SOL    HW127452   1.759   3.865   1.687
 8851SOL    HW227453   1.851   3.988   1.741
 8852SOL     OW27454   0.895   2.541   4.557
 8852SOL    HW127455   0.930   2.448   4.549
 8852SOL    HW227456   0.936   2.599   4.487
 8853SOL     OW27457   4.540   0.533   1.582
 8853SOL    HW127458   4.540   0.434   1.567
 8853SOL    HW227459   4.599   0.555   1.660
 8854SOL     OW27460   6.608   2.332   5.210
 8854SOL    HW127461   6.680   2.402   5.207
 8854SOL    HW227462   6.625   2.271   5.287
 8855SOL     OW27463   4.889   4.660   1.268
 8855SOL    HW127464   4.934   4.583   1.312
 8855SOL    HW227465   4.893   4.649   1.169
 8856SOL     OW27466   5.983   0.887   5.456
 8856SOL    HW127467   5.956   0.937   5.374
 8856SOL    HW227468   5.993   0.950   5.532
 8857SOL     OW27469   0.171   2.145   6.215
 8857SOL    HW127470   0.178   2.116   6.120
 8857SOL    HW227471   0.102   2.091   6.262
 8858SOL     OW27472   6.703   5.494   4.648
 8858SOL    HW127473   6.787   5.440   4.653
 8858SOL    HW227474   6.698   5.540   4.559
 8859SOL     OW27475   0.336   5.463   2.980
 8859SOL    HW127476   0.358   5.552   3.020
 8859SOL    HW227477   0.244   5.466   2.940
 8860SOL     OW27478   6.307   2.896   2.684
 8860SOL    HW127479   6.355   2.983   2.697
 8860SOL    HW227480   6.365   2.834   2.631
 8861SOL     OW27481   3.069   2.527   1.234
 8861SOL    HW127482   3.071   2.615   1.280
 8861SOL    HW227483   3.117   2.459   1.290
 8862SOL     OW27484   4.451   4.613   4.804
 8862SOL    HW127485   4.520   4.680   4.832
 8862SOL    HW227486   4.414   4.567   4.885
 8863SOL     OW27487   1.500   3.442   1.842
 8863SOL    HW127488   1.556   3.395   1.911
 8863SOL    HW227489   1.536   3.422   1.751
 8864SOL     OW27490   6.529   1.947   4.776
 8864SOL    HW127491   6.516   1.981   4.869
 8864SOL    HW227492   6.472   2.000   4.713
 8865SOL     OW27493   2.747   1.380   0.849
 8865SOL    HW127494   2.704   1.449   0.907
 8865SOL    HW227495   2.709   1.290   0.869
 8866SOL     OW27496   6.310   0.250   1.867
 8866SOL    HW127497   6.379   0.286   1.805
 8866SOL    HW227498   6.219   0.284   1.840
 8867SOL     OW27499   6.046   2.202   3.277
 8867SOL    HW127500   5.985   2.130   3.310
 8867SOL    HW227501   6.071   2.261   3.354
 8868SOL     OW27502   0.586   2.802   3.491
 8868SOL    HW127503   0.614   2.708   3.505
 8868SOL    HW227504   0.626   2.860   3.562
 8869SOL     OW27505   4.484   7.015   3.691
 8869SOL    HW127506   4.539   6.941   3.651
 8869SOL    HW227507   4.529   0.026   3.773
 8870SOL     OW27508   0.966   0.487   2.000
 8870SOL    HW127509   0.892   0.463   1.938
 8870SOL    HW227510   1.040   0.530   1.949
 8871SOL     OW27511   0.112   6.550   1.093
 8871SOL    HW127512   0.044   6.483   1.067
 8871SOL    HW227513   0.068   6.639   1.109
 8872SOL     OW27514   6.786   4.854   3.566
 8872SOL    HW127515   6.845   4.911   3.623
 8872SOL    HW227516   6.691   4.867   3.593
 8873SOL     OW27517   1.775   1.609   3.532
 8873SOL    HW127518   1.832   1.632   3.452
 8873SOL    HW227519   1.691   1.564   3.501
 8874SOL     OW27520   2.596   6.135   0.678
 8874SOL    HW127521   2.557   6.227   0.687
 8874SOL    HW227522   2.635   6.107   0.766
 8875SOL     OW27523   6.248   2.970   4.202
 8875SOL    HW127524   6.251   2.872   4.222
 8875SOL    HW227525   6.324   3.015   4.249
 8876SOL     OW27526   4.568   0.400   0.676
 8876SOL    HW127527   4.597   0.308   0.648
 8876SOL    HW227528   4.534   0.449   0.596
 8877SOL     OW27529   1.143   4.221   1.461
 8877SOL    HW127530   1.112   4.196   1.553
 8877SOL    HW227531   1.096   4.304   1.431
 8878SOL     OW27532   4.957   3.830   2.579
 8878SOL    HW127533   5.054   3.855   2.571
 8878SOL    HW227534   4.929   3.779   2.498
 8879SOL     OW27535   0.122   4.578   4.024
 8879SOL    HW127536   0.024   4.585   4.043
 8879SOL    HW227537   0.136   4.545   3.931
 8880SOL     OW27538   4.141   1.937   2.583
 8880SOL    HW127539   4.165   1.882   2.502
 8880SOL    HW227540   4.103   2.024   2.554
 8881SOL     OW27541   3.789   5.216   2.959
 8881SOL    HW127542   3.844   5.135   2.944
 8881SOL    HW227543   3.840   5.282   3.013
 8882SOL     OW27544   4.154   1.522   0.411
 8882SOL    HW127545   4.229   1.513   0.477
 8882SOL    HW227546   4.078   1.463   0.437
 8883SOL     OW27547   0.765   6.653   3.177
 8883SOL    HW127548   0.803   6.606   3.097
 8883SOL    HW227549   0.738   6.746   3.151
 8884SOL     OW27550   4.636   1.757   6.182
 8884SOL    HW127551   4.677   1.779   6.270
 8884SOL    HW227552   4.547   1.801   6.175
 8885SOL     OW27553   5.843   5.082   0.916
 8885SOL    HW127554   5.810   5.168   0.956
 8885SOL    HW227555   5.930   5.098   0.870
 8886SOL     OW27556   4.744   6.306   0.308
 8886SOL    HW127557   4.767   6.397   0.345
 8886SOL    HW227558   4.810   6.282   0.236
 8887SOL     OW27559   4.169   0.449   1.816
 8887SOL    HW127560   4.251   0.406   1.855
 8887SOL    HW227561   4.155   0.417   1.723
 8888SOL     OW27562   3.971   2.120   1.968
 8888SOL    HW127563   3.952   2.046   1.904
 8888SOL    HW227564   3.884   2.153   2.007
 8889SOL     OW27565   1.844   4.871   6.402
 8889SOL    HW127566   1.851   4.893   6.305
 8889SOL    HW227567   1.751   4.842   6.424
 8890SOL     OW27568   1.623   5.958   0.096
 8890SOL    HW127569   1.634   5.990   0.002
 8890SOL    HW227570   1.525   5.950   0.117
 8891SOL     OW27571   5.485   3.444   5.567
 8891SOL    HW127572   5.393   3.427   5.604
 8891SOL    HW227573   5.483   3.524   5.507
 8892SOL     OW27574   2.597   5.238   5.063
 8892SOL    HW127575   2.615   5.185   4.981
 8892SOL    HW227576   2.681   5.244   5.117
 8893SOL     OW27577   0.662   4.536   5.445
 8893SOL    HW127578   0.655   4.537   5.345
 8893SOL    HW227579   0.706   4.620   5.476
 8894SOL     OW27580   5.371   2.465   1.488
 8894SOL    HW127581   5.389   2.479   1.391
 8894SOL    HW227582   5.457   2.468   1.539
 8895SOL     OW27583   0.247   3.440   1.855
 8895SOL    HW127584   0.317   3.454   1.925
 8895SOL    HW227585   0.178   3.376   1.888
 8896SOL     OW27586   0.874   0.910   3.675
 8896SOL    HW127587   0.966   0.936   3.703
 8896SOL    HW227588   0.872   0.812   3.656
 8897SOL     OW27589   1.568   5.034   4.387
 8897SOL    HW127590   1.549   5.005   4.481
 8897SOL    HW227591   1.568   5.134   4.383
 8898SOL     OW27592   5.876   5.033   3.077
 8898SOL    HW127593   5.837   5.116   3.037
 8898SOL    HW227594   5.894   5.048   3.175
 8899SOL     OW27595   2.220   4.545   1.488
 8899SOL    HW127596   2.234   4.543   1.389
 8899SOL    HW227597   2.159   4.621   1.511
 8900SOL     OW27598   4.193   1.846   4.606
 8900SOL    HW127599   4.128   1.796   4.547
 8900SOL    HW227600   4.257   1.897   4.548
 8901SOL     OW27601   0.813   4.794   5.474
 8901SOL    HW127602   0.887   4.752   5.527
 8901SOL    HW227603   0.740   4.824   5.536
 8902SOL     OW27604   0.728   4.746   6.555
 8902SOL    HW127605   0.755   4.667   6.499
 8902SOL    HW227606   0.709   4.716   6.648
 8903SOL     OW27607   0.684   0.572   4.226
 8903SOL    HW127608   0.588   0.557   4.247
 8903SOL    HW227609   0.736   0.489   4.248
 8904SOL     OW27610   6.844   1.504   2.845
 8904SOL    HW127611   6.846   1.404   2.849
 8904SOL    HW227612   6.758   1.535   2.804
 8905SOL     OW27613   1.850   4.918   1.445
 8905SOL    HW127614   1.782   4.982   1.408
 8905SOL    HW227615   1.941   4.941   1.410
 8906SOL     OW27616   6.336   0.582   6.585
 8906SOL    HW127617   6.296   0.607   6.673
 8906SOL    HW227618   6.263   0.561   6.520
 8907SOL     OW27619   2.715   3.056   5.328
 8907SOL    HW127620   2.661   3.032   5.247
 8907SOL    HW227621   2.675   3.013   5.409
 8908SOL     OW27622   1.623   5.599   5.667
 8908SOL    HW127623   1.589   5.637   5.753
 8908SOL    HW227624   1.706   5.648   5.640
 8909SOL     OW27625   2.177   6.146   2.055
 8909SOL    HW127626   2.188   6.047   2.066
 8909SOL    HW227627   2.159   6.166   1.958
 8910SOL     OW27628   1.082   0.696   3.842
 8910SOL    HW127629   1.042   0.669   3.929
 8910SOL    HW227630   1.115   0.614   3.794
 8911SOL     OW27631   4.997   2.705   4.182
 8911SOL    HW127632   4.912   2.696   4.233
 8911SOL    HW227633   4.982   2.763   4.102
 8912SOL     OW27634   3.515   3.026   3.476
 8912SOL    HW127635   3.610   2.993   3.480
 8912SOL    HW227636   3.511   3.109   3.420
 8913SOL     OW27637   4.917   5.729   0.830
 8913SOL    HW127638   4.837   5.786   0.816
 8913SOL    HW227639   4.978   5.737   0.751
 8914SOL     OW27640   4.882   5.163   5.378
 8914SOL    HW127641   4.928   5.246   5.409
 8914SOL    HW227642   4.948   5.103   5.333
 8915SOL     OW27643   2.613   1.188   3.489
 8915SOL    HW127644   2.535   1.140   3.528
 8915SOL    HW227645   2.586   1.232   3.403
 8916SOL     OW27646   5.802   0.504   2.202
 8916SOL    HW127647   5.894   0.540   2.215
 8916SOL    HW227648   5.781   0.500   2.104
 8917SOL     OW27649   6.050   2.290   0.454
 8917SOL    HW127650   5.991   2.216   0.421
 8917SOL    HW227651   6.042   2.369   0.393
 8918SOL     OW27652   1.631   3.394   2.612
 8918SOL    HW127653   1.688   3.474   2.629
 8918SOL    HW227654   1.599   3.396   2.517
 8919SOL     OW27655   6.599   2.310   3.023
 8919SOL    HW127656   6.578   2.215   3.000
 8919SOL    HW227657   6.644   2.354   2.945
 8920SOL     OW27658   0.813   1.949   0.647
 8920SOL    HW127659   0.790   1.965   0.743
 8920SOL    HW227660   0.739   1.982   0.589
 8921SOL     OW27661   0.787   2.730   1.306
 8921SOL    HW127662   0.853   2.738   1.382
 8921SOL    HW227663   0.764   2.633   1.292
 8922SOL     OW27664   2.765   5.053   3.532
 8922SOL    HW127665   2.834   4.988   3.500
 8922SOL    HW227666   2.811   5.136   3.565
 8923SOL     OW27667   2.506   1.691   3.556
 8923SOL    HW127668   2.470   1.608   3.600
 8923SOL    HW227669   2.464   1.701   3.466
 8924SOL     OW27670   6.047   5.112   4.850
 8924SOL    HW127671   6.115   5.111   4.777
 8924SOL    HW227672   5.973   5.048   4.829
 8925SOL     OW27673   0.473   6.425   3.767
 8925SOL    HW127674   0.415   6.485   3.821
 8925SOL    HW227675   0.519   6.359   3.827
 8926SOL     OW27676   5.850   2.140   6.649
 8926SOL    HW127677   5.940   2.116   6.686
 8926SOL    HW227678   5.831   2.085   6.568
 8927SOL     OW27679   1.375   1.742   6.180
 8927SOL    HW127680   1.406   1.829   6.218
 8927SOL    HW227681   1.377   1.747   6.080
 8928SOL     OW27682   0.771   6.537   4.877
 8928SOL    HW127683   0.811   6.450   4.906
 8928SOL    HW227684   0.843   6.598   4.845
 8929SOL     OW27685   6.566   1.392   3.561
 8929SOL    HW127686   6.555   1.319   3.628
 8929SOL    HW227687   6.647   1.376   3.506
 8930SOL     OW27688   2.200   5.213   2.684
 8930SOL    HW127689   2.257   5.137   2.715
 8930SOL    HW227690   2.168   5.265   2.763
 8931SOL     OW27691   4.331   3.094   0.028
 8931SOL    HW127692   4.341   3.163   6.978
 8931SOL    HW227693   4.262   3.125   0.094
 8932SOL     OW27694   0.591   3.589   2.290
 8932SOL    HW127695   0.627   3.650   2.361
 8932SOL    HW227696   0.663   3.529   2.257
 8933SOL     OW27697   5.010   2.535   6.044
 8933SOL    HW127698   4.921   2.491   6.053
 8933SOL    HW227699   5.034   2.542   5.948
 8934SOL     OW27700   2.516   6.259   2.561
 8934SOL    HW127701   2.463   6.325   2.613
 8934SOL    HW227702   2.454   6.203   2.505
 8935SOL     OW27703   0.099   5.778   6.590
 8935SOL    HW127704   0.146   5.824   6.515
 8935SOL    HW227705   0.001   5.770   6.569
 8936SOL     OW27706   4.385   3.254   0.827
 8936SOL    HW127707   4.443   3.175   0.845
 8936SOL    HW227708   4.315   3.230   0.759
 8937SOL     OW27709   0.099   1.311   6.184
 8937SOL    HW127710   0.036   1.310   6.261
 8937SOL    HW227711   0.055   1.352   6.105
 8938SOL     OW27712   4.612   5.560   1.856
 8938SOL    HW127713   4.650   5.580   1.766
 8938SOL    HW227714   4.637   5.466   1.882
 8939SOL     OW27715   5.685   1.911   4.320
 8939SOL    HW127716   5.626   1.981   4.279
 8939SOL    HW227717   5.631   1.830   4.340
 8940SOL     OW27718   5.555   6.795   2.599
 8940SOL    HW127719   5.496   6.741   2.658
 8940SOL    HW227720   5.640   6.745   2.580
 8941SOL     OW27721   3.945   1.996   0.361
 8941SOL    HW127722   3.988   1.931   0.298
 8941SOL    HW227723   4.009   2.069   0.384
 8942SOL     OW27724   1.186   2.339   5.817
 8942SOL    HW127725   1.156   2.379   5.904
 8942SOL    HW227726   1.249   2.402   5.771
 8943SOL     OW27727   5.410   3.654   0.753
 8943SOL    HW127728   5.426   3.613   0.843
 8943SOL    HW227729   5.379   3.748   0.765
 8944SOL     OW27730   4.347   5.570   1.110
 8944SOL    HW127731   4.425   5.571   1.047
 8944SOL    HW227732   4.370   5.622   1.192
 8945SOL     OW27733   2.312   1.346   3.612
 8945SOL    HW127734   2.403   1.381   3.634
 8945SOL    HW227735   2.251   1.362   3.690
 8946SOL     OW27736   3.520   0.885   5.047
 8946SOL    HW127737   3.580   0.924   4.977
 8946SOL    HW227738   3.485   0.797   5.016
 8947SOL     OW27739   3.701   3.611   5.370
 8947SOL    HW127740   3.637   3.547   5.328
 8947SOL    HW227741   3.658   3.651   5.452
 8948SOL     OW27742   5.299   4.519   3.605
 8948SOL    HW127743   5.344   4.449   3.662
 8948SOL    HW227744   5.368   4.582   3.570
 8949SOL     OW27745   1.676   5.753   6.103
 8949SOL    HW127746   1.619   5.751   6.021
 8949SOL    HW227747   1.750   5.686   6.094
 8950SOL     OW27748   4.824   3.036   4.553
 8950SOL    HW127749   4.838   3.069   4.646
 8950SOL    HW227750   4.798   2.939   4.556
 8951SOL     OW27751   2.954   1.758   5.448
 8951SOL    HW127752   2.931   1.713   5.534
 8951SOL    HW227753   2.870   1.785   5.400
 8952SOL     OW27754   5.889   6.908   3.477
 8952SOL    HW127755   5.883   6.933   3.574
 8952SOL    HW227756   5.815   6.844   3.455
 8953SOL     OW27757   1.146   5.064   5.615
 8953SOL    HW127758   1.216   5.135   5.610
 8953SOL    HW227759   1.117   5.052   5.710
 8954SOL     OW27760   2.345   6.471   6.431
 8954SOL    HW127761   2.283   6.422   6.370
 8954SOL    HW227762   2.424   6.413   6.451
 8955SOL     OW27763   0.043   3.848   4.370
 8955SOL    HW127764   0.089   3.932   4.339
 8955SOL    HW227765   7.012   3.868   4.452
 8956SOL     OW27766   0.839   0.766   4.312
 8956SOL    HW127767   0.844   0.763   4.412
 8956SOL    HW227768   0.779   0.694   4.279
 8957SOL     OW27769   3.460   6.058   2.039
 8957SOL    HW127770   3.379   6.026   1.990
 8957SOL    HW227771   3.525   5.983   2.048
 8958SOL     OW27772   3.138   0.854   5.229
 8958SOL    HW127773   3.100   0.930   5.281
 8958SOL    HW227774   3.082   0.838   5.147
 8959SOL     OW27775   3.886   4.982   6.926
 8959SOL    HW127776   3.844   4.918   6.990
 8959SOL    HW227777   3.910   4.934   6.842
 8960SOL     OW27778   4.172   5.753   0.486
 8960SOL    HW127779   4.203   5.766   0.580
 8960SOL    HW227780   4.230   5.685   0.441
 8961SOL     OW27781   0.703   2.817   4.191
 8961SOL    HW127782   0.797   2.799   4.162
 8961SOL    HW227783   0.656   2.868   4.120
 8962SOL     OW27784   4.812   0.456   3.944
 8962SOL    HW127785   4.883   0.522   3.918
 8962SOL    HW227786   4.764   0.489   4.026
 8963SOL     OW27787   1.331   0.850   4.180
 8963SOL    HW127788   1.236   0.836   4.153
 8963SOL    HW227789   1.391   0.823   4.105
 8964SOL     OW27790   0.873   2.949   3.232
 8964SOL    HW127791   0.875   2.862   3.281
 8964SOL    HW227792   0.907   2.936   3.139
 8965SOL     OW27793   1.822   5.209   1.409
 8965SOL    HW127794   1.913   5.203   1.367
 8965SOL    HW227795   1.800   5.306   1.426
 8966SOL     OW27796   4.146   2.160   4.659
 8966SOL    HW127797   4.180   2.243   4.701
 8966SOL    HW227798   4.191   2.080   4.699
 8967SOL     OW27799   5.461   6.738   0.510
 8967SOL    HW127800   5.491   6.754   0.416
 8967SOL    HW227801   5.371   6.779   0.524
 8968SOL     OW27802   6.200   3.975   4.004
 8968SOL    HW127803   6.221   4.068   3.973
 8968SOL    HW227804   6.262   3.911   3.960
 8969SOL     OW27805   6.490   0.105   4.208
 8969SOL    HW127806   6.548   0.138   4.134
 8969SOL    HW227807   6.395   0.104   4.179
 8970SOL     OW27808   2.980   2.817   1.285
 8970SOL    HW127809   2.881   2.830   1.294
 8970SOL    HW227810   3.026   2.864   1.361
 8971SOL     OW27811   3.731   6.689   3.066
 8971SOL    HW127812   3.719   6.745   2.984
 8971SOL    HW227813   3.687   6.601   3.052
 8972SOL     OW27814   4.993   0.389   5.125
 8972SOL    HW127815   5.019   0.301   5.165
 8972SOL    HW227816   5.070   0.427   5.074
 8973SOL     OW27817   2.095   4.858   6.501
 8973SOL    HW127818   2.093   4.798   6.581
 8973SOL    HW227819   2.002   4.873   6.468
 8974SOL     OW27820   0.240   2.489   4.168
 8974SOL    HW127821   0.313   2.542   4.211
 8974SOL    HW227822   0.266   2.467   4.074
 8975SOL     OW27823   3.642   0.736   5.811
 8975SOL    HW127824   3.606   0.648   5.841
 8975SOL    HW227825   3.712   0.767   5.876
 8976SOL     OW27826   1.445   5.974   3.595
 8976SOL    HW127827   1.502   6.031   3.655
 8976SOL    HW227828   1.503   5.933   3.525
 8977SOL     OW27829   5.514   1.655   0.081
 8977SOL    HW127830   5.525   1.556   0.076
 8977SOL    HW227831   5.461   1.679   0.162
 8978SOL     OW27832   5.559   5.071   1.570
 8978SOL    HW127833   5.503   5.037   1.645
 8978SOL    HW227834   5.609   4.996   1.527
 8979SOL     OW27835   0.898   4.612   4.908
 8979SOL    HW127836   0.911   4.696   4.855
 8979SOL    HW227837   0.964   4.610   4.984
 8980SOL     OW27838   2.901   3.441   3.984
 8980SOL    HW127839   2.874   3.459   4.079
 8980SOL    HW227840   2.964   3.364   3.982
 8981SOL     OW27841   2.732   1.862   5.301
 8981SOL    HW127842   2.650   1.830   5.254
 8981SOL    HW227843   2.755   1.954   5.268
 8982SOL     OW27844   3.786   5.003   0.595
 8982SOL    HW127845   3.718   5.032   0.662
 8982SOL    HW227846   3.827   4.917   0.625
 8983SOL     OW27847   4.879   4.459   0.814
 8983SOL    HW127848   4.913   4.473   0.721
 8983SOL    HW227849   4.788   4.419   0.810
 8984SOL     OW27850   1.554   6.701   3.444
 8984SOL    HW127851   1.561   6.707   3.544
 8984SOL    HW227852   1.534   6.791   3.406
 8985SOL     OW27853   3.242   2.985   6.167
 8985SOL    HW127854   3.251   2.918   6.093
 8985SOL    HW227855   3.197   3.068   6.132
 8986SOL     OW27856   2.628   6.182   1.870
 8986SOL    HW127857   2.681   6.222   1.795
 8986SOL    HW227858   2.679   6.105   1.909
 8987SOL     OW27859   5.055   6.561   2.299
 8987SOL    HW127860   4.969   6.512   2.283
 8987SOL    HW227861   5.122   6.535   2.228
 8988SOL     OW27862   0.363   4.487   4.808
 8988SOL    HW127863   0.353   4.398   4.854
 8988SOL    HW227864   0.361   4.560   4.875
 8989SOL     OW27865   2.432   2.166   6.863
 8989SOL    HW127866   2.381   2.149   6.948
 8989SOL    HW227867   2.524   2.128   6.871
 8990SOL     OW27868   0.325   5.031   4.447
 8990SOL    HW127869   0.299   4.935   4.437
 8990SOL    HW227870   0.291   5.082   4.368
 8991SOL     OW27871   1.531   2.640   4.927
 8991SOL    HW127872   1.595   2.664   4.999
 8991SOL    HW227873   1.488   2.553   4.948
 8992SOL     OW27874   6.135   2.082   1.712
 8992SOL    HW127875   6.193   2.021   1.765
 8992SOL    HW227876   6.129   2.171   1.757
 8993SOL     OW27877   4.406   1.974   1.174
 8993SOL    HW127878   4.496   1.975   1.131
 8993SOL    HW227879   4.381   1.880   1.198
 8994SOL     OW27880   1.864   5.485   2.664
 8994SOL    HW127881   1.901   5.437   2.743
 8994SOL    HW227882   1.854   5.582   2.686
 8995SOL     OW27883   0.602   0.545   1.616
 8995SOL    HW127884   0.636   0.521   1.707
 8995SOL    HW227885   0.504   0.524   1.611
 8996SOL     OW27886   4.314   5.666   5.461
 8996SOL    HW127887   4.312   5.754   5.509
 8996SOL    HW227888   4.221   5.635   5.444
 8997SOL     OW27889   6.205   0.189   5.160
 8997SOL    HW127890   6.160   0.128   5.225
 8997SOL    HW227891   6.254   0.135   5.092
 8998SOL     OW27892   6.622   3.949   5.031
 8998SOL    HW127893   6.553   4.010   4.994
 8998SOL    HW227894   6.578   3.868   5.070
 8999SOL     OW27895   4.156   5.750   6.185
 8999SOL    HW127896   4.214   5.695   6.245
 8999SOL    HW227897   4.077   5.783   6.236
 9000SOL     OW27898   0.685   4.396   1.134
 9000SOL    HW127899   0.662   4.302   1.109
 9000SOL    HW227900   0.603   4.441   1.171
 9001SOL     OW27901   1.598   5.773   0.797
 9001SOL    HW127902   1.585   5.694   0.737
 9001SOL    HW227903   1.696   5.789   0.810
 9002SOL     OW27904   6.560   5.651   6.439
 9002SOL    HW127905   6.612   5.662   6.524
 9002SOL    HW227906   6.564   5.736   6.387
 9003SOL     OW27907   4.898   6.908   0.603
 9003SOL    HW127908   4.887   6.885   0.700
 9003SOL    HW227909   4.814   6.951   0.569
 9004SOL     OW27910   6.054   4.868   1.711
 9004SOL    HW127911   6.017   4.828   1.795
 9004SOL    HW227912   6.002   4.951   1.688
 9005SOL     OW27913   4.902   0.889   4.574
 9005SOL    HW127914   4.840   0.963   4.600
 9005SOL    HW227915   4.940   0.847   4.656
 9006SOL     OW27916   3.565   6.285   0.336
 9006SOL    HW127917   3.606   6.208   0.285
 9006SOL    HW227918   3.607   6.370   0.306
 9007SOL     OW27919   0.287   0.703   3.546
 9007SOL    HW127920   0.207   0.656   3.509
 9007SOL    HW227921   0.291   0.691   3.645
 9008SOL     OW27922   6.804   5.420   2.173
 9008SOL    HW127923   6.748   5.340   2.191
 9008SOL    HW227924   6.892   5.411   2.220
 9009SOL     OW27925   3.071   6.577   2.098
 9009SOL    HW127926   3.093   6.530   2.184
 9009SOL    HW227927   3.002   6.648   2.115
 9010SOL     OW27928   1.715   5.376   4.683
 9010SOL    HW127929   1.709   5.320   4.600
 9010SOL    HW227930   1.804   5.361   4.727
 9011SOL     OW27931   2.459   2.126   2.313
 9011SOL    HW127932   2.527   2.053   2.299
 9011SOL    HW227933   2.506   2.208   2.345
 9012SOL     OW27934   2.515   6.371   6.781
 9012SOL    HW127935   2.465   6.290   6.750
 9012SOL    HW227936   2.502   6.384   6.879
 9013SOL     OW27937   2.271   0.405   4.612
 9013SOL    HW127938   2.204   0.420   4.539
 9013SOL    HW227939   2.360   0.441   4.585
 9014SOL     OW27940   5.266   3.366   3.602
 9014SOL    HW127941   5.210   3.319   3.535
 9014SOL    HW227942   5.212   3.438   3.646
 9015SOL     OW27943   4.116   6.662   6.224
 9015SOL    HW127944   4.028   6.709   6.214
 9015SOL    HW227945   4.123   6.590   6.156
 9016SOL     OW27946   5.166   4.394   6.047
 9016SOL    HW127947   5.168   4.421   6.143
 9016SOL    HW227948   5.167   4.294   6.040
 9017SOL     OW27949   2.645   0.296   5.372
 9017SOL    HW127950   2.617   0.248   5.288
 9017SOL    HW227951   2.744   0.291   5.382
 9018SOL     OW27952   4.016   5.131   0.382
 9018SOL    HW127953   4.013   5.110   0.480
 9018SOL    HW227954   3.928   5.171   0.355
 9019SOL     OW27955   0.801   3.613   4.236
 9019SOL    HW127956   0.813   3.515   4.253
 9019SOL    HW227957   0.861   3.665   4.296
 9020SOL     OW27958   5.677   4.728   3.665
 9020SOL    HW127959   5.772   4.704   3.643
 9020SOL    HW227960   5.651   4.686   3.752
 9021SOL     OW27961   6.866   1.169   4.081
 9021SOL    HW127962   6.860   1.094   4.147
 9021SOL    HW227963   6.860   1.256   4.130
 9022SOL     OW27964   4.675   3.813   6.893
 9022SOL    HW127965   4.681   3.731   6.949
 9022SOL    HW227966   4.691   3.894   6.950
 9023SOL     OW27967   6.866   4.684   0.749
 9023SOL    HW127968   6.890   4.595   0.709
 9023SOL    HW227969   6.776   4.712   0.714
 9024SOL     OW27970   2.380   5.007   6.139
 9024SOL    HW127971   2.375   4.908   6.152
 9024SOL    HW227972   2.337   5.052   6.217
 9025SOL     OW27973   0.884   6.224   1.140
 9025SOL    HW127974   0.798   6.173   1.144
 9025SOL    HW227975   0.958   6.163   1.111
 9026SOL     OW27976   5.794   1.137   0.188
 9026SOL    HW127977   5.851   1.055   0.178
 9026SOL    HW227978   5.841   1.215   0.147
 9027SOL     OW27979   0.090   3.852   3.153
 9027SOL    HW127980   0.059   3.759   3.131
 9027SOL    HW227981   0.118   3.898   3.069
 9028SOL     OW27982   3.223   4.854   6.877
 9028SOL    HW127983   3.280   4.833   6.798
 9028SOL    HW227984   3.174   4.940   6.862
 9029SOL     OW27985   4.171   6.101   4.934
 9029SOL    HW127986   4.232   6.145   5.000
 9029SOL    HW227987   4.082   6.086   4.976
 9030SOL     OW27988   2.850   2.250   2.297
 9030SOL    HW127989   2.918   2.213   2.360
 9030SOL    HW227990   2.895   2.275   2.211
 9031SOL     OW27991   5.117   0.134   5.118
 9031SOL    HW127992   5.208   0.171   5.096
 9031SOL    HW227993   5.102   0.142   5.217
 9032SOL     OW27994   5.373   2.896   0.919
 9032SOL    HW127995   5.278   2.908   0.949
 9032SOL    HW227996   5.379   2.910   0.820
 9033SOL     OW27997   1.242   6.182   2.867
 9033SOL    HW127998   1.218   6.121   2.943
 9033SOL    HW227999   1.158   6.216   2.825
 9034SOL     OW28000   4.680   6.642   5.146
 9034SOL    HW128001   4.617   6.712   5.114
 9034SOL    HW228002   4.735   6.609   5.069
 9035SOL     OW28003   2.996   5.186   6.291
 9035SOL    HW128004   2.919   5.146   6.242
 9035SOL    HW228005   3.064   5.218   6.226
 9036SOL     OW28006   0.557   5.302   5.414
 9036SOL    HW128007   0.589   5.229   5.475
 9036SOL    HW228008   0.620   5.309   5.336
 9037SOL     OW28009   0.241   0.439   2.229
 9037SOL    HW128010   0.275   0.370   2.293
 9037SOL    HW228011   0.141   0.443   2.235
 9038SOL     OW28012   3.729   3.356   5.235
 9038SOL    HW128013   3.710   3.379   5.140
 9038SOL    HW228014   3.809   3.406   5.267
 9039SOL     OW28015   4.354   6.120   6.573
 9039SOL    HW128016   4.262   6.105   6.539
 9039SOL    HW228017   4.372   6.056   6.648
 9040SOL     OW28018   2.101   2.012   2.035
 9040SOL    HW128019   2.190   2.018   1.991
 9040SOL    HW228020   2.029   2.032   1.967
 9041SOL     OW28021   5.992   2.069   2.620
 9041SOL    HW128022   6.032   2.157   2.648
 9041SOL    HW228023   5.901   2.059   2.660
 9042SOL     OW28024   5.653   5.663   6.566
 9042SOL    HW128025   5.598   5.610   6.631
 9042SOL    HW228026   5.746   5.625   6.562
 9043SOL     OW28027   2.586   3.213   1.556
 9043SOL    HW128028   2.570   3.125   1.602
 9043SOL    HW228029   2.512   3.230   1.491
 9044SOL     OW28030   1.895   0.802   0.274
 9044SOL    HW128031   1.987   0.783   0.309
 9044SOL    HW228032   1.873   0.736   0.202
 9045SOL     OW28033   3.581   0.727   3.760
 9045SOL    HW128034   3.597   0.785   3.840
 9045SOL    HW228035   3.528   0.647   3.787
 9046SOL     OW28036   4.036   3.743   2.380
 9046SOL    HW128037   3.957   3.797   2.352
 9046SOL    HW228038   4.019   3.699   2.468
 9047SOL     OW28039   0.664   4.554   5.832
 9047SOL    HW128040   0.722   4.472   5.827
 9047SOL    HW228041   0.717   4.633   5.801
 9048SOL     OW28042   6.884   1.934   5.303
 9048SOL    HW128043   6.814   1.945   5.232
 9048SOL    HW228044   6.974   1.947   5.262
 9049SOL     OW28045   1.352   6.879   5.453
 9049SOL    HW128046   1.340   6.860   5.551
 9049SOL    HW228047   1.348   6.978   5.438
 9050SOL     OW28048   1.161   4.326   0.046
 9050SOL    HW128049   1.111   4.265   0.107
 9050SOL    HW228050   1.203   4.399   0.099
 9051SOL     OW28051   2.231   0.814   1.668
 9051SOL    HW128052   2.228   0.910   1.638
 9051SOL    HW228053   2.239   0.810   1.767
 9052SOL     OW28054   2.090   3.100   6.426
 9052SOL    HW128055   2.080   3.119   6.328
 9052SOL    HW228056   2.118   3.183   6.474
 9053SOL     OW28057   0.426   1.358   0.094
 9053SOL    HW128058   0.389   1.437   0.045
 9053SOL    HW228059   0.364   1.334   0.170
 9054SOL     OW28060   1.769   5.788   2.995
 9054SOL    HW128061   1.670   5.790   2.991
 9054SOL    HW228062   1.798   5.705   3.045
 9055SOL     OW28063   0.950   2.631   5.929
 9055SOL    HW128064   1.037   2.608   5.974
 9055SOL    HW228065   0.894   2.687   5.991
 9056SOL     OW28066   5.485   1.671   4.235
 9056SOL    HW128067   5.557   1.641   4.172
 9056SOL    HW228068   5.436   1.748   4.195
 9057SOL     OW28069   5.135   1.387   3.440
 9057SOL    HW128070   5.038   1.410   3.434
 9057SOL    HW228071   5.189   1.470   3.455
 9058SOL     OW28072   2.182   0.144   5.989
 9058SOL    HW128073   2.116   0.156   6.063
 9058SOL    HW228074   2.164   0.057   5.942
 9059SOL     OW28075   1.529   2.188   3.888
 9059SOL    HW128076   1.496   2.282   3.895
 9059SOL    HW228077   1.452   2.125   3.902
 9060SOL     OW28078   5.340   2.480   4.920
 9060SOL    HW128079   5.297   2.410   4.863
 9060SOL    HW228080   5.437   2.487   4.897
 9061SOL     OW28081   2.156   4.597   3.735
 9061SOL    HW128082   2.111   4.512   3.710
 9061SOL    HW228083   2.129   4.623   3.828
 9062SOL     OW28084   1.395   5.906   1.781
 9062SOL    HW128085   1.354   5.830   1.730
 9062SOL    HW228086   1.494   5.904   1.771
 9063SOL     OW28087   3.363   1.542   2.003
 9063SOL    HW128088   3.288   1.606   2.020
 9063SOL    HW228089   3.433   1.555   2.073
 9064SOL     OW28090   4.317   3.992   6.681
 9064SOL    HW128091   4.346   3.998   6.586
 9064SOL    HW228092   4.355   4.069   6.733
 9065SOL     OW28093   2.709   0.850   1.418
 9065SOL    HW128094   2.778   0.814   1.355
 9065SOL    HW228095   2.709   0.795   1.502
 9066SOL     OW28096   4.915   6.738   0.138
 9066SOL    HW128097   4.830   6.790   0.144
 9066SOL    HW228098   4.978   6.783   0.075
 9067SOL     OW28099   0.756   0.204   1.594
 9067SOL    HW128100   0.753   0.246   1.685
 9067SOL    HW228101   0.757   0.276   1.524
 9068SOL     OW28102   1.221   6.055   6.527
 9068SOL    HW128103   1.320   6.039   6.525
 9068SOL    HW228104   1.177   5.985   6.584
 9069SOL     OW28105   1.206   2.091   6.005
 9069SOL    HW128106   1.218   2.145   5.922
 9069SOL    HW228107   1.163   2.004   5.982
 9070SOL     OW28108   1.439   4.624   4.260
 9070SOL    HW128109   1.353   4.648   4.213
 9070SOL    HW228110   1.506   4.696   4.242
 9071SOL     OW28111   5.014   5.064   6.913
 9071SOL    HW128112   4.995   5.137   6.847
 9071SOL    HW228113   5.106   5.077   6.950
 9072SOL     OW28114   5.029   4.295   0.967
 9072SOL    HW128115   4.963   4.269   1.037
 9072SOL    HW228116   4.990   4.367   0.910
 9073SOL     OW28117   2.065   0.239   1.477
 9073SOL    HW128118   2.143   0.299   1.494
 9073SOL    HW228119   2.055   0.175   1.553
 9074SOL     OW28120   0.350   0.825   1.596
 9074SOL    HW128121   0.278   0.777   1.546
 9074SOL    HW228122   0.429   0.838   1.537
 9075SOL     OW28123   0.139   0.026   1.301
 9075SOL    HW128124   0.178   7.015   1.216
 9075SOL    HW228125   0.210   0.027   1.372
 9076SOL     OW28126   1.254   2.584   5.357
 9076SOL    HW128127   1.352   2.575   5.338
 9076SOL    HW228128   1.202   2.527   5.293
 9077SOL     OW28129   5.895   6.093   2.410
 9077SOL    HW128130   5.925   6.183   2.380
 9077SOL    HW228131   5.806   6.100   2.455
 9078SOL     OW28132   4.728   3.277   5.418
 9078SOL    HW128133   4.778   3.264   5.333
 9078SOL    HW228134   4.734   3.193   5.473
 9079SOL     OW28135   2.301   6.715   5.330
 9079SOL    HW128136   2.273   6.798   5.282
 9079SOL    HW228137   2.339   6.739   5.419
 9080SOL     OW28138   4.601   0.998   0.399
 9080SOL    HW128139   4.620   1.019   0.495
 9080SOL    HW228140   4.639   0.908   0.377
 9081SOL     OW28141   5.493   6.931   3.697
 9081SOL    HW128142   5.560   6.859   3.676
 9081SOL    HW228143   5.416   6.891   3.745
 9082SOL     OW28144   2.342   0.552   2.039
 9082SOL    HW128145   2.404   0.547   1.962
 9082SOL    HW228146   2.384   0.509   2.119
 9083SOL     OW28147   4.420   5.316   3.611
 9083SOL    HW128148   4.340   5.285   3.560
 9083SOL    HW228149   4.494   5.250   3.599
 9084SOL     OW28150   3.692   3.650   2.139
 9084SOL    HW128151   3.599   3.663   2.106
 9084SOL    HW228152   3.713   3.553   2.143
 9085SOL     OW28153   1.089   2.014   0.715
 9085SOL    HW128154   1.132   2.093   0.670
 9085SOL    HW228155   0.999   1.998   0.674
 9086SOL     OW28156   6.802   3.596   0.249
 9086SOL    HW128157   6.834   3.537   0.323
 9086SOL    HW228158   6.769   3.539   0.174
 9087SOL     OW28159   5.197   3.638   2.166
 9087SOL    HW128160   5.245   3.552   2.153
 9087SOL    HW228161   5.098   3.623   2.154
 9088SOL     OW28162   6.035   4.781   2.121
 9088SOL    HW128163   6.122   4.749   2.082
 9088SOL    HW228164   5.977   4.702   2.141
 9089SOL     OW28165   3.921   1.115   5.803
 9089SOL    HW128166   3.951   1.134   5.896
 9089SOL    HW228167   3.823   1.133   5.795
 9090SOL     OW28168   6.848   1.911   3.930
 9090SOL    HW128169   6.765   1.860   3.905
 9090SOL    HW228170   6.900   1.933   3.848
 9091SOL     OW28171   4.333   2.814   5.510
 9091SOL    HW128172   4.311   2.770   5.597
 9091SOL    HW228173   4.297   2.907   5.509
 9092SOL     OW28174   6.830   3.417   5.959
 9092SOL    HW128175   6.915   3.420   6.012
 9092SOL    HW228176   6.852   3.419   5.861
 9093SOL     OW28177   2.419   6.286   4.871
 9093SOL    HW128178   2.484   6.213   4.849
 9093SOL    HW228179   2.467   6.359   4.919
 9094SOL     OW28180   1.820   3.921   0.617
 9094SOL    HW128181   1.903   3.954   0.664
 9094SOL    HW228182   1.840   3.907   0.520
 9095SOL     OW28183   0.432   0.218   6.023
 9095SOL    HW128184   0.389   0.280   6.089
 9095SOL    HW228185   0.512   0.263   5.983
 9096SOL     OW28186   6.720   5.576   4.010
 9096SOL    HW128187   6.732   5.659   4.065
 9096SOL    HW228188   6.802   5.562   3.953
 9097SOL     OW28189   0.576   3.992   0.076
 9097SOL    HW128190   0.641   4.000   0.001
 9097SOL    HW228191   0.577   4.076   0.131
 9098SOL     OW28192   1.881   5.301   4.458
 9098SOL    HW128193   1.955   5.253   4.411
 9098SOL    HW228194   1.859   5.385   4.408
 9099SOL     OW28195   2.300   1.775   6.228
 9099SOL    HW128196   2.255   1.825   6.301
 9099SOL    HW228197   2.235   1.758   6.154
 9100SOL     OW28198   2.233   4.893   4.699
 9100SOL    HW128199   2.136   4.868   4.703
 9100SOL    HW228200   2.252   4.964   4.767
 9101SOL     OW28201   6.732   1.831   1.414
 9101SOL    HW128202   6.772   1.922   1.422
 9101SOL    HW228203   6.777   1.781   1.340
 9102SOL     OW28204   3.535   0.766   3.035
 9102SOL    HW128205   3.555   0.689   3.095
 9102SOL    HW228206   3.603   0.838   3.050
 9103SOL     OW28207   6.567   0.473   1.220
 9103SOL    HW128208   6.637   0.456   1.290
 9103SOL    HW228209   6.549   0.389   1.169
 9104SOL     OW28210   5.589   2.369   5.673
 9104SOL    HW128211   5.655   2.299   5.643
 9104SOL    HW228212   5.578   2.437   5.601
 9105SOL     OW28213   2.750   0.660   0.078
 9105SOL    HW128214   2.837   0.613   0.090
 9105SOL    HW228215   2.750   0.744   0.132
 9106SOL     OW28216   2.499   3.038   6.375
 9106SOL    HW128217   2.438   2.961   6.358
 9106SOL    HW228218   2.547   3.062   6.290
 9107SOL     OW28219   3.691   0.402   1.251
 9107SOL    HW128220   3.634   0.339   1.304
 9107SOL    HW228221   3.783   0.406   1.292
 9108SOL     OW28222   6.267   6.558   5.369
 9108SOL    HW128223   6.217   6.561   5.282
 9108SOL    HW228224   6.364   6.578   5.352
 9109SOL     OW28225   5.498   4.177   3.246
 9109SOL    HW128226   5.424   4.240   3.220
 9109SOL    HW228227   5.546   4.147   3.164
 9110SOL     OW28228   1.383   6.433   2.525
 9110SOL    HW128229   1.446   6.447   2.449
 9110SOL    HW228230   1.289   6.448   2.495
 9111SOL     OW28231   4.634   2.697   5.225
 9111SOL    HW128232   4.588   2.776   5.264
 9111SOL    HW228233   4.648   2.628   5.297
 9112SOL     OW28234   0.498   4.721   1.830
 9112SOL    HW128235   0.498   4.820   1.819
 9112SOL    HW228236   0.485   4.677   1.741
 9113SOL     OW28237   5.602   0.225   4.389
 9113SOL    HW128238   5.672   0.154   4.384
 9113SOL    HW228239   5.640   0.312   4.358
 9114SOL     OW28240   0.240   1.106   6.341
 9114SOL    HW128241   0.214   1.182   6.281
 9114SOL    HW228242   0.312   1.052   6.296
 9115SOL     OW28243   5.547   3.943   4.449
 9115SOL    HW128244   5.543   3.886   4.532
 9115SOL    HW228245   5.567   3.885   4.370
 9116SOL     OW28246   0.470   5.362   3.688
 9116SOL    HW128247   0.372   5.347   3.696
 9116SOL    HW228248   0.502   5.418   3.766
 9117SOL     OW28249   1.979   6.865   7.020
 9117SOL    HW128250   1.928   6.932   0.052
 9117SOL    HW228251   2.072   6.857   0.033
 9118SOL     OW28252   6.629   5.067   1.117
 9118SOL    HW128253   6.639   5.166   1.125
 9118SOL    HW228254   6.714   5.027   1.083
 9119SOL     OW28255   3.681   1.451   0.664
 9119SOL    HW128256   3.605   1.511   0.685
 9119SOL    HW228257   3.758   1.506   0.631
 9120SOL     OW28258   6.680   4.230   5.173
 9120SOL    HW128259   6.730   4.169   5.234
 9120SOL    HW228260   6.609   4.278   5.225
 9121SOL     OW28261   4.295   0.998   4.713
 9121SOL    HW128262   4.221   1.066   4.710
 9121SOL    HW228263   4.258   0.908   4.691
 9122SOL     OW28264   0.139   1.704   2.113
 9122SOL    HW128265   0.073   1.740   2.180
 9122SOL    HW228266   0.095   1.697   2.024
 9123SOL     OW28267   0.758   6.183   4.720
 9123SOL    HW128268   0.805   6.269   4.701
 9123SOL    HW228269   0.767   6.160   4.816
 9124SOL     OW28270   3.302   5.523   0.672
 9124SOL    HW128271   3.373   5.534   0.602
 9124SOL    HW228272   3.246   5.443   0.651
 9125SOL     OW28273   4.875   6.417   1.937
 9125SOL    HW128274   4.834   6.501   1.903
 9125SOL    HW228275   4.811   6.372   2.001
 9126SOL     OW28276   3.746   5.175   0.253
 9126SOL    HW128277   3.695   5.106   0.200
 9126SOL    HW228278   3.688   5.209   0.327
 9127SOL     OW28279   6.171   4.310   5.641
 9127SOL    HW128280   6.116   4.300   5.724
 9127SOL    HW228281   6.209   4.221   5.615
 9128SOL     OW28282   5.403   3.691   6.905
 9128SOL    HW128283   5.369   3.668   6.996
 9128SOL    HW228284   5.373   3.621   6.840
 9129SOL     OW28285   0.772   3.149   1.496
 9129SOL    HW128286   0.689   3.124   1.546
 9129SOL    HW228287   0.814   3.230   1.538
 9130SOL     OW28288   2.829   3.723   6.021
 9130SOL    HW128289   2.923   3.754   6.006
 9130SOL    HW228290   2.803   3.657   5.951
 9131SOL     OW28291   6.466   3.182   0.938
 9131SOL    HW128292   6.473   3.096   0.990
 9131SOL    HW228293   6.371   3.195   0.909
 9132SOL     OW28294   0.837   4.057   3.710
 9132SOL    HW128295   0.806   3.977   3.761
 9132SOL    HW228296   0.937   4.058   3.707
 9133SOL     OW28297   5.090   0.044   0.493
 9133SOL    HW128298   5.133   0.001   0.414
 9133SOL    HW228299   5.038   6.998   0.543
 9134SOL     OW28300   4.977   4.296   6.872
 9134SOL    HW128301   5.034   4.378   6.864
 9134SOL    HW228302   5.020   4.221   6.820
 9135SOL     OW28303   6.920   5.377   2.511
 9135SOL    HW128304   7.006   5.393   2.560
 9135SOL    HW228305   6.844   5.418   2.563
 9136SOL     OW28306   0.489   5.213   6.863
 9136SOL    HW128307   0.442   5.130   6.831
 9136SOL    HW228308   0.587   5.205   6.846
 9137SOL     OW28309   5.496   5.323   6.094
 9137SOL    HW128310   5.430   5.257   6.059
 9137SOL    HW228311   5.537   5.372   6.018
 9138SOL     OW28312   1.577   3.947   6.254
 9138SOL    HW128313   1.544   3.960   6.348
 9138SOL    HW228314   1.671   3.914   6.256
 9139SOL     OW28315   0.564   6.708   0.879
 9139SOL    HW128316   0.493   6.747   0.938
 9139SOL    HW228317   0.546   6.733   0.784
 9140SOL     OW28318   0.612   3.906   2.947
 9140SOL    HW128319   0.645   3.881   2.856
 9140SOL    HW228320   0.544   3.839   2.977
 9141SOL     OW28321   0.703   6.161   4.311
 9141SOL    HW128322   0.641   6.202   4.243
 9141SOL    HW228323   0.786   6.216   4.317
 9142SOL     OW28324   1.554   5.400   3.202
 9142SOL    HW128325   1.609   5.355   3.131
 9142SOL    HW228326   1.463   5.422   3.165
 9143SOL     OW28327   5.086   3.408   2.393
 9143SOL    HW128328   5.163   3.409   2.328
 9143SOL    HW228329   5.006   3.368   2.348
 9144SOL     OW28330   2.443   4.428   5.112
 9144SOL    HW128331   2.533   4.463   5.088
 9144SOL    HW228332   2.372   4.482   5.066
 9145SOL     OW28333   3.110   5.909   6.521
 9145SOL    HW128334   3.204   5.899   6.488
 9145SOL    HW228335   3.047   5.912   6.444
 9146SOL     OW28336   5.470   1.919   4.560
 9146SOL    HW128337   5.562   1.924   4.522
 9146SOL    HW228338   5.458   1.992   4.628
 9147SOL     OW28339   4.455   0.082   6.444
 9147SOL    HW128340   4.400   0.034   6.512
 9147SOL    HW228341   4.441   0.181   6.454
 9148SOL     OW28342   3.632   5.528   2.489
 9148SOL    HW128343   3.697   5.482   2.550
 9148SOL    HW228344   3.655   5.625   2.482
 9149SOL     OW28345   1.435   4.089   1.383
 9149SOL    HW128346   1.356   4.055   1.333
 9149SOL    HW228347   1.514   4.093   1.321
 9150SOL     OW28348   3.836   3.590   6.582
 9150SOL    HW128349   3.927   3.630   6.590
 9150SOL    HW228350   3.785   3.606   6.667
 9151SOL     OW28351   2.141   3.844   3.650
 9151SOL    HW128352   2.194   3.929   3.644
 9151SOL    HW228353   2.197   3.774   3.694
 9152SOL     OW28354   1.709   5.173   1.685
 9152SOL    HW128355   1.765   5.154   1.604
 9152SOL    HW228356   1.712   5.094   1.746
 9153SOL     OW28357   0.543   3.787   0.243
 9153SOL    HW128358   0.561   3.693   0.215
 9153SOL    HW228359   0.562   3.849   0.166
 9154SOL     OW28360   4.383   5.252   2.662
 9154SOL    HW128361   4.383   5.161   2.621
 9154SOL    HW228362   4.357   5.246   2.758
 9155SOL     OW28363   0.695   6.516   2.904
 9155SOL    HW128364   0.795   6.527   2.902
 9155SOL    HW228365   0.673   6.419   2.904
 9156SOL     OW28366   6.618   4.316   5.569
 9156SOL    HW128367   6.640   4.344   5.662
 9156SOL    HW228368   6.695   4.265   5.530
 9157SOL     OW28369   1.749   4.919   5.163
 9157SOL    HW128370   1.785   5.013   5.165
 9157SOL    HW228371   1.683   4.908   5.237
 9158SOL     OW28372   7.002   2.563   3.889
 9158SOL    HW128373   7.022   2.486   3.829
 9158SOL    HW228374   6.957   2.530   3.972
 9159SOL     OW28375   2.398   0.977   3.532
 9159SOL    HW128376   2.301   0.988   3.513
 9159SOL    HW228377   2.427   0.885   3.506
 9160SOL     OW28378   0.637   3.529   6.642
 9160SOL    HW128379   0.622   3.448   6.698
 9160SOL    HW228380   0.627   3.506   6.545
 9161SOL     OW28381   5.659   3.105   2.751
 9161SOL    HW128382   5.633   3.059   2.666
 9161SOL    HW228383   5.642   3.044   2.828
 9162SOL     OW28384   5.409   2.197   1.862
 9162SOL    HW128385   5.350   2.203   1.781
 9162SOL    HW228386   5.488   2.141   1.841
 9163SOL     OW28387   1.905   3.523   3.062
 9163SOL    HW128388   1.916   3.500   2.965
 9163SOL    HW228389   1.964   3.464   3.117
 9164SOL     OW28390   3.596   0.659   0.669
 9164SOL    HW128391   3.641   0.608   0.742
 9164SOL    HW228392   3.599   0.757   0.690
 9165SOL     OW28393   6.592   0.270   6.602
 9165SOL    HW128394   6.648   0.191   6.628
 9165SOL    HW228395   6.546   0.306   6.683
 9166SOL     OW28396   4.110   5.592   2.045
 9166SOL    HW128397   4.031   5.593   1.984
 9166SOL    HW228398   4.114   5.678   2.096
 9167SOL     OW28399   0.802   2.627   4.783
 9167SOL    HW128400   0.874   2.649   4.849
 9167SOL    HW228401   0.842   2.605   4.695
 9168SOL     OW28402   5.755   5.772   4.472
 9168SOL    HW128403   5.759   5.857   4.524
 9168SOL    HW228404   5.741   5.792   4.375
 9169SOL     OW28405   5.774   5.785   0.324
 9169SOL    HW128406   5.792   5.882   0.343
 9169SOL    HW228407   5.756   5.773   0.226
 9170SOL     OW28408   1.432   0.178   5.401
 9170SOL    HW128409   1.513   0.135   5.362
 9170SOL    HW228410   1.454   0.214   5.492
 9171SOL     OW28411   4.598   5.988   7.001
 9171SOL    HW128412   4.526   5.944   0.033
 9171SOL    HW228413   4.681   5.933   7.006
 9172SOL     OW28414   5.153   0.541   6.110
 9172SOL    HW128415   5.194   0.468   6.164
 9172SOL    HW228416   5.071   0.506   6.064
 9173SOL     OW28417   6.024   3.814   6.621
 9173SOL    HW128418   6.071   3.731   6.591
 9173SOL    HW228419   5.934   3.819   6.578
 9174SOL     OW28420   6.111   4.946   7.005
 9174SOL    HW128421   6.080   5.003   6.928
 9174SOL    HW228422   6.035   4.930   0.045
 9175SOL     OW28423   1.956   0.876   1.322
 9175SOL    HW128424   1.867   0.913   1.296
 9175SOL    HW228425   2.028   0.930   1.279
 9176SOL     OW28426   1.421   6.934   2.504
 9176SOL    HW128427   1.490   6.874   2.463
 9176SOL    HW228428   1.433   0.004   2.468
 9177SOL     OW28429   0.587   5.820   3.384
 9177SOL    HW128430   0.641   5.768   3.450
 9177SOL    HW228431   0.615   5.795   3.291
 9178SOL     OW28432   1.075   3.750   1.028
 9178SOL    HW128433   1.038   3.683   0.963
 9178SOL    HW228434   1.029   3.837   1.015
 9179SOL     OW28435   3.808   6.106   3.040
 9179SOL    HW128436   3.836   6.058   2.957
 9179SOL    HW228437   3.775   6.040   3.108
 9180SOL     OW28438   0.154   1.284   5.075
 9180SOL    HW128439   0.156   1.196   5.028
 9180SOL    HW228440   0.184   1.272   5.169
 9181SOL     OW28441   3.378   2.113   3.176
 9181SOL    HW128442   3.431   2.061   3.243
 9181SOL    HW228443   3.439   2.151   3.107
 9182SOL     OW28444   6.658   1.438   3.189
 9182SOL    HW128445   6.603   1.379   3.130
 9182SOL    HW228446   6.670   1.527   3.146
 9183SOL     OW28447   3.229   1.672   5.494
 9183SOL    HW128448   3.265   1.694   5.585
 9183SOL    HW228449   3.136   1.709   5.484
 9184SOL     OW28450   2.662   5.995   0.917
 9184SOL    HW128451   2.591   5.926   0.928
 9184SOL    HW228452   2.752   5.954   0.933
 9185SOL     OW28453   0.253   1.369   5.532
 9185SOL    HW128454   0.177   1.420   5.572
 9185SOL    HW228455   0.331   1.370   5.594
 9186SOL     OW28456   5.418   6.602   5.959
 9186SOL    HW128457   5.471   6.669   6.011
 9186SOL    HW228458   5.376   6.646   5.880
 9187SOL     OW28459   5.175   3.550   1.127
 9187SOL    HW128460   5.166   3.451   1.117
 9187SOL    HW228461   5.117   3.595   1.059
 9188SOL     OW28462   1.116   1.204   2.575
 9188SOL    HW128463   1.065   1.140   2.632
 9188SOL    HW228464   1.088   1.194   2.480
 9189SOL     OW28465   3.085   0.705   6.934
 9189SOL    HW128466   3.022   0.632   6.962
 9189SOL    HW228467   3.158   0.713   7.001
 9190SOL     OW28468   3.674   1.241   5.836
 9190SOL    HW128469   3.735   1.318   5.854
 9190SOL    HW228470   3.599   1.242   5.901
 9191SOL     OW28471   5.076   0.009   1.597
 9191SOL    HW128472   5.110   0.097   1.629
 9191SOL    HW228473   4.983   0.021   1.560
 9192SOL     OW28474   4.262   4.704   4.237
 9192SOL    HW128475   4.236   4.638   4.166
 9192SOL    HW228476   4.358   4.692   4.260
 9193SOL     OW28477   4.156   3.736   2.121
 9193SOL    HW128478   4.244   3.782   2.126
 9193SOL    HW228479   4.105   3.751   2.206
 9194SOL     OW28480   2.855   5.647   3.736
 9194SOL    HW128481   2.929   5.601   3.687
 9194SOL    HW228482   2.777   5.586   3.743
 9195SOL     OW28483   0.490   3.314   3.478
 9195SOL    HW128484   0.551   3.388   3.447
 9195SOL    HW228485   0.525   3.276   3.563
 9196SOL     OW28486   5.587   5.459   3.556
 9196SOL    HW128487   5.561   5.386   3.493
 9196SOL    HW228488   5.505   5.495   3.601
 9197SOL     OW28489   4.060   2.036   6.558
 9197SOL    HW128490   4.019   2.121   6.590
 9197SOL    HW228491   4.012   2.006   6.475
 9198SOL     OW28492   6.365   2.632   4.589
 9198SOL    HW128493   6.337   2.565   4.657
 9198SOL    HW228494   6.417   2.586   4.516
 9199SOL     OW28495   0.863   3.724   0.016
 9199SOL    HW128496   0.935   3.660   7.010
 9199SOL    HW228497   0.804   3.745   6.960
 9200SOL     OW28498   4.383   5.901   2.119
 9200SOL    HW128499   4.318   5.924   2.192
 9200SOL    HW228500   4.360   5.955   2.037
 9201SOL     OW28501   0.068   2.741   2.321
 9201SOL    HW128502   0.123   2.666   2.284
 9201SOL    HW228503   6.994   2.723   2.305
 9202SOL     OW28504   1.770   6.014   3.157
 9202SOL    HW128505   1.779   5.925   3.113
 9202SOL    HW228506   1.708   6.006   3.236
 9203SOL     OW28507   5.298   2.089   0.432
 9203SOL    HW128508   5.256   2.171   0.391
 9203SOL    HW228509   5.266   2.079   0.526
 9204SOL     OW28510   4.547   4.573   1.438
 9204SOL    HW128511   4.546   4.536   1.345
 9204SOL    HW228512   4.634   4.617   1.456
 9205SOL     OW28513   4.205   2.366   0.731
 9205SOL    HW128514   4.221   2.373   0.830
 9205SOL    HW228515   4.281   2.407   0.681
 9206SOL     OW28516   6.763   0.265   5.036
 9206SOL    HW128517   6.814   0.255   4.950
 9206SOL    HW228518   6.740   0.361   5.051
 9207SOL     OW28519   6.000   6.241   0.539
 9207SOL    HW128520   5.910   6.260   0.500
 9207SOL    HW228521   6.029   6.149   0.512
 9208SOL     OW28522   5.879   4.406   1.729
 9208SOL    HW128523   5.913   4.366   1.814
 9208SOL    HW228524   5.798   4.356   1.699
 9209SOL     OW28525   5.004   0.657   4.716
 9209SOL    HW128526   5.102   0.660   4.734
 9209SOL    HW228527   4.954   0.678   4.800
 9210SOL     OW28528   1.483   6.664   0.201
 9210SOL    HW128529   1.493   6.577   0.152
 9210SOL    HW228530   1.431   6.649   0.285
 9211SOL     OW28531   5.553   1.282   6.150
 9211SOL    HW128532   5.456   1.285   6.173
 9211SOL    HW228533   5.574   1.354   6.084
 9212SOL     OW28534   6.033   3.523   6.499
 9212SOL    HW128535   5.999   3.481   6.415
 9212SOL    HW228536   6.133   3.523   6.498
 9213SOL     OW28537   0.217   5.344   3.221
 9213SOL    HW128538   0.272   5.378   3.145
 9213SOL    HW228539   0.183   5.253   3.200
 9214SOL     OW28540   1.523   1.299   5.587
 9214SOL    HW128541   1.501   1.307   5.685
 9214SOL    HW228542   1.614   1.259   5.577
 9215SOL     OW28543   6.762   3.726   3.873
 9215SOL    HW128544   6.802   3.699   3.961
 9215SOL    HW228545   6.758   3.826   3.867
 9216SOL     OW28546   1.904   0.073   3.431
 9216SOL    HW128547   1.833   0.003   3.424
 9216SOL    HW228548   1.965   0.051   3.507
 9217SOL     OW28549   3.735   2.383   0.324
 9217SOL    HW128550   3.787   2.336   0.395
 9217SOL    HW228551   3.795   2.445   0.273
 9218SOL     OW28552   5.011   5.893   5.909
 9218SOL    HW128553   4.964   5.912   5.995
 9218SOL    HW228554   4.954   5.923   5.832
 9219SOL     OW28555   3.879   3.280   6.078
 9219SOL    HW128556   3.827   3.254   5.996
 9219SOL    HW228557   3.911   3.374   6.068
 9220SOL     OW28558   0.815   6.808   3.825
 9220SOL    HW128559   0.740   6.794   3.889
 9220SOL    HW228560   0.828   6.906   3.810
 9221SOL     OW28561   2.758   1.450   2.251
 9221SOL    HW128562   2.843   1.497   2.272
 9221SOL    HW228563   2.690   1.472   2.321
 9222SOL     OW28564   2.057   6.180   3.410
 9222SOL    HW128565   2.069   6.083   3.390
 9222SOL    HW228566   1.962   6.197   3.436
 9223SOL     OW28567   5.906   2.474   4.771
 9223SOL    HW128568   5.947   2.415   4.702
 9223SOL    HW228569   5.945   2.566   4.763
 9224SOL     OW28570   1.855   5.748   2.720
 9224SOL    HW128571   1.870   5.834   2.670
 9224SOL    HW228572   1.860   5.765   2.818
 9225SOL     OW28573   0.426   5.962   5.293
 9225SOL    HW128574   0.396   5.901   5.220
 9225SOL    HW228575   0.397   5.926   5.381
 9226SOL     OW28576   0.839   6.688   4.528
 9226SOL    HW128577   0.891   6.773   4.542
 9226SOL    HW228578   0.742   6.705   4.544
 9227SOL     OW28579   4.498   2.749   0.626
 9227SOL    HW128580   4.553   2.674   0.588
 9227SOL    HW228581   4.461   2.721   0.714
 9228SOL     OW28582   3.716   3.521   4.350
 9228SOL    HW128583   3.644   3.589   4.365
 9228SOL    HW228584   3.783   3.527   4.424
 9229SOL     OW28585   0.664   6.053   1.149
 9229SOL    HW128586   0.662   5.991   1.071
 9229SOL    HW228587   0.638   6.004   1.232
 9230SOL     OW28588   3.635   0.092   5.950
 9230SOL    HW128589   3.732   0.084   5.972
 9230SOL    HW228590   3.617   0.181   5.908
 9231SOL     OW28591   5.765   6.544   1.669
 9231SOL    HW128592   5.682   6.505   1.708
 9231SOL    HW228593   5.748   6.568   1.573
 9232SOL     OW28594   1.254   5.116   2.013
 9232SOL    HW128595   1.346   5.154   2.016
 9232SOL    HW228596   1.257   5.024   1.972
 9233SOL     OW28597   1.517   6.871   5.774
 9233SOL    HW128598   1.516   6.882   5.873
 9233SOL    HW228599   1.536   6.775   5.751
 9234SOL     OW28600   3.360   4.054   6.871
 9234SOL    HW128601   3.268   4.071   6.835
 9234SOL    HW228602   3.359   4.065   6.970
 9235SOL     OW28603   1.965   2.432   2.736
 9235SOL    HW128604   2.021   2.349   2.726
 9235SOL    HW228605   1.874   2.406   2.769
 9236SOL     OW28606   1.650   4.133   6.568
 9236SOL    HW128607   1.587   4.062   6.598
 9236SOL    HW228608   1.725   4.092   6.516
 9237SOL     OW28609   6.961   5.513   3.798
 9237SOL    HW128610   6.983   5.606   3.771
 9237SOL    HW228611   7.010   5.490   3.882
 9238SOL     OW28612   1.930   2.913   4.975
 9238SOL    HW128613   2.001   2.900   5.044
 9238SOL    HW228614   1.937   3.005   4.938
 9239SOL     OW28615   1.844   6.083   6.232
 9239SOL    HW128616   1.914   6.150   6.258
 9239SOL    HW228617   1.770   6.086   6.299
 9240SOL     OW28618   3.854   1.346   4.992
 9240SOL    HW128619   3.786   1.349   5.065
 9240SOL    HW228620   3.808   1.362   4.904
 9241SOL     OW28621   5.226   6.312   0.269
 9241SOL    HW128622   5.135   6.299   0.308
 9241SOL    HW228623   5.219   6.350   0.177
 9242SOL     OW28624   2.614   2.442   6.993
 9242SOL    HW128625   2.534   2.454   6.934
 9242SOL    HW228626   2.598   2.366   0.034
 9243SOL     OW28627   2.025   0.107   0.329
 9243SOL    HW128628   1.952   0.067   0.274
 9243SOL    HW228629   2.033   0.204   0.308
 9244SOL     OW28630   3.318   6.475   6.565
 9244SOL    HW128631   3.240   6.514   6.615
 9244SOL    HW228632   3.326   6.521   6.476
 9245SOL     OW28633   0.629   3.790   3.373
 9245SOL    HW128634   0.712   3.821   3.420
 9245SOL    HW228635   0.593   3.865   3.317
 9246SOL     OW28636   4.872   1.175   6.512
 9246SOL    HW128637   4.846   1.172   6.608
 9246SOL    HW228638   4.798   1.137   6.456
 9247SOL     OW28639   3.004   6.276   2.829
 9247SOL    HW128640   3.006   6.290   2.928
 9247SOL    HW228641   2.919   6.315   2.792
 9248SOL     OW28642   2.822   0.025   6.280
 9248SOL    HW128643   2.798   6.960   6.236
 9248SOL    HW228644   2.885   0.008   6.355
 9249SOL     OW28645   3.243   1.704   0.685
 9249SOL    HW128646   3.199   1.616   0.699
 9249SOL    HW228647   3.212   1.768   0.756
 9250SOL     OW28648   0.890   3.344   1.698
 9250SOL    HW128649   0.983   3.359   1.666
 9250SOL    HW228650   0.849   3.431   1.724
 9251SOL     OW28651   4.058   1.206   0.767
 9251SOL    HW128652   4.060   1.123   0.711
 9251SOL    HW228653   4.140   1.260   0.748
 9252SOL     OW28654   5.279   1.493   4.680
 9252SOL    HW128655   5.307   1.575   4.631
 9252SOL    HW228656   5.299   1.412   4.624
 9253SOL     OW28657   2.348   5.453   3.512
 9253SOL    HW128658   2.263   5.462   3.565
 9253SOL    HW228659   2.358   5.358   3.481
 9254SOL     OW28660   6.493   5.954   2.365
 9254SOL    HW128661   6.548   6.029   2.402
 9254SOL    HW228662   6.492   5.959   2.265
 9255SOL     OW28663   0.565   3.057   1.660
 9255SOL    HW128664   0.522   2.968   1.675
 9255SOL    HW228665   0.495   3.128   1.655
 9256SOL     OW28666   2.068   6.325   1.407
 9256SOL    HW128667   1.979   6.347   1.367
 9256SOL    HW228668   2.116   6.410   1.430
 9257SOL     OW28669   6.474   6.252   5.562
 9257SOL    HW128670   6.571   6.229   5.557
 9257SOL    HW228671   6.423   6.200   5.494
 9258SOL     OW28672   4.999   3.672   3.122
 9258SOL    HW128673   4.990   3.696   3.025
 9258SOL    HW228674   4.958   3.744   3.178
 9259SOL     OW28675   1.080   3.179   6.479
 9259SOL    HW128676   1.078   3.219   6.387
 9259SOL    HW228677   0.986   3.164   6.511
 9260SOL     OW28678   5.037   5.031   5.188
 9260SOL    HW128679   5.117   5.014   5.245
 9260SOL    HW228680   5.050   5.115   5.136
 9261SOL     OW28681   1.433   2.940   1.164
 9261SOL    HW128682   1.458   2.997   1.242
 9261SOL    HW228683   1.467   2.847   1.178
 9262SOL     OW28684   6.823   6.527   6.036
 9262SOL    HW128685   6.862   6.452   6.088
 9262SOL    HW228686   6.816   6.608   6.094
 9263SOL     OW28687   2.419   4.732   2.757
 9263SOL    HW128688   2.476   4.675   2.698
 9263SOL    HW228689   2.327   4.737   2.718
 9264SOL     OW28690   5.841   3.883   5.347
 9264SOL    HW128691   5.869   3.934   5.266
 9264SOL    HW228692   5.913   3.885   5.416
 9265SOL     OW28693   4.420   0.368   1.956
 9265SOL    HW128694   4.419   0.270   1.939
 9265SOL    HW228695   4.512   0.396   1.984
 9266SOL     OW28696   0.333   4.630   0.758
 9266SOL    HW128697   0.249   4.576   0.746
 9266SOL    HW228698   0.377   4.604   0.844
 9267SOL     OW28699   6.759   1.096   3.142
 9267SOL    HW128700   6.663   1.086   3.115
 9267SOL    HW228701   6.770   1.183   3.191
 9268SOL     OW28702   0.024   7.003   1.025
 9268SOL    HW128703   6.990   6.957   0.956
 9268SOL    HW228704   0.041   0.075   0.997
 9269SOL     OW28705   3.485   6.113   1.208
 9269SOL    HW128706   3.395   6.155   1.199
 9269SOL    HW228707   3.475   6.015   1.222
 9270SOL     OW28708   1.913   1.378   5.391
 9270SOL    HW128709   1.983   1.307   5.388
 9270SOL    HW228710   1.865   1.381   5.303
 9271SOL     OW28711   1.331   5.121   5.332
 9271SOL    HW128712   1.333   5.164   5.422
 9271SOL    HW228713   1.266   5.170   5.273
 9272SOL     OW28714   6.314   6.802   6.174
 9272SOL    HW128715   6.365   6.859   6.109
 9272SOL    HW228716   6.233   6.852   6.205
 9273SOL     OW28717   6.611   3.958   3.475
 9273SOL    HW128718   6.562   4.045   3.464
 9273SOL    HW228719   6.709   3.972   3.462
 9274SOL     OW28720   6.892   3.146   1.086
 9274SOL    HW128721   6.833   3.219   1.054
 9274SOL    HW228722   6.987   3.165   1.060
 9275SOL     OW28723   4.907   1.779   0.207
 9275SOL    HW128724   4.827   1.778   0.147
 9275SOL    HW228725   4.905   1.698   0.266
 9276SOL     OW28726   1.139   4.232   0.321
 9276SOL    HW128727   1.207   4.282   0.375
 9276SOL    HW228728   1.119   4.145   0.365
 9277SOL     OW28729   3.431   5.937   2.799
 9277SOL    HW128730   3.512   5.995   2.805
 9277SOL    HW228731   3.403   5.930   2.703
 9278SOL     OW28732   1.588   0.037   4.662
 9278SOL    HW128733   1.600   6.963   4.639
 9278SOL    HW228734   1.630   0.094   4.591
 9279SOL     OW28735   3.738   6.034   1.705
 9279SOL    HW128736   3.694   6.061   1.620
 9279SOL    HW228737   3.826   5.990   1.684
 9280SOL     OW28738   1.042   4.676   1.522
 9280SOL    HW128739   1.141   4.667   1.530
 9280SOL    HW228740   1.020   4.723   1.437
 9281SOL     OW28741   1.482   6.033   0.704
 9281SOL    HW128742   1.575   6.070   0.694
 9281SOL    HW228743   1.488   5.941   0.741
 9282SOL     OW28744   1.921   0.802   3.721
 9282SOL    HW128745   2.019   0.821   3.729
 9282SOL    HW228746   1.907   0.724   3.660
 9283SOL     OW28747   5.925   4.840   6.293
 9283SOL    HW128748   5.878   4.825   6.206
 9283SOL    HW228749   5.857   4.855   6.365
 9284SOL     OW28750   3.742   6.361   1.480
 9284SOL    HW128751   3.720   6.266   1.500
 9284SOL    HW228752   3.778   6.369   1.387
 9285SOL     OW28753   0.023   5.777   3.103
 9285SOL    HW128754   0.032   5.692   3.156
 9285SOL    HW228755   0.061   5.853   3.155
 9286SOL     OW28756   5.523   5.933   1.778
 9286SOL    HW128757   5.518   5.836   1.800
 9286SOL    HW228758   5.564   5.983   1.854
 9287SOL     OW28759   4.606   4.481   0.763
 9287SOL    HW128760   4.572   4.398   0.809
 9287SOL    HW228761   4.555   4.495   0.679
 9288SOL     OW28762   3.724   0.814   3.331
 9288SOL    HW128763   3.656   0.785   3.264
 9288SOL    HW228764   3.709   0.910   3.355
 9289SOL     OW28765   4.365   6.082   2.382
 9289SOL    HW128766   4.350   6.003   2.442
 9289SOL    HW228767   4.463   6.098   2.371
 9290SOL     OW28768   5.364   0.659   3.451
 9290SOL    HW128769   5.421   0.588   3.493
 9290SOL    HW228770   5.392   0.673   3.356
 9291SOL     OW28771   0.065   4.934   5.549
 9291SOL    HW128772   0.067   5.007   5.480
 9291SOL    HW228773   0.157   4.924   5.588
 9292SOL     OW28774   1.737   2.116   7.008
 9292SOL    HW128775   1.813   2.052   7.016
 9292SOL    HW228776   1.772   2.208   6.993
 9293SOL     OW28777   4.027   1.188   6.052
 9293SOL    HW128778   4.046   1.284   6.036
 9293SOL    HW228779   4.113   1.139   6.067
 9294SOL     OW28780   5.709   5.962   6.009
 9294SOL    HW128781   5.716   5.955   6.109
 9294SOL    HW228782   5.774   6.030   5.976
 9295SOL     OW28783   6.177   0.192   2.883
 9295SOL    HW128784   6.083   0.164   2.903
 9295SOL    HW228785   6.240   0.131   2.931
 9296SOL     OW28786   2.598   3.160   5.747
 9296SOL    HW128787   2.575   3.209   5.663
 9296SOL    HW228788   2.692   3.126   5.742
 9297SOL     OW28789   6.911   5.328   1.938
 9297SOL    HW128790   6.888   5.382   2.019
 9297SOL    HW228791   6.987   5.266   1.959
 9298SOL     OW28792   6.733   4.803   0.051
 9298SOL    HW128793   6.820   4.824   0.008
 9298SOL    HW228794   6.665   4.871   0.023
 9299SOL     OW28795   3.377   2.107   4.233
 9299SOL    HW128796   3.471   2.078   4.213
 9299SOL    HW228797   3.377   2.168   4.312
 9300SOL     OW28798   2.679   5.926   5.888
 9300SOL    HW128799   2.771   5.891   5.906
 9300SOL    HW228800   2.629   5.860   5.833
 9301SOL     OW28801   0.141   3.468   4.199
 9301SOL    HW128802   0.059   3.440   4.248
 9301SOL    HW228803   0.189   3.387   4.165
 9302SOL     OW28804   3.106   6.053   3.932
 9302SOL    HW128805   3.139   6.074   4.024
 9302SOL    HW228806   3.010   6.025   3.936
 9303SOL     OW28807   2.954   3.938   6.714
 9303SOL    HW128808   2.988   3.946   6.807
 9303SOL    HW228809   3.006   3.998   6.654
 9304SOL     OW28810   5.909   5.565   6.543
 9304SOL    HW128811   5.874   5.471   6.533
 9304SOL    HW228812   6.001   5.570   6.505
 9305SOL     OW28813   2.397   2.121   0.921
 9305SOL    HW128814   2.304   2.158   0.919
 9305SOL    HW228815   2.399   2.039   0.978
 9306SOL     OW28816   6.701   6.230   3.910
 9306SOL    HW128817   6.646   6.147   3.905
 9306SOL    HW228818   6.707   6.260   4.005
 9307SOL     OW28819   1.514   4.249   0.716
 9307SOL    HW128820   1.614   4.255   0.712
 9307SOL    HW228821   1.475   4.294   0.636
 9308SOL     OW28822   2.385   3.253   0.820
 9308SOL    HW128823   2.342   3.327   0.872
 9308SOL    HW228824   2.314   3.199   0.774
 9309SOL     OW28825   3.610   5.109   6.046
 9309SOL    HW128826   3.536   5.168   6.015
 9309SOL    HW228827   3.661   5.154   6.119
 9310SOL     OW28828   6.394   6.275   5.855
 9310SOL    HW128829   6.368   6.198   5.797
 9310SOL    HW228830   6.446   6.242   5.934
 9311SOL     OW28831   5.772   4.691   6.980
 9311SOL    HW128832   5.694   4.629   6.984
 9311SOL    HW228833   5.845   4.649   6.926
 9312SOL     OW28834   6.128   3.469   3.884
 9312SOL    HW128835   6.137   3.488   3.981
 9312SOL    HW228836   6.132   3.370   3.868
 9313SOL     OW28837   0.697   0.450   1.867
 9313SOL    HW128838   0.698   0.361   1.913
 9313SOL    HW228839   0.629   0.509   1.909
 9314SOL     OW28840   5.342   4.773   1.618
 9314SOL    HW128841   5.409   4.705   1.648
 9314SOL    HW228842   5.373   4.864   1.643
 9315SOL     OW28843   5.482   5.659   5.885
 9315SOL    HW128844   5.490   5.726   5.811
 9315SOL    HW228845   5.486   5.706   5.973
 9316SOL     OW28846   5.526   5.545   6.775
 9316SOL    HW128847   5.594   5.535   6.847
 9316SOL    HW228848   5.435   5.531   6.813
 9317SOL     OW28849   2.494   6.927   3.078
 9317SOL    HW128850   2.574   6.950   3.134
 9317SOL    HW228851   2.477   7.000   3.012
 9318SOL     OW28852   3.199   0.310   3.538
 9318SOL    HW128853   3.277   0.320   3.600
 9318SOL    HW228854   3.144   0.231   3.566
 9319SOL     OW28855   3.941   2.215   0.742
 9319SOL    HW128856   4.002   2.172   0.676
 9319SOL    HW228857   3.962   2.313   0.747
 9320SOL     OW28858   6.405   6.912   6.810
 9320SOL    HW128859   6.395   6.813   6.816
 9320SOL    HW228860   6.423   6.937   6.715
 9321SOL     OW28861   1.484   2.288   4.498
 9321SOL    HW128862   1.557   2.343   4.538
 9321SOL    HW228863   1.512   2.192   4.494
 9322SOL     OW28864   5.672   3.540   0.365
 9322SOL    HW128865   5.709   3.600   0.294
 9322SOL    HW228866   5.612   3.472   0.323
 9323SOL     OW28867   0.790   2.852   4.437
 9323SOL    HW128868   0.886   2.827   4.443
 9323SOL    HW228869   0.755   2.829   4.345
 9324SOL     OW28870   0.953   4.399   1.228
 9324SOL    HW128871   0.916   4.419   1.319
 9324SOL    HW228872   0.880   4.364   1.170
 9325SOL     OW28873   0.036   4.544   2.952
 9325SOL    HW128874   0.133   4.564   2.958
 9325SOL    HW228875   0.018   4.452   2.988
 9326SOL     OW28876   4.076   4.845   1.046
 9326SOL    HW128877   4.146   4.806   1.105
 9326SOL    HW228878   3.985   4.821   1.082
 9327SOL     OW28879   1.912   1.666   3.316
 9327SOL    HW128880   1.902   1.599   3.243
 9327SOL    HW228881   1.860   1.749   3.294
 9328SOL     OW28882   1.018   0.416   3.586
 9328SOL    HW128883   0.969   0.499   3.561
 9328SOL    HW228884   1.001   0.345   3.518
 9329SOL     OW28885   1.412   5.093   5.957
 9329SOL    HW128886   1.421   5.027   6.032
 9329SOL    HW228887   1.317   5.093   5.924
 9330SOL     OW28888   0.878   6.398   0.914
 9330SOL    HW128889   0.868   6.340   0.995
 9330SOL    HW228890   0.974   6.399   0.885
 9331SOL     OW28891   2.361   5.316   4.714
 9331SOL    HW128892   2.263   5.312   4.697
 9331SOL    HW228893   2.406   5.364   4.639
 9332SOL     OW28894   6.263   5.789   0.543
 9332SOL    HW128895   6.261   5.768   0.640
 9332SOL    HW228896   6.337   5.738   0.499
 9333SOL     OW28897   1.298   5.659   0.853
 9333SOL    HW128898   1.301   5.612   0.941
 9333SOL    HW228899   1.349   5.608   0.785
 9334SOL     OW28900   0.418   6.066   0.468
 9334SOL    HW128901   0.333   6.091   0.421
 9334SOL    HW228902   0.404   6.071   0.567
 9335SOL     OW28903   6.925   4.028   0.858
 9335SOL    HW128904   6.921   4.026   0.758
 9335SOL    HW228905   6.846   4.079   0.893
 9336SOL     OW28906   3.815   5.486   5.448
 9336SOL    HW128907   3.822   5.386   5.445
 9336SOL    HW228908   3.722   5.514   5.426
 9337SOL     OW28909   3.273   1.859   4.771
 9337SOL    HW128910   3.276   1.958   4.758
 9337SOL    HW228911   3.280   1.813   4.682
 9338SOL     OW28912   4.368   6.807   1.318
 9338SOL    HW128913   4.391   6.879   1.252
 9338SOL    HW228914   4.280   6.766   1.292
 9339SOL     OW28915   0.343   3.739   4.660
 9339SOL    HW128916   0.268   3.709   4.602
 9339SOL    HW228917   0.429   3.701   4.625
 9340SOL     OW28918   2.571   4.560   2.161
 9340SOL    HW128919   2.630   4.555   2.081
 9340SOL    HW228920   2.602   4.633   2.222
 9341SOL     OW28921   5.263   5.592   1.472
 9341SOL    HW128922   5.243   5.655   1.547
 9341SOL    HW228923   5.350   5.546   1.489
 9342SOL     OW28924   3.208   0.515   4.963
 9342SOL    HW128925   3.231   0.460   5.043
 9342SOL    HW228926   3.165   0.458   4.894
 9343SOL     OW28927   5.441   3.841   1.277
 9343SOL    HW128928   5.462   3.828   1.374
 9343SOL    HW228929   5.388   3.924   1.265
 9344SOL     OW28930   5.471   6.314   5.024
 9344SOL    HW128931   5.407   6.391   5.017
 9344SOL    HW228932   5.497   6.301   5.120
 9345SOL     OW28933   7.009   4.601   6.084
 9345SOL    HW128934   6.976   4.614   6.178
 9345SOL    HW228935   0.077   4.559   6.086
 9346SOL     OW28936   5.033   0.926   1.989
 9346SOL    HW128937   5.104   0.860   1.965
 9346SOL    HW228938   5.073   0.997   2.048
 9347SOL     OW28939   4.379   6.683   2.088
 9347SOL    HW128940   4.393   6.782   2.094
 9347SOL    HW228941   4.288   6.665   2.050
 9348SOL     OW28942   2.614   5.207   1.743
 9348SOL    HW128943   2.633   5.132   1.679
 9348SOL    HW228944   2.677   5.201   1.820
 9349SOL     OW28945   0.184   4.994   1.233
 9349SOL    HW128946   0.161   4.937   1.312
 9349SOL    HW228947   0.118   5.069   1.226
 9350SOL     OW28948   6.417   0.334   6.814
 9350SOL    HW128949   6.442   0.247   6.856
 9350SOL    HW228950   6.321   0.330   6.785
 9351SOL     OW28951   4.592   4.002   6.144
 9351SOL    HW128952   4.636   4.043   6.223
 9351SOL    HW228953   4.592   3.902   6.153
 9352SOL     OW28954   2.561   1.857   6.858
 9352SOL    HW128955   2.583   1.781   6.919
 9352SOL    HW228956   2.463   1.858   6.840
 9353SOL     OW28957   1.048   3.005   2.337
 9353SOL    HW128958   0.973   3.071   2.339
 9353SOL    HW228959   1.023   2.928   2.279
 9354SOL     OW28960   5.886   2.009   2.360
 9354SOL    HW128961   5.854   1.915   2.352
 9354SOL    HW228962   5.979   2.010   2.398
 9355SOL     OW28963   0.409   1.648   2.079
 9355SOL    HW128964   0.443   1.588   2.007
 9355SOL    HW228965   0.313   1.670   2.061
 9356SOL     OW28966   4.471   2.507   2.126
 9356SOL    HW128967   4.388   2.561   2.123
 9356SOL    HW228968   4.473   2.452   2.210
 9357SOL     OW28969   2.067   4.461   6.925
 9357SOL    HW128970   2.029   4.386   6.871
 9357SOL    HW228971   2.167   4.456   6.922
 9358SOL     OW28972   5.485   4.507   3.086
 9358SOL    HW128973   5.501   4.471   2.994
 9358SOL    HW228974   5.406   4.462   3.126
 9359SOL     OW28975   4.277   5.127   5.439
 9359SOL    HW128976   4.270   5.029   5.422
 9359SOL    HW228977   4.205   5.175   5.388
 9360SOL     OW28978   1.059   0.347   5.676
 9360SOL    HW128979   1.049   0.431   5.623
 9360SOL    HW228980   1.044   0.268   5.617
 9361SOL     OW28981   1.459   1.143   2.331
 9361SOL    HW128982   1.500   1.057   2.362
 9361SOL    HW228983   1.434   1.135   2.235
 9362SOL     OW28984   1.241   1.565   3.158
 9362SOL    HW128985   1.287   1.653   3.170
 9362SOL    HW228986   1.303   1.492   3.187
 9363SOL     OW28987   1.321   6.214   2.293
 9363SOL    HW128988   1.379   6.171   2.224
 9363SOL    HW228989   1.359   6.303   2.318
 9364SOL     OW28990   5.460   4.321   1.118
 9364SOL    HW128991   5.493   4.268   1.040
 9364SOL    HW228992   5.400   4.394   1.086
 9365SOL     OW28993   2.021   1.801   4.401
 9365SOL    HW128994   2.062   1.831   4.315
 9365SOL    HW228995   2.052   1.708   4.422
 9366SOL     OW28996   2.959   1.293   1.449
 9366SOL    HW128997   3.033   1.334   1.396
 9366SOL    HW228998   2.936   1.353   1.526
 9367SOL     OW28999   5.438   6.701   4.341
 9367SOL    HW129000   5.456   6.786   4.391
 9367SOL    HW229001   5.376   6.718   4.265
 9368SOL     OW29002   5.758   2.764   0.818
 9368SOL    HW129003   5.813   2.830   0.869
 9368SOL    HW229004   5.696   2.717   0.881
 9369SOL     OW29005   0.105   1.972   5.216
 9369SOL    HW129006   0.135   2.016   5.131
 9369SOL    HW229007   0.176   1.909   5.248
 9370SOL     OW29008   5.618   5.949   2.286
 9370SOL    HW129009   5.696   5.898   2.323
 9370SOL    HW229010   5.617   5.940   2.187
 9371SOL     OW29011   1.942   6.702   0.309
 9371SOL    HW129012   1.952   6.635   0.383
 9371SOL    HW229013   1.890   6.661   0.234
 9372SOL     OW29014   5.522   5.270   0.584
 9372SOL    HW129015   5.528   5.350   0.524
 9372SOL    HW229016   5.438   5.220   0.565
 9373SOL     OW29017   4.812   2.979   4.234
 9373SOL    HW129018   4.763   2.996   4.319
 9373SOL    HW229019   4.796   2.885   4.204
 9374SOL     OW29020   5.599   3.921   6.942
 9374SOL    HW129021   5.532   3.862   6.895
 9374SOL    HW229022   5.683   3.925   6.888
 9375SOL     OW29023   6.555   6.936   4.373
 9375SOL    HW129024   6.557   7.022   4.323
 9375SOL    HW229025   6.465   6.923   4.415
 9376SOL     OW29026   2.652   3.307   1.804
 9376SOL    HW129027   2.640   3.261   1.716
 9376SOL    HW229028   2.567   3.350   1.832
 9377SOL     OW29029   6.918   4.577   3.642
 9377SOL    HW129030   6.892   4.550   3.549
 9377SOL    HW229031   6.951   4.497   3.692
 9378SOL     OW29032   4.441   6.132   0.907
 9378SOL    HW129033   4.519   6.144   0.846
 9378SOL    HW229034   4.357   6.160   0.861
 9379SOL     OW29035   4.541   4.645   5.400
 9379SOL    HW129036   4.594   4.623   5.482
 9379SOL    HW229037   4.530   4.745   5.394
 9380SOL     OW29038   6.788   5.406   5.672
 9380SOL    HW129039   6.826   5.314   5.666
 9380SOL    HW229040   6.775   5.443   5.580
 9381SOL     OW29041   0.863   0.807   0.326
 9381SOL    HW129042   0.770   0.828   0.297
 9381SOL    HW229043   0.905   0.890   0.363
 9382SOL     OW29044   5.610   1.839   2.695
 9382SOL    HW129045   5.622   1.936   2.673
 9382SOL    HW229046   5.573   1.830   2.788
 9383SOL     OW29047   6.804   5.127   6.768
 9383SOL    HW129048   6.878   5.194   6.774
 9383SOL    HW229049   6.791   5.085   6.858
 9384SOL     OW29050   3.822   6.930   2.499
 9384SOL    HW129051   3.805   6.832   2.501
 9384SOL    HW229052   3.909   6.949   2.454
 9385SOL     OW29053   3.666   6.650   3.363
 9385SOL    HW129054   3.693   6.744   3.342
 9385SOL    HW229055   3.685   6.631   3.459
 9386SOL     OW29056   3.412   0.198   4.914
 9386SOL    HW129057   3.395   0.160   4.822
 9386SOL    HW229058   3.504   0.172   4.944
 9387SOL     OW29059   5.103   5.768   0.622
 9387SOL    HW129060   5.084   5.672   0.601
 9387SOL    HW229061   5.036   5.825   0.574
 9388SOL     OW29062   6.645   6.914   1.865
 9388SOL    HW129063   6.742   6.913   1.891
 9388SOL    HW229064   6.626   6.996   1.811
 9389SOL     OW29065   3.244   0.702   0.421
 9389SOL    HW129066   3.343   0.708   0.425
 9389SOL    HW229067   3.204   0.763   0.489
 9390SOL     OW29068   3.707   5.765   0.875
 9390SOL    HW129069   3.741   5.691   0.933
 9390SOL    HW229070   3.630   5.810   0.920
 9391SOL     OW29071   5.902   0.798   3.820
 9391SOL    HW129072   5.882   0.828   3.727
 9391SOL    HW229073   5.997   0.820   3.842
 9392SOL     OW29074   0.840   6.827   5.273
 9392SOL    HW129075   0.760   6.845   5.331
 9392SOL    HW229076   0.923   6.858   5.320
 9393SOL     OW29077   4.444   1.587   5.794
 9393SOL    HW129078   4.433   1.567   5.697
 9393SOL    HW229079   4.395   1.518   5.848
 9394SOL     OW29080   6.326   1.631   2.375
 9394SOL    HW129081   6.330   1.673   2.466
 9394SOL    HW229082   6.362   1.538   2.379
 9395SOL     OW29083   2.048   2.709   6.677
 9395SOL    HW129084   1.978   2.699   6.748
 9395SOL    HW229085   2.089   2.620   6.659
 9396SOL     OW29086   0.360   1.204   5.942
 9396SOL    HW129087   0.457   1.182   5.944
 9396SOL    HW229088   0.308   1.124   5.974
 9397SOL     OW29089   1.975   1.844   0.826
 9397SOL    HW129090   2.033   1.793   0.889
 9397SOL    HW229091   1.916   1.907   0.878
 9398SOL     OW29092   2.819   1.519   1.646
 9398SOL    HW129093   2.880   1.516   1.725
 9398SOL    HW229094   2.724   1.527   1.677
 9399SOL     OW29095   0.379   0.754   5.626
 9399SOL    HW129096   0.387   0.661   5.590
 9399SOL    HW229097   0.470   0.795   5.633
 9400SOL     OW29098   3.678   1.433   3.858
 9400SOL    HW129099   3.770   1.470   3.849
 9400SOL    HW229100   3.673   1.374   3.939
 9401SOL     OW29101   4.317   6.451   4.373
 9401SOL    HW129102   4.246   6.512   4.339
 9401SOL    HW229103   4.276   6.368   4.409
 9402SOL     OW29104   2.558   4.535   6.327
 9402SOL    HW129105   2.593   4.523   6.234
 9402SOL    HW229106   2.526   4.446   6.361
 9403SOL     OW29107   5.770   0.008   4.288
 9403SOL    HW129108   5.676   0.007   4.253
 9403SOL    HW229109   5.812   6.941   4.274
 9404SOL     OW29110   1.578   4.397   4.985
 9404SOL    HW129111   1.594   4.475   4.925
 9404SOL    HW229112   1.520   4.330   4.939
 9405SOL     OW29113   0.558   0.764   1.445
 9405SOL    HW129114   0.590   0.704   1.518
 9405SOL    HW229115   0.624   0.763   1.370
 9406SOL     OW29116   6.356   1.420   4.800
 9406SOL    HW129117   6.415   1.501   4.795
 9406SOL    HW229118   6.412   1.338   4.794
 9407SOL     OW29119   3.593   5.760   3.225
 9407SOL    HW129120   3.530   5.785   3.151
 9407SOL    HW229121   3.644   5.841   3.253
 9408SOL     OW29122   3.619   2.309   6.454
 9408SOL    HW129123   3.686   2.354   6.395
 9408SOL    HW229124   3.666   2.256   6.524
 9409SOL     OW29125   6.267   3.623   3.705
 9409SOL    HW129126   6.331   3.676   3.761
 9409SOL    HW229127   6.209   3.567   3.764
 9410SOL     OW29128   4.234   6.949   1.799
 9410SOL    HW129129   4.207   6.864   1.845
 9410SOL    HW229130   4.261   6.929   1.705
 9411SOL     OW29131   5.526   5.166   2.166
 9411SOL    HW129132   5.574   5.169   2.078
 9411SOL    HW229133   5.495   5.073   2.184
 9412SOL     OW29134   6.806   2.017   3.440
 9412SOL    HW129135   6.746   2.091   3.472
 9412SOL    HW229136   6.886   2.056   3.396
 9413SOL     OW29137   3.752   5.575   3.054
 9413SOL    HW129138   3.833   5.591   3.110
 9413SOL    HW229139   3.674   5.556   3.113
 9414SOL     OW29140   2.299   0.282   2.194
 9414SOL    HW129141   2.291   0.214   2.121
 9414SOL    HW229142   2.245   0.363   2.171
 9415SOL     OW29143   1.430   0.152   2.342
 9415SOL    HW129144   1.347   0.154   2.285
 9415SOL    HW229145   1.483   0.235   2.326
 9416SOL     OW29146   1.489   2.024   1.415
 9416SOL    HW129147   1.585   2.012   1.392
 9416SOL    HW229148   1.471   2.120   1.434
 9417SOL     OW29149   1.198   0.509   4.943
 9417SOL    HW129150   1.218   0.464   5.030
 9417SOL    HW229151   1.277   0.563   4.914
 9418SOL     OW29152   4.383   4.174   1.032
 9418SOL    HW129153   4.290   4.192   1.000
 9418SOL    HW229154   4.381   4.104   1.103
 9419SOL     OW29155   2.396   5.795   3.906
 9419SOL    HW129156   2.400   5.709   3.958
 9419SOL    HW229157   2.476   5.803   3.847
 9420SOL     OW29158   2.087   0.723   3.162
 9420SOL    HW129159   2.142   0.797   3.201
 9420SOL    HW229160   2.072   0.653   3.232
 9421SOL     OW29161   1.715   4.953   5.586
 9421SOL    HW129162   1.665   5.017   5.644
 9421SOL    HW229163   1.649   4.898   5.533
 9422SOL     OW29164   4.080   0.946   2.944
 9422SOL    HW129165   4.180   0.942   2.938
 9422SOL    HW229166   4.048   1.035   2.912
 9423SOL     OW29167   4.560   0.049   4.812
 9423SOL    HW129168   4.542   7.014   4.892
 9423SOL    HW229169   4.499   0.129   4.813
 9424SOL     OW29170   3.135   5.846   3.063
 9424SOL    HW129171   3.038   5.859   3.042
 9424SOL    HW229172   3.188   5.919   3.020
 9425SOL     OW29173   0.735   5.338   2.559
 9425SOL    HW129174   0.655   5.307   2.508
 9425SOL    HW229175   0.813   5.280   2.536
 9426SOL     OW29176   3.472   5.958   0.703
 9426SOL    HW129177   3.558   5.909   0.686
 9426SOL    HW229178   3.488   6.028   0.773
 9427SOL     OW29179   2.579   5.048   3.820
 9427SOL    HW129180   2.482   5.024   3.828
 9427SOL    HW229181   2.626   5.024   3.905
 9428SOL     OW29182   4.448   6.596   2.511
 9428SOL    HW129183   4.491   6.684   2.532
 9428SOL    HW229184   4.417   6.553   2.595
 9429SOL     OW29185   0.551   3.449   2.818
 9429SOL    HW129186   0.566   3.351   2.824
 9429SOL    HW229187   0.455   3.470   2.838
 9430SOL     OW29188   6.503   6.654   1.869
 9430SOL    HW129189   6.440   6.674   1.795
 9430SOL    HW229190   6.531   6.739   1.914
 9431SOL     OW29191   6.637   4.514   0.479
 9431SOL    HW129192   6.552   4.478   0.441
 9431SOL    HW229193   6.616   4.576   0.555
 9432SOL     OW29194   6.783   6.909   4.053
 9432SOL    HW129195   6.832   6.879   3.971
 9432SOL    HW229196   6.689   6.934   4.028
 9433SOL     OW29197   2.748   5.357   4.035
 9433SOL    HW129198   2.714   5.354   4.129
 9433SOL    HW229199   2.686   5.412   3.979
 9434SOL     OW29200   6.534   4.558   3.406
 9434SOL    HW129201   6.439   4.547   3.376
 9434SOL    HW229202   6.555   4.655   3.418
 9435SOL     OW29203   2.337   2.215   5.375
 9435SOL    HW129204   2.294   2.199   5.286
 9435SOL    HW229205   2.432   2.243   5.361
 9436SOL     OW29206   3.626   1.731   5.584
 9436SOL    HW129207   3.588   1.639   5.577
 9436SOL    HW229208   3.712   1.735   5.534
 9437SOL     OW29209   0.586   6.088   4.544
 9437SOL    HW129210   0.640   6.107   4.462
 9437SOL    HW229211   0.636   6.118   4.625
 9438SOL     OW29212   0.452   6.386   1.742
 9438SOL    HW129213   0.427   6.440   1.661
 9438SOL    HW229214   0.371   6.340   1.777
 9439SOL     OW29215   1.849   3.165   1.206
 9439SOL    HW129216   1.831   3.171   1.305
 9439SOL    HW229217   1.811   3.080   1.171
 9440SOL     OW29218   3.232   6.133   3.493
 9440SOL    HW129219   3.193   6.078   3.566
 9440SOL    HW229220   3.325   6.101   3.472
 9441SOL     OW29221   1.181   5.518   5.493
 9441SOL    HW129222   1.101   5.485   5.442
 9441SOL    HW229223   1.153   5.595   5.552
 9442SOL     OW29224   0.675   3.844   1.120
 9442SOL    HW129225   0.757   3.901   1.117
 9442SOL    HW229226   0.598   3.899   1.152
 9443SOL     OW29227   1.487   2.374   1.241
 9443SOL    HW129228   1.481   2.324   1.154
 9443SOL    HW229229   1.405   2.431   1.252
 9444SOL     OW29230   1.277   4.476   5.517
 9444SOL    HW129231   1.328   4.418   5.580
 9444SOL    HW229232   1.290   4.572   5.542
 9445SOL     OW29233   5.878   2.313   2.072
 9445SOL    HW129234   5.891   2.253   1.993
 9445SOL    HW229235   5.932   2.280   2.149
 9446SOL     OW29236   5.679   4.444   0.106
 9446SOL    HW129237   5.618   4.388   0.163
 9446SOL    HW229238   5.748   4.385   0.064
 9447SOL     OW29239   5.834   1.100   1.691
 9447SOL    HW129240   5.815   1.177   1.752
 9447SOL    HW229241   5.747   1.057   1.664
 9448SOL     OW29242   5.834   6.038   0.348
 9448SOL    HW129243   5.874   6.067   0.261
 9448SOL    HW229244   5.906   6.011   0.411
 9449SOL     OW29245   5.778   5.703   5.138
 9449SOL    HW129246   5.842   5.665   5.205
 9449SOL    HW229247   5.783   5.650   5.053
 9450SOL     OW29248   2.247   6.153   3.881
 9450SOL    HW129249   2.183   6.219   3.919
 9450SOL    HW229250   2.293   6.104   3.955
 9451SOL     OW29251   3.780   3.981   5.262
 9451SOL    HW129252   3.834   3.994   5.180
 9451SOL    HW229253   3.804   3.893   5.304
 9452SOL     OW29254   3.658   4.434   0.356
 9452SOL    HW129255   3.667   4.377   0.274
 9452SOL    HW229256   3.573   4.410   0.404
 9453SOL     OW29257   3.706   5.864   1.215
 9453SOL    HW129258   3.712   5.936   1.147
 9453SOL    HW229259   3.613   5.860   1.252
 9454SOL     OW29260   2.185   2.514   5.951
 9454SOL    HW129261   2.198   2.417   5.934
 9454SOL    HW229262   2.129   2.554   5.877
 9455SOL     OW29263   1.800   2.241   2.182
 9455SOL    HW129264   1.853   2.265   2.101
 9455SOL    HW229265   1.705   2.266   2.168
 9456SOL     OW29266   1.223   3.082   0.163
 9456SOL    HW129267   1.274   3.164   0.137
 9456SOL    HW229268   1.164   3.054   0.088
 9457SOL     OW29269   6.025   3.708   0.179
 9457SOL    HW129270   6.093   3.702   0.106
 9457SOL    HW229271   5.979   3.797   0.175
 9458SOL     OW29272   1.132   6.136   3.918
 9458SOL    HW129273   1.153   6.213   3.857
 9458SOL    HW229274   1.059   6.163   3.982
 9459SOL     OW29275   4.405   6.265   0.409
 9459SOL    HW129276   4.379   6.187   0.466
 9459SOL    HW229277   4.461   6.329   0.463
 9460SOL     OW29278   1.634   3.952   5.668
 9460SOL    HW129279   1.601   4.000   5.587
 9460SOL    HW229280   1.574   3.973   5.745
 9461SOL     OW29281   1.329   0.290   2.635
 9461SOL    HW129282   1.277   0.298   2.720
 9461SOL    HW229283   1.413   0.239   2.652
 9462SOL     OW29284   0.600   3.211   3.705
 9462SOL    HW129285   0.661   3.282   3.742
 9462SOL    HW229286   0.651   3.124   3.698
 9463SOL     OW29287   5.137   2.330   6.228
 9463SOL    HW129288   5.068   2.401   6.215
 9463SOL    HW229289   5.224   2.372   6.255
 9464SOL     OW29290   4.197   6.314   6.461
 9464SOL    HW129291   4.197   6.411   6.486
 9464SOL    HW229292   4.279   6.270   6.498
 9465SOL     OW29293   4.471   6.023   4.543
 9465SOL    HW129294   4.468   5.939   4.488
 9465SOL    HW229295   4.427   6.006   4.632
 9466SOL     OW29296   3.583   1.916   6.829
 9466SOL    HW129297   3.665   1.905   6.885
 9466SOL    HW229298   3.514   1.968   6.880
 9467SOL     OW29299   1.447   3.004   2.233
 9467SOL    HW129300   1.528   3.029   2.285
 9467SOL    HW229301   1.438   3.064   2.154
 9468SOL     OW29302   0.837   2.350   5.844
 9468SOL    HW129303   0.898   2.415   5.798
 9468SOL    HW229304   0.797   2.393   5.925
 9469SOL     OW29305   0.352   4.196   2.529
 9469SOL    HW129306   0.334   4.295   2.534
 9469SOL    HW229307   0.304   4.150   2.604
 9470SOL     OW29308   0.069   3.657   1.810
 9470SOL    HW129309   0.126   3.582   1.845
 9470SOL    HW229310   0.041   3.637   1.716
 9471SOL     OW29311   0.512   2.633   5.611
 9471SOL    HW129312   0.455   2.552   5.599
 9471SOL    HW229313   0.565   2.649   5.527
 9472SOL     OW29314   6.596   2.116   5.382
 9472SOL    HW129315   6.532   2.060   5.330
 9472SOL    HW229316   6.626   2.065   5.463
 9473SOL     OW29317   2.678   5.153   5.569
 9473SOL    HW129318   2.775   5.146   5.547
 9473SOL    HW229319   2.631   5.070   5.538
 9474SOL     OW29320   3.813   5.541   3.661
 9474SOL    HW129321   3.816   5.639   3.637
 9474SOL    HW229322   3.814   5.531   3.760
 9475SOL     OW29323   1.933   3.422   1.284
 9475SOL    HW129324   1.906   3.335   1.242
 9475SOL    HW229325   2.001   3.405   1.355
 9476SOL     OW29326   2.580   3.634   5.463
 9476SOL    HW129327   2.664   3.640   5.409
 9476SOL    HW229328   2.502   3.664   5.408
 9477SOL     OW29329   0.933   2.051   0.342
 9477SOL    HW129330   0.997   2.127   0.351
 9477SOL    HW229331   0.846   2.075   0.384
 9478SOL     OW29332   5.384   3.561   6.385
 9478SOL    HW129333   5.437   3.561   6.300
 9478SOL    HW229334   5.432   3.613   6.455
 9479SOL     OW29335   5.438   4.814   5.173
 9479SOL    HW129336   5.409   4.730   5.218
 9479SOL    HW229337   5.534   4.832   5.195
 9480SOL     OW29338   6.837   3.580   6.423
 9480SOL    HW129339   6.883   3.620   6.344
 9480SOL    HW229340   6.903   3.526   6.476
 9481SOL     OW29341   0.306   2.549   2.795
 9481SOL    HW129342   0.306   2.518   2.700
 9481SOL    HW229343   0.215   2.584   2.818
 9482SOL     OW29344   4.643   0.890   2.225
 9482SOL    HW129345   4.713   0.825   2.197
 9482SOL    HW229346   4.562   0.840   2.257
 9483SOL     OW29347   1.294   1.117   0.636
 9483SOL    HW129348   1.198   1.124   0.664
 9483SOL    HW229349   1.339   1.206   0.648
 9484SOL     OW29350   6.039   0.582   3.578
 9484SOL    HW129351   6.079   0.602   3.488
 9484SOL    HW229352   5.944   0.614   3.580
 9485SOL     OW29353   0.367   0.056   3.000
 9485SOL    HW129354   0.324   0.115   3.068
 9485SOL    HW229355   0.437   0.108   2.950
 9486SOL     OW29356   2.873   6.739   2.137
 9486SOL    HW129357   2.843   6.834   2.151
 9486SOL    HW229358   2.795   6.683   2.109
 9487SOL     OW29359   3.456   3.281   3.375
 9487SOL    HW129360   3.445   3.369   3.329
 9487SOL    HW229361   3.468   3.295   3.473
 9488SOL     OW29362   1.699   0.664   1.939
 9488SOL    HW129363   1.718   0.631   1.846
 9488SOL    HW229364   1.784   0.699   1.979
 9489SOL     OW29365   2.995   4.805   0.458
 9489SOL    HW129366   3.067   4.840   0.517
 9489SOL    HW229367   3.024   4.718   0.418
 9490SOL     OW29368   4.839   1.520   0.223
 9490SOL    HW129369   4.752   1.487   0.184
 9490SOL    HW229370   4.906   1.531   0.150
 9491SOL     OW29371   5.721   6.006   6.269
 9491SOL    HW129372   5.634   6.049   6.293
 9491SOL    HW229373   5.793   6.040   6.328
 9492SOL     OW29374   2.621   4.870   1.113
 9492SOL    HW129375   2.680   4.814   1.053
 9492SOL    HW229376   2.569   4.809   1.173
 9493SOL     OW29377   5.111   6.392   2.717
 9493SOL    HW129378   5.143   6.349   2.802
 9493SOL    HW229379   5.026   6.442   2.735
 9494SOL     OW29380   3.877   3.294   6.560
 9494SOL    HW129381   3.834   3.249   6.638
 9494SOL    HW229382   3.858   3.392   6.563
 9495SOL     OW29383   5.686   2.571   4.169
 9495SOL    HW129384   5.696   2.602   4.075
 9495SOL    HW229385   5.776   2.565   4.212
 9496SOL     OW29386   6.610   4.428   6.892
 9496SOL    HW129387   6.636   4.348   6.947
 9496SOL    HW229388   6.588   4.504   6.953
 9497SOL     OW29389   1.116   6.163   6.150
 9497SOL    HW129390   1.167   6.244   6.179
 9497SOL    HW229391   1.065   6.127   6.227
 9498SOL     OW29392   4.294   6.975   6.652
 9498SOL    HW129393   4.258   6.932   6.736
 9498SOL    HW229394   4.271   6.918   6.573
 9499SOL     OW29395   4.798   4.089   5.794
 9499SOL    HW129396   4.756   4.153   5.858
 9499SOL    HW229397   4.731   4.019   5.768
 9500SOL     OW29398   4.707   5.876   0.870
 9500SOL    HW129399   4.664   5.855   0.958
 9500SOL    HW229400   4.637   5.912   0.807
 9501SOL     OW29401   3.496   1.582   5.054
 9501SOL    HW129402   3.464   1.600   5.146
 9501SOL    HW229403   3.577   1.638   5.035
 9502SOL     OW29404   3.465   3.351   5.627
 9502SOL    HW129405   3.394   3.296   5.671
 9502SOL    HW229406   3.428   3.442   5.606
 9503SOL     OW29407   1.396   6.712   1.728
 9503SOL    HW129408   1.402   6.746   1.634
 9503SOL    HW229409   1.481   6.664   1.751
 9504SOL     OW29410   0.458   3.311   0.583
 9504SOL    HW129411   0.460   3.247   0.506
 9504SOL    HW229412   0.539   3.298   0.639
 9505SOL     OW29413   5.395   3.395   3.012
 9505SOL    HW129414   5.303   3.434   3.004
 9505SOL    HW229415   5.463   3.466   2.995
 9506SOL     OW29416   6.498   2.141   1.639
 9506SOL    HW129417   6.545   2.211   1.585
 9506SOL    HW229418   6.442   2.084   1.579
 9507SOL     OW29419   1.423   3.052   5.047
 9507SOL    HW129420   1.413   3.106   5.130
 9507SOL    HW229421   1.506   2.997   5.052
 9508SOL     OW29422   4.819   1.376   5.780
 9508SOL    HW129423   4.897   1.429   5.747
 9508SOL    HW229424   4.850   1.286   5.810
 9509SOL     OW29425   3.613   6.918   6.175
 9509SOL    HW129426   3.605   6.990   6.106
 9509SOL    HW229427   3.679   6.850   6.145
 9510SOL     OW29428   6.530   3.947   3.138
 9510SOL    HW129429   6.525   4.038   3.097
 9510SOL    HW229430   6.485   3.881   3.078
 9511SOL     OW29431   2.386   1.603   1.229
 9511SOL    HW129432   2.331   1.521   1.247
 9511SOL    HW229433   2.361   1.675   1.294
 9512SOL     OW29434   1.503   4.088   5.463
 9512SOL    HW129435   1.508   4.167   5.401
 9512SOL    HW229436   1.426   4.030   5.436
 9513SOL     OW29437   2.467   4.486   4.536
 9513SOL    HW129438   2.415   4.431   4.602
 9513SOL    HW229439   2.484   4.577   4.574
 9514SOL     OW29440   3.195   2.569   5.599
 9514SOL    HW129441   3.197   2.494   5.533
 9514SOL    HW229442   3.102   2.606   5.606
 9515SOL     OW29443   2.232   5.893   5.718
 9515SOL    HW129444   2.225   5.810   5.662
 9515SOL    HW229445   2.152   5.951   5.701
 9516SOL     OW29446   6.094   4.419   4.732
 9516SOL    HW129447   6.095   4.383   4.639
 9516SOL    HW229448   6.181   4.399   4.777
 9517SOL     OW29449   0.728   5.037   2.647
 9517SOL    HW129450   0.642   5.085   2.664
 9517SOL    HW229451   0.775   5.078   2.569
 9518SOL     OW29452   1.308   2.825   5.709
 9518SOL    HW129453   1.357   2.846   5.624
 9518SOL    HW229454   1.367   2.845   5.787
 9519SOL     OW29455   3.276   3.595   3.592
 9519SOL    HW129456   3.176   3.602   3.590
 9519SOL    HW229457   3.316   3.686   3.580
 9520SOL     OW29458   5.282   0.885   6.659
 9520SOL    HW129459   5.214   0.902   6.589
 9520SOL    HW229460   5.244   0.906   6.749
 9521SOL     OW29461   3.843   1.239   0.934
 9521SOL    HW129462   3.752   1.211   0.904
 9521SOL    HW229463   3.907   1.234   0.857
 9522SOL     OW29464   3.540   6.898   1.205
 9522SOL    HW129465   3.594   6.850   1.137
 9522SOL    HW229466   3.443   6.896   1.179
 9523SOL     OW29467   2.687   5.005   4.816
 9523SOL    HW129468   2.782   4.984   4.790
 9523SOL    HW229469   2.665   4.959   4.902
 9524SOL     OW29470   1.840   3.823   0.346
 9524SOL    HW129471   1.824   3.826   0.247
 9524SOL    HW229472   1.938   3.821   0.364
 9525SOL     OW29473   2.288   2.979   6.595
 9525SOL    HW129474   2.198   3.010   6.563
 9525SOL    HW229475   2.359   3.015   6.535
 9526SOL     OW29476   5.337   5.152   5.948
 9526SOL    HW129477   5.316   5.054   5.952
 9526SOL    HW229478   5.266   5.199   5.896
 9527SOL     OW29479   3.833   6.596   4.417
 9527SOL    HW129480   3.791   6.553   4.497
 9527SOL    HW229481   3.919   6.640   4.444
 9528SOL     OW29482   4.847   2.379   0.353
 9528SOL    HW129483   4.779   2.306   0.344
 9528SOL    HW229484   4.805   2.467   0.331
 9529SOL     OW29485   5.547   0.639   2.165
 9529SOL    HW129486   5.578   0.728   2.129
 9529SOL    HW229487   5.627   0.585   2.192
 9530SOL     OW29488   0.956   5.644   3.628
 9530SOL    HW129489   0.961   5.739   3.659
 9530SOL    HW229490   0.959   5.583   3.707
 9531SOL     OW29491   3.174   5.821   1.630
 9531SOL    HW129492   3.195   5.724   1.621
 9531SOL    HW229493   3.081   5.832   1.664
 9532SOL     OW29494   6.976   5.058   4.483
 9532SOL    HW129495   6.976   4.990   4.556
 9532SOL    HW229496   7.022   5.021   4.403
 9533SOL     OW29497   1.103   4.043   3.678
 9533SOL    HW129498   1.095   3.971   3.608
 9533SOL    HW229499   1.176   4.018   3.742
 9534SOL     OW29500   4.607   6.075   4.012
 9534SOL    HW129501   4.705   6.060   4.018
 9534SOL    HW229502   4.584   6.164   4.051
 9535SOL     OW29503   0.245   1.774   4.562
 9535SOL    HW129504   0.258   1.761   4.661
 9535SOL    HW229505   0.151   1.803   4.545
 9536SOL     OW29506   4.041   3.871   5.541
 9536SOL    HW129507   4.019   3.827   5.454
 9536SOL    HW229508   4.111   3.818   5.588
 9537SOL     OW29509   6.987   1.147   3.852
 9537SOL    HW129510   6.933   1.164   3.934
 9537SOL    HW229511   0.055   1.190   3.862
 9538SOL     OW29512   5.466   0.608   5.255
 9538SOL    HW129513   5.531   0.635   5.326
 9538SOL    HW229514   5.445   0.511   5.264
 9539SOL     OW29515   3.621   3.779   2.383
 9539SOL    HW129516   3.620   3.723   2.300
 9539SOL    HW229517   3.620   3.719   2.463
 9540SOL     OW29518   4.089   4.829   3.199
 9540SOL    HW129519   3.992   4.840   3.219
 9540SOL    HW229520   4.106   4.851   3.103
 9541SOL     OW29521   1.485   5.750   5.863
 9541SOL    HW129522   1.385   5.747   5.863
 9541SOL    HW229523   1.516   5.830   5.813
 9542SOL     OW29524   6.446   3.800   2.913
 9542SOL    HW129525   6.461   3.701   2.909
 9542SOL    HW229526   6.370   3.825   2.852
 9543SOL     OW29527   2.294   0.484   5.580
 9543SOL    HW129528   2.319   0.530   5.665
 9543SOL    HW229529   2.351   0.402   5.568
 9544SOL     OW29530   6.290   3.584   4.694
 9544SOL    HW129531   6.259   3.617   4.605
 9544SOL    HW229532   6.341   3.656   4.740
 9545SOL     OW29533   6.550   4.405   2.097
 9545SOL    HW129534   6.552   4.435   2.002
 9545SOL    HW229535   6.612   4.463   2.151
 9546SOL     OW29536   2.993   2.931   0.843
 9546SOL    HW129537   3.078   2.969   0.879
 9546SOL    HW229538   2.982   2.837   0.876
 9547SOL     OW29539   4.266   0.577   3.371
 9547SOL    HW129540   4.313   0.565   3.284
 9547SOL    HW229541   4.260   0.674   3.393
 9548SOL     OW29542   0.340   5.005   5.957
 9548SOL    HW129543   0.278   5.040   5.887
 9548SOL    HW229544   0.317   4.909   5.977
 9549SOL     OW29545   4.458   1.168   1.792
 9549SOL    HW129546   4.488   1.116   1.872
 9549SOL    HW229547   4.375   1.220   1.816
 9550SOL     OW29548   6.688   2.852   1.595
 9550SOL    HW129549   6.590   2.847   1.614
 9550SOL    HW229550   6.739   2.854   1.681
 9551SOL     OW29551   5.976   2.791   6.525
 9551SOL    HW129552   6.000   2.882   6.559
 9551SOL    HW229553   5.933   2.799   6.435
 9552SOL     OW29554   2.857   1.821   6.749
 9552SOL    HW129555   2.852   1.751   6.677
 9552SOL    HW229556   2.780   1.811   6.811
 9553SOL     OW29557   5.545   1.364   0.026
 9553SOL    HW129558   5.614   1.328   6.986
 9553SOL    HW229559   5.462   1.309   0.020
 9554SOL     OW29560   2.854   1.215   4.845
 9554SOL    HW129561   2.888   1.300   4.804
 9554SOL    HW229562   2.755   1.213   4.839
 9555SOL     OW29563   0.390   6.079   3.222
 9555SOL    HW129564   0.318   6.087   3.153
 9555SOL    HW229565   0.451   6.158   3.215
 9556SOL     OW29566   2.295   4.208   6.674
 9556SOL    HW129567   2.228   4.135   6.687
 9556SOL    HW229568   2.327   4.207   6.579
 9557SOL     OW29569   5.830   0.955   1.003
 9557SOL    HW129570   5.832   1.030   0.937
 9557SOL    HW229571   5.863   0.987   1.092
 9558SOL     OW29572   4.886   6.309   6.218
 9558SOL    HW129573   4.949   6.265   6.154
 9558SOL    HW229574   4.920   6.400   6.240
 9559SOL     OW29575   2.237   4.555   0.229
 9559SOL    HW129576   2.322   4.529   0.183
 9559SOL    HW229577   2.209   4.646   0.197
 9560SOL     OW29578   2.851   0.214   2.350
 9560SOL    HW129579   2.942   0.246   2.322
 9560SOL    HW229580   2.799   0.291   2.386
 9561SOL     OW29581   6.964   0.763   0.198
 9561SOL    HW129582   7.008   0.853   0.195
 9561SOL    HW229583   6.955   0.727   0.105
 9562SOL     OW29584   1.940   6.104   2.936
 9562SOL    HW129585   1.980   6.194   2.919
 9562SOL    HW229586   1.884   6.108   3.019
 9563SOL     OW29587   0.760   5.742   6.687
 9563SOL    HW129588   0.830   5.715   6.753
 9563SOL    HW229589   0.804   5.793   6.612
 9564SOL     OW29590   1.232   1.285   0.947
 9564SOL    HW129591   1.318   1.321   0.911
 9564SOL    HW229592   1.243   1.187   0.968
 9565SOL     OW29593   2.034   2.190   4.304
 9565SOL    HW129594   1.957   2.180   4.367
 9565SOL    HW229595   2.107   2.128   4.331
 9566SOL     OW29596   3.168   0.086   6.936
 9566SOL    HW129597   3.230   0.077   7.014
 9566SOL    HW229598   3.074   0.089   6.969
 9567SOL     OW29599   0.203   4.335   1.348
 9567SOL    HW129600   0.121   4.279   1.335
 9567SOL    HW229601   0.263   4.326   1.269
 9568SOL     OW29602   4.426   1.510   6.157
 9568SOL    HW129603   4.403   1.605   6.177
 9568SOL    HW229604   4.519   1.505   6.121
 9569SOL     OW29605   5.467   0.375   1.983
 9569SOL    HW129606   5.485   0.292   2.036
 9569SOL    HW229607   5.550   0.431   1.980
 9570SOL     OW29608   0.882   3.713   2.217
 9570SOL    HW129609   0.926   3.798   2.186
 9570SOL    HW229610   0.828   3.731   2.299
 9571SOL     OW29611   1.680   1.262   6.687
 9571SOL    HW129612   1.696   1.167   6.715
 9571SOL    HW229613   1.643   1.313   6.765
 9572SOL     OW29614   2.270   4.960   4.416
 9572SOL    HW129615   2.279   4.928   4.511
 9572SOL    HW229616   2.241   4.883   4.359
 9573SOL     OW29617   5.721   6.820   4.515
 9573SOL    HW129618   5.785   6.789   4.445
 9573SOL    HW229619   5.737   6.769   4.600
 9574SOL     OW29620   4.692   3.190   0.439
 9574SOL    HW129621   4.777   3.239   0.460
 9574SOL    HW229622   4.654   3.151   0.523
 9575SOL     OW29623   5.334   6.722   2.176
 9575SOL    HW129624   5.286   6.635   2.172
 9575SOL    HW229625   5.322   6.770   2.089
 9576SOL     OW29626   1.126   1.278   5.945
 9576SOL    HW129627   1.202   1.303   6.004
 9576SOL    HW229628   1.067   1.212   5.992
 9577SOL     OW29629   6.514   5.107   3.471
 9577SOL    HW129630   6.592   5.133   3.414
 9577SOL    HW229631   6.539   5.116   3.568
 9578SOL     OW29632   2.074   3.230   2.770
 9578SOL    HW129633   2.034   3.260   2.684
 9578SOL    HW229634   2.099   3.133   2.763
 9579SOL     OW29635   5.652   5.478   2.187
 9579SOL    HW129636   5.566   5.527   2.193
 9579SOL    HW229637   5.715   5.512   2.257
 9580SOL     OW29638   4.865   3.975   3.671
 9580SOL    HW129639   4.948   4.030   3.668
 9580SOL    HW229640   4.857   3.931   3.761
 9581SOL     OW29641   5.128   1.897   6.292
 9581SOL    HW129642   5.028   1.887   6.286
 9581SOL    HW229643   5.150   1.962   6.365
 9582SOL     OW29644   4.754   6.572   4.888
 9582SOL    HW129645   4.673   6.529   4.847
 9582SOL    HW229646   4.809   6.612   4.815
 9583SOL     OW29647   3.153   5.158   1.307
 9583SOL    HW129648   3.187   5.246   1.339
 9583SOL    HW229649   3.054   5.152   1.322
 9584SOL     OW29650   2.609   5.299   4.255
 9584SOL    HW129651   2.654   5.213   4.279
 9584SOL    HW229652   2.567   5.338   4.337
 9585SOL     OW29653   4.446   6.780   0.704
 9585SOL    HW129654   4.458   6.682   0.715
 9585SOL    HW229655   4.513   6.828   0.760
 9586SOL     OW29656   3.117   5.285   3.206
 9586SOL    HW129657   3.168   5.309   3.124
 9586SOL    HW229658   3.151   5.338   3.284
 9587SOL     OW29659   3.538   6.735   0.326
 9587SOL    HW129660   3.488   6.675   0.388
 9587SOL    HW229661   3.590   6.680   0.261
 9588SOL     OW29662   6.411   5.815   0.227
 9588SOL    HW129663   6.418   5.721   0.261
 9588SOL    HW229664   6.445   5.820   0.133
 9589SOL     OW29665   1.499   1.957   6.276
 9589SOL    HW129666   1.585   1.971   6.227
 9589SOL    HW229667   1.514   1.974   6.374
 9590SOL     OW29668   6.524   0.731   1.181
 9590SOL    HW129669   6.530   0.632   1.179
 9590SOL    HW229670   6.562   0.766   1.267
 9591SOL     OW29671   5.299   0.769   0.224
 9591SOL    HW129672   5.212   0.726   0.203
 9591SOL    HW229673   5.304   0.790   0.322
 9592SOL     OW29674   2.582   5.889   5.573
 9592SOL    HW129675   2.552   5.971   5.621
 9592SOL    HW229676   2.643   5.914   5.498
 9593SOL     OW29677   2.132   2.487   3.759
 9593SOL    HW129678   2.067   2.426   3.804
 9593SOL    HW229679   2.125   2.578   3.799
 9594SOL     OW29680   0.200   6.544   3.347
 9594SOL    HW129681   0.274   6.531   3.281
 9594SOL    HW229682   0.115   6.506   3.311
 9595SOL     OW29683   0.665   3.535   3.442
 9595SOL    HW129684   0.647   3.630   3.418
 9595SOL    HW229685   0.694   3.529   3.538
 9596SOL     OW29686   1.799   6.893   0.454
 9596SOL    HW129687   1.735   6.821   0.479
 9596SOL    HW229688   1.886   6.852   0.427
 9597SOL     OW29689   0.797   3.546   2.011
 9597SOL    HW129690   0.876   3.525   1.953
 9597SOL    HW229691   0.825   3.606   2.086
 9598SOL     OW29692   2.225   4.232   4.056
 9598SOL    HW129693   2.140   4.255   4.008
 9598SOL    HW229694   2.296   4.298   4.032
 9599SOL     OW29695   4.597   6.939   4.568
 9599SOL    HW129696   4.606   6.991   4.654
 9599SOL    HW229697   4.518   6.879   4.574
 9600SOL     OW29698   3.753   1.087   0.592
 9600SOL    HW129699   3.675   1.100   0.530
 9600SOL    HW229700   3.737   1.006   0.648
 9601SOL     OW29701   0.581   3.467   0.318
 9601SOL    HW129702   0.680   3.471   0.306
 9601SOL    HW229703   0.556   3.509   0.405
 9602SOL     OW29704   4.328   4.393   5.621
 9602SOL    HW129705   4.241   4.351   5.598
 9602SOL    HW229706   4.372   4.428   5.538
 9603SOL     OW29707   5.289   6.813   5.822
 9603SOL    HW129708   5.206   6.855   5.785
 9603SOL    HW229709   5.367   6.874   5.808
 9604SOL     OW29710   4.676   6.751   1.396
 9604SOL    HW129711   4.679   6.839   1.349
 9604SOL    HW229712   4.761   6.701   1.379
 9605SOL     OW29713   5.367   5.057   1.763
 9605SOL    HW129714   5.417   5.142   1.777
 9605SOL    HW229715   5.307   5.040   1.842
 9606SOL     OW29716   1.186   1.314   6.438
 9606SOL    HW129717   1.119   1.326   6.365
 9606SOL    HW229718   1.232   1.401   6.456
 9607SOL     OW29719   1.769   2.439   6.605
 9607SOL    HW129720   1.671   2.459   6.596
 9607SOL    HW229721   1.821   2.494   6.540
 9608SOL     OW29722   5.936   2.247   4.582
 9608SOL    HW129723   6.011   2.204   4.633
 9608SOL    HW229724   5.948   2.230   4.484
 9609SOL     OW29725   5.070   3.090   0.601
 9609SOL    HW129726   5.050   3.160   0.532
 9609SOL    HW229727   4.984   3.058   0.641
 9610SOL     OW29728   0.933   4.706   3.144
 9610SOL    HW129729   0.883   4.663   3.219
 9610SOL    HW229730   0.929   4.805   3.154
 9611SOL     OW29731   2.046   0.818   0.503
 9611SOL    HW129732   2.056   0.722   0.476
 9611SOL    HW229733   2.102   0.836   0.583
 9612SOL     OW29734   0.302   1.627   3.731
 9612SOL    HW129735   0.215   1.674   3.724
 9612SOL    HW229736   0.369   1.686   3.774
 9613SOL     OW29737   6.378   4.651   4.106
 9613SOL    HW129738   6.304   4.679   4.168
 9613SOL    HW229739   6.460   4.630   4.160
 9614SOL     OW29740   4.033   2.092   2.929
 9614SOL    HW129741   4.072   2.009   2.890
 9614SOL    HW229742   4.104   2.145   2.976
 9615SOL     OW29743   1.718   4.312   1.058
 9615SOL    HW129744   1.784   4.297   0.984
 9615SOL    HW229745   1.639   4.252   1.045
 9616SOL     OW29746   4.351   3.545   5.990
 9616SOL    HW129747   4.294   3.509   6.064
 9616SOL    HW229748   4.353   3.478   5.915
 9617SOL     OW29749   1.431   3.286   2.429
 9617SOL    HW129750   1.390   3.287   2.338
 9617SOL    HW229751   1.364   3.314   2.497
 9618SOL     OW29752   2.543   2.522   0.461
 9618SOL    HW129753   2.625   2.488   0.508
 9618SOL    HW229754   2.549   2.621   0.451
 9619SOL     OW29755   2.269   0.483   6.756
 9619SOL    HW129756   2.316   0.396   6.743
 9619SOL    HW229757   2.328   0.546   6.806
 9620SOL     OW29758   5.331   1.054   5.250
 9620SOL    HW129759   5.362   1.004   5.169
 9620SOL    HW229760   5.309   1.148   5.225
 9621SOL     OW29761   1.711   3.883   3.287
 9621SOL    HW129762   1.771   3.851   3.212
 9621SOL    HW229763   1.636   3.818   3.299
 9622SOL     OW29764   4.629   0.237   0.049
 9622SOL    HW129765   4.570   0.163   0.016
 9622SOL    HW229766   4.665   0.288   6.993
 9623SOL     OW29767   1.601   3.822   0.035
 9623SOL    HW129768   1.526   3.756   0.033
 9623SOL    HW229769   1.598   3.874   0.120
 9624SOL     OW29770   6.589   3.144   3.613
 9624SOL    HW129771   6.677   3.098   3.616
 9624SOL    HW229772   6.523   3.087   3.563
 9625SOL     OW29773   5.637   6.298   1.499
 9625SOL    HW129774   5.601   6.380   1.453
 9625SOL    HW229775   5.734   6.288   1.477
 9626SOL     OW29776   3.472   0.400   0.574
 9626SOL    HW129777   3.518   0.354   0.498
 9626SOL    HW229778   3.529   0.476   0.606
 9627SOL     OW29779   0.706   6.949   6.647
 9627SOL    HW129780   0.780   7.007   6.612
 9627SOL    HW229781   0.717   6.937   6.745
 9628SOL     OW29782   3.679   0.089   1.936
 9628SOL    HW129783   3.612   0.024   1.972
 9628SOL    HW229784   3.633   0.156   1.879
 9629SOL     OW29785   2.454   0.177   0.986
 9629SOL    HW129786   2.440   0.109   0.914
 9629SOL    HW229787   2.379   0.171   1.052
 9630SOL     OW29788   0.404   2.283   6.208
 9630SOL    HW129789   0.315   2.236   6.208
 9630SOL    HW229790   0.389   2.381   6.220
 9631SOL     OW29791   6.796   6.040   0.406
 9631SOL    HW129792   6.803   5.966   0.339
 9631SOL    HW229793   6.881   6.092   0.406
 9632SOL     OW29794   1.426   5.710   2.726
 9632SOL    HW129795   1.486   5.641   2.687
 9632SOL    HW229796   1.384   5.764   2.652
 9633SOL     OW29797   6.999   5.315   6.768
 9633SOL    HW129798   6.982   5.312   6.670
 9633SOL    HW229799   0.070   5.348   6.784
 9634SOL     OW29800   0.440   5.986   5.853
 9634SOL    HW129801   0.375   5.941   5.914
 9634SOL    HW229802   0.429   5.950   5.760
 9635SOL     OW29803   6.825   5.831   5.222
 9635SOL    HW129804   6.753   5.796   5.281
 9635SOL    HW229805   6.901   5.767   5.221
 9636SOL     OW29806   4.399   1.456   0.536
 9636SOL    HW129807   4.403   1.535   0.597
 9636SOL    HW229808   4.487   1.446   0.489
 9637SOL     OW29809   2.450   0.751   6.422
 9637SOL    HW129810   2.360   0.712   6.443
 9637SOL    HW229811   2.490   0.788   6.505
 9638SOL     OW29812   6.584   2.447   6.381
 9638SOL    HW129813   6.543   2.530   6.420
 9638SOL    HW229814   6.599   2.460   6.283
 9639SOL     OW29815   3.546   0.315   2.605
 9639SOL    HW129816   3.526   0.327   2.702
 9639SOL    HW229817   3.570   0.219   2.587
 9640SOL     OW29818   0.854   1.640   2.946
 9640SOL    HW129819   0.915   1.647   2.867
 9640SOL    HW229820   0.892   1.575   3.012
 9641SOL     OW29821   5.669   5.725   6.255
 9641SOL    HW129822   5.652   5.662   6.330
 9641SOL    HW229823   5.711   5.808   6.291
 9642SOL     OW29824   3.176   6.495   3.227
 9642SOL    HW129825   3.130   6.540   3.151
 9642SOL    HW229826   3.259   6.546   3.251
 9643SOL     OW29827   4.283   4.973   2.714
 9643SOL    HW129828   4.236   4.951   2.799
 9643SOL    HW229829   4.218   5.012   2.649
 9644SOL     OW29830   2.261   1.012   0.731
 9644SOL    HW129831   2.338   0.980   0.676
 9644SOL    HW229832   2.220   0.935   0.779
 9645SOL     OW29833   3.033   5.520   4.854
 9645SOL    HW129834   3.035   5.540   4.952
 9645SOL    HW229835   3.036   5.420   4.841
 9646SOL     OW29836   3.580   5.205   3.717
 9646SOL    HW129837   3.563   5.109   3.696
 9646SOL    HW229838   3.616   5.213   3.810
 9647SOL     OW29839   6.598   2.960   6.178
 9647SOL    HW129840   6.640   3.040   6.135
 9647SOL    HW229841   6.631   2.952   6.272
 9648SOL     OW29842   4.576   3.769   0.880
 9648SOL    HW129843   4.532   3.785   0.968
 9648SOL    HW229844   4.645   3.697   0.890
 9649SOL     OW29845   2.210   5.189   1.956
 9649SOL    HW129846   2.273   5.207   2.031
 9649SOL    HW229847   2.143   5.263   1.950
 9650SOL     OW29848   1.362   0.409   1.528
 9650SOL    HW129849   1.456   0.422   1.561
 9650SOL    HW229850   1.299   0.454   1.591
 9651SOL     OW29851   0.541   1.885   0.070
 9651SOL    HW129852   0.450   1.865   0.034
 9651SOL    HW229853   0.557   1.831   0.153
 9652SOL     OW29854   1.275   4.868   1.894
 9652SOL    HW129855   1.179   4.840   1.895
 9652SOL    HW229856   1.309   4.863   1.800
 9653SOL     OW29857   6.035   6.014   4.379
 9653SOL    HW129858   6.015   5.998   4.283
 9653SOL    HW229859   5.988   6.096   4.410
 9654SOL     OW29860   2.163   3.085   2.298
 9654SOL    HW129861   2.190   3.085   2.394
 9654SOL    HW229862   2.162   3.178   2.263
 9655SOL     OW29863   6.215   2.094   6.881
 9655SOL    HW129864   6.215   2.099   6.781
 9655SOL    HW229865   6.188   2.182   6.919
 9656SOL     OW29866   2.738   1.609   3.287
 9656SOL    HW129867   2.707   1.703   3.275
 9656SOL    HW229868   2.766   1.595   3.382
 9657SOL     OW29869   6.780   0.627   4.900
 9657SOL    HW129870   6.868   0.637   4.853
 9657SOL    HW229871   6.792   0.648   4.997
 9658SOL     OW29872   6.026   1.417   2.484
 9658SOL    HW129873   6.019   1.478   2.405
 9658SOL    HW229874   6.037   1.472   2.567
 9659SOL     OW29875   1.315   4.950   6.786
 9659SOL    HW129876   1.386   5.016   6.763
 9659SOL    HW229877   1.238   4.960   6.723
 9660SOL     OW29878   1.034   5.016   0.377
 9660SOL    HW129879   0.998   4.928   0.346
 9660SOL    HW229880   0.959   5.069   0.417
 9661SOL     OW29881   3.923   0.698   0.646
 9661SOL    HW129882   3.969   0.610   0.654
 9661SOL    HW229883   3.824   0.684   0.637
 9662SOL     OW29884   5.914   2.256   3.884
 9662SOL    HW129885   5.905   2.345   3.838
 9662SOL    HW229886   5.853   2.253   3.963
 9663SOL     OW29887   2.502   5.855   2.511
 9663SOL    HW129888   2.449   5.877   2.429
 9663SOL    HW229889   2.470   5.768   2.550
 9664SOL     OW29890   3.177   6.024   1.426
 9664SOL    HW129891   3.200   5.936   1.468
 9664SOL    HW229892   3.141   6.085   1.496
 9665SOL     OW29893   5.457   3.883   3.828
 9665SOL    HW129894   5.522   3.897   3.753
 9665SOL    HW229895   5.373   3.844   3.792
 9666SOL     OW29896   6.067   4.712   4.824
 9666SOL    HW129897   6.087   4.614   4.821
 9666SOL    HW229898   6.019   4.738   4.740
 9667SOL     OW29899   3.020   3.908   3.366
 9667SOL    HW129900   3.096   3.953   3.413
 9667SOL    HW229901   2.979   3.840   3.427
 9668SOL     OW29902   0.012   1.635   5.365
 9668SOL    HW129903   0.027   1.647   5.464
 9668SOL    HW229904   6.937   1.647   5.345
 9669SOL     OW29905   1.796   6.568   0.116
 9669SOL    HW129906   1.712   6.611   0.149
 9669SOL    HW229907   1.828   6.615   0.034
 9670SOL     OW29908   6.382   4.052   6.727
 9670SOL    HW129909   6.394   4.034   6.825
 9670SOL    HW229910   6.332   4.138   6.716
 9671SOL     OW29911   6.792   1.002   0.116
 9671SOL    HW129912   6.887   1.031   0.109
 9671SOL    HW229913   6.787   0.917   0.169
 9672SOL     OW29914   0.821   6.584   5.403
 9672SOL    HW129915   0.850   6.651   5.335
 9672SOL    HW229916   0.722   6.587   5.412
 9673SOL     OW29917   2.409   2.641   6.045
 9673SOL    HW129918   2.326   2.595   6.014
 9673SOL    HW229919   2.475   2.647   5.970
 9674SOL     OW29920   2.349   6.339   2.175
 9674SOL    HW129921   2.275   6.398   2.209
 9674SOL    HW229922   2.310   6.266   2.118
 9675SOL     OW29923   0.073   2.429   2.330
 9675SOL    HW129924   0.148   2.366   2.307
 9675SOL    HW229925   0.014   2.441   2.250
 9676SOL     OW29926   6.696   2.881   4.788
 9676SOL    HW129927   6.640   2.898   4.707
 9676SOL    HW229928   6.789   2.857   4.760
 9677SOL     OW29929   1.627   3.376   5.586
 9677SOL    HW129930   1.631   3.420   5.675
 9677SOL    HW229931   1.544   3.405   5.537
 9678SOL     OW29932   3.618   3.404   3.037
 9678SOL    HW129933   3.565   3.453   2.968
 9678SOL    HW229934   3.606   3.305   3.025
 9679SOL     OW29935   0.637   4.157   1.013
 9679SOL    HW129936   0.579   4.088   1.057
 9679SOL    HW229937   0.629   4.150   0.914
 9680SOL     OW29938   4.731   5.056   2.845
 9680SOL    HW129939   4.644   5.009   2.858
 9680SOL    HW229940   4.718   5.135   2.785
 9681SOL     OW29941   0.700   0.713   3.977
 9681SOL    HW129942   0.777   0.699   4.040
 9681SOL    HW229943   0.707   0.648   3.901
 9682SOL     OW29944   0.813   4.061   2.398
 9682SOL    HW129945   0.713   4.057   2.399
 9682SOL    HW229946   0.846   4.083   2.489
 9683SOL     OW29947   4.135   0.005   5.335
 9683SOL    HW129948   4.070   6.974   5.281
 9683SOL    HW229949   4.102   0.014   5.429
 9684SOL     OW29950   0.781   4.310   3.496
 9684SOL    HW129951   0.858   4.289   3.436
 9684SOL    HW229952   0.807   4.293   3.591
 9685SOL     OW29953   1.658   1.689   6.397
 9685SOL    HW129954   1.742   1.732   6.363
 9685SOL    HW229955   1.591   1.759   6.420
 9686SOL     OW29956   5.629   2.636   1.818
 9686SOL    HW129957   5.590   2.728   1.807
 9686SOL    HW229958   5.589   2.593   1.899
 9687SOL     OW29959   3.193   1.033   4.500
 9687SOL    HW129960   3.148   0.960   4.552
 9687SOL    HW229961   3.259   1.080   4.560
 9688SOL     OW29962   5.579   1.572   4.501
 9688SOL    HW129963   5.496   1.558   4.555
 9688SOL    HW229964   5.556   1.585   4.405
 9689SOL     OW29965   2.854   5.314   5.128
 9689SOL    HW129966   2.908   5.261   5.063
 9689SOL    HW229967   2.899   5.314   5.217
 9690SOL     OW29968   6.474   3.649   0.439
 9690SOL    HW129969   6.560   3.685   0.402
 9690SOL    HW229970   6.473   3.661   0.538
 9691SOL     OW29971   1.473   5.000   0.549
 9691SOL    HW129972   1.486   4.952   0.463
 9691SOL    HW229973   1.376   5.013   0.566
 9692SOL     OW29974   3.087   5.746   0.562
 9692SOL    HW129975   3.183   5.721   0.547
 9692SOL    HW229976   3.029   5.689   0.504
 9693SOL     OW29977   5.899   5.653   1.494
 9693SOL    HW129978   5.823   5.688   1.548
 9693SOL    HW229979   5.881   5.669   1.397
 9694SOL     OW29980   0.766   1.618   0.383
 9694SOL    HW129981   0.841   1.626   0.317
 9694SOL    HW229982   0.801   1.636   0.475
 9695SOL     OW29983   6.536   4.638   0.010
 9695SOL    HW129984   6.619   4.690   0.030
 9695SOL    HW229985   6.458   4.701   0.004
 9696SOL     OW29986   4.044   4.206   0.392
 9696SOL    HW129987   3.978   4.187   0.464
 9696SOL    HW229988   4.006   4.274   0.329
 9697SOL     OW29989   0.421   6.026   6.363
 9697SOL    HW129990   0.359   6.075   6.425
 9697SOL    HW229991   0.373   5.948   6.322
 9698SOL     OW29992   4.970   1.705   5.426
 9698SOL    HW129993   4.877   1.735   5.406
 9698SOL    HW229994   5.035   1.770   5.388
 9699SOL     OW29995   1.427   2.301   6.703
 9699SOL    HW129996   1.514   2.254   6.716
 9699SOL    HW229997   1.373   2.294   6.787
 9700SOL     OW29998   3.781   2.984   3.505
 9700SOL    HW129999   3.813   2.910   3.447
 9700SOL    HW230000   3.831   3.068   3.484
 9701SOL     OW30001   4.947   4.803   4.235
 9701SOL    HW130002   4.920   4.716   4.193
 9701SOL    HW230003   5.046   4.810   4.236
 9702SOL     OW30004   5.490   0.449   0.802
 9702SOL    HW130005   5.423   0.487   0.864
 9702SOL    HW230006   5.468   0.354   0.782
 9703SOL     OW30007   2.741   5.760   4.307
 9703SOL    HW130008   2.783   5.710   4.231
 9703SOL    HW230009   2.764   5.857   4.301
 9704SOL     OW30010   2.103   1.602   4.048
 9704SOL    HW130011   2.017   1.622   4.095
 9704SOL    HW230012   2.142   1.688   4.013
 9705SOL     OW30013   3.572   4.180   0.680
 9705SOL    HW130014   3.527   4.173   0.591
 9705SOL    HW230015   3.532   4.112   0.743
 9706SOL     OW30016   0.204   2.633   3.549
 9706SOL    HW130017   0.266   2.677   3.485
 9706SOL    HW230018   0.129   2.591   3.499
 9707SOL     OW30019   2.839   5.319   1.574
 9707SOL    HW130020   2.888   5.232   1.583
 9707SOL    HW230021   2.743   5.306   1.601
 9708SOL     OW30022   1.878   1.878   1.657
 9708SOL    HW130023   1.826   1.820   1.594
 9708SOL    HW230024   1.976   1.858   1.648
 9709SOL     OW30025   1.800   6.627   3.662
 9709SOL    HW130026   1.767   6.615   3.755
 9709SOL    HW230027   1.873   6.561   3.644
 9710SOL     OW30028   1.326   0.090   3.750
 9710SOL    HW130029   1.391   0.160   3.717
 9710SOL    HW230030   1.283   0.122   3.834
 9711SOL     OW30031   1.504   3.311   6.434
 9711SOL    HW130032   1.435   3.256   6.386
 9711SOL    HW230033   1.589   3.310   6.382
 9712SOL     OW30034   5.004   3.420   4.511
 9712SOL    HW130035   4.978   3.336   4.462
 9712SOL    HW230036   4.959   3.422   4.600
 9713SOL     OW30037   0.081   5.099   3.169
 9713SOL    HW130038   0.008   5.068   3.231
 9713SOL    HW230039   0.128   5.019   3.131
 9714SOL     OW30040   2.613   1.665   2.492
 9714SOL    HW130041   2.663   1.751   2.479
 9714SOL    HW230042   2.663   1.607   2.556
 9715SOL     OW30043   6.079   5.850   6.050
 9715SOL    HW130044   6.031   5.772   6.090
 9715SOL    HW230045   6.015   5.926   6.039
 9716SOL     OW30046   3.227   0.773   6.083
 9716SOL    HW130047   3.306   0.721   6.116
 9716SOL    HW230048   3.246   0.806   5.990
 9717SOL     OW30049   5.666   5.292   3.247
 9717SOL    HW130050   5.588   5.349   3.269
 9717SOL    HW230051   5.635   5.198   3.228
 9718SOL     OW30052   5.493   2.990   1.936
 9718SOL    HW130053   5.592   2.999   1.940
 9718SOL    HW230054   5.451   3.080   1.925
 9719SOL     OW30055   0.070   1.335   6.973
 9719SOL    HW130056   0.066   1.348   6.874
 9719SOL    HW230057   0.114   1.414   7.015
 9720SOL     OW30058   0.558   0.616   0.749
 9720SOL    HW130059   0.629   0.684   0.763
 9720SOL    HW230060   0.561   0.583   0.655
 9721SOL     OW30061   0.345   2.431   3.628
 9721SOL    HW130062   0.316   2.525   3.607
 9721SOL    HW230063   0.366   2.382   3.544
 9722SOL     OW30064   0.063   0.220   4.588
 9722SOL    HW130065   7.011   0.236   4.524
 9722SOL    HW230066   0.126   0.298   4.585
 9723SOL     OW30067   6.547   0.408   3.971
 9723SOL    HW130068   6.447   0.408   3.970
 9723SOL    HW230069   6.580   0.314   3.976
 9724SOL     OW30070   3.944   2.723   1.685
 9724SOL    HW130071   3.864   2.781   1.675
 9724SOL    HW230072   3.968   2.685   1.595
 9725SOL     OW30073   3.632   3.198   5.443
 9725SOL    HW130074   3.676   3.259   5.377
 9725SOL    HW230075   3.597   3.252   5.520
 9726SOL     OW30076   5.123   6.175   4.566
 9726SOL    HW130077   5.070   6.239   4.621
 9726SOL    HW230078   5.061   6.110   4.522
 9727SOL     OW30079   0.987   0.672   6.666
 9727SOL    HW130080   0.900   0.639   6.703
 9727SOL    HW230081   1.028   0.736   6.730
 9728SOL     OW30082   3.333   6.179   6.469
 9728SOL    HW130083   3.328   6.253   6.535
 9728SOL    HW230084   3.257   6.187   6.404
 9729SOL     OW30085   3.003   5.291   2.647
 9729SOL    HW130086   3.003   5.246   2.736
 9729SOL    HW230087   3.050   5.234   2.580
 9730SOL     OW30088   5.304   3.728   2.997
 9730SOL    HW130089   5.284   3.817   3.038
 9730SOL    HW230090   5.222   3.693   2.951
 9731SOL     OW30091   5.143   4.895   0.890
 9731SOL    HW130092   5.165   4.871   0.984
 9731SOL    HW230093   5.191   4.978   0.864
 9732SOL     OW30094   4.530   6.482   4.735
 9732SOL    HW130095   4.523   6.395   4.784
 9732SOL    HW230096   4.443   6.531   4.741
 9733SOL     OW30097   5.104   4.487   4.704
 9733SOL    HW130098   5.185   4.545   4.702
 9733SOL    HW230099   5.117   4.410   4.641
 9734SOL     OW30100   6.180   1.936   5.798
 9734SOL    HW130101   6.203   1.894   5.710
 9734SOL    HW230102   6.094   1.897   5.831
 9735SOL     OW30103   3.132   5.012   0.873
 9735SOL    HW130104   3.187   5.096   0.867
 9735SOL    HW230105   3.181   4.945   0.929
 9736SOL     OW30106   3.429   1.440   1.733
 9736SOL    HW130107   3.421   1.457   1.831
 9736SOL    HW230108   3.346   1.394   1.701
 9737SOL     OW30109   4.285   1.428   4.492
 9737SOL    HW130110   4.334   1.513   4.474
 9737SOL    HW230111   4.187   1.442   4.476
 9738SOL     OW30112   2.206   0.803   1.964
 9738SOL    HW130113   2.112   0.817   1.995
 9738SOL    HW230114   2.236   0.711   1.990
 9739SOL     OW30115   5.329   4.531   2.297
 9739SOL    HW130116   5.420   4.571   2.288
 9739SOL    HW230117   5.333   4.434   2.273
 9740SOL     OW30118   6.575   2.912   2.875
 9740SOL    HW130119   6.554   2.870   2.963
 9740SOL    HW230120   6.533   3.003   2.870
 9741SOL     OW30121   3.690   2.023   2.456
 9741SOL    HW130122   3.621   2.062   2.395
 9741SOL    HW230123   3.673   2.053   2.550
 9742SOL     OW30124   3.968   1.514   3.819
 9742SOL    HW130125   4.041   1.510   3.888
 9742SOL    HW230126   4.009   1.511   3.727
 9743SOL     OW30127   1.333   0.730   5.432
 9743SOL    HW130128   1.343   0.743   5.334
 9743SOL    HW230129   1.379   0.804   5.481
 9744SOL     OW30130   2.646   0.183   1.459
 9744SOL    HW130131   2.734   0.171   1.412
 9744SOL    HW230132   2.575   0.204   1.391
 9745SOL     OW30133   0.404   0.782   4.329
 9745SOL    HW130134   0.342   0.834   4.388
 9745SOL    HW230135   0.453   0.714   4.385
 9746SOL     OW30136   6.308   6.928   4.490
 9746SOL    HW130137   6.211   6.912   4.475
 9746SOL    HW230138   6.320   6.999   4.560
 9747SOL     OW30139   0.276   6.948   6.310
 9747SOL    HW130140   0.286   6.856   6.350
 9747SOL    HW230141   0.312   6.947   6.216
 9748SOL     OW30142   1.584   4.134   4.837
 9748SOL    HW130143   1.599   4.077   4.756
 9748SOL    HW230144   1.670   4.175   4.865
 9749SOL     OW30145   0.435   5.257   4.591
 9749SOL    HW130146   0.513   5.249   4.654
 9749SOL    HW230147   0.387   5.169   4.588
 9750SOL     OW30148   2.523   5.433   2.439
 9750SOL    HW130149   2.604   5.416   2.383
 9750SOL    HW230150   2.512   5.358   2.505
 9751SOL     OW30151   1.244   2.409   0.445
 9751SOL    HW130152   1.162   2.441   0.397
 9751SOL    HW230153   1.311   2.484   0.450
 9752SOL     OW30154   3.400   6.931   5.911
 9752SOL    HW130155   3.473   6.998   5.927
 9752SOL    HW230156   3.441   6.843   5.888
 9753SOL     OW30157   6.648   6.574   0.105
 9753SOL    HW130158   6.568   6.523   0.135
 9753SOL    HW230159   6.711   6.513   0.058
 9754SOL     OW30160   6.743   3.542   6.795
 9754SOL    HW130161   6.773   3.626   6.839
 9754SOL    HW230162   6.809   3.515   6.725
 9755SOL     OW30163   4.093   5.725   4.917
 9755SOL    HW130164   3.994   5.730   4.902
 9755SOL    HW230165   4.113   5.743   5.013
 9756SOL     OW30166   4.750   2.993   6.175
 9756SOL    HW130167   4.671   3.053   6.172
 9756SOL    HW230168   4.817   3.028   6.241
 9757SOL     OW30169   6.181   1.012   3.880
 9757SOL    HW130170   6.259   0.952   3.894
 9757SOL    HW230171   6.129   1.020   3.965
 9758SOL     OW30172   3.495   0.751   0.438
 9758SOL    HW130173   3.565   0.727   0.370
 9758SOL    HW230174   3.519   0.709   0.525
 9759SOL     OW30175   2.941   5.846   1.818
 9759SOL    HW130176   2.857   5.803   1.784
 9759SOL    HW230177   2.933   5.946   1.808
 9760SOL     OW30178   5.410   4.098   6.203
 9760SOL    HW130179   5.317   4.099   6.165
 9760SOL    HW230180   5.457   4.182   6.178
 9761SOL     OW30181   4.996   5.503   2.610
 9761SOL    HW130182   4.923   5.529   2.673
 9761SOL    HW230183   5.080   5.485   2.661
 9762SOL     OW30184   3.498   0.656   2.184
 9762SOL    HW130185   3.399   0.670   2.185
 9762SOL    HW230186   3.543   0.739   2.217
 9763SOL     OW30187   2.138   1.866   1.646
 9763SOL    HW130188   2.174   1.772   1.644
 9763SOL    HW230189   2.197   1.922   1.704
 9764SOL     OW30190   0.542   2.333   3.931
 9764SOL    HW130191   0.505   2.265   3.868
 9764SOL    HW230192   0.556   2.419   3.883
 9765SOL     OW30193   0.514   0.767   6.077
 9765SOL    HW130194   0.423   0.800   6.049
 9765SOL    HW230195   0.563   0.840   6.124
 9766SOL     OW30196   2.636   0.771   2.347
 9766SOL    HW130197   2.731   0.742   2.360
 9766SOL    HW230198   2.628   0.868   2.369
 9767SOL     OW30199   4.544   0.338   5.466
 9767SOL    HW130200   4.451   0.332   5.430
 9767SOL    HW230201   4.584   0.426   5.442
 9768SOL     OW30202   4.735   2.339   3.254
 9768SOL    HW130203   4.748   2.284   3.337
 9768SOL    HW230204   4.763   2.285   3.174
 9769SOL     OW30205   0.632   2.286   0.687
 9769SOL    HW130206   0.669   2.335   0.765
 9769SOL    HW230207   0.596   2.351   0.620
 9770SOL     OW30208   0.817   2.807   5.153
 9770SOL    HW130209   0.840   2.902   5.132
 9770SOL    HW230210   0.726   2.787   5.118
 9771SOL     OW30211   1.968   6.861   3.924
 9771SOL    HW130212   2.067   6.873   3.924
 9771SOL    HW230213   1.936   6.847   3.830
 9772SOL     OW30214   5.942   6.614   1.182
 9772SOL    HW130215   5.985   6.526   1.164
 9772SOL    HW230216   5.870   6.631   1.114
 9773SOL     OW30217   5.123   5.439   4.028
 9773SOL    HW130218   5.070   5.360   4.056
 9773SOL    HW230219   5.062   5.507   3.986
 9774SOL     OW30220   6.511   4.871   4.445
 9774SOL    HW130221   6.597   4.907   4.480
 9774SOL    HW230222   6.442   4.944   4.443
 9775SOL     OW30223   3.057   1.768   4.975
 9775SOL    HW130224   3.140   1.770   4.919
 9775SOL    HW230225   3.033   1.861   5.002
 9776SOL     OW30226   0.563   4.593   4.370
 9776SOL    HW130227   0.657   4.619   4.350
 9776SOL    HW230228   0.502   4.669   4.349
 9777SOL     OW30229   5.071   6.154   6.535
 9777SOL    HW130230   5.146   6.200   6.584
 9777SOL    HW230231   5.110   6.097   6.462
 9778SOL     OW30232   3.808   0.928   4.659
 9778SOL    HW130233   3.739   0.986   4.701
 9778SOL    HW230234   3.764   0.866   4.594
 9779SOL     OW30235   3.396   2.194   6.671
 9779SOL    HW130236   3.448   2.116   6.706
 9779SOL    HW230237   3.457   2.253   6.618
 9780SOL     OW30238   2.281   3.742   1.156
 9780SOL    HW130239   2.195   3.759   1.108
 9780SOL    HW230240   2.267   3.757   1.254
 9781SOL     OW30241   0.676   0.186   4.465
 9781SOL    HW130242   0.709   0.104   4.420
 9781SOL    HW230243   0.742   0.217   4.533
 9782SOL     OW30244   6.443   6.941   1.179
 9782SOL    HW130245   6.395   6.991   1.107
 9782SOL    HW230246   6.542   6.947   1.164
 9783SOL     OW30247   6.080   0.093   3.497
 9783SOL    HW130248   6.110   0.138   3.414
 9783SOL    HW230249   5.995   0.043   3.479
 9784SOL     OW30250   4.825   0.139   4.678
 9784SOL    HW130251   4.838   0.054   4.627
 9784SOL    HW230252   4.740   0.134   4.729
 9785SOL     OW30253   0.900   2.071   1.045
 9785SOL    HW130254   0.999   2.086   1.040
 9785SOL    HW230255   0.874   2.051   1.139
 9786SOL     OW30256   2.123   0.474   3.855
 9786SOL    HW130257   2.174   0.481   3.769
 9786SOL    HW230258   2.182   0.498   3.932
 9787SOL     OW30259   5.649   4.012   1.844
 9787SOL    HW130260   5.643   3.986   1.747
 9787SOL    HW230261   5.744   4.009   1.873
 9788SOL     OW30262   6.853   0.226   6.501
 9788SOL    HW130263   6.754   0.215   6.500
 9788SOL    HW230264   6.896   0.137   6.520
 9789SOL     OW30265   1.803   4.413   4.674
 9789SOL    HW130266   1.841   4.327   4.708
 9789SOL    HW230267   1.845   4.490   4.722
 9790SOL     OW30268   6.974   1.172   3.440
 9790SOL    HW130269   0.020   1.103   3.417
 9790SOL    HW230270   6.902   1.131   3.496
 9791SOL     OW30271   1.462   2.682   0.952
 9791SOL    HW130272   1.536   2.729   0.904
 9791SOL    HW230273   1.489   2.667   1.047
 9792SOL     OW30274   4.354   5.550   1.765
 9792SOL    HW130275   4.446   5.537   1.801
 9792SOL    HW230276   4.317   5.637   1.800
 9793SOL     OW30277   5.151   6.094   2.632
 9793SOL    HW130278   5.240   6.071   2.594
 9793SOL    HW230279   5.138   6.194   2.628
 9794SOL     OW30280   3.748   3.624   6.869
 9794SOL    HW130281   3.714   3.704   6.918
 9794SOL    HW230282   3.681   3.549   6.878
 9795SOL     OW30283   1.584   4.677   2.934
 9795SOL    HW130284   1.620   4.617   2.862
 9795SOL    HW230285   1.659   4.709   2.991
 9796SOL     OW30286   4.170   5.024   6.523
 9796SOL    HW130287   4.098   4.967   6.484
 9796SOL    HW230288   4.144   5.120   6.514
 9797SOL     OW30289   5.951   2.931   5.367
 9797SOL    HW130290   5.966   2.859   5.434
 9797SOL    HW230291   6.037   2.952   5.321
 9798SOL     OW30292   3.175   1.052   2.236
 9798SOL    HW130293   3.231   1.115   2.183
 9798SOL    HW230294   3.089   1.034   2.188
 9799SOL     OW30295   4.118   3.243   3.094
 9799SOL    HW130296   4.136   3.291   3.179
 9799SOL    HW230297   4.137   3.303   3.017
 9800SOL     OW30298   3.793   6.696   0.558
 9800SOL    HW130299   3.714   6.735   0.605
 9800SOL    HW230300   3.770   6.684   0.461
 9801SOL     OW30301   5.726   4.923   1.425
 9801SOL    HW130302   5.786   4.860   1.474
 9801SOL    HW230303   5.698   4.882   1.338
 9802SOL     OW30304   1.011   5.469   2.269
 9802SOL    HW130305   0.964   5.455   2.356
 9802SOL    HW230306   0.997   5.564   2.239
 9803SOL     OW30307   5.812   0.185   6.719
 9803SOL    HW130308   5.804   0.185   6.818
 9803SOL    HW230309   5.758   0.260   6.681
 9804SOL     OW30310   4.610   5.288   4.514
 9804SOL    HW130311   4.682   5.220   4.522
 9804SOL    HW230312   4.544   5.277   4.588
 9805SOL     OW30313   3.600   3.828   0.771
 9805SOL    HW130314   3.647   3.853   0.856
 9805SOL    HW230315   3.648   3.868   0.693
 9806SOL     OW30316   6.900   1.536   2.407
 9806SOL    HW130317   6.946   1.477   2.473
 9806SOL    HW230318   6.802   1.539   2.427
 9807SOL     OW30319   2.245   3.178   1.189
 9807SOL    HW130320   2.173   3.207   1.126
 9807SOL    HW230321   2.210   3.103   1.246
 9808SOL     OW30322   2.555   2.433   3.429
 9808SOL    HW130323   2.504   2.436   3.343
 9808SOL    HW230324   2.495   2.403   3.503
 9809SOL     OW30325   0.118   0.312   4.209
 9809SOL    HW130326   0.084   0.388   4.265
 9809SOL    HW230327   0.131   0.231   4.266
 9810SOL     OW30328   4.577   1.676   2.583
 9810SOL    HW130329   4.617   1.714   2.499
 9810SOL    HW230330   4.556   1.579   2.569
 9811SOL     OW30331   1.518   0.818   3.336
 9811SOL    HW130332   1.453   0.826   3.261
 9811SOL    HW230333   1.586   0.749   3.314
 9812SOL     OW30334   5.649   2.893   6.404
 9812SOL    HW130335   5.558   2.884   6.364
 9812SOL    HW230336   5.665   2.817   6.467
 9813SOL     OW30337   6.084   4.695   0.535
 9813SOL    HW130338   6.105   4.682   0.438
 9813SOL    HW230339   5.988   4.673   0.552
 9814SOL     OW30340   6.466   1.333   6.014
 9814SOL    HW130341   6.475   1.305   5.918
 9814SOL    HW230342   6.403   1.410   6.020
 9815SOL     OW30343   0.108   4.769   2.196
 9815SOL    HW130344   0.159   4.855   2.189
 9815SOL    HW230345   0.052   4.757   2.114
 9816SOL     OW30346   6.756   1.983   5.070
 9816SOL    HW130347   6.659   1.961   5.056
 9816SOL    HW230348   6.812   1.917   5.020
 9817SOL     OW30349   2.528   1.476   0.644
 9817SOL    HW130350   2.568   1.503   0.731
 9817SOL    HW230351   2.443   1.425   0.661
 9818SOL     OW30352   0.399   0.302   2.411
 9818SOL    HW130353   0.357   0.222   2.453
 9818SOL    HW230354   0.494   0.281   2.387
 9819SOL     OW30355   5.646   1.169   4.629
 9819SOL    HW130356   5.693   1.215   4.704
 9819SOL    HW230357   5.700   1.091   4.598
 9820SOL     OW30358   3.600   0.517   6.637
 9820SOL    HW130359   3.522   0.473   6.680
 9820SOL    HW230360   3.570   0.601   6.592
 9821SOL     OW30361   5.063   4.104   6.717
 9821SOL    HW130362   4.970   4.073   6.699
 9821SOL    HW230363   5.114   4.110   6.631
 9822SOL     OW30364   3.121   5.960   3.679
 9822SOL    HW130365   3.155   5.868   3.699
 9822SOL    HW230366   3.118   6.014   3.764
 9823SOL     OW30367   4.612   5.751   3.478
 9823SOL    HW130368   4.535   5.697   3.443
 9823SOL    HW230369   4.604   5.760   3.577
 9824SOL     OW30370   1.200   5.898   5.450
 9824SOL    HW130371   1.193   5.946   5.537
 9824SOL    HW230372   1.214   5.964   5.376
 9825SOL     OW30373   0.949   6.324   4.325
 9825SOL    HW130374   1.012   6.325   4.403
 9825SOL    HW230375   0.927   6.418   4.299
 9826SOL     OW30376   1.945   5.990   5.677
 9826SOL    HW130377   1.891   5.915   5.637
 9826SOL    HW230378   1.908   6.013   5.767
 9827SOL     OW30379   1.480   4.795   2.084
 9827SOL    HW130380   1.472   4.874   2.145
 9827SOL    HW230381   1.453   4.821   1.992
 9828SOL     OW30382   4.788   2.108   4.266
 9828SOL    HW130383   4.827   2.198   4.246
 9828SOL    HW230384   4.800   2.048   4.187
 9829SOL     OW30385   5.548   4.073   5.594
 9829SOL    HW130386   5.552   4.030   5.503
 9829SOL    HW230387   5.453   4.095   5.615
 9830SOL     OW30388   5.905   1.300   2.934
 9830SOL    HW130389   5.849   1.224   2.966
 9830SOL    HW230390   5.848   1.382   2.925
 9831SOL     OW30391   0.911   5.288   1.752
 9831SOL    HW130392   0.935   5.270   1.847
 9831SOL    HW230393   0.913   5.202   1.700
 9832SOL     OW30394   5.254   5.742   5.376
 9832SOL    HW130395   5.193   5.811   5.414
 9832SOL    HW230396   5.302   5.696   5.451
 9833SOL     OW30397   3.883   3.146   4.373
 9833SOL    HW130398   3.896   3.088   4.453
 9833SOL    HW230399   3.972   3.174   4.337
 9834SOL     OW30400   3.339   5.912   6.337
 9834SOL    HW130401   3.332   6.001   6.382
 9834SOL    HW230402   3.312   5.920   6.241
 9835SOL     OW30403   3.755   3.226   3.860
 9835SOL    HW130404   3.751   3.293   3.785
 9835SOL    HW230405   3.687   3.249   3.929
 9836SOL     OW30406   6.158   2.808   5.863
 9836SOL    HW130407   6.214   2.753   5.801
 9836SOL    HW230408   6.215   2.840   5.939
 9837SOL     OW30409   6.047   0.863   4.245
 9837SOL    HW130410   6.041   0.956   4.207
 9837SOL    HW230411   6.141   0.845   4.273
 9838SOL     OW30412   0.972   5.777   1.155
 9838SOL    HW130413   0.895   5.824   1.197
 9838SOL    HW230414   0.941   5.729   1.073
 9839SOL     OW30415   3.682   6.354   3.727
 9839SOL    HW130416   3.674   6.394   3.818
 9839SOL    HW230417   3.591   6.335   3.690
 9840SOL     OW30418   5.982   2.312   6.299
 9840SOL    HW130419   6.065   2.261   6.319
 9840SOL    HW230420   6.001   2.410   6.298
 9841SOL     OW30421   0.178   5.798   2.354
 9841SOL    HW130422   0.273   5.827   2.347
 9841SOL    HW230423   0.142   5.779   2.263
 9842SOL     OW30424   3.710   0.305   0.155
 9842SOL    HW130425   3.794   0.359   0.168
 9842SOL    HW230426   3.733   0.218   0.112
 9843SOL     OW30427   0.548   0.206   0.677
 9843SOL    HW130428   0.512   0.151   0.601
 9843SOL    HW230429   0.502   0.180   0.761
 9844SOL     OW30430   5.081   1.161   4.713
 9844SOL    HW130431   5.109   1.243   4.663
 9844SOL    HW230432   5.132   1.082   4.678
 9845SOL     OW30433   1.123   3.545   2.261
 9845SOL    HW130434   1.194   3.587   2.204
 9845SOL    HW230435   1.036   3.593   2.247
 9846SOL     OW30436   5.903   2.382   2.551
 9846SOL    HW130437   5.932   2.390   2.647
 9846SOL    HW230438   5.892   2.474   2.512
 9847SOL     OW30439   3.968   4.317   6.834
 9847SOL    HW130440   4.017   4.254   6.774
 9847SOL    HW230441   4.030   4.388   6.866
 9848SOL     OW30442   3.079   3.596   5.531
 9848SOL    HW130443   2.990   3.563   5.562
 9848SOL    HW230444   3.068   3.684   5.484
 9849SOL     OW30445   1.485   1.594   2.256
 9849SOL    HW130446   1.423   1.624   2.327
 9849SOL    HW230447   1.454   1.628   2.167
 9850SOL     OW30448   1.990   0.379   4.379
 9850SOL    HW130449   1.939   0.456   4.340
 9850SOL    HW230450   1.926   0.310   4.413
 9851SOL     OW30451   3.239   5.540   3.969
 9851SOL    HW130452   3.210   5.445   3.954
 9851SOL    HW230453   3.310   5.542   4.039
 9852SOL     OW30454   2.444   0.257   6.701
 9852SOL    HW130455   2.523   0.316   6.688
 9852SOL    HW230456   2.450   0.179   6.639
 9853SOL     OW30457   0.149   3.681   3.964
 9853SOL    HW130458   0.188   3.770   3.987
 9853SOL    HW230459   0.101   3.645   4.044
 9854SOL     OW30460   6.507   4.192   0.090
 9854SOL    HW130461   6.479   4.174   0.185
 9854SOL    HW230462   6.600   4.227   0.089
 9855SOL     OW30463   1.096   6.451   0.729
 9855SOL    HW130464   1.140   6.362   0.737
 9855SOL    HW230465   1.166   6.523   0.724
 9856SOL     OW30466   4.808   4.655   3.076
 9856SOL    HW130467   4.858   4.639   2.990
 9856SOL    HW230468   4.725   4.600   3.077
 9857SOL     OW30469   4.617   0.077   5.398
 9857SOL    HW130470   4.704   0.052   5.440
 9857SOL    HW230471   4.597   0.173   5.417
 9858SOL     OW30472   0.265   5.203   2.545
 9858SOL    HW130473   0.193   5.271   2.558
 9858SOL    HW230474   0.226   5.111   2.550
 9859SOL     OW30475   0.393   5.802   2.863
 9859SOL    HW130476   0.418   5.787   2.959
 9859SOL    HW230477   0.303   5.846   2.859
 9860SOL     OW30478   1.471   3.407   3.172
 9860SOL    HW130479   1.377   3.423   3.143
 9860SOL    HW230480   1.479   3.316   3.212
 9861SOL     OW30481   3.901   2.060   4.373
 9861SOL    HW130482   3.975   2.018   4.320
 9861SOL    HW230483   3.902   2.158   4.358
 9862SOL     OW30484   1.817   2.712   6.856
 9862SOL    HW130485   1.732   2.695   6.808
 9862SOL    HW230486   1.812   2.799   6.904
 9863SOL     OW30487   3.582   6.107   1.491
 9863SOL    HW130488   3.564   6.127   1.395
 9863SOL    HW230489   3.496   6.088   1.538
 9864SOL     OW30490   2.939   6.148   5.229
 9864SOL    HW130491   3.012   6.080   5.220
 9864SOL    HW230492   2.977   6.234   5.263
 9865SOL     OW30493   2.596   5.678   5.733
 9865SOL    HW130494   2.661   5.615   5.689
 9865SOL    HW230495   2.564   5.744   5.666
 9866SOL     OW30496   0.040   5.789   5.622
 9866SOL    HW130497   0.055   5.820   5.528
 9866SOL    HW230498   0.071   5.694   5.631
 9867SOL     OW30499   4.925   1.155   2.170
 9867SOL    HW130500   4.873   1.240   2.168
 9867SOL    HW230501   4.922   1.110   2.081
 9868SOL     OW30502   2.101   4.600   3.414
 9868SOL    HW130503   2.158   4.615   3.495
 9868SOL    HW230504   2.119   4.510   3.376
 9869SOL     OW30505   5.065   1.672   2.840
 9869SOL    HW130506   5.094   1.666   2.745
 9869SOL    HW230507   5.004   1.750   2.852
 9870SOL     OW30508   2.131   2.939   2.812
 9870SOL    HW130509   2.140   2.839   2.815
 9870SOL    HW230510   2.081   2.970   2.893
 9871SOL     OW30511   6.065   5.340   3.544
 9871SOL    HW130512   5.983   5.284   3.535
 9871SOL    HW230513   6.141   5.282   3.575
 9872SOL     OW30514   0.935   6.315   4.950
 9872SOL    HW130515   0.888   6.228   4.961
 9872SOL    HW230516   1.010   6.321   5.016
 9873SOL     OW30517   0.260   1.014   5.192
 9873SOL    HW130518   0.212   0.978   5.113
 9873SOL    HW230519   0.342   1.064   5.162
 9874SOL     OW30520   0.063   1.744   3.708
 9874SOL    HW130521   7.010   1.682   3.729
 9874SOL    HW230522   0.029   1.824   3.659
 9875SOL     OW30523   5.872   6.061   1.233
 9875SOL    HW130524   5.875   6.149   1.185
 9875SOL    HW230525   5.822   5.994   1.177
 9876SOL     OW30526   0.495   0.389   3.206
 9876SOL    HW130527   0.408   0.353   3.174
 9876SOL    HW230528   0.484   0.485   3.233
 9877SOL     OW30529   1.589   5.696   4.964
 9877SOL    HW130530   1.663   5.629   4.961
 9877SOL    HW230531   1.501   5.648   4.954
 9878SOL     OW30532   4.271   4.098   0.669
 9878SOL    HW130533   4.196   4.032   0.674
 9878SOL    HW230534   4.342   4.073   0.734
 9879SOL     OW30535   5.441   5.589   4.303
 9879SOL    HW130536   5.444   5.647   4.221
 9879SOL    HW230537   5.530   5.543   4.313
 9880SOL     OW30538   2.638   1.541   1.032
 9880SOL    HW130539   2.566   1.487   1.076
 9880SOL    HW230540   2.629   1.637   1.061
 9881SOL     OW30541   6.380   0.041   2.952
 9881SOL    HW130542   6.476   0.052   2.924
 9881SOL    HW230543   6.375   0.034   3.051
 9882SOL     OW30544   3.518   4.186   4.261
 9882SOL    HW130545   3.495   4.197   4.164
 9882SOL    HW230546   3.436   4.163   4.312
 9883SOL     OW30547   1.464   6.130   3.142
 9883SOL    HW130548   1.480   6.048   3.087
 9883SOL    HW230549   1.531   6.201   3.117
 9884SOL     OW30550   3.141   2.376   5.433
 9884SOL    HW130551   3.161   2.278   5.438
 9884SOL    HW230552   3.141   2.405   5.337
 9885SOL     OW30553   5.025   2.050   5.013
 9885SOL    HW130554   5.091   2.110   5.057
 9885SOL    HW230555   5.062   2.019   4.925
 9886SOL     OW30556   2.717   6.341   1.623
 9886SOL    HW130557   2.670   6.270   1.572
 9886SOL    HW230558   2.799   6.302   1.667
 9887SOL     OW30559   3.861   1.263   0.278
 9887SOL    HW130560   3.770   1.236   0.247
 9887SOL    HW230561   3.929   1.199   0.243
 9888SOL     OW30562   6.419   6.744   4.228
 9888SOL    HW130563   6.473   6.823   4.255
 9888SOL    HW230564   6.479   6.676   4.185
 9889SOL     OW30565   6.950   5.998   2.274
 9889SOL    HW130566   6.925   5.903   2.296
 9889SOL    HW230567   6.884   6.036   2.210
 9890SOL     OW30568   1.740   3.231   3.187
 9890SOL    HW130569   1.762   3.196   3.095
 9890SOL    HW230570   1.778   3.323   3.197
 9891SOL     OW30571   3.533   0.262   1.768
 9891SOL    HW130572   3.494   0.317   1.842
 9891SOL    HW230573   3.556   0.322   1.691
 9892SOL     OW30574   2.291   5.958   3.180
 9892SOL    HW130575   2.275   6.049   3.142
 9892SOL    HW230576   2.242   5.950   3.267
 9893SOL     OW30577   5.730   4.561   4.733
 9893SOL    HW130578   5.663   4.491   4.706
 9893SOL    HW230579   5.800   4.570   4.662
 9894SOL     OW30580   4.392   3.970   5.357
 9894SOL    HW130581   4.476   3.967   5.303
 9894SOL    HW230582   4.416   3.971   5.454
 9895SOL     OW30583   4.679   2.481   5.933
 9895SOL    HW130584   4.657   2.567   5.889
 9895SOL    HW230585   4.612   2.462   6.005
 9896SOL     OW30586   4.088   3.902   6.805
 9896SOL    HW130587   4.081   3.854   6.892
 9896SOL    HW230588   4.184   3.924   6.787
 9897SOL     OW30589   1.406   1.409   2.736
 9897SOL    HW130590   1.385   1.321   2.778
 9897SOL    HW230591   1.467   1.395   2.658
 9898SOL     OW30592   0.065   5.596   0.192
 9898SOL    HW130593   0.143   5.535   0.176
 9898SOL    HW230594   7.019   5.581   0.121
 9899SOL     OW30595   3.970   5.122   1.016
 9899SOL    HW130596   3.974   5.025   0.994
 9899SOL    HW230597   4.049   5.169   0.975
 9900SOL     OW30598   2.384   5.699   3.124
 9900SOL    HW130599   2.355   5.795   3.130
 9900SOL    HW230600   2.483   5.696   3.108
 9901SOL     OW30601   2.772   1.043   6.101
 9901SOL    HW130602   2.841   1.114   6.088
 9901SOL    HW230603   2.809   0.954   6.076
 9902SOL     OW30604   4.519   4.696   0.319
 9902SOL    HW130605   4.526   4.795   0.304
 9902SOL    HW230606   4.467   4.654   0.245
 9903SOL     OW30607   2.463   1.321   1.079
 9903SOL    HW130608   2.366   1.318   1.055
 9903SOL    HW230609   2.510   1.242   1.038
 9904SOL     OW30610   6.364   6.205   1.829
 9904SOL    HW130611   6.330   6.196   1.923
 9904SOL    HW230612   6.358   6.116   1.784
 9905SOL     OW30613   2.242   6.879   0.097
 9905SOL    HW130614   2.327   6.866   0.046
 9905SOL    HW230615   2.258   6.860   0.194
 9906SOL     OW30616   3.824   3.790   6.145
 9906SOL    HW130617   3.749   3.752   6.092
 9906SOL    HW230618   3.795   3.800   6.241
 9907SOL     OW30619   0.929   6.580   3.371
 9907SOL    HW130620   0.860   6.577   3.299
 9907SOL    HW230621   0.914   6.504   3.434
 9908SOL     OW30622   6.424   3.092   5.838
 9908SOL    HW130623   6.414   3.169   5.901
 9908SOL    HW230624   6.443   3.009   5.890
 9909SOL     OW30625   2.278   6.249   3.090
 9909SOL    HW130626   2.312   6.274   3.181
 9909SOL    HW230627   2.343   6.280   3.021
 9910SOL     OW30628   1.057   5.739   0.694
 9910SOL    HW130629   1.133   5.722   0.757
 9910SOL    HW230630   1.068   5.828   0.651
 9911SOL     OW30631   3.224   4.850   2.119
 9911SOL    HW130632   3.302   4.911   2.108
 9911SOL    HW230633   3.199   4.812   2.030
 9912SOL     OW30634   5.850   6.675   0.349
 9912SOL    HW130635   5.791   6.739   0.399
 9912SOL    HW230636   5.933   6.658   0.402
 9913SOL     OW30637   6.469   1.779   2.615
 9913SOL    HW130638   6.436   1.719   2.688
 9913SOL    HW230639   6.482   1.871   2.650
 9914SOL     OW30640   2.042   5.672   3.987
 9914SOL    HW130641   1.979   5.611   3.939
 9914SOL    HW230642   2.071   5.745   3.925
 9915SOL     OW30643   6.125   5.260   3.959
 9915SOL    HW130644   6.027   5.251   3.978
 9915SOL    HW230645   6.176   5.243   4.043
 9916SOL     OW30646   1.711   3.369   0.606
 9916SOL    HW130647   1.775   3.351   0.531
 9916SOL    HW230648   1.653   3.446   0.582
 9917SOL     OW30649   1.817   3.891   4.302
 9917SOL    HW130650   1.784   3.979   4.269
 9917SOL    HW230651   1.837   3.831   4.224
 9918SOL     OW30652   1.811   2.003   4.148
 9918SOL    HW130653   1.743   2.074   4.165
 9918SOL    HW230654   1.891   2.019   4.205
 9919SOL     OW30655   0.811   6.139   1.400
 9919SOL    HW130656   0.860   6.141   1.313
 9919SOL    HW230657   0.790   6.233   1.428
 9920SOL     OW30658   2.976   1.021   3.248
 9920SOL    HW130659   2.965   1.069   3.161
 9920SOL    HW230660   2.960   0.923   3.234
 9921SOL     OW30661   4.854   0.644   2.440
 9921SOL    HW130662   4.784   0.614   2.375
 9921SOL    HW230663   4.927   0.692   2.391
 9922SOL     OW30664   6.214   2.977   2.134
 9922SOL    HW130665   6.282   3.040   2.096
 9922SOL    HW230666   6.198   2.999   2.230
 9923SOL     OW30667   5.829   6.897   6.708
 9923SOL    HW130668   5.904   6.960   6.687
 9923SOL    HW230669   5.819   6.890   6.807
 9924SOL     OW30670   5.628   0.093   3.563
 9924SOL    HW130671   5.577   0.136   3.487
 9924SOL    HW230672   5.576   0.014   3.596
 9925SOL     OW30673   4.077   2.158   4.959
 9925SOL    HW130674   4.111   2.250   4.976
 9925SOL    HW230675   3.984   2.149   4.995
 9926SOL     OW30676   1.740   1.115   5.933
 9926SOL    HW130677   1.813   1.115   5.866
 9926SOL    HW230678   1.715   1.020   5.955
 9927SOL     OW30679   2.066   4.022   4.119
 9927SOL    HW130680   1.980   4.057   4.155
 9927SOL    HW230681   2.133   4.096   4.114
 9928SOL     OW30682   6.617   2.832   3.144
 9928SOL    HW130683   6.654   2.921   3.169
 9928SOL    HW230684   6.680   2.760   3.172
 9929SOL     OW30685   1.633   5.134   5.372
 9929SOL    HW130686   1.690   5.081   5.436
 9929SOL    HW230687   1.539   5.136   5.406
 9930SOL     OW30688   6.889   6.055   6.515
 9930SOL    HW130689   6.830   6.131   6.487
 9930SOL    HW230690   6.856   5.970   6.474
 9931SOL     OW30691   1.603   4.439   0.167
 9931SOL    HW130692   1.549   4.357   0.188
 9931SOL    HW230693   1.676   4.449   0.234
 9932SOL     OW30694   1.936   2.015   1.252
 9932SOL    HW130695   1.885   2.051   1.174
 9932SOL    HW230696   1.885   1.938   1.291
 9933SOL     OW30697   1.650   1.900   3.344
 9933SOL    HW130698   1.670   1.964   3.270
 9933SOL    HW230699   1.684   1.938   3.430
 9934SOL     OW30700   5.069   6.991   5.727
 9934SOL    HW130701   4.995   0.034   5.741
 9934SOL    HW230702   5.032   6.898   5.730
 9935SOL     OW30703   3.423   2.756   0.359
 9935SOL    HW130704   3.431   2.799   0.269
 9935SOL    HW230705   3.398   2.660   0.348
 9936SOL     OW30706   4.617   5.825   0.395
 9936SOL    HW130707   4.618   5.911   0.343
 9936SOL    HW230708   4.622   5.748   0.332
 9937SOL     OW30709   1.472   6.998   5.055
 9937SOL    HW130710   1.500   6.935   4.983
 9937SOL    HW230711   1.449   0.064   5.015
 9938SOL     OW30712   0.813   1.938   3.223
 9938SOL    HW130713   0.717   1.920   3.245
 9938SOL    HW230714   0.831   1.910   3.128
 9939SOL     OW30715   2.943   3.783   0.969
 9939SOL    HW130716   2.991   3.699   0.996
 9939SOL    HW230717   2.917   3.776   0.873
 9940SOL     OW30718   6.525   0.977   2.940
 9940SOL    HW130719   6.619   0.969   2.905
 9940SOL    HW230720   6.461   0.958   2.866
 9941SOL     OW30721   6.089   3.555   0.592
 9941SOL    HW130722   6.117   3.618   0.520
 9941SOL    HW230723   6.150   3.566   0.671
 9942SOL     OW30724   6.097   5.283   2.293
 9942SOL    HW130725   6.070   5.362   2.348
 9942SOL    HW230726   6.122   5.312   2.201
 9943SOL     OW30727   1.190   4.898   5.025
 9943SOL    HW130728   1.225   4.928   5.114
 9943SOL    HW230729   1.136   4.814   5.038
 9944SOL     OW30730   2.349   5.646   6.382
 9944SOL    HW130731   2.320   5.571   6.442
 9944SOL    HW230732   2.320   5.733   6.423
 9945SOL     OW30733   6.129   3.246   5.608
 9945SOL    HW130734   6.088   3.156   5.626
 9945SOL    HW230735   6.063   3.317   5.628
 9946SOL     OW30736   5.962   1.749   0.913
 9946SOL    HW130737   5.975   1.830   0.856
 9946SOL    HW230738   5.935   1.777   1.005
 9947SOL     OW30739   0.261   0.273   3.149
 9947SOL    HW130740   0.241   0.284   3.246
 9947SOL    HW230741   0.180   0.299   3.095
 9948SOL     OW30742   5.024   0.695   5.207
 9948SOL    HW130743   5.008   0.616   5.148
 9948SOL    HW230744   5.111   0.682   5.255
 9949SOL     OW30745   6.785   3.026   2.704
 9949SOL    HW130746   6.780   3.126   2.699
 9949SOL    HW230747   6.739   2.994   2.787
 9950SOL     OW30748   5.584   3.940   6.626
 9950SOL    HW130749   5.534   4.021   6.658
 9950SOL    HW230750   5.672   3.936   6.672
 9951SOL     OW30751   6.726   2.306   2.451
 9951SOL    HW130752   6.753   2.210   2.441
 9951SOL    HW230753   6.627   2.311   2.465
 9952SOL     OW30754   1.472   4.901   1.408
 9952SOL    HW130755   1.488   4.989   1.364
 9952SOL    HW230756   1.535   4.833   1.370
 9953SOL     OW30757   6.224   4.321   5.017
 9953SOL    HW130758   6.148   4.256   5.012
 9953SOL    HW230759   6.225   4.363   5.108
 9954SOL     OW30760   4.263   2.194   1.460
 9954SOL    HW130761   4.270   2.096   1.476
 9954SOL    HW230762   4.199   2.210   1.385
 9955SOL     OW30763   6.279   5.432   1.586
 9955SOL    HW130764   6.186   5.459   1.562
 9955SOL    HW230765   6.327   5.403   1.503
 9956SOL     OW30766   1.440   4.204   3.530
 9956SOL    HW130767   1.488   4.117   3.537
 9956SOL    HW230768   1.483   4.271   3.589
 9957SOL     OW30769   6.105   6.795   0.672
 9957SOL    HW130770   6.110   6.892   0.697
 9957SOL    HW230771   6.016   6.759   0.700
 9958SOL     OW30772   6.331   6.020   5.413
 9958SOL    HW130773   6.239   6.027   5.376
 9958SOL    HW230774   6.327   5.989   5.508
 9959SOL     OW30775   6.398   5.681   6.939
 9959SOL    HW130776   6.414   5.607   7.004
 9959SOL    HW230777   6.465   5.673   6.864
 9960SOL     OW30778   6.229   0.132   6.207
 9960SOL    HW130779   6.213   0.184   6.124
 9960SOL    HW230780   6.301   0.176   6.261
 9961SOL     OW30781   3.130   6.716   0.656
 9961SOL    HW130782   3.114   6.634   0.712
 9961SOL    HW230783   3.055   6.726   0.590
 9962SOL     OW30784   3.686   0.721   1.540
 9962SOL    HW130785   3.777   0.694   1.571
 9962SOL    HW230786   3.638   0.768   1.614
 9963SOL     OW30787   0.312   0.261   6.428
 9963SOL    HW130788   0.400   0.302   6.404
 9963SOL    HW230789   0.327   0.174   6.474
 9964SOL     OW30790   4.719   5.547   5.437
 9964SOL    HW130791   4.652   5.473   5.431
 9964SOL    HW230792   4.779   5.532   5.516
 9965SOL     OW30793   2.093   5.527   4.745
 9965SOL    HW130794   2.083   5.444   4.690
 9965SOL    HW230795   2.179   5.572   4.721
 9966SOL     OW30796   1.667   4.306   1.912
 9966SOL    HW130797   1.586   4.356   1.880
 9966SOL    HW230798   1.642   4.212   1.933
 9967SOL     OW30799   6.311   0.540   2.495
 9967SOL    HW130800   6.357   0.510   2.411
 9967SOL    HW230801   6.249   0.616   2.474
 9968SOL     OW30802   4.910   5.905   0.467
 9968SOL    HW130803   4.824   5.872   0.506
 9968SOL    HW230804   4.913   5.885   0.369
 9969SOL     OW30805   0.473   6.596   3.198
 9969SOL    HW130806   0.540   6.652   3.246
 9969SOL    HW230807   0.460   6.632   3.105
 9970SOL     OW30808   0.551   3.663   1.312
 9970SOL    HW130809   0.589   3.743   1.265
 9970SOL    HW230810   0.624   3.613   1.359
 9971SOL     OW30811   6.913   5.362   6.004
 9971SOL    HW130812   6.860   5.299   6.060
 9971SOL    HW230813   6.856   5.396   5.929
 9972SOL     OW30814   3.107   4.584   5.836
 9972SOL    HW130815   3.173   4.556   5.766
 9972SOL    HW230816   3.153   4.641   5.904
 9973SOL     OW30817   2.960   2.273   2.960
 9973SOL    HW130818   3.011   2.188   2.945
 9973SOL    HW230819   2.899   2.289   2.882
 9974SOL     OW30820   0.818   3.390   3.254
 9974SOL    HW130821   0.780   3.366   3.165
 9974SOL    HW230822   0.772   3.471   3.289
 9975SOL     OW30823   1.051   4.780   6.715
 9975SOL    HW130824   1.121   4.709   6.710
 9975SOL    HW230825   0.997   4.769   6.798
 9976SOL     OW30826   4.451   5.802   5.075
 9976SOL    HW130827   4.368   5.857   5.088
 9976SOL    HW230828   4.500   5.794   5.161
 9977SOL     OW30829   4.223   0.123   6.253
 9977SOL    HW130830   4.233   0.035   6.297
 9977SOL    HW230831   4.126   0.145   6.242
 9978SOL     OW30832   6.417   2.876   0.045
 9978SOL    HW130833   6.415   2.954   0.107
 9978SOL    HW230834   6.498   2.882   7.008
 9979SOL     OW30835   3.887   3.974   3.574
 9979SOL    HW130836   3.861   4.056   3.625
 9979SOL    HW230837   3.937   3.912   3.634
 9980SOL     OW30838   0.242   6.815   6.644
 9980SOL    HW130839   0.300   6.865   6.708
 9980SOL    HW230840   0.299   6.754   6.589
 9981SOL     OW30841   5.415   1.133   1.139
 9981SOL    HW130842   5.478   1.210   1.131
 9981SOL    HW230843   5.412   1.083   1.052
 9982SOL     OW30844   2.592   1.806   5.080
 9982SOL    HW130845   2.658   1.855   5.023
 9982SOL    HW230846   2.589   1.710   5.051
 9983SOL     OW30847   0.738   2.874   2.046
 9983SOL    HW130848   0.650   2.865   1.999
 9983SOL    HW230849   0.792   2.947   2.003
 9984SOL     OW30850   1.333   4.701   1.225
 9984SOL    HW130851   1.379   4.750   1.298
 9984SOL    HW230852   1.325   4.604   1.249
 9985SOL     OW30853   4.711   4.503   6.009
 9985SOL    HW130854   4.720   4.404   5.997
 9985SOL    HW230855   4.764   4.533   6.087
 9986SOL     OW30856   5.815   3.944   6.784
 9986SOL    HW130857   5.879   3.880   6.741
 9986SOL    HW230858   5.856   4.036   6.786
 9987SOL     OW30859   5.147   1.813   0.704
 9987SOL    HW130860   5.090   1.749   0.755
 9987SOL    HW230861   5.234   1.824   0.751
 9988SOL     OW30862   5.501   6.656   3.904
 9988SOL    HW130863   5.406   6.641   3.932
 9988SOL    HW230864   5.554   6.691   3.981
 9989SOL     OW30865   6.612   5.694   1.901
 9989SOL    HW130866   6.636   5.619   1.838
 9989SOL    HW230867   6.590   5.656   1.990
 9990SOL     OW30868   0.159   5.932   2.782
 9990SOL    HW130869   0.064   5.961   2.770
 9990SOL    HW230870   0.179   5.856   2.721
 9991SOL     OW30871   2.050   3.565   1.801
 9991SOL    HW130872   2.072   3.504   1.724
 9991SOL    HW230873   2.090   3.529   1.885
 9992SOL     OW30874   2.186   4.338   0.422
 9992SOL    HW130875   2.272   4.331   0.473
 9992SOL    HW230876   2.198   4.400   0.345
 9993SOL     OW30877   3.368   0.171   4.196
 9993SOL    HW130878   3.296   0.234   4.167
 9993SOL    HW230879   3.406   0.201   4.283
 9994SOL     OW30880   5.986   4.955   5.382
 9994SOL    HW130881   5.886   4.967   5.374
 9994SOL    HW230882   6.014   4.874   5.331
 9995SOL     OW30883   4.184   2.076   6.100
 9995SOL    HW130884   4.274   2.077   6.055
 9995SOL    HW230885   4.196   2.058   6.197
 9996SOL     OW30886   2.910   4.882   0.982
 9996SOL    HW130887   2.957   4.944   0.920
 9996SOL    HW230888   2.977   4.828   1.033
 9997SOL     OW30889   5.480   0.401   2.695
 9997SOL    HW130890   5.498   0.307   2.666
 9997SOL    HW230891   5.496   0.464   2.619
 9998SOL     OW30892   5.362   3.808   2.328
 9998SOL    HW130893   5.301   3.771   2.258
 9998SOL    HW230894   5.347   3.760   2.414
 9999SOL     OW30895   0.615   7.021   5.004
 9999SOL    HW130896   0.576   6.932   4.984
 9999SOL    HW230897   0.542   0.061   5.035
10000SOL     OW30898   4.509   3.281   1.707
10000SOL    HW130899   4.481   3.251   1.798
10000SOL    HW230900   4.608   3.287   1.702
10001SOL     OW30901   3.831   6.941   1.425
10001SOL    HW130902   3.893   6.987   1.488
10001SOL    HW230903   3.737   6.945   1.461
10002SOL     OW30904   2.038   6.853   2.835
10002SOL    HW130905   1.959   6.809   2.795
10002SOL    HW230906   2.022   6.951   2.842
10003SOL     OW30907   0.325   1.383   2.481
10003SOL    HW130908   0.275   1.465   2.456
10003SOL    HW230909   0.292   1.349   2.569
10004SOL     OW30910   6.938   2.773   3.376
10004SOL    HW130911   6.921   2.772   3.475
10004SOL    HW230912   6.965   2.865   3.348
10005SOL     OW30913   2.627   5.977   2.286
10005SOL    HW130914   2.538   5.951   2.247
10005SOL    HW230915   2.613   6.028   2.371
10006SOL     OW30916   5.631   1.780   6.110
10006SOL    HW130917   5.645   1.837   6.029
10006SOL    HW230918   5.535   1.752   6.114
10007SOL     OW30919   1.659   5.276   3.425
10007SOL    HW130920   1.642   5.178   3.413
10007SOL    HW230921   1.625   5.326   3.345
10008SOL     OW30922   4.009   0.868   5.884
10008SOL    HW130923   4.084   0.823   5.835
10008SOL    HW230924   3.982   0.951   5.834
10009SOL     OW30925   1.558   5.165   2.004
10009SOL    HW130926   1.578   5.221   2.085
10009SOL    HW230927   1.631   5.099   1.991
10010SOL     OW30928   2.068   5.019   0.720
10010SOL    HW130929   2.008   4.984   0.649
10010SOL    HW230930   2.163   4.996   0.698
10011SOL     OW30931   3.344   3.682   6.945
10011SOL    HW130932   3.251   3.644   6.942
10011SOL    HW230933   3.359   3.740   6.865
10012SOL     OW30934   5.860   1.761   3.065
10012SOL    HW130935   5.892   1.744   3.159
10012SOL    HW230936   5.908   1.701   3.002
10013SOL     OW30937   0.520   6.237   5.345
10013SOL    HW130938   0.582   6.240   5.424
10013SOL    HW230939   0.510   6.142   5.314
10014SOL     OW30940   1.362   1.227   3.017
10014SOL    HW130941   1.451   1.270   3.032
10014SOL    HW230942   1.364   1.174   2.931
10015SOL     OW30943   4.133   0.659   6.857
10015SOL    HW130944   4.225   0.621   6.872
10015SOL    HW230945   4.133   0.756   6.884
10016SOL     OW30946   3.117   1.036   4.902
10016SOL    HW130947   3.167   0.982   4.834
10016SOL    HW230948   3.028   1.062   4.865
10017SOL     OW30949   3.381   1.532   2.926
10017SOL    HW130950   3.312   1.459   2.925
10017SOL    HW230951   3.340   1.616   2.890
10018SOL     OW30952   0.400   4.978   5.395
10018SOL    HW130953   0.373   4.889   5.357
10018SOL    HW230954   0.481   5.012   5.348
10019SOL     OW30955   6.780   2.023   2.422
10019SOL    HW130956   6.698   1.969   2.405
10019SOL    HW230957   6.847   1.968   2.471
10020SOL     OW30958   6.757   0.897   2.756
10020SOL    HW130959   6.811   0.822   2.794
10020SOL    HW230960   6.705   0.863   2.678
10021SOL     OW30961   1.809   3.679   1.647
10021SOL    HW130962   1.783   3.747   1.580
10021SOL    HW230963   1.909   3.675   1.653
10022SOL     OW30964   1.090   6.822   6.008
10022SOL    HW130965   1.001   6.796   5.970
10022SOL    HW230966   1.075   6.871   6.094
10023SOL     OW30967   0.952   1.223   5.304
10023SOL    HW130968   0.952   1.312   5.258
10023SOL    HW230969   0.940   1.236   5.402
10024SOL     OW30970   1.839   4.220   3.555
10024SOL    HW130971   1.840   4.210   3.455
10024SOL    HW230972   1.823   4.130   3.597
10025SOL     OW30973   0.652   3.070   1.251
10025SOL    HW130974   0.687   3.096   1.341
10025SOL    HW230975   0.725   3.026   1.199
10026SOL     OW30976   6.782   1.162   4.543
10026SOL    HW130977   6.802   1.180   4.640
10026SOL    HW230978   6.868   1.149   4.494
10027SOL     OW30979   3.286   0.995   5.900
10027SOL    HW130980   3.210   1.021   5.841
10027SOL    HW230981   3.371   1.031   5.863
10028SOL     OW30982   3.866   6.766   2.175
10028SOL    HW130983   3.959   6.800   2.176
10028SOL    HW230984   3.834   6.755   2.270
10029SOL     OW30985   0.081   5.015   4.229
10029SOL    HW130986   0.164   4.975   4.190
10029SOL    HW230987   0.001   4.963   4.198
10030SOL     OW30988   2.750   6.807   4.194
10030SOL    HW130989   2.767   6.717   4.156
10030SOL    HW230990   2.725   6.870   4.120
10031SOL     OW30991   1.718   0.082   3.835
10031SOL    HW130992   1.648   0.150   3.815
10031SOL    HW230993   1.779   0.117   3.907
10032SOL     OW30994   2.947   6.129   4.347
10032SOL    HW130995   3.008   6.116   4.269
10032SOL    HW230996   3.001   6.138   4.430
10033SOL     OW30997   2.443   1.392   4.822
10033SOL    HW130998   2.355   1.382   4.867
10033SOL    HW230999   2.488   1.303   4.816
10034SOL     OW31000   2.437   0.987   2.073
10034SOL    HW131001   2.388   0.927   2.009
10034SOL    HW231002   2.425   1.082   2.045
10035SOL     OW31003   0.455   3.002   2.385
10035SOL    HW131004   0.480   3.096   2.362
10035SOL    HW231005   0.439   2.950   2.300
10036SOL     OW31006   0.238   1.570   0.064
10036SOL    HW131007   0.248   1.658   0.109
10036SOL    HW231008   0.287   1.571   6.999
10037SOL     OW31009   6.238   0.468   6.100
10037SOL    HW131010   6.144   0.500   6.102
10037SOL    HW231011   6.298   0.540   6.136
10038SOL     OW31012   4.716   6.762   6.715
10038SOL    HW131013   4.775   6.767   6.796
10038SOL    HW231014   4.770   6.785   6.634
10039SOL     OW31015   0.227   5.043   1.674
10039SOL    HW131016   0.175   5.050   1.759
10039SOL    HW231017   0.174   4.991   1.607
10040SOL     OW31018   2.836   0.499   0.466
10040SOL    HW131019   2.931   0.498   0.434
10040SOL    HW231020   2.831   0.549   0.553
10041SOL     OW31021   5.712   4.633   5.594
10041SOL    HW131022   5.618   4.665   5.583
10041SOL    HW231023   5.767   4.663   5.517
10042SOL     OW31024   6.343   0.741   5.012
10042SOL    HW131025   6.382   0.725   5.103
10042SOL    HW231026   6.309   0.655   4.975
10043SOL     OW31027   0.491   0.371   2.698
10043SOL    HW131028   0.502   0.319   2.782
10043SOL    HW231029   0.577   0.417   2.675
10044SOL     OW31030   3.006   2.152   6.887
10044SOL    HW131031   3.018   2.055   6.868
10044SOL    HW231032   3.042   2.206   6.812
10045SOL     OW31033   3.976   7.004   4.185
10045SOL    HW131034   4.065   6.995   4.141
10045SOL    HW231035   3.904   6.992   4.117
10046SOL     OW31036   6.751   2.246   1.578
10046SOL    HW131037   6.777   2.251   1.674
10046SOL    HW231038   6.770   2.333   1.533
10047SOL     OW31039   1.376   3.185   2.994
10047SOL    HW131040   1.376   3.099   3.045
10047SOL    HW231041   1.469   3.204   2.962
10048SOL     OW31042   3.477   2.303   1.660
10048SOL    HW131043   3.505   2.231   1.596
10048SOL    HW231044   3.501   2.276   1.753
10049SOL     OW31045   1.256   5.395   4.934
10049SOL    HW131046   1.221   5.397   4.840
10049SOL    HW231047   1.349   5.358   4.933
10050SOL     OW31048   5.671   1.348   5.148
10050SOL    HW131049   5.593   1.299   5.108
10050SOL    HW231050   5.720   1.398   5.076
10051SOL     OW31051   6.230   1.766   0.700
10051SOL    HW131052   6.327   1.746   0.689
10051SOL    HW231053   6.178   1.718   0.630
10052SOL     OW31054   1.810   5.266   0.948
10052SOL    HW131055   1.770   5.241   0.861
10052SOL    HW231056   1.807   5.366   0.959
10053SOL     OW31057   2.765   6.400   3.352
10053SOL    HW131058   2.742   6.497   3.343
10053SOL    HW231059   2.817   6.385   3.435
10054SOL     OW31060   4.550   4.874   3.732
10054SOL    HW131061   4.643   4.881   3.769
10054SOL    HW231062   4.549   4.905   3.637
10055SOL     OW31063   5.044   3.317   0.015
10055SOL    HW131064   4.976   3.252   0.050
10055SOL    HW231065   5.080   3.284   6.950
10056SOL     OW31066   4.955   4.019   2.905
10056SOL    HW131067   5.003   4.054   2.824
10056SOL    HW231068   4.931   3.923   2.891
10057SOL     OW31069   2.354   2.380   2.845
10057SOL    HW131070   2.353   2.474   2.879
10057SOL    HW231071   2.365   2.381   2.746
10058SOL     OW31072   1.014   4.975   3.901
10058SOL    HW131073   1.061   4.950   3.986
10058SOL    HW231074   0.920   5.002   3.922
10059SOL     OW31075   4.706   6.632   1.807
10059SOL    HW131076   4.663   6.713   1.769
10059SOL    HW231077   4.637   6.560   1.817
10060SOL     OW31078   2.512   2.596   2.383
10060SOL    HW131079   2.466   2.537   2.449
10060SOL    HW231080   2.591   2.547   2.344
10061SOL     OW31081   6.865   2.010   5.815
10061SOL    HW131082   6.847   1.983   5.721
10061SOL    HW231083   6.779   2.031   5.861
10062SOL     OW31084   5.200   5.736   2.836
10062SOL    HW131085   5.190   5.824   2.883
10062SOL    HW231086   5.142   5.734   2.754
10063SOL     OW31087   0.958   2.543   2.117
10063SOL    HW131088   0.902   2.571   2.038
10063SOL    HW231089   0.927   2.592   2.198
10064SOL     OW31090   5.013   4.920   5.742
10064SOL    HW131091   4.959   4.994   5.703
10064SOL    HW231092   4.962   4.879   5.819
10065SOL     OW31093   0.073   0.343   2.943
10065SOL    HW131094   0.142   0.349   2.871
10065SOL    HW231095   0.005   0.273   2.919
10066SOL     OW31096   0.305   0.882   3.831
10066SOL    HW131097   0.298   0.969   3.782
10066SOL    HW231098   0.373   0.889   3.904
10067SOL     OW31099   4.810   6.464   3.457
10067SOL    HW131100   4.772   6.377   3.424
10067SOL    HW231101   4.908   6.454   3.472
10068SOL     OW31102   5.192   3.427   5.633
10068SOL    HW131103   5.174   3.330   5.647
10068SOL    HW231104   5.185   3.476   5.720
10069SOL     OW31105   5.168   1.455   3.931
10069SOL    HW131106   5.139   1.377   3.875
10069SOL    HW231107   5.089   1.511   3.953
10070SOL     OW31108   1.359   0.192   4.414
10070SOL    HW131109   1.379   0.273   4.358
10070SOL    HW231110   1.354   0.111   4.355
10071SOL     OW31111   5.125   4.520   5.182
10071SOL    HW131112   5.076   4.473   5.255
10071SOL    HW231113   5.218   4.543   5.214
10072SOL     OW31114   1.126   6.812   4.043
10072SOL    HW131115   1.131   6.763   4.130
10072SOL    HW231116   1.203   6.875   4.035
10073SOL     OW31117   6.894   5.816   6.379
10073SOL    HW131118   6.798   5.822   6.350
10073SOL    HW231119   6.943   5.754   6.318
10074SOL     OW31120   2.209   0.028   4.963
10074SOL    HW131121   2.139   0.018   4.893
10074SOL    HW231122   2.270   0.104   4.939
10075SOL     OW31123   1.078   2.748   4.388
10075SOL    HW131124   1.125   2.750   4.299
10075SOL    HW231125   1.123   2.812   4.450
10076SOL     OW31126   5.809   0.178   3.753
10076SOL    HW131127   5.762   0.266   3.743
10076SOL    HW231128   5.760   0.108   3.702
10077SOL     OW31129   2.862   1.653   5.690
10077SOL    HW131130   2.895   1.733   5.739
10077SOL    HW231131   2.774   1.625   5.728
10078SOL     OW31132   5.478   6.291   5.293
10078SOL    HW131133   5.575   6.276   5.313
10078SOL    HW231134   5.423   6.260   5.370
10079SOL     OW31135   0.349   2.928   6.130
10079SOL    HW131136   0.358   2.845   6.186
10079SOL    HW231137   0.401   2.917   6.045
10080SOL     OW31138   1.242   2.844   5.290
10080SOL    HW131139   1.289   2.822   5.205
10080SOL    HW231140   1.218   2.759   5.338
10081SOL     OW31141   0.289   1.238   0.347
10081SOL    HW131142   0.290   1.300   0.426
10081SOL    HW231143   0.322   1.148   0.375
10082SOL     OW31144   0.027   0.475   0.264
10082SOL    HW131145   0.023   0.570   0.235
10082SOL    HW231146   0.014   0.415   0.185
10083SOL     OW31147   5.358   1.415   4.299
10083SOL    HW131148   5.374   1.511   4.279
10083SOL    HW231149   5.263   1.392   4.281
10084SOL     OW31150   2.538   0.354   6.273
10084SOL    HW131151   2.548   0.441   6.225
10084SOL    HW231152   2.624   0.330   6.317
10085SOL     OW31153   1.222   4.999   2.648
10085SOL    HW131154   1.222   5.097   2.628
10085SOL    HW231155   1.275   4.982   2.732
10086SOL     OW31156   6.782   3.207   2.028
10086SOL    HW131157   6.738   3.255   1.952
10086SOL    HW231158   6.714   3.188   2.099
10087SOL     OW31159   2.456   1.083   3.221
10087SOL    HW131160   2.451   1.177   3.254
10087SOL    HW231161   2.495   1.025   3.292
10088SOL     OW31162   5.946   0.045   4.583
10088SOL    HW131163   5.876   7.007   4.545
10088SOL    HW231164   5.994   7.020   4.657
10089SOL     OW31165   2.138   2.615   1.871
10089SOL    HW131166   2.185   2.528   1.884
10089SOL    HW231167   2.088   2.640   1.954
10090SOL     OW31168   0.710   5.430   1.974
10090SOL    HW131169   0.724   5.529   1.966
10090SOL    HW231170   0.758   5.396   2.055
10091SOL     OW31171   0.372   1.594   4.372
10091SOL    HW131172   0.326   1.672   4.414
10091SOL    HW231173   0.461   1.580   4.414
10092SOL     OW31174   1.987   2.991   5.589
10092SOL    HW131175   2.082   2.963   5.582
10092SOL    HW231176   1.928   2.920   5.550
10093SOL     OW31177   6.971   6.329   6.318
10093SOL    HW131178   6.993   6.244   6.268
10093SOL    HW231179   0.025   6.392   6.311
10094SOL     OW31180   1.448   0.454   1.892
10094SOL    HW131181   1.373   0.513   1.920
10094SOL    HW231182   1.443   0.367   1.942
10095SOL     OW31183   0.258   2.118   5.044
10095SOL    HW131184   0.245   2.059   4.964
10095SOL    HW231185   0.283   2.210   5.015
10096SOL     OW31186   6.753   5.483   2.704
10096SOL    HW131187   6.830   5.481   2.768
10096SOL    HW231188   6.693   5.560   2.728
10097SOL     OW31189   1.047   2.720   5.696
10097SOL    HW131190   1.018   2.698   5.789
10097SOL    HW231191   1.145   2.743   5.697
10098SOL     OW31192   3.839   5.462   6.512
10098SOL    HW131193   3.744   5.492   6.524
10098SOL    HW231194   3.868   5.411   6.593
10099SOL     OW31195   0.587   4.378   4.219
10099SOL    HW131196   0.565   4.453   4.282
10099SOL    HW231197   0.664   4.326   4.255
10100SOL     OW31198   4.851   0.005   5.518
10100SOL    HW131199   4.916   6.954   5.539
10100SOL    HW231200   4.830   0.056   5.601
10101SOL     OW31201   7.015   4.543   2.683
10101SOL    HW131202   6.949   4.482   2.639
10101SOL    HW231203   7.009   4.533   2.782
10102SOL     OW31204   3.825   0.672   4.119
10102SOL    HW131205   3.868   0.717   4.197
10102SOL    HW231206   3.860   0.712   4.034
10103SOL     OW31207   0.698   2.582   0.470
10103SOL    HW131208   0.678   2.617   0.378
10103SOL    HW231209   0.614   2.543   0.509
10104SOL     OW31210   2.426   6.073   5.687
10104SOL    HW131211   2.361   5.998   5.676
10104SOL    HW231212   2.388   6.140   5.751
10105SOL     OW31213   3.457   0.390   0.036
10105SOL    HW131214   3.492   0.444   6.982
10105SOL    HW231215   3.534   0.352   0.087
10106SOL     OW31216   4.557   5.207   0.960
10106SOL    HW131217   4.621   5.140   0.922
10106SOL    HW231218   4.603   5.259   1.032
10107SOL     OW31219   5.426   0.861   6.061
10107SOL    HW131220   5.444   0.951   6.020
10107SOL    HW231221   5.487   0.793   6.020
10108SOL     OW31222   5.265   6.290   6.656
10108SOL    HW131223   5.358   6.254   6.645
10108SOL    HW231224   5.269   6.386   6.683
10109SOL     OW31225   4.773   5.574   2.743
10109SOL    HW131226   4.828   5.635   2.799
10109SOL    HW231227   4.719   5.514   2.802
10110SOL     OW31228   3.248   1.891   6.120
10110SOL    HW131229   3.318   1.896   6.048
10110SOL    HW231230   3.201   1.979   6.127
10111SOL     OW31231   6.794   2.514   1.531
10111SOL    HW131232   6.798   2.582   1.457
10111SOL    HW231233   6.765   2.559   1.616
10112SOL     OW31234   4.539   3.337   6.315
10112SOL    HW131235   4.516   3.412   6.253
10112SOL    HW231236   4.536   3.251   6.265
10113SOL     OW31237   3.610   6.829   0.780
10113SOL    HW131238   3.580   6.924   0.771
10113SOL    HW231239   3.660   6.818   0.867
10114SOL     OW31240   4.551   1.372   2.101
10114SOL    HW131241   4.500   1.451   2.136
10114SOL    HW231242   4.505   1.288   2.128
10115SOL     OW31243   1.223   1.730   4.684
10115SOL    HW131244   1.244   1.763   4.776
10115SOL    HW231245   1.294   1.667   4.654
10116SOL     OW31246   0.502   0.386   1.113
10116SOL    HW131247   0.521   0.290   1.137
10116SOL    HW231248   0.452   0.389   1.026
10117SOL     OW31249   4.524   6.840   5.968
10117SOL    HW131250   4.588   6.914   5.992
10117SOL    HW231251   4.558   6.753   6.004
10118SOL     OW31252   6.092   5.702   2.214
10118SOL    HW131253   6.129   5.716   2.122
10118SOL    HW231254   6.161   5.727   2.282
10119SOL     OW31255   1.947   6.990   6.325
10119SOL    HW131256   1.942   6.982   6.425
10119SOL    HW231257   1.964   6.901   6.285
10120SOL     OW31258   5.503   3.127   3.568
10120SOL    HW131259   5.475   3.214   3.609
10120SOL    HW231260   5.455   3.113   3.482
10121SOL     OW31261   5.936   4.620   3.587
10121SOL    HW131262   5.973   4.589   3.675
10121SOL    HW231263   6.002   4.680   3.542
10122SOL     OW31264   5.398   2.618   0.596
10122SOL    HW131265   5.362   2.705   0.630
10122SOL    HW231266   5.370   2.545   0.657
10123SOL     OW31267   0.113   7.019   0.060
10123SOL    HW131268   0.061   0.010   6.997
10123SOL    HW231269   0.160   0.082   0.083
10124SOL     OW31270   2.949   4.079   0.740
10124SOL    HW131271   2.863   4.055   0.786
10124SOL    HW231272   3.017   4.105   0.809
10125SOL     OW31273   2.332   0.590   0.446
10125SOL    HW131274   2.323   0.644   0.363
10125SOL    HW231275   2.416   0.536   0.442
10126SOL     OW31276   5.963   5.105   6.019
10126SOL    HW131277   5.987   5.201   6.000
10126SOL    HW231278   5.983   5.049   5.939
10127SOL     OW31279   4.073   4.874   5.145
10127SOL    HW131280   4.029   4.838   5.227
10127SOL    HW231281   4.037   4.965   5.125
10128SOL     OW31282   1.132   1.406   1.203
10128SOL    HW131283   1.166   1.373   1.115
10128SOL    HW231284   1.190   1.373   1.277
10129SOL     OW31285   5.223   2.401   2.916
10129SOL    HW131286   5.192   2.317   2.872
10129SOL    HW231287   5.171   2.479   2.881
10130SOL     OW31288   6.099   5.960   1.383
10130SOL    HW131289   6.121   6.047   1.427
10130SOL    HW231290   6.022   5.973   1.321
10131SOL     OW31291   0.528   7.003   0.233
10131SOL    HW131292   0.528   0.017   0.140
10131SOL    HW231293   0.621   6.977   0.258
10132SOL     OW31294   2.614   6.592   2.667
10132SOL    HW131295   2.525   6.563   2.702
10132SOL    HW231296   2.614   6.691   2.654
10133SOL     OW31297   6.079   4.704   2.688
10133SOL    HW131298   6.142   4.753   2.747
10133SOL    HW231299   6.055   4.616   2.730
10134SOL     OW31300   0.320   1.447   1.765
10134SOL    HW131301   0.294   1.484   1.676
10134SOL    HW231302   0.243   1.394   1.802
10135SOL     OW31303   3.000   6.026   2.789
10135SOL    HW131304   3.018   6.122   2.812
10135SOL    HW231305   2.976   6.020   2.692
10136SOL     OW31306   6.444   6.670   2.351
10136SOL    HW131307   6.504   6.629   2.282
10136SOL    HW231308   6.368   6.717   2.305
10137SOL     OW31309   5.655   5.061   4.578
10137SOL    HW131310   5.590   5.086   4.650
10137SOL    HW231311   5.607   5.014   4.505
10138SOL     OW31312   5.841   3.080   5.893
10138SOL    HW131313   5.910   3.119   5.833
10138SOL    HW231314   5.885   3.036   5.972
10139SOL     OW31315   3.636   2.884   3.237
10139SOL    HW131316   3.661   2.981   3.241
10139SOL    HW231317   3.545   2.872   3.276
10140SOL     OW31318   1.156   4.914   4.175
10140SOL    HW131319   1.223   4.980   4.143
10140SOL    HW231320   1.101   4.955   4.247
10141SOL     OW31321   2.155   0.669   3.558
10141SOL    HW131322   2.149   0.734   3.634
10141SOL    HW231323   2.091   0.594   3.574
10142SOL     OW31324   5.442   5.648   4.564
10142SOL    HW131325   5.487   5.734   4.585
10142SOL    HW231326   5.453   5.627   4.467
10143SOL     OW31327   4.504   6.302   1.516
10143SOL    HW131328   4.517   6.393   1.478
10143SOL    HW231329   4.563   6.237   1.467
10144SOL     OW31330   2.773   4.802   2.792
10144SOL    HW131331   2.790   4.760   2.703
10144SOL    HW231332   2.674   4.810   2.807
10145SOL     OW31333   2.801   0.302   6.325
10145SOL    HW131334   2.796   0.204   6.305
10145SOL    HW231335   2.878   0.342   6.276
10146SOL     OW31336   4.908   4.933   4.794
10146SOL    HW131337   4.922   4.900   4.700
10146SOL    HW231338   4.977   4.895   4.854
10147SOL     OW31339   5.088   5.960   4.354
10147SOL    HW131340   5.120   5.865   4.358
10147SOL    HW231341   5.005   5.970   4.409
10148SOL     OW31342   6.251   5.740   0.807
10148SOL    HW131343   6.283   5.655   0.850
10148SOL    HW231344   6.278   5.817   0.864
10149SOL     OW31345   4.057   2.984   1.485
10149SOL    HW131346   4.106   2.935   1.413
10149SOL    HW231347   4.033   3.076   1.453
10150SOL     OW31348   5.558   4.185   0.895
10150SOL    HW131349   5.498   4.109   0.869
10150SOL    HW231350   5.627   4.199   0.825
10151SOL     OW31351   0.504   5.660   5.659
10151SOL    HW131352   0.578   5.592   5.662
10151SOL    HW231353   0.459   5.664   5.748
10152SOL     OW31354   0.897   5.604   4.116
10152SOL    HW131355   0.877   5.630   4.210
10152SOL    HW231356   0.860   5.672   4.053
10153SOL     OW31357   5.383   5.492   3.940
10153SOL    HW131358   5.299   5.454   3.980
10153SOL    HW231359   5.391   5.589   3.963
10154SOL     OW31360   6.817   6.021   5.805
10154SOL    HW131361   6.769   5.961   5.741
10154SOL    HW231362   6.882   6.077   5.755
10155SOL     OW31363   3.487   1.314   6.105
10155SOL    HW131364   3.564   1.263   6.141
10155SOL    HW231365   3.520   1.390   6.049
10156SOL     OW31366   5.735   0.267   2.300
10156SOL    HW131367   5.764   0.355   2.261
10156SOL    HW231368   5.753   0.267   2.398
10157SOL     OW31369   4.917   0.809   3.981
10157SOL    HW131370   4.995   0.806   3.919
10157SOL    HW231371   4.950   0.809   4.076
10158SOL     OW31372   4.973   3.012   5.780
10158SOL    HW131373   5.030   2.952   5.836
10158SOL    HW231374   4.946   3.092   5.833
10159SOL     OW31375   1.626   0.871   6.053
10159SOL    HW131376   1.612   0.925   6.136
10159SOL    HW231377   1.537   0.849   6.013
10160SOL     OW31378   0.593   6.082   3.450
10160SOL    HW131379   0.556   6.079   3.543
10160SOL    HW231380   0.578   5.994   3.406
10161SOL     OW31381   2.828   5.861   4.923
10161SOL    HW131382   2.783   5.910   4.998
10161SOL    HW231383   2.758   5.826   4.860
10162SOL     OW31384   3.139   2.835   6.371
10162SOL    HW131385   3.208   2.764   6.387
10162SOL    HW231386   3.166   2.892   6.294
10163SOL     OW31387   0.779   3.608   5.537
10163SOL    HW131388   0.719   3.597   5.458
10163SOL    HW231389   0.868   3.643   5.507
10164SOL     OW31390   1.393   2.577   6.374
10164SOL    HW131391   1.390   2.579   6.274
10164SOL    HW231392   1.327   2.643   6.410
10165SOL     OW31393   0.391   1.893   2.809
10165SOL    HW131394   0.328   1.966   2.836
10165SOL    HW231395   0.445   1.866   2.889
10166SOL     OW31396   0.346   1.156   1.946
10166SOL    HW131397   0.441   1.161   1.976
10166SOL    HW231398   0.343   1.146   1.847
10167SOL     OW31399   4.861   0.790   0.721
10167SOL    HW131400   4.891   0.850   0.647
10167SOL    HW231401   4.938   0.767   0.780
10168SOL     OW31402   6.675   4.628   4.594
10168SOL    HW131403   6.688   4.705   4.532
10168SOL    HW231404   6.581   4.594   4.585
10169SOL     OW31405   6.394   4.095   4.933
10169SOL    HW131406   6.351   4.184   4.952
10169SOL    HW231407   6.385   4.075   4.836
10170SOL     OW31408   1.292   4.106   4.928
10170SOL    HW131409   1.263   4.055   4.847
10170SOL    HW231410   1.377   4.155   4.908
10171SOL     OW31411   5.676   2.669   6.601
10171SOL    HW131412   5.757   2.611   6.610
10171SOL    HW231413   5.597   2.622   6.640
10172SOL     OW31414   4.786   0.570   4.462
10172SOL    HW131415   4.819   0.518   4.540
10172SOL    HW231416   4.813   0.666   4.471
10173SOL     OW31417   2.137   2.667   2.804
10173SOL    HW131418   2.220   2.660   2.859
10173SOL    HW231419   2.110   2.576   2.771
10174SOL     OW31420   6.531   4.397   1.047
10174SOL    HW131421   6.526   4.303   1.081
10174SOL    HW231422   6.480   4.458   1.108
10175SOL     OW31423   5.562   2.531   5.464
10175SOL    HW131424   5.643   2.513   5.407
10175SOL    HW231425   5.509   2.605   5.424
10176SOL     OW31426   2.142   3.288   0.502
10176SOL    HW131427   2.215   3.356   0.491
10176SOL    HW231428   2.091   3.307   0.585
10177SOL     OW31429   1.935   0.110   5.317
10177SOL    HW131430   2.028   0.142   5.333
10177SOL    HW231431   1.884   0.179   5.267
10178SOL     OW31432   5.473   2.878   4.786
10178SOL    HW131433   5.489   2.976   4.799
10178SOL    HW231434   5.522   2.848   4.704
10179SOL     OW31435   0.113   3.227   0.031
10179SOL    HW131436   0.177   3.266   0.097
10179SOL    HW231437   0.020   3.241   0.063
10180SOL     OW31438   1.936   6.668   6.123
10180SOL    HW131439   1.875   6.591   6.137
10180SOL    HW231440   1.885   6.744   6.083
10181SOL     OW31441   6.202   3.690   2.442
10181SOL    HW131442   6.114   3.643   2.432
10181SOL    HW231443   6.238   3.712   2.351
10182SOL     OW31444   4.276   1.352   0.768
10182SOL    HW131445   4.292   1.422   0.837
10182SOL    HW231446   4.333   1.370   0.688
10183SOL     OW31447   1.896   1.423   6.349
10183SOL    HW131448   1.903   1.372   6.264
10183SOL    HW231449   1.801   1.421   6.381
10184SOL     OW31450   4.729   0.642   0.020
10184SOL    HW131451   4.709   0.670   6.949
10184SOL    HW231452   4.775   0.553   0.019
10185SOL     OW31453   4.411   1.144   0.266
10185SOL    HW131454   4.482   1.083   0.302
10185SOL    HW231455   4.337   1.152   0.332
10186SOL     OW31456   4.873   2.313   2.957
10186SOL    HW131457   4.879   2.384   2.887
10186SOL    HW231458   4.807   2.243   2.929
10187SOL     OW31459   0.971   2.376   2.452
10187SOL    HW131460   0.942   2.359   2.546
10187SOL    HW231461   1.021   2.462   2.447
10188SOL     OW31462   4.129   5.399   0.247
10188SOL    HW131463   4.081   5.311   0.253
10188SOL    HW231464   4.062   5.473   0.242
10189SOL     OW31465   1.285   6.833   5.200
10189SOL    HW131466   1.323   6.845   5.292
10189SOL    HW231467   1.327   6.899   5.138
10190SOL     OW31468   5.408   2.622   6.925
10190SOL    HW131469   5.429   2.556   6.853
10190SOL    HW231470   5.436   2.585   7.013
10191SOL     OW31471   0.018   4.444   6.495
10191SOL    HW131472   0.031   4.499   6.577
10191SOL    HW231473   6.959   4.476   6.446
10192SOL     OW31474   3.366   1.757   0.107
10192SOL    HW131475   3.336   1.667   0.137
10192SOL    HW231476   3.466   1.758   0.102
10193SOL     OW31477   4.652   4.312   0.476
10193SOL    HW131478   4.616   4.396   0.517
10193SOL    HW231479   4.694   4.255   0.547
10194SOL     OW31480   4.979   2.765   4.829
10194SOL    HW131481   4.937   2.692   4.884
10194SOL    HW231482   5.078   2.765   4.844
10195SOL     OW31483   5.650   4.321   2.108
10195SOL    HW131484   5.588   4.249   2.076
10195SOL    HW231485   5.703   4.288   2.186
10196SOL     OW31486   0.295   2.181   4.109
10196SOL    HW131487   0.313   2.095   4.061
10196SOL    HW231488   0.268   2.251   4.043
10197SOL     OW31489   5.702   0.332   0.008
10197SOL    HW131490   5.648   0.400   6.979
10197SOL    HW231491   5.675   0.333   0.104
10198SOL     OW31492   4.307   0.021   3.302
10198SOL    HW131493   4.361   6.996   3.233
10198SOL    HW231494   4.360   0.095   3.342
10199SOL     OW31495   0.785   2.111   5.577
10199SOL    HW131496   0.792   2.065   5.488
10199SOL    HW231497   0.746   2.048   5.644
10200SOL     OW31498   5.180   2.322   2.021
10200SOL    HW131499   5.235   2.246   1.986
10200SOL    HW231500   5.085   2.294   2.028
10201SOL     OW31501   1.647   3.772   0.760
10201SOL    HW131502   1.706   3.845   0.724
10201SOL    HW231503   1.622   3.794   0.854
10202SOL     OW31504   5.060   0.517   3.838
10202SOL    HW131505   5.021   0.541   3.749
10202SOL    HW231506   5.094   0.423   3.835
10203SOL     OW31507   0.082   2.724   4.890
10203SOL    HW131508   0.166   2.768   4.857
10203SOL    HW231509   0.105   2.633   4.926
10204SOL     OW31510   5.716   4.509   6.409
10204SOL    HW131511   5.638   4.446   6.418
10204SOL    HW231512   5.699   4.571   6.332
10205SOL     OW31513   0.280   1.531   6.595
10205SOL    HW131514   0.364   1.509   6.546
10205SOL    HW231515   0.223   1.590   6.538
10206SOL     OW31516   1.571   1.749   4.696
10206SOL    HW131517   1.505   1.682   4.660
10206SOL    HW231518   1.663   1.713   4.689
10207SOL     OW31519   2.431   2.502   5.753
10207SOL    HW131520   2.342   2.457   5.768
10207SOL    HW231521   2.499   2.433   5.727
10208SOL     OW31522   6.780   6.929   5.799
10208SOL    HW131523   6.705   6.868   5.773
10208SOL    HW231524   6.820   6.898   5.885
10209SOL     OW31525   6.903   6.517   5.524
10209SOL    HW131526   6.987   6.565   5.549
10209SOL    HW231527   6.858   6.482   5.606
10210SOL     OW31528   3.920   0.689   1.690
10210SOL    HW131529   3.858   0.658   1.762
10210SOL    HW231530   3.989   0.750   1.730
10211SOL     OW31531   5.045   5.267   6.268
10211SOL    HW131532   5.027   5.169   6.273
10211SOL    HW231533   4.965   5.317   6.300
10212SOL     OW31534   0.445   0.670   6.782
10212SOL    HW131535   0.385   0.746   6.758
10212SOL    HW231536   0.428   0.643   6.876
10213SOL     OW31537   6.944   3.003   1.314
10213SOL    HW131538   6.919   3.072   1.246
10213SOL    HW231539   0.022   2.998   1.320
10214SOL     OW31540   1.349   2.804   0.009
10214SOL    HW131541   1.371   2.901   0.018
10214SOL    HW231542   1.385   2.754   0.089
10215SOL     OW31543   3.556   4.067   2.493
10215SOL    HW131544   3.571   3.973   2.463
10215SOL    HW231545   3.585   4.077   2.588
10216SOL     OW31546   0.191   6.527   1.969
10216SOL    HW131547   0.242   6.606   1.936
10216SOL    HW231548   0.100   6.557   2.000
10217SOL     OW31549   4.380   1.580   4.955
10217SOL    HW131550   4.350   1.675   4.952
10217SOL    HW231551   4.339   1.534   5.034
10218SOL     OW31552   1.132   2.827   2.810
10218SOL    HW131553   1.182   2.883   2.744
10218SOL    HW231554   1.073   2.762   2.761
10219SOL     OW31555   6.640   6.505   2.581
10219SOL    HW131556   6.582   6.432   2.547
10219SOL    HW231557   6.584   6.582   2.611
10220SOL     OW31558   3.475   3.447   7.011
10220SOL    HW131559   3.421   3.528   6.986
10220SOL    HW231560   3.495   3.449   0.086
10221SOL     OW31561   1.252   5.400   3.127
10221SOL    HW131562   1.250   5.372   3.223
10221SOL    HW231563   1.161   5.385   3.086
10222SOL     OW31564   3.095   3.956   3.739
10222SOL    HW131565   3.123   3.989   3.648
10222SOL    HW231566   3.001   3.922   3.734
10223SOL     OW31567   2.529   6.824   0.749
10223SOL    HW131568   2.447   6.795   0.699
10223SOL    HW231569   2.543   6.764   0.828
10224SOL     OW31570   6.907   3.333   2.914
10224SOL    HW131571   6.912   3.411   2.976
10224SOL    HW231572   6.993   3.283   2.916
10225SOL     OW31573   1.744   3.783   5.875
10225SOL    HW131574   1.745   3.861   5.813
10225SOL    HW231575   1.718   3.814   5.966
10226SOL     OW31576   4.640   4.372   7.013
10226SOL    HW131577   4.701   4.443   0.023
10226SOL    HW231578   4.559   4.368   0.049
10227SOL     OW31579   5.290   4.078   1.170
10227SOL    HW131580   5.350   4.158   1.174
10227SOL    HW231581   5.210   4.093   1.228
10228SOL     OW31582   5.456   0.430   0.468
10228SOL    HW131583   5.383   0.367   0.440
10228SOL    HW231584   5.449   0.447   0.566
10229SOL     OW31585   0.523   1.926   4.716
10229SOL    HW131586   0.429   1.903   4.740
10229SOL    HW231587   0.555   1.999   4.775
10230SOL     OW31588   6.737   5.964   1.664
10230SOL    HW131589   6.734   5.881   1.607
10230SOL    HW231590   6.675   6.032   1.627
10231SOL     OW31591   0.328   3.954   2.048
10231SOL    HW131592   0.300   4.011   2.126
10231SOL    HW231593   0.426   3.967   2.032
10232SOL     OW31594   4.576   4.800   2.398
10232SOL    HW131595   4.645   4.766   2.462
10232SOL    HW231596   4.506   4.730   2.385
10233SOL     OW31597   3.013   4.012   5.849
10233SOL    HW131598   3.057   4.074   5.783
10233SOL    HW231599   2.915   4.031   5.851
10234SOL     OW31600   0.387   0.675   2.222
10234SOL    HW131601   0.335   0.597   2.187
10234SOL    HW231602   0.401   0.665   2.320
10235SOL     OW31603   1.074   1.186   3.082
10235SOL    HW131604   1.171   1.211   3.074
10235SOL    HW231605   1.056   1.106   3.027
10236SOL     OW31606   0.571   0.715   2.838
10236SOL    HW131607   0.556   0.619   2.814
10236SOL    HW231608   0.497   0.771   2.799
10237SOL     OW31609   6.873   3.662   5.594
10237SOL    HW131610   6.933   3.656   5.514
10237SOL    HW231611   6.795   3.720   5.573
10238SOL     OW31612   2.835   6.697   1.039
10238SOL    HW131613   2.864   6.789   1.012
10238SOL    HW231614   2.911   6.651   1.085
10239SOL     OW31615   1.092   2.481   4.920
10239SOL    HW131616   1.116   2.479   5.017
10239SOL    HW231617   1.106   2.574   4.884
10240SOL     OW31618   2.178   5.854   1.597
10240SOL    HW131619   2.113   5.928   1.580
10240SOL    HW231620   2.130   5.776   1.639
10241SOL     OW31621   4.186   3.591   1.646
10241SOL    HW131622   4.113   3.536   1.605
10241SOL    HW231623   4.156   3.624   1.736
10242SOL     OW31624   0.293   3.608   1.249
10242SOL    HW131625   0.246   3.693   1.269
10242SOL    HW231626   0.392   3.620   1.262
10243SOL     OW31627   3.526   5.341   2.293
10243SOL    HW131628   3.602   5.281   2.270
10243SOL    HW231629   3.552   5.399   2.370
10244SOL     OW31630   2.348   4.975   1.534
10244SOL    HW131631   2.388   4.883   1.532
10244SOL    HW231632   2.370   5.018   1.622
10245SOL     OW31633   6.034   4.099   1.148
10245SOL    HW131634   6.037   4.042   1.230
10245SOL    HW231635   6.105   4.169   1.153
10246SOL     OW31636   3.745   3.337   3.555
10246SOL    HW131637   3.648   3.350   3.535
10246SOL    HW231638   3.793   3.309   3.472
10247SOL     OW31639   0.756   3.271   4.424
10247SOL    HW131640   0.816   3.313   4.355
10247SOL    HW231641   0.663   3.264   4.387
10248SOL     OW31642   0.276   1.481   4.921
10248SOL    HW131643   0.341   1.464   4.847
10248SOL    HW231644   0.233   1.396   4.949
10249SOL     OW31645   2.668   4.550   5.747
10249SOL    HW131646   2.720   4.614   5.803
10249SOL    HW231647   2.731   4.485   5.705
10250SOL     OW31648   3.130   3.116   0.455
10250SOL    HW131649   3.147   3.107   0.356
10250SOL    HW231650   3.133   3.212   0.481
10251SOL     OW31651   0.949   0.735   4.582
10251SOL    HW131652   1.021   0.743   4.651
10251SOL    HW231653   0.905   0.646   4.591
10252SOL     OW31654   5.034   4.576   5.887
10252SOL    HW131655   5.063   4.495   5.937
10252SOL    HW231656   5.050   4.562   5.789
10253SOL     OW31657   3.792   5.689   6.852
10253SOL    HW131658   3.794   5.603   6.802
10253SOL    HW231659   3.778   5.671   6.950
10254SOL     OW31660   6.372   1.202   6.238
10254SOL    HW131661   6.409   1.260   6.166
10254SOL    HW231662   6.417   1.113   6.236
10255SOL     OW31663   3.925   4.479   1.667
10255SOL    HW131664   3.960   4.573   1.663
10255SOL    HW231665   3.998   4.415   1.642
10256SOL     OW31666   2.952   1.375   4.461
10256SOL    HW131667   3.040   1.421   4.464
10256SOL    HW231668   2.915   1.380   4.368
10257SOL     OW31669   3.424   5.751   2.979
10257SOL    HW131670   3.441   5.824   2.912
10257SOL    HW231671   3.329   5.755   3.009
10258SOL     OW31672   2.888   1.712   2.333
10258SOL    HW131673   2.931   1.683   2.418
10258SOL    HW231674   2.934   1.794   2.298
10259SOL     OW31675   1.486   4.121   3.945
10259SOL    HW131676   1.527   4.031   3.961
10259SOL    HW231677   1.512   4.183   4.018
10260SOL     OW31678   0.703   0.395   3.406
10260SOL    HW131679   0.622   0.361   3.359
10260SOL    HW231680   0.704   0.361   3.500
10261SOL     OW31681   0.214   3.949   1.198
10261SOL    HW131682   0.191   3.916   1.106
10261SOL    HW231683   0.150   3.910   1.265
10262SOL     OW31684   3.740   0.921   0.166
10262SOL    HW131685   3.746   0.835   0.217
10262SOL    HW231686   3.645   0.950   0.161
10263SOL     OW31687   5.555   0.092   2.950
10263SOL    HW131688   5.580   0.003   2.989
10263SOL    HW231689   5.554   0.086   2.850
10264SOL     OW31690   6.662   0.327   6.176
10264SOL    HW131691   6.607   0.361   6.252
10264SOL    HW231692   6.727   0.397   6.148
10265SOL     OW31693   2.175   1.300   2.210
10265SOL    HW131694   2.202   1.348   2.294
10265SOL    HW231695   2.240   1.321   2.138
10266SOL     OW31696   2.612   3.808   1.375
10266SOL    HW131697   2.699   3.820   1.422
10266SOL    HW231698   2.569   3.723   1.405
10267SOL     OW31699   6.695   0.369   0.911
10267SOL    HW131700   6.604   0.391   0.874
10267SOL    HW231701   6.685   0.299   0.982
10268SOL     OW31702   3.098   5.517   2.442
10268SOL    HW131703   3.184   5.568   2.442
10268SOL    HW231704   3.108   5.436   2.384
10269SOL     OW31705   2.136   1.461   0.119
10269SOL    HW131706   2.165   1.555   0.133
10269SOL    HW231707   2.178   1.402   0.189
10270SOL     OW31708   2.763   0.419   4.302
10270SOL    HW131709   2.862   0.418   4.287
10270SOL    HW231710   2.735   0.334   4.346
10271SOL     OW31711   2.183   1.095   0.014
10271SOL    HW131712   2.113   1.056   0.073
10271SOL    HW231713   2.261   1.123   0.069
10272SOL     OW31714   5.726   6.464   4.905
10272SOL    HW131715   5.641   6.431   4.945
10272SOL    HW231716   5.803   6.423   4.953
10273SOL     OW31717   1.888   5.538   3.112
10273SOL    HW131718   1.894   5.439   3.126
10273SOL    HW231719   1.981   5.575   3.101
10274SOL     OW31720   0.811   3.808   5.189
10274SOL    HW131721   0.748   3.733   5.206
10274SOL    HW231722   0.791   3.850   5.101
10275SOL     OW31723   6.992   1.152   2.211
10275SOL    HW131724   0.002   1.136   2.304
10275SOL    HW231725   6.999   1.250   2.190
10276SOL     OW31726   3.274   5.159   5.439
10276SOL    HW131727   3.206   5.222   5.476
10276SOL    HW231728   3.264   5.153   5.339
10277SOL     OW31729   0.929   5.315   3.514
10277SOL    HW131730   0.972   5.262   3.587
10277SOL    HW231731   0.995   5.381   3.478
10278SOL     OW31732   6.380   0.129   4.671
10278SOL    HW131733   6.459   0.147   4.730
10278SOL    HW231734   6.396   0.169   4.581
10279SOL     OW31735   1.154   4.650   4.157
10279SOL    HW131736   1.114   4.604   4.078
10279SOL    HW231737   1.142   4.749   4.147
10280SOL     OW31738   5.992   5.386   0.692
10280SOL    HW131739   5.990   5.396   0.791
10280SOL    HW231740   5.951   5.467   0.650
10281SOL     OW31741   6.145   0.326   4.697
10281SOL    HW131742   6.213   0.256   4.715
10281SOL    HW231743   6.090   0.300   4.618
10282SOL     OW31744   4.666   2.587   3.148
10282SOL    HW131745   4.694   2.507   3.201
10282SOL    HW231746   4.632   2.658   3.210
10283SOL     OW31747   0.252   2.228   0.850
10283SOL    HW131748   0.224   2.229   0.946
10283SOL    HW231749   0.325   2.161   0.837
10284SOL     OW31750   0.603   4.946   4.870
10284SOL    HW131751   0.561   5.018   4.814
10284SOL    HW231752   0.685   4.912   4.824
10285SOL     OW31753   0.021   6.673   6.560
10285SOL    HW131754   7.013   6.589   6.606
10285SOL    HW231755   0.100   6.710   6.608
10286SOL     OW31756   2.951   1.003   2.463
10286SOL    HW131757   2.990   1.027   2.373
10286SOL    HW231758   2.986   0.914   2.491
10287SOL     OW31759   0.502   5.995   2.651
10287SOL    HW131760   0.479   5.958   2.560
10287SOL    HW231761   0.432   5.966   2.717
10288SOL     OW31762   3.860   5.790   3.980
10288SOL    HW131763   3.894   5.882   3.998
10288SOL    HW231764   3.834   5.783   3.884
10289SOL     OW31765   4.044   6.030   7.016
10289SOL    HW131766   4.137   6.055   0.018
10289SOL    HW231767   4.037   5.931   7.003
10290SOL     OW31768   3.201   3.512   2.491
10290SOL    HW131769   3.157   3.601   2.503
10290SOL    HW231770   3.236   3.504   2.398
10291SOL     OW31771   2.956   2.015   2.406
10291SOL    HW131772   3.032   2.024   2.471
10291SOL    HW231773   2.992   2.005   2.314
10292SOL     OW31774   0.153   0.162   5.861
10292SOL    HW131775   0.146   0.066   5.890
10292SOL    HW231776   0.248   0.191   5.866
10293SOL     OW31777   1.173   3.388   5.093
10293SOL    HW131778   1.118   3.428   5.020
10293SOL    HW231779   1.114   3.366   5.171
10294SOL     OW31780   1.738   6.704   1.882
10294SOL    HW131781   1.717   6.801   1.872
10294SOL    HW231782   1.657   6.650   1.860
10295SOL     OW31783   1.657   1.219   0.845
10295SOL    HW131784   1.744   1.171   0.854
10295SOL    HW231785   1.659   1.276   0.762
10296SOL     OW31786   6.309   2.333   5.409
10296SOL    HW131787   6.303   2.317   5.310
10296SOL    HW231788   6.305   2.431   5.427
10297SOL     OW31789   4.844   0.777   1.030
10297SOL    HW131790   4.749   0.791   1.002
10297SOL    HW231791   4.879   0.860   1.075
10298SOL     OW31792   1.207   1.816   1.634
10298SOL    HW131793   1.149   1.895   1.613
10298SOL    HW231794   1.151   1.741   1.668
10299SOL     OW31795   4.990   0.076   2.432
10299SOL    HW131796   4.892   0.090   2.444
10299SOL    HW231797   5.011   7.001   2.434
10300SOL     OW31798   1.465   3.066   0.784
10300SOL    HW131799   1.394   2.996   0.795
10300SOL    HW231800   1.425   3.157   0.797
10301SOL     OW31801   4.093   1.113   0.230
10301SOL    HW131802   4.123   1.098   0.324
10301SOL    HW231803   4.161   1.169   0.182
10302SOL     OW31804   3.264   6.295   5.736
10302SOL    HW131805   3.219   6.356   5.671
10302SOL    HW231806   3.259   6.334   5.828
10303SOL     OW31807   0.629   4.333   4.666
10303SOL    HW131808   0.592   4.336   4.573
10303SOL    HW231809   0.559   4.362   4.731
10304SOL     OW31810   5.235   6.188   1.489
10304SOL    HW131811   5.207   6.230   1.402
10304SOL    HW231812   5.326   6.149   1.478
10305SOL     OW31813   2.777   3.645   5.287
10305SOL    HW131814   2.844   3.711   5.321
10305SOL    HW231815   2.814   3.600   5.206
10306SOL     OW31816   4.238   0.908   0.944
10306SOL    HW131817   4.218   0.992   0.995
10306SOL    HW231818   4.302   0.929   0.870
10307SOL     OW31819   1.955   0.260   5.032
10307SOL    HW131820   1.916   0.169   5.026
10307SOL    HW231821   1.946   0.307   4.945
10308SOL     OW31822   2.757   4.502   1.622
10308SOL    HW131823   2.674   4.550   1.652
10308SOL    HW231824   2.811   4.477   1.702
10309SOL     OW31825   0.135   1.160   5.380
10309SOL    HW131826   0.180   1.115   5.303
10309SOL    HW231827   0.198   1.223   5.424
10310SOL     OW31828   3.345   3.836   6.059
10310SOL    HW131829   3.386   3.871   5.975
10310SOL    HW231830   3.386   3.883   6.138
10311SOL     OW31831   5.754   6.278   6.891
10311SOL    HW131832   5.696   6.270   6.972
10311SOL    HW231833   5.767   6.187   6.850
10312SOL     OW31834   3.036   6.901   2.296
10312SOL    HW131835   2.959   6.965   2.307
10312SOL    HW231836   3.001   6.812   2.269
10313SOL     OW31837   4.935   6.754   3.037
10313SOL    HW131838   4.879   6.705   3.103
10313SOL    HW231839   5.008   6.803   3.084
10314SOL     OW31840   1.050   6.799   0.835
10314SOL    HW131841   1.044   6.822   0.738
10314SOL    HW231842   0.991   6.720   0.854
10315SOL     OW31843   4.933   4.378   3.858
10315SOL    HW131844   4.986   4.398   3.942
10315SOL    HW231845   4.932   4.459   3.800
10316SOL     OW31846   1.010   1.703   0.230
10316SOL    HW131847   0.989   1.781   0.171
10316SOL    HW231848   1.083   1.728   0.294
10317SOL     OW31849   3.962   6.446   4.807
10317SOL    HW131850   3.903   6.435   4.888
10317SOL    HW231851   3.952   6.540   4.772
10318SOL     OW31852   6.278   0.020   0.395
10318SOL    HW131853   6.359   6.984   0.385
10318SOL    HW231854   6.197   6.992   0.368
10319SOL     OW31855   0.906   4.359   4.026
10319SOL    HW131856   0.838   4.340   3.955
10319SOL    HW231857   0.943   4.451   4.013
10320SOL     OW31858   6.368   0.292   2.656
10320SOL    HW131859   6.302   0.272   2.728
10320SOL    HW231860   6.341   0.376   2.609
10321SOL     OW31861   5.925   2.360   3.087
10321SOL    HW131862   5.830   2.365   3.117
10321SOL    HW231863   5.974   2.291   3.142
10322SOL     OW31864   4.643   4.346   4.879
10322SOL    HW131865   4.680   4.257   4.906
10322SOL    HW231866   4.547   4.352   4.906
10323SOL     OW31867   1.448   4.413   5.942
10323SOL    HW131868   1.470   4.510   5.952
10323SOL    HW231869   1.468   4.384   5.848
10324SOL     OW31870   2.914   3.587   3.126
10324SOL    HW131871   2.919   3.675   3.080
10324SOL    HW231872   2.934   3.514   3.061
10325SOL     OW31873   5.501   5.984   4.699
10325SOL    HW131874   5.403   5.965   4.686
10325SOL    HW231875   5.517   6.082   4.692
10326SOL     OW31876   5.715   3.171   0.190
10326SOL    HW131877   5.631   3.224   0.176
10326SOL    HW231878   5.692   3.074   0.194
10327SOL     OW31879   1.653   5.655   6.737
10327SOL    HW131880   1.744   5.684   6.767
10327SOL    HW231881   1.659   5.615   6.645
10328SOL     OW31882   5.557   2.555   2.403
10328SOL    HW131883   5.571   2.502   2.319
10328SOL    HW231884   5.506   2.500   2.469
10329SOL     OW31885   3.447   1.945   1.783
10329SOL    HW131886   3.353   1.959   1.752
10329SOL    HW231887   3.482   1.860   1.744
10330SOL     OW31888   5.287   6.843   1.924
10330SOL    HW131889   5.229   6.925   1.928
10330SOL    HW231890   5.368   6.862   1.870
10331SOL     OW31891   5.097   5.392   5.852
10331SOL    HW131892   5.048   5.458   5.795
10331SOL    HW231893   5.155   5.440   5.918
10332SOL     OW31894   1.919   1.717   6.288
10332SOL    HW131895   1.989   1.762   6.343
10332SOL    HW231896   1.922   1.618   6.306
10333SOL     OW31897   1.471   3.799   4.533
10333SOL    HW131898   1.437   3.761   4.619
10333SOL    HW231899   1.554   3.853   4.551
10334SOL     OW31900   3.181   1.383   4.232
10334SOL    HW131901   3.232   1.365   4.147
10334SOL    HW231902   3.095   1.332   4.230
10335SOL     OW31903   1.987   2.947   4.641
10335SOL    HW131904   2.075   2.986   4.669
10335SOL    HW231905   1.916   3.016   4.650
10336SOL     OW31906   5.664   6.687   3.694
10336SOL    HW131907   5.747   6.634   3.712
10336SOL    HW231908   5.603   6.681   3.773
10337SOL     OW31909   6.200   6.171   0.151
10337SOL    HW131910   6.234   6.183   0.058
10337SOL    HW231911   6.276   6.174   0.216
10338SOL     OW31912   1.140   6.522   2.106
10338SOL    HW131913   1.144   6.492   2.011
10338SOL    HW231914   1.051   6.564   2.125
10339SOL     OW31915   5.378   2.667   5.655
10339SOL    HW131916   5.316   2.704   5.586
10339SOL    HW231917   5.430   2.591   5.617
10340SOL     OW31918   2.281   3.994   6.438
10340SOL    HW131919   2.186   4.026   6.435
10340SOL    HW231920   2.328   4.022   6.354
10341SOL     OW31921   2.710   4.686   3.253
10341SOL    HW131922   2.665   4.771   3.225
10341SOL    HW231923   2.641   4.615   3.269
10342SOL     OW31924   0.700   1.066   3.820
10342SOL    HW131925   0.606   1.083   3.790
10342SOL    HW231926   0.738   0.990   3.768
10343SOL     OW31927   3.811   5.165   1.975
10343SOL    HW131928   3.837   5.080   1.929
10343SOL    HW231929   3.893   5.219   1.995
10344SOL     OW31930   4.921   6.952   6.438
10344SOL    HW131931   4.828   6.968   6.405
10344SOL    HW231932   4.944   6.855   6.429
10345SOL     OW31933   1.270   3.892   4.732
10345SOL    HW131934   1.276   3.939   4.643
10345SOL    HW231935   1.178   3.854   4.743
10346SOL     OW31936   0.440   5.985   0.181
10346SOL    HW131937   0.341   5.971   0.188
10346SOL    HW231938   0.475   6.014   0.270
10347SOL     OW31939   5.878   2.006   4.997
10347SOL    HW131940   5.886   2.104   5.017
10347SOL    HW231941   5.934   1.954   5.062
10348SOL     OW31942   0.437   5.066   1.143
10348SOL    HW131943   0.347   5.037   1.175
10348SOL    HW231944   0.427   5.149   1.087
10349SOL     OW31945   6.880   6.449   6.693
10349SOL    HW131946   6.867   6.401   6.606
10349SOL    HW231947   6.800   6.506   6.711
10350SOL     OW31948   3.774   0.509   6.101
10350SOL    HW131949   3.813   0.544   6.015
10350SOL    HW231950   3.801   0.414   6.113
10351SOL     OW31951   4.472   5.678   5.986
10351SOL    HW131952   4.452   5.770   6.021
10351SOL    HW231953   4.559   5.679   5.937
10352SOL     OW31954   4.411   4.796   6.496
10352SOL    HW131955   4.336   4.807   6.431
10352SOL    HW231956   4.450   4.885   6.519
10353SOL     OW31957   0.585   3.281   5.162
10353SOL    HW131958   0.587   3.185   5.134
10353SOL    HW231959   0.549   3.336   5.087
10354SOL     OW31960   5.366   1.829   0.839
10354SOL    HW131961   5.457   1.868   0.827
10354SOL    HW231962   5.335   1.846   0.933
10355SOL     OW31963   1.192   4.132   3.128
10355SOL    HW131964   1.176   4.127   3.029
10355SOL    HW231965   1.237   4.218   3.150
10356SOL     OW31966   0.472   2.448   5.091
10356SOL    HW131967   0.525   2.430   5.008
10356SOL    HW231968   0.509   2.529   5.137
10357SOL     OW31969   2.981   3.153   6.075
10357SOL    HW131970   2.952   3.245   6.051
10357SOL    HW231971   2.952   3.132   6.169
10358SOL     OW31972   0.222   0.783   2.513
10358SOL    HW131973   0.225   0.844   2.434
10358SOL    HW231974   0.262   0.694   2.488
10359SOL     OW31975   0.698   1.336   0.959
10359SOL    HW131976   0.635   1.260   0.974
10359SOL    HW231977   0.766   1.338   1.032
10360SOL     OW31978   0.083   4.811   3.669
10360SOL    HW131979   0.016   4.737   3.668
10360SOL    HW231980   0.049   4.885   3.727
10361SOL     OW31981   2.436   5.245   0.677
10361SOL    HW131982   2.464   5.337   0.706
10361SOL    HW231983   2.413   5.190   0.757
10362SOL     OW31984   1.093   4.613   5.104
10362SOL    HW131985   1.093   4.622   5.203
10362SOL    HW231986   1.133   4.525   5.078
10363SOL     OW31987   5.540   6.979   4.177
10363SOL    HW131988   5.566   7.004   4.083
10363SOL    HW231989   5.441   6.977   4.185
10364SOL     OW31990   1.184   4.380   1.086
10364SOL    HW131991   1.231   4.464   1.058
10364SOL    HW231992   1.129   4.399   1.168
10365SOL     OW31993   5.335   5.196   0.014
10365SOL    HW131994   5.339   5.096   0.015
10365SOL    HW231995   5.321   5.227   6.942
10366SOL     OW31996   4.111   6.607   4.247
10366SOL    HW131997   4.035   6.672   4.249
10366SOL    HW231998   4.163   6.618   4.163
10367SOL     OW31999   6.528   1.249   2.989
10367SOL    HW132000   6.519   1.150   2.978
10367SOL    HW232001   6.444   1.286   3.030
10368SOL     OW32002   2.240   0.158   1.140
10368SOL    HW132003   2.163   0.221   1.144
10368SOL    HW232004   2.216   0.074   1.188
10369SOL     OW32005   4.274   2.681   6.414
10369SOL    HW132006   4.345   2.719   6.354
10369SOL    HW232007   4.195   2.743   6.416
10370SOL     OW32008   3.233   0.781   5.662
10370SOL    HW132009   3.237   0.781   5.562
10370SOL    HW232010   3.322   0.806   5.699
10371SOL     OW32011   4.625   6.771   5.515
10371SOL    HW132012   4.566   6.816   5.448
10371SOL    HW232013   4.721   6.785   5.490
10372SOL     OW32014   0.566   0.750   3.564
10372SOL    HW132015   0.467   0.743   3.547
10372SOL    HW232016   0.599   0.840   3.537
10373SOL     OW32017   1.452   5.966   5.073
10373SOL    HW132018   1.510   5.929   5.001
10373SOL    HW232019   1.431   5.893   5.139
10374SOL     OW32020   3.415   1.590   3.425
10374SOL    HW132021   3.343   1.575   3.493
10374SOL    HW232022   3.503   1.604   3.472
10375SOL     OW32023   0.009   2.096   1.251
10375SOL    HW132024   0.046   2.003   1.243
10375SOL    HW232025   6.950   2.093   1.309
10376SOL     OW32026   5.937   0.307   3.952
10376SOL    HW132027   5.944   0.400   3.916
10376SOL    HW232028   5.923   0.243   3.876
10377SOL     OW32029   0.012   6.350   3.516
10377SOL    HW132030   0.111   6.348   3.522
10377SOL    HW232031   7.005   6.319   3.426
10378SOL     OW32032   6.176   6.371   5.529
10378SOL    HW132033   6.264   6.346   5.569
10378SOL    HW232034   6.189   6.451   5.469
10379SOL     OW32035   4.282   1.479   3.740
10379SOL    HW132036   4.236   1.529   3.813
10379SOL    HW232037   4.362   1.431   3.777
10380SOL     OW32038   3.312   0.453   4.149
10380SOL    HW132039   3.319   0.471   4.051
10380SOL    HW232040   3.374   0.515   4.199
10381SOL     OW32041   3.650   5.394   4.640
10381SOL    HW132042   3.643   5.419   4.737
10381SOL    HW232043   3.590   5.316   4.621
10382SOL     OW32044   0.186   5.574   1.353
10382SOL    HW132045   0.257   5.625   1.402
10382SOL    HW232046   0.230   5.507   1.292
10383SOL     OW32047   5.595   3.285   1.078
10383SOL    HW132048   5.686   3.298   1.118
10383SOL    HW232049   5.579   3.187   1.062
10384SOL     OW32050   5.835   0.940   6.802
10384SOL    HW132051   5.771   0.923   6.727
10384SOL    HW232052   5.799   0.902   6.887
10385SOL     OW32053   0.255   2.949   6.830
10385SOL    HW132054   0.286   2.859   6.800
10385SOL    HW232055   0.223   2.944   6.925
10386SOL     OW32056   0.143   2.052   5.957
10386SOL    HW132057   0.048   2.059   5.927
10386SOL    HW232058   0.184   1.969   5.920
10387SOL     OW32059   1.816   3.780   3.051
10387SOL    HW132060   1.859   3.691   3.055
10387SOL    HW232061   1.736   3.777   2.991
10388SOL     OW32062   1.561   4.654   2.399
10388SOL    HW132063   1.573   4.717   2.476
10388SOL    HW232064   1.517   4.702   2.323
10389SOL     OW32065   1.205   5.609   3.462
10389SOL    HW132066   1.127   5.669   3.478
10389SOL    HW232067   1.278   5.632   3.526
10390SOL     OW32068   2.094   3.341   3.265
10390SOL    HW132069   2.131   3.253   3.235
10390SOL    HW232070   2.042   3.328   3.349
10391SOL     OW32071   3.827   5.803   4.266
10391SOL    HW132072   3.822   5.796   4.167
10391SOL    HW232073   3.878   5.885   4.292
10392SOL     OW32074   6.606   5.539   6.180
10392SOL    HW132075   6.589   5.569   6.274
10392SOL    HW232076   6.682   5.474   6.178
10393SOL     OW32077   0.618   1.571   4.514
10393SOL    HW132078   0.693   1.530   4.462
10393SOL    HW232079   0.655   1.616   4.596
10394SOL     OW32080   2.815   0.470   0.995
10394SOL    HW132081   2.857   0.392   0.947
10394SOL    HW232082   2.719   0.478   0.968
10395SOL     OW32083   1.587   0.650   4.110
10395SOL    HW132084   1.649   0.623   4.036
10395SOL    HW232085   1.493   0.650   4.078
10396SOL     OW32086   0.208   0.258   4.947
10396SOL    HW132087   0.119   0.218   4.925
10396SOL    HW232088   0.195   0.352   4.979
10397SOL     OW32089   4.311   2.273   2.310
10397SOL    HW132090   4.347   2.180   2.315
10397SOL    HW232091   4.240   2.278   2.239
10398SOL     OW32092   6.843   2.907   2.173
10398SOL    HW132093   6.821   2.825   2.225
10398SOL    HW232094   6.940   2.927   2.182
10399SOL     OW32095   6.765   3.149   5.946
10399SOL    HW132096   6.793   3.243   5.930
10399SOL    HW232097   6.731   3.109   5.860
10400SOL     OW32098   1.927   5.174   2.583
10400SOL    HW132099   1.925   5.174   2.483
10400SOL    HW232100   2.020   5.191   2.615
10401SOL     OW32101   1.427   5.616   1.358
10401SOL    HW132102   1.342   5.590   1.313
10401SOL    HW232103   1.431   5.716   1.366
10402SOL     OW32104   1.312   2.034   4.696
10402SOL    HW132105   1.330   2.042   4.598
10402SOL    HW232106   1.292   1.939   4.718
10403SOL     OW32107   5.374   1.300   3.203
10403SOL    HW132108   5.404   1.314   3.297
10403SOL    HW232109   5.276   1.279   3.202
10404SOL     OW32110   6.196   0.406   4.345
10404SOL    HW132111   6.129   0.335   4.362
10404SOL    HW232112   6.174   0.488   4.398
10405SOL     OW32113   3.230   6.913   6.521
10405SOL    HW132114   3.294   6.926   6.446
10405SOL    HW232115   3.270   6.949   6.605
10406SOL     OW32116   1.123   6.358   5.147
10406SOL    HW132117   1.047   6.358   5.213
10406SOL    HW232118   1.146   6.452   5.121
10407SOL     OW32119   3.260   0.989   6.643
10407SOL    HW132120   3.289   0.897   6.620
10407SOL    HW232121   3.330   1.055   6.615
10408SOL     OW32122   3.385   0.075   2.952
10408SOL    HW132123   3.291   0.101   2.930
10408SOL    HW232124   3.392   0.055   3.050
10409SOL     OW32125   0.136   5.046   2.211
10409SOL    HW132126   0.216   5.106   2.211
10409SOL    HW232127   0.063   5.087   2.266
10410SOL     OW32128   5.384   5.724   0.877
10410SOL    HW132129   5.301   5.688   0.833
10410SOL    HW232130   5.382   5.703   0.974
10411SOL     OW32131   2.546   4.945   2.085
10411SOL    HW132132   2.613   5.004   2.131
10411SOL    HW232133   2.586   4.909   2.001
10412SOL     OW32134   0.587   3.408   6.380
10412SOL    HW132135   0.491   3.382   6.388
10412SOL    HW232136   0.640   3.331   6.344
10413SOL     OW32137   6.594   1.174   4.335
10413SOL    HW132138   6.552   1.264   4.330
10413SOL    HW232139   6.676   1.179   4.392
10414SOL     OW32140   5.764   6.306   5.386
10414SOL    HW132141   5.852   6.262   5.404
10414SOL    HW232142   5.738   6.360   5.466
10415SOL     OW32143   0.162   4.750   3.424
10415SOL    HW132144   0.136   4.798   3.508
10415SOL    HW232145   0.080   4.710   3.382
10416SOL     OW32146   5.080   0.734   0.451
10416SOL    HW132147   5.174   0.732   0.487
10416SOL    HW232148   5.021   0.681   0.511
10417SOL     OW32149   4.829   4.566   4.703
10417SOL    HW132150   4.778   4.560   4.617
10417SOL    HW232151   4.924   4.537   4.688
10418SOL     OW32152   6.202   3.276   0.538
10418SOL    HW132153   6.185   3.369   0.569
10418SOL    HW232154   6.299   3.265   0.516
10419SOL     OW32155   1.192   6.985   4.874
10419SOL    HW132156   1.117   6.971   4.939
10419SOL    HW232157   1.243   0.044   4.901
10420SOL     OW32158   6.522   4.179   3.995
10420SOL    HW132159   6.444   4.204   3.937
10420SOL    HW232160   6.489   4.163   4.088
10421SOL     OW32161   0.221   3.642   4.423
10421SOL    HW132162   0.201   3.556   4.376
10421SOL    HW232163   0.152   3.710   4.398
10422SOL     OW32164   5.735   3.081   5.429
10422SOL    HW132165   5.745   3.180   5.428
10422SOL    HW232166   5.824   3.038   5.413
10423SOL     OW32167   2.422   5.609   2.152
10423SOL    HW132168   2.377   5.558   2.226
10423SOL    HW232169   2.506   5.561   2.125
10424SOL     OW32170   4.832   0.828   1.841
10424SOL    HW132171   4.907   0.876   1.889
10424SOL    HW232172   4.745   0.855   1.881
10425SOL     OW32173   0.407   4.265   0.751
10425SOL    HW132174   0.411   4.323   0.670
10425SOL    HW232175   0.312   4.250   0.777
10426SOL     OW32176   6.571   1.945   6.924
10426SOL    HW132177   6.653   2.000   6.942
10426SOL    HW232178   6.500   1.970   6.990
10427SOL     OW32179   5.774   0.410   4.287
10427SOL    HW132180   5.827   0.482   4.242
10427SOL    HW232181   5.751   0.339   4.220
10428SOL     OW32182   1.461   0.630   4.777
10428SOL    HW132183   1.500   0.557   4.834
10428SOL    HW232184   1.535   0.676   4.728
10429SOL     OW32185   2.044   4.730   1.610
10429SOL    HW132186   2.043   4.767   1.703
10429SOL    HW232187   1.982   4.783   1.553
10430SOL     OW32188   3.267   0.957   4.027
10430SOL    HW132189   3.302   0.963   4.120
10430SOL    HW232190   3.186   0.898   4.025
10431SOL     OW32191   4.289   2.328   3.657
10431SOL    HW132192   4.286   2.421   3.693
10431SOL    HW232193   4.232   2.322   3.575
10432SOL     OW32194   0.964   4.620   1.018
10432SOL    HW132195   0.902   4.647   0.945
10432SOL    HW232196   0.946   4.525   1.045
10433SOL     OW32197   3.415   6.365   4.709
10433SOL    HW132198   3.344   6.348   4.778
10433SOL    HW232199   3.419   6.288   4.645
10434SOL     OW32200   4.323   1.930   0.355
10434SOL    HW132201   4.399   1.867   0.337
10434SOL    HW232202   4.236   1.883   0.338
10435SOL     OW32203   2.566   1.572   1.724
10435SOL    HW132204   2.495   1.517   1.681
10435SOL    HW232205   2.552   1.572   1.824
10436SOL     OW32206   1.211   4.062   5.715
10436SOL    HW132207   1.152   4.143   5.715
10436SOL    HW232208   1.168   3.990   5.770
10437SOL     OW32209   6.951   6.941   4.800
10437SOL    HW132210   6.986   6.878   4.730
10437SOL    HW232211   6.859   6.912   4.828
10438SOL     OW32212   0.115   6.037   6.770
10438SOL    HW132213   0.069   6.056   6.684
10438SOL    HW232214   0.171   5.955   6.761
10439SOL     OW32215   5.797   5.381   5.248
10439SOL    HW132216   5.855   5.451   5.207
10439SOL    HW232217   5.822   5.291   5.211
10440SOL     OW32218   6.123   2.602   1.372
10440SOL    HW132219   6.067   2.541   1.317
10440SOL    HW232220   6.197   2.550   1.416
10441SOL     OW32221   5.146   1.509   6.052
10441SOL    HW132222   5.169   1.588   6.109
10441SOL    HW232223   5.144   1.536   5.956
10442SOL     OW32224   2.003   0.737   5.598
10442SOL    HW132225   1.991   0.657   5.657
10442SOL    HW232226   2.082   0.721   5.538
10443SOL     OW32227   0.640   0.955   0.154
10443SOL    HW132228   0.723   0.949   0.099
10443SOL    HW232229   0.568   1.000   0.101
10444SOL     OW32230   4.514   5.499   3.816
10444SOL    HW132231   4.493   5.443   3.737
10444SOL    HW232232   4.469   5.461   3.897
10445SOL     OW32233   1.554   3.628   3.858
10445SOL    HW132234   1.587   3.722   3.861
10445SOL    HW232235   1.515   3.609   3.768
10446SOL     OW32236   2.925   4.826   4.741
10446SOL    HW132237   2.848   4.821   4.678
10446SOL    HW232238   2.922   4.748   4.803
10447SOL     OW32239   1.732   2.148   2.713
10447SOL    HW132240   1.765   2.056   2.730
10447SOL    HW232241   1.726   2.164   2.615
10448SOL     OW32242   0.968   5.012   2.783
10448SOL    HW132243   0.899   5.013   2.711
10448SOL    HW232244   1.059   5.007   2.742
10449SOL     OW32245   3.965   5.113   4.315
10449SOL    HW132246   3.903   5.184   4.347
10449SOL    HW232247   3.962   5.035   4.378
10450SOL     OW32248   0.403   2.291   4.358
10450SOL    HW132249   0.347   2.295   4.275
10450SOL    HW232250   0.414   2.195   4.385
10451SOL     OW32251   1.985   1.526   4.732
10451SOL    HW132252   2.039   1.529   4.647
10451SOL    HW232253   1.901   1.577   4.720
10452SOL     OW32254   6.935   2.401   4.559
10452SOL    HW132255   6.844   2.403   4.599
10452SOL    HW232256   6.928   2.407   4.460
10453SOL     OW32257   3.152   5.741   4.305
10453SOL    HW132258   3.151   5.804   4.227
10453SOL    HW232259   3.199   5.784   4.382
10454SOL     OW32260   6.766   1.399   6.845
10454SOL    HW132261   6.772   1.487   6.797
10454SOL    HW232262   6.814   1.406   6.933
10455SOL     OW32263   0.908   5.677   2.722
10455SOL    HW132264   0.818   5.710   2.749
10455SOL    HW232265   0.977   5.713   2.785
10456SOL     OW32266   1.000   5.480   6.002
10456SOL    HW132267   0.950   5.553   6.048
10456SOL    HW232268   1.098   5.500   6.007
10457SOL     OW32269   4.454   1.494   1.074
10457SOL    HW132270   4.368   1.525   1.035
10457SOL    HW232271   4.447   1.397   1.097
10458SOL     OW32272   1.681   6.850   0.184
10458SOL    HW132273   1.711   6.903   0.263
10458SOL    HW232274   1.597   6.801   0.207
10459SOL     OW32275   4.943   6.227   0.960
10459SOL    HW132276   4.932   6.279   0.875
10459SOL    HW232277   5.010   6.154   0.945
10460SOL     OW32278   6.517   0.970   6.269
10460SOL    HW132279   6.601   0.925   6.241
10460SOL    HW232280   6.448   0.902   6.293
10461SOL     OW32281   6.687   4.025   5.730
10461SOL    HW132282   6.660   4.109   5.778
10461SOL    HW232283   6.786   4.015   5.732
10462SOL     OW32284   4.400   3.863   0.138
10462SOL    HW132285   4.400   3.766   0.114
10462SOL    HW232286   4.312   3.887   0.179
10463SOL     OW32287   4.789   2.585   5.017
10463SOL    HW132288   4.794   2.511   5.084
10463SOL    HW232289   4.747   2.666   5.059
10464SOL     OW32290   6.279   4.634   2.033
10464SOL    HW132291   6.374   4.645   2.004
10464SOL    HW232292   6.220   4.622   1.953
10465SOL     OW32293   5.264   4.462   0.979
10465SOL    HW132294   5.170   4.430   0.988
10465SOL    HW232295   5.264   4.551   0.933
10466SOL     OW32296   5.966   3.877   5.626
10466SOL    HW132297   5.968   3.817   5.706
10466SOL    HW232298   6.032   3.844   5.558
10467SOL     OW32299   0.382   3.526   0.083
10467SOL    HW132300   0.380   3.530   0.183
10467SOL    HW232301   0.425   3.441   0.053
10468SOL     OW32302   1.265   3.967   3.856
10468SOL    HW132303   1.207   3.956   3.937
10468SOL    HW232304   1.346   4.020   3.880
10469SOL     OW32305   1.025   0.567   4.079
10469SOL    HW132306   0.987   0.474   4.079
10469SOL    HW232307   1.008   0.610   4.168
10470SOL     OW32308   2.639   3.799   1.700
10470SOL    HW132309   2.697   3.720   1.720
10470SOL    HW232310   2.544   3.776   1.720
10471SOL     OW32311   2.314   4.543   5.933
10471SOL    HW132312   2.323   4.621   5.871
10471SOL    HW232313   2.389   4.479   5.918
10472SOL     OW32314   3.869   5.076   5.821
10472SOL    HW132315   3.835   5.170   5.822
10472SOL    HW232316   3.954   5.071   5.872
10473SOL     OW32317   5.983   5.590   0.395
10473SOL    HW132318   6.007   5.613   0.490
10473SOL    HW232319   5.915   5.655   0.362
10474SOL     OW32320   6.223   6.115   5.070
10474SOL    HW132321   6.162   6.177   5.020
10474SOL    HW232322   6.249   6.039   5.010
10475SOL     OW32323   0.252   5.922   1.630
10475SOL    HW132324   0.267   5.876   1.717
10475SOL    HW232325   0.157   5.907   1.600
10476SOL     OW32326   5.108   6.518   1.412
10476SOL    HW132327   5.034   6.478   1.467
10476SOL    HW232328   5.181   6.550   1.473
10477SOL     OW32329   0.002   5.769   3.676
10477SOL    HW132330   7.004   5.781   3.579
10477SOL    HW232331   6.976   5.839   3.729
10478SOL     OW32332   6.702   0.819   6.906
10478SOL    HW132333   6.762   0.758   6.959
10478SOL    HW232334   6.653   0.766   6.837
10479SOL     OW32335   6.942   4.246   2.786
10479SOL    HW132336   6.943   4.155   2.745
10479SOL    HW232337   6.989   4.243   2.875
10480SOL     OW32338   2.527   0.967   2.969
10480SOL    HW132339   2.535   0.868   2.979
10480SOL    HW232340   2.528   1.010   3.060
10481SOL     OW32341   6.308   1.026   1.676
10481SOL    HW132342   6.343   0.938   1.707
10481SOL    HW232343   6.238   1.011   1.606
10482SOL     OW32344   4.809   4.091   4.249
10482SOL    HW132345   4.883   4.115   4.186
10482SOL    HW232346   4.808   3.992   4.263
10483SOL     OW32347   5.926   0.540   6.609
10483SOL    HW132348   5.923   0.572   6.704
10483SOL    HW232349   5.865   0.462   6.598
10484SOL     OW32350   6.167   0.389   1.679
10484SOL    HW132351   6.123   0.408   1.591
10484SOL    HW232352   6.235   0.460   1.698
10485SOL     OW32353   5.454   3.162   6.227
10485SOL    HW132354   5.553   3.154   6.219
10485SOL    HW232355   5.415   3.183   6.137
10486SOL     OW32356   5.905   3.050   2.474
10486SOL    HW132357   5.863   2.979   2.531
10486SOL    HW232358   6.001   3.026   2.457
10487SOL     OW32359   3.679   6.760   2.819
10487SOL    HW132360   3.771   6.789   2.792
10487SOL    HW232361   3.663   6.667   2.787
10488SOL     OW32362   4.163   4.249   6.548
10488SOL    HW132363   4.111   4.168   6.573
10488SOL    HW232364   4.109   4.306   6.486
10489SOL     OW32365   2.053   5.234   5.397
10489SOL    HW132366   2.022   5.140   5.408
10489SOL    HW232367   2.127   5.237   5.329
10490SOL     OW32368   6.146   6.935   4.786
10490SOL    HW132369   6.240   6.913   4.760
10490SOL    HW232370   6.112   6.867   4.851
10491SOL     OW32371   6.683   5.752   4.782
10491SOL    HW132372   6.689   5.656   4.756
10491SOL    HW232373   6.603   5.793   4.739
10492SOL     OW32374   5.276   4.072   5.627
10492SOL    HW132375   5.177   4.091   5.625
10492SOL    HW232376   5.290   3.977   5.653
10493SOL     OW32377   3.117   1.317   0.291
10493SOL    HW132378   3.078   1.228   0.268
10493SOL    HW232379   3.047   1.387   0.282
10494SOL     OW32380   5.237   1.418   5.167
10494SOL    HW132381   5.155   1.405   5.223
10494SOL    HW232382   5.304   1.473   5.216
10495SOL     OW32383   1.440   0.264   6.533
10495SOL    HW132384   1.404   0.198   6.599
10495SOL    HW232385   1.372   0.335   6.515
10496SOL     OW32386   6.779   6.806   5.414
10496SOL    HW132387   6.815   6.713   5.407
10496SOL    HW232388   6.837   6.860   5.474
10497SOL     OW32389   2.194   1.354   6.757
10497SOL    HW132390   2.129   1.389   6.690
10497SOL    HW232391   2.151   1.281   6.811
10498SOL     OW32392   3.154   5.301   5.617
10498SOL    HW132393   3.182   5.271   5.708
10498SOL    HW232394   3.071   5.356   5.624
10499SOL     OW32395   3.039   5.768   2.633
10499SOL    HW132396   3.013   5.811   2.720
10499SOL    HW232397   3.035   5.836   2.560
10500SOL     OW32398   2.326   1.772   0.094
10500SOL    HW132399   2.310   1.707   0.020
10500SOL    HW232400   2.288   1.735   0.179
10501SOL     OW32401   2.125   3.602   3.403
10501SOL    HW132402   2.044   3.590   3.461
10501SOL    HW232403   2.137   3.521   3.346
10502SOL     OW32404   3.212   6.411   4.873
10502SOL    HW132405   3.195   6.459   4.959
10502SOL    HW232406   3.138   6.430   4.809
10503SOL     OW32407   2.451   3.154   6.792
10503SOL    HW132408   2.493   3.140   6.882
10503SOL    HW232409   2.397   3.073   6.768
10504SOL     OW32410   1.965   3.610   0.560
10504SOL    HW132411   1.963   3.610   0.460
10504SOL    HW232412   1.882   3.569   0.596
10505SOL     OW32413   0.661   6.128   0.081
10505SOL    HW132414   0.669   6.189   0.002
10505SOL    HW232415   0.578   6.074   0.074
10506SOL     OW32416   6.822   5.080   5.634
10506SOL    HW132417   6.796   5.038   5.722
10506SOL    HW232418   6.921   5.070   5.621
10507SOL     OW32419   3.115   0.737   3.347
10507SOL    HW132420   3.137   0.654   3.398
10507SOL    HW232421   3.020   0.733   3.315
10508SOL     OW32422   5.624   5.172   2.807
10508SOL    HW132423   5.648   5.144   2.714
10508SOL    HW232424   5.708   5.193   2.857
10509SOL     OW32425   2.288   1.221   5.364
10509SOL    HW132426   2.332   1.152   5.307
10509SOL    HW232427   2.272   1.304   5.310
10510SOL     OW32428   5.681   0.406   6.620
10510SOL    HW132429   5.651   0.460   6.698
10510SOL    HW232430   5.610   0.406   6.550
10511SOL     OW32431   6.837   2.790   1.917
10511SOL    HW132432   6.865   2.880   1.950
10511SOL    HW232433   6.910   2.724   1.933
10512SOL     OW32434   2.215   0.016   6.525
10512SOL    HW132435   2.133   6.993   6.559
10512SOL    HW232436   2.223   0.106   6.568
10513SOL     OW32437   0.281   2.467   0.745
10513SOL    HW132438   0.332   2.533   0.801
10513SOL    HW232439   0.270   2.381   0.795
10514SOL     OW32440   1.630   3.133   1.447
10514SOL    HW132441   1.580   3.049   1.469
10514SOL    HW232442   1.567   3.199   1.406
10515SOL     OW32443   0.286   3.063   4.946
10515SOL    HW132444   0.326   3.007   5.019
10515SOL    HW232445   0.284   3.010   4.861
10516SOL     OW32446   2.519   0.091   0.661
10516SOL    HW132447   2.497   7.020   0.690
10516SOL    HW232448   2.618   0.102   0.656
10517SOL     OW32449   0.613   2.551   3.578
10517SOL    HW132450   0.671   2.505   3.645
10517SOL    HW232451   0.525   2.502   3.571
10518SOL     OW32452   0.588   6.286   3.262
10518SOL    HW132453   0.607   6.380   3.293
10518SOL    HW232454   0.610   6.222   3.336
10519SOL     OW32455   4.252   2.657   5.776
10519SOL    HW132456   4.219   2.573   5.819
10519SOL    HW232457   4.175   2.720   5.764
10520SOL     OW32458   3.071   4.920   6.445
10520SOL    HW132459   3.088   5.009   6.404
10520SOL    HW232460   3.006   4.929   6.520
10521SOL     OW32461   6.354   5.325   2.051
10521SOL    HW132462   6.404   5.326   1.964
10521SOL    HW232463   6.268   5.275   2.040
10522SOL     OW32464   6.330   0.037   2.538
10522SOL    HW132465   6.269   7.001   2.591
10522SOL    HW232466   6.357   0.116   2.593
10523SOL     OW32467   5.872   6.435   6.383
10523SOL    HW132468   5.959   6.438   6.333
10523SOL    HW232469   5.882   6.378   6.464
10524SOL     OW32470   4.701   0.916   4.855
10524SOL    HW132471   4.659   1.006   4.853
10524SOL    HW232472   4.668   0.862   4.777
10525SOL     OW32473   2.526   0.149   5.176
10525SOL    HW132474   2.451   0.210   5.151
10525SOL    HW232475   2.489   0.058   5.196
10526SOL     OW32476   4.510   5.910   2.798
10526SOL    HW132477   4.518   5.835   2.734
10526SOL    HW232478   4.428   5.897   2.855
10527SOL     OW32479   2.290   2.570   4.023
10527SOL    HW132480   2.302   2.664   4.056
10527SOL    HW232481   2.353   2.553   3.948
10528SOL     OW32482   6.123   4.821   6.051
10528SOL    HW132483   6.090   4.875   6.128
10528SOL    HW232484   6.088   4.860   5.965
10529SOL     OW32485   6.881   5.642   4.933
10529SOL    HW132486   6.817   5.701   4.882
10529SOL    HW232487   6.934   5.587   4.868
10530SOL     OW32488   1.579   2.039   5.154
10530SOL    HW132489   1.531   2.062   5.069
10530SOL    HW232490   1.678   2.041   5.138
10531SOL     OW32491   2.537   2.455   4.525
10531SOL    HW132492   2.572   2.372   4.569
10531SOL    HW232493   2.476   2.503   4.588
10532SOL     OW32494   3.238   3.421   4.433
10532SOL    HW132495   3.283   3.356   4.494
10532SOL    HW232496   3.188   3.488   4.487
10533SOL     OW32497   3.673   0.731   6.226
10533SOL    HW132498   3.737   0.776   6.287
10533SOL    HW232499   3.713   0.646   6.192
10534SOL     OW32500   5.657   4.270   1.688
10534SOL    HW132501   5.588   4.261   1.616
10534SOL    HW232502   5.657   4.187   1.744
10535SOL     OW32503   7.017   1.086   1.812
10535SOL    HW132504   0.014   1.049   1.722
10535SOL    HW232505   0.022   1.182   1.816
10536SOL     OW32506   5.820   5.785   3.283
10536SOL    HW132507   5.861   5.714   3.225
10536SOL    HW232508   5.802   5.747   3.373
10537SOL     OW32509   6.278   5.657   1.741
10537SOL    HW132510   6.210   5.712   1.692
10537SOL    HW232511   6.267   5.560   1.717
10538SOL     OW32512   4.359   3.326   6.876
10538SOL    HW132513   4.347   3.426   6.877
10538SOL    HW232514   4.438   3.303   6.819
10539SOL     OW32515   1.061   2.995   4.825
10539SOL    HW132516   1.010   2.928   4.880
10539SOL    HW232517   1.012   3.082   4.827
10540SOL     OW32518   3.709   0.676   0.261
10540SOL    HW132519   3.651   0.624   0.198
10540SOL    HW232520   3.774   0.614   0.304
10541SOL     OW32521   3.363   2.534   1.685
10541SOL    HW132522   3.267   2.515   1.703
10541SOL    HW232523   3.410   2.448   1.665
10542SOL     OW32524   1.727   2.154   0.502
10542SOL    HW132525   1.742   2.243   0.459
10542SOL    HW232526   1.630   2.132   0.500
10543SOL     OW32527   2.719   0.643   4.462
10543SOL    HW132528   2.682   0.699   4.388
10543SOL    HW232529   2.720   0.547   4.434
10544SOL     OW32530   0.387   2.131   1.120
10544SOL    HW132531   0.319   2.108   1.189
10544SOL    HW232532   0.394   2.230   1.111
10545SOL     OW32533   4.258   1.401   3.100
10545SOL    HW132534   4.238   1.390   3.002
10545SOL    HW232535   4.241   1.314   3.147
10546SOL     OW32536   4.837   0.870   5.600
10546SOL    HW132537   4.740   0.851   5.592
10546SOL    HW232538   4.889   0.785   5.589
10547SOL     OW32539   4.605   6.175   1.911
10547SOL    HW132540   4.644   6.202   2.000
10547SOL    HW232541   4.563   6.255   1.868
10548SOL     OW32542   4.667   3.982   5.266
10548SOL    HW132543   4.746   3.992   5.206
10548SOL    HW232544   4.650   4.069   5.313
10549SOL     OW32545   1.015   1.612   1.683
10549SOL    HW132546   0.958   1.669   1.624
10549SOL    HW232547   1.027   1.522   1.641
10550SOL     OW32548   4.258   6.908   5.072
10550SOL    HW132549   4.217   6.992   5.106
10550SOL    HW232550   4.358   6.915   5.077
10551SOL     OW32551   1.624   2.963   6.132
10551SOL    HW132552   1.685   2.884   6.135
10551SOL    HW232553   1.573   2.970   6.217
10552SOL     OW32554   3.367   1.529   5.317
10552SOL    HW132555   3.323   1.569   5.397
10552SOL    HW232556   3.386   1.433   5.334
10553SOL     OW32557   2.549   5.221   6.619
10553SOL    HW132558   2.634   5.266   6.593
10553SOL    HW232559   2.553   5.193   6.715
10554SOL     OW32560   5.977   3.316   6.026
10554SOL    HW132561   6.037   3.237   6.039
10554SOL    HW232562   5.976   3.341   5.929
10555SOL     OW32563   3.489   2.720   1.515
10555SOL    HW132564   3.444   2.644   1.561
10555SOL    HW232565   3.433   2.802   1.521
10556SOL     OW32566   1.359   4.501   3.926
10556SOL    HW132567   1.260   4.486   3.932
10556SOL    HW232568   1.386   4.510   3.830
10557SOL     OW32569   5.481   1.539   3.167
10557SOL    HW132570   5.432   1.622   3.195
10557SOL    HW232571   5.423   1.459   3.182
10558SOL     OW32572   5.815   5.742   5.488
10558SOL    HW132573   5.844   5.795   5.568
10558SOL    HW232574   5.894   5.698   5.446
10559SOL     OW32575   4.363   2.765   0.913
10559SOL    HW132576   4.365   2.720   1.002
10559SOL    HW232577   4.269   2.776   0.883
10560SOL     OW32578   6.868   2.238   4.232
10560SOL    HW132579   6.876   2.168   4.162
10560SOL    HW232580   6.805   2.206   4.303
10561SOL     OW32581   2.189   3.745   6.570
10561SOL    HW132582   2.286   3.760   6.551
10561SOL    HW232583   2.136   3.749   6.485
10562SOL     OW32584   4.370   1.673   0.684
10562SOL    HW132585   4.292   1.732   0.705
10562SOL    HW232586   4.453   1.714   0.719
10563SOL     OW32587   1.440   2.658   2.839
10563SOL    HW132588   1.525   2.710   2.844
10563SOL    HW232589   1.390   2.684   2.756
10564SOL     OW32590   0.058   1.965   2.629
10564SOL    HW132591   0.093   1.883   2.583
10564SOL    HW232592   0.082   1.963   2.726
10565SOL     OW32593   5.067   1.712   4.708
10565SOL    HW132594   4.994   1.655   4.673
10565SOL    HW232595   5.152   1.659   4.714
10566SOL     OW32596   5.279   5.261   6.780
10566SOL    HW132597   5.184   5.292   6.780
10566SOL    HW232598   5.301   5.220   6.691
10567SOL     OW32599   2.635   5.832   4.705
10567SOL    HW132600   2.535   5.831   4.710
10567SOL    HW232601   2.667   5.765   4.638
10568SOL     OW32602   3.439   1.121   3.141
10568SOL    HW132603   3.391   1.206   3.162
10568SOL    HW232604   3.407   1.049   3.201
10569SOL     OW32605   6.731   2.253   3.818
10569SOL    HW132606   6.729   2.223   3.914
10569SOL    HW232607   6.666   2.327   3.805
10570SOL     OW32608   0.873   4.035   0.978
10570SOL    HW132609   0.788   4.085   0.991
10570SOL    HW232610   0.864   3.972   0.901
10571SOL     OW32611   6.739   6.632   4.707
10571SOL    HW132612   6.837   6.649   4.719
10571SOL    HW232613   6.687   6.706   4.750
10572SOL     OW32614   6.549   3.857   1.975
10572SOL    HW132615   6.523   3.953   1.981
10572SOL    HW232616   6.635   3.849   1.924
10573SOL     OW32617   6.338   5.392   5.351
10573SOL    HW132618   6.240   5.371   5.357
10573SOL    HW232619   6.389   5.330   5.410
10574SOL     OW32620   1.151   2.150   2.682
10574SOL    HW132621   1.172   2.057   2.651
10574SOL    HW232622   1.185   2.216   2.615
10575SOL     OW32623   7.003   6.668   6.291
10575SOL    HW132624   6.913   6.706   6.274
10575SOL    HW232625   7.017   6.657   6.390
10576SOL     OW32626   0.873   5.691   3.377
10576SOL    HW132627   0.813   5.623   3.334
10576SOL    HW232628   0.886   5.668   3.473
10577SOL     OW32629   0.335   2.608   5.936
10577SOL    HW132630   0.244   2.567   5.941
10577SOL    HW232631   0.381   2.575   5.854
10578SOL     OW32632   4.943   0.624   5.507
10578SOL    HW132633   5.001   0.605   5.428
10578SOL    HW232634   4.847   0.610   5.482
10579SOL     OW32635   5.774   6.663   0.981
10579SOL    HW132636   5.778   6.598   0.906
10579SOL    HW232637   5.682   6.701   0.987
10580SOL     OW32638   0.713   5.378   0.204
10580SOL    HW132639   0.655   5.400   0.125
10580SOL    HW232640   0.714   5.455   0.267
10581SOL     OW32641   4.292   2.164   2.948
10581SOL    HW132642   4.311   2.144   2.852
10581SOL    HW232643   4.352   2.238   2.979
10582SOL     OW32644   3.466   4.323   6.771
10582SOL    HW132645   3.476   4.234   6.814
10582SOL    HW232646   3.383   4.325   6.716
10583SOL     OW32647   4.656   0.983   1.155
10583SOL    HW132648   4.586   0.939   1.099
10583SOL    HW232649   4.614   1.022   1.237
10584SOL     OW32650   5.713   6.595   1.394
10584SOL    HW132651   5.802   6.624   1.359
10584SOL    HW232652   5.656   6.562   1.319
10585SOL     OW32653   2.906   4.437   6.699
10585SOL    HW132654   2.907   4.430   6.799
10585SOL    HW232655   3.000   4.436   6.665
10586SOL     OW32656   5.023   2.302   1.570
10586SOL    HW132657   4.976   2.390   1.562
10586SOL    HW232658   4.964   2.237   1.618
10587SOL     OW32659   0.002   3.091   0.383
10587SOL    HW132660   6.968   3.047   0.313
10587SOL    HW232661   6.966   3.138   0.449
10588SOL     OW32662   1.526   5.017   3.405
10588SOL    HW132663   1.588   4.982   3.476
10588SOL    HW232664   1.468   5.089   3.443
10589SOL     OW32665   5.917   0.850   4.508
10589SOL    HW132666   5.938   0.834   4.412
10589SOL    HW232667   5.865   0.772   4.544
10590SOL     OW32668   1.639   0.263   5.116
10590SOL    HW132669   1.670   0.181   5.067
10590SOL    HW232670   1.558   0.240   5.171
10591SOL     OW32671   1.653   2.210   1.857
10591SOL    HW132672   1.631   2.283   1.793
10591SOL    HW232673   1.633   2.121   1.815
10592SOL     OW32674   5.308   1.174   6.354
10592SOL    HW132675   5.289   1.264   6.393
10592SOL    HW232676   5.275   1.171   6.259
10593SOL     OW32677   1.719   3.869   2.157
10593SOL    HW132678   1.775   3.800   2.110
10593SOL    HW232679   1.633   3.827   2.188
10594SOL     OW32680   1.207   1.412   4.381
10594SOL    HW132681   1.162   1.341   4.325
10594SOL    HW232682   1.176   1.502   4.350
10595SOL     OW32683   1.826   5.742   4.685
10595SOL    HW132684   1.735   5.711   4.656
10595SOL    HW232685   1.847   5.703   4.775
10596SOL     OW32686   2.705   1.122   1.426
10596SOL    HW132687   2.802   1.134   1.401
10596SOL    HW232688   2.690   1.027   1.454
10597SOL     OW32689   1.531   0.961   3.990
10597SOL    HW132690   1.628   0.960   4.012
10597SOL    HW232691   1.499   1.055   3.979
10598SOL     OW32692   2.625   0.872   0.866
10598SOL    HW132693   2.600   0.814   0.943
10598SOL    HW232694   2.565   0.852   0.789
10599SOL     OW32695   4.850   0.317   6.269
10599SOL    HW132696   4.874   0.360   6.182
10599SOL    HW232697   4.855   0.218   6.260
10600SOL     OW32698   1.889   3.169   4.904
10600SOL    HW132699   1.961   3.216   4.853
10600SOL    HW232700   1.815   3.233   4.924
10601SOL     OW32701   4.050   6.027   5.511
10601SOL    HW132702   4.025   5.935   5.543
10601SOL    HW232703   4.013   6.096   5.573
10602SOL     OW32704   4.562   2.407   1.897
10602SOL    HW132705   4.506   2.352   1.836
10602SOL    HW232706   4.503   2.455   1.963
10603SOL     OW32707   0.510   5.471   5.027
10603SOL    HW132708   0.573   5.401   5.060
10603SOL    HW232709   0.503   5.544   5.095
10604SOL     OW32710   0.520   4.140   6.250
10604SOL    HW132711   0.494   4.220   6.195
10604SOL    HW232712   0.487   4.152   6.343
10605SOL     OW32713   1.017   5.457   6.535
10605SOL    HW132714   0.926   5.415   6.542
10605SOL    HW232715   1.084   5.386   6.513
10606SOL     OW32716   1.167   1.115   2.041
10606SOL    HW132717   1.141   1.055   2.116
10606SOL    HW232718   1.126   1.206   2.055
10607SOL     OW32719   5.791   3.514   6.629
10607SOL    HW132720   5.762   3.420   6.648
10607SOL    HW232721   5.879   3.513   6.583
10608SOL     OW32722   5.609   6.170   2.542
10608SOL    HW132723   5.575   6.263   2.558
10608SOL    HW232724   5.541   6.104   2.574
10609SOL     OW32725   4.157   6.295   2.649
10609SOL    HW132726   4.215   6.319   2.571
10609SOL    HW232727   4.206   6.233   2.710
10610SOL     OW32728   2.225   4.617   5.002
10610SOL    HW132729   2.199   4.709   5.031
10610SOL    HW232730   2.158   4.551   5.037
10611SOL     OW32731   4.961   2.152   5.804
10611SOL    HW132732   5.027   2.159   5.879
10611SOL    HW232733   4.933   2.243   5.775
10612SOL     OW32734   2.462   0.528   1.812
10612SOL    HW132735   2.477   0.599   1.743
10612SOL    HW232736   2.539   0.464   1.812
10613SOL     OW32737   0.868   6.324   0.190
10613SOL    HW132738   0.859   6.367   0.100
10613SOL    HW232739   0.865   6.225   0.180
10614SOL     OW32740   0.342   0.855   2.768
10614SOL    HW132741   0.294   0.810   2.692
10614SOL    HW232742   0.293   0.839   2.853
10615SOL     OW32743   0.184   6.728   5.237
10615SOL    HW132744   0.260   6.675   5.199
10615SOL    HW232745   0.208   6.825   5.236
10616SOL     OW32746   3.815   5.803   1.501
10616SOL    HW132747   3.744   5.802   1.571
10616SOL    HW232748   3.772   5.804   1.410
10617SOL     OW32749   6.567   2.120   6.668
10617SOL    HW132750   6.586   2.024   6.690
10617SOL    HW232751   6.541   2.169   6.751
10618SOL     OW32752   6.542   3.977   0.778
10618SOL    HW132753   6.567   3.881   0.776
10618SOL    HW232754   6.507   4.001   0.868
10619SOL     OW32755   7.011   3.329   3.307
10619SOL    HW132756   0.085   3.310   3.288
10619SOL    HW232757   6.970   3.253   3.357
10620SOL     OW32758   1.460   5.097   3.892
10620SOL    HW132759   1.497   5.113   3.801
10620SOL    HW232760   1.391   5.024   3.887
10621SOL     OW32761   3.594   0.296   1.010
10621SOL    HW132762   3.636   0.314   1.099
10621SOL    HW232763   3.569   0.383   0.966
10622SOL     OW32764   3.865   1.826   0.546
10622SOL    HW132765   3.785   1.852   0.600
10622SOL    HW232766   3.893   1.902   0.487
10623SOL     OW32767   0.451   1.427   4.728
10623SOL    HW132768   0.503   1.469   4.654
10623SOL    HW232769   0.421   1.336   4.701
10624SOL     OW32770   2.563   1.502   4.413
10624SOL    HW132771   2.516   1.493   4.325
10624SOL    HW232772   2.650   1.549   4.399
10625SOL     OW32773   1.234   2.932   0.830
10625SOL    HW132774   1.241   2.867   0.905
10625SOL    HW232775   1.154   2.990   0.844
10626SOL     OW32776   0.702   2.351   3.011
10626SOL    HW132777   0.645   2.329   2.932
10626SOL    HW232778   0.798   2.333   2.989
10627SOL     OW32779   4.047   5.683   4.620
10627SOL    HW132780   3.947   5.686   4.624
10627SOL    HW232781   4.084   5.670   4.712
10628SOL     OW32782   6.832   6.665   5.076
10628SOL    HW132783   6.868   6.578   5.108
10628SOL    HW232784   6.906   6.732   5.070
10629SOL     OW32785   2.710   4.225   6.523
10629SOL    HW132786   2.735   4.137   6.564
10629SOL    HW232787   2.701   4.294   6.594
10630SOL     OW32788   5.475   1.484   1.701
10630SOL    HW132789   5.420   1.527   1.629
10630SOL    HW232790   5.425   1.405   1.738
10631SOL     OW32791   1.324   6.945   4.353
10631SOL    HW132792   1.412   6.899   4.349
10631SOL    HW232793   1.256   6.884   4.396
10632SOL     OW32794   6.841   2.681   0.146
10632SOL    HW132795   6.857   2.594   0.193
10632SOL    HW232796   6.746   2.710   0.160
10633SOL     OW32797   1.314   5.365   6.746
10633SOL    HW132798   1.300   5.450   6.796
10633SOL    HW232799   1.383   5.309   6.792
10634SOL     OW32800   3.558   6.897   2.120
10634SOL    HW132801   3.564   6.987   2.162
10634SOL    HW232802   3.649   6.859   2.108
10635SOL     OW32803   1.179   0.480   1.086
10635SOL    HW132804   1.247   0.491   1.158
10635SOL    HW232805   1.172   0.565   1.034
10636SOL     OW32806   5.071   2.112   6.916
10636SOL    HW132807   5.137   2.113   6.990
10636SOL    HW232808   4.992   2.169   6.941
10637SOL     OW32809   3.154   3.798   6.461
10637SOL    HW132810   3.127   3.762   6.372
10637SOL    HW232811   3.115   3.742   6.533
10638SOL     OW32812   6.486   0.928   5.898
10638SOL    HW132813   6.548   0.881   5.961
10638SOL    HW232814   6.395   0.934   5.940
10639SOL     OW32815   3.773   2.146   5.025
10639SOL    HW132816   3.798   2.149   4.928
10639SOL    HW232817   3.679   2.113   5.035
10640SOL     OW32818   4.343   6.676   0.473
10640SOL    HW132819   4.409   6.696   0.401
10640SOL    HW232820   4.374   6.713   0.560
10641SOL     OW32821   3.353   6.746   6.835
10641SOL    HW132822   3.365   6.780   6.929
10641SOL    HW232823   3.266   6.697   6.828
10642SOL     OW32824   0.760   5.972   1.603
10642SOL    HW132825   0.766   6.036   1.527
10642SOL    HW232826   0.748   6.023   1.688
10643SOL     OW32827   3.334   3.592   5.678
10643SOL    HW132828   3.366   3.679   5.641
10643SOL    HW232829   3.235   3.585   5.666
10644SOL     OW32830   4.117   1.449   6.017
10644SOL    HW132831   4.119   1.484   5.923
10644SOL    HW232832   4.134   1.523   6.081
10645SOL     OW32833   2.209   0.415   4.154
10645SOL    HW132834   2.147   0.402   4.232
10645SOL    HW232835   2.299   0.381   4.178
10646SOL     OW32836   6.741   4.991   6.530
10646SOL    HW132837   6.723   5.030   6.620
10646SOL    HW232838   6.781   5.061   6.471
10647SOL     OW32839   6.946   5.948   0.980
10647SOL    HW132840   6.987   5.991   1.060
10647SOL    HW232841   7.018   5.910   0.922
10648SOL     OW32842   4.923   4.014   6.171
10648SOL    HW132843   4.894   3.928   6.130
10648SOL    HW232844   4.978   3.995   6.253
10649SOL     OW32845   7.010   4.797   6.337
10649SOL    HW132846   6.940   4.740   6.381
10649SOL    HW232847   0.058   4.820   6.403
10650SOL     OW32848   2.135   6.907   5.889
10650SOL    HW132849   2.181   6.824   5.860
10650SOL    HW232850   2.037   6.898   5.875
10651SOL     OW32851   1.665   0.823   5.192
10651SOL    HW132852   1.576   0.779   5.204
10651SOL    HW232853   1.677   0.850   5.097
10652SOL     OW32854   4.810   0.563   0.435
10652SOL    HW132855   4.853   0.547   0.525
10652SOL    HW232856   4.862   0.515   0.365
10653SOL     OW32857   6.226   3.800   4.509
10653SOL    HW132858   6.135   3.831   4.537
10653SOL    HW232859   6.294   3.869   4.533
10654SOL     OW32860   4.717   0.350   1.353
10654SOL    HW132861   4.763   0.429   1.393
10654SOL    HW232862   4.706   0.365   1.254
10655SOL     OW32863   2.413   6.014   1.263
10655SOL    HW132864   2.439   6.064   1.346
10655SOL    HW232865   2.449   6.061   1.183
10656SOL     OW32866   6.805   2.583   6.116
10656SOL    HW132867   6.791   2.681   6.101
10656SOL    HW232868   6.901   2.565   6.137
10657SOL     OW32869   6.287   0.279   0.473
10657SOL    HW132870   6.369   0.309   0.523
10657SOL    HW232871   6.283   0.179   0.472
10658SOL     OW32872   6.939   6.236   3.777
10658SOL    HW132873   6.978   6.295   3.706
10658SOL    HW232874   6.849   6.271   3.803
10659SOL     OW32875   5.288   1.211   1.489
10659SOL    HW132876   5.329   1.120   1.495
10659SOL    HW232877   5.190   1.203   1.476
10660SOL     OW32878   4.803   5.102   5.636
10660SOL    HW132879   4.812   5.127   5.539
10660SOL    HW232880   4.753   5.016   5.643
10661SOL     OW32881   0.038   1.379   1.821
10661SOL    HW132882   0.013   1.374   1.918
10661SOL    HW232883   0.061   1.474   1.798
10662SOL     OW32884   0.482   2.090   0.809
10662SOL    HW132885   0.547   2.165   0.794
10662SOL    HW232886   0.516   2.031   0.881
10663SOL     OW32887   1.121   2.483   1.822
10663SOL    HW132888   1.054   2.534   1.767
10663SOL    HW232889   1.101   2.494   1.919
10664SOL     OW32890   2.221   5.597   6.104
10664SOL    HW132891   2.268   5.617   6.190
10664SOL    HW232892   2.287   5.594   6.030
10665SOL     OW32893   5.608   1.924   6.757
10665SOL    HW132894   5.559   2.009   6.739
10665SOL    HW232895   5.610   1.906   6.855
10666SOL     OW32896   0.395   6.670   0.403
10666SOL    HW132897   0.308   6.718   0.389
10666SOL    HW232898   0.447   6.670   0.318
10667SOL     OW32899   3.213   1.917   5.738
10667SOL    HW132900   3.115   1.914   5.762
10667SOL    HW232901   3.224   1.964   5.650
10668SOL     OW32902   1.379   0.445   6.315
10668SOL    HW132903   1.354   0.371   6.252
10668SOL    HW232904   1.332   0.529   6.289
10669SOL     OW32905   2.112   5.800   6.706
10669SOL    HW132906   2.151   5.844   6.786
10669SOL    HW232907   2.132   5.854   6.624
10670SOL     OW32908   5.894   4.333   4.922
10670SOL    HW132909   5.967   4.269   4.899
10670SOL    HW232910   5.908   4.419   4.874
10671SOL     OW32911   2.223   2.958   3.535
10671SOL    HW132912   2.150   2.976   3.601
10671SOL    HW232913   2.306   2.931   3.584
10672SOL     OW32914   0.029   2.395   0.555
10672SOL    HW132915   7.022   2.404   0.460
10672SOL    HW232916   0.063   2.302   0.570
10673SOL     OW32917   3.472   4.138   3.659
10673SOL    HW132918   3.435   4.046   3.646
10673SOL    HW232919   3.441   4.174   3.747
10674SOL     OW32920   4.329   1.566   2.490
10674SOL    HW132921   4.246   1.546   2.542
10674SOL    HW232922   4.401   1.501   2.515
10675SOL     OW32923   1.136   1.880   5.394
10675SOL    HW132924   1.121   1.975   5.420
10675SOL    HW232925   1.207   1.840   5.452
10676SOL     OW32926   6.217   0.635   6.873
10676SOL    HW132927   6.120   0.613   6.886
10676SOL    HW232928   6.272   0.581   6.936
10677SOL     OW32929   5.276   1.199   0.087
10677SOL    HW132930   5.309   1.155   0.171
10677SOL    HW232931   5.240   1.289   0.109
10678SOL     OW32932   1.678   5.402   3.733
10678SOL    HW132933   1.579   5.413   3.743
10678SOL    HW232934   1.698   5.352   3.648
10679SOL     OW32935   5.753   5.359   3.757
10679SOL    HW132936   5.708   5.401   3.678
10679SOL    HW232937   5.746   5.419   3.836
10680SOL     OW32938   0.164   2.736   3.796
10680SOL    HW132939   0.176   2.703   3.702
10680SOL    HW232940   0.085   2.692   3.837
10681SOL     OW32941   0.704   3.098   0.119
10681SOL    HW132942   0.759   3.089   0.035
10681SOL    HW232943   0.730   3.027   0.184
10682SOL     OW32944   6.531   2.189   4.092
10682SOL    HW132945   6.473   2.245   4.151
10682SOL    HW232946   6.531   2.095   4.126
10683SOL     OW32947   0.517   0.342   4.339
10683SOL    HW132948   0.574   0.275   4.387
10683SOL    HW232949   0.481   0.408   4.405
10684SOL     OW32950   5.349   5.726   0.521
10684SOL    HW132951   5.262   5.760   0.556
10684SOL    HW232952   5.383   5.654   0.580
10685SOL     OW32953   6.600   2.325   3.290
10685SOL    HW132954   6.590   2.338   3.192
10685SOL    HW232955   6.604   2.228   3.312
10686SOL     OW32956   4.872   4.275   1.490
10686SOL    HW132957   4.921   4.188   1.489
10686SOL    HW232958   4.781   4.263   1.529
10687SOL     OW32959   0.178   5.282   1.007
10687SOL    HW132960   0.112   5.264   1.080
10687SOL    HW232961   0.257   5.330   1.045
10688SOL     OW32962   1.266   4.635   0.940
10688SOL    HW132963   1.322   4.699   0.992
10688SOL    HW232964   1.169   4.651   0.959
10689SOL     OW32965   0.335   0.463   1.552
10689SOL    HW132966   0.345   0.479   1.454
10689SOL    HW232967   0.244   0.492   1.582
10690SOL     OW32968   3.588   0.541   3.200
10690SOL    HW132969   3.653   0.466   3.189
10690SOL    HW232970   3.539   0.529   3.287
10691SOL     OW32971   5.671   1.327   1.544
10691SOL    HW132972   5.603   1.386   1.499
10691SOL    HW232973   5.625   1.269   1.611
10692SOL     OW32974   5.692   6.247   3.687
10692SOL    HW132975   5.711   6.277   3.781
10692SOL    HW232976   5.635   6.165   3.690
10693SOL     OW32977   4.633   2.412   4.200
10693SOL    HW132978   4.676   2.376   4.118
10693SOL    HW232979   4.546   2.365   4.215
10694SOL     OW32980   2.776   6.106   0.152
10694SOL    HW132981   2.801   6.114   0.248
10694SOL    HW232982   2.841   6.157   0.096
10695SOL     OW32983   6.015   2.988   5.674
10695SOL    HW132984   6.080   2.917   5.700
10695SOL    HW232985   5.929   2.975   5.724
10696SOL     OW32986   6.476   0.357   0.687
10696SOL    HW132987   6.382   0.384   0.707
10696SOL    HW232988   6.516   0.422   0.622
10697SOL     OW32989   2.603   6.032   2.692
10697SOL    HW132990   2.574   5.945   2.652
10697SOL    HW232991   2.569   6.107   2.636
10698SOL     OW32992   3.829   0.013   3.886
10698SOL    HW132993   3.749   0.002   3.944
10698SOL    HW232994   3.845   6.951   3.835
10699SOL     OW32995   0.277   3.340   3.296
10699SOL    HW132996   0.325   3.300   3.375
10699SOL    HW232997   0.281   3.439   3.302
10700SOL     OW32998   0.979   3.275   2.670
10700SOL    HW132999   0.947   3.184   2.697
10700SOL    HW233000   1.078   3.281   2.684
10701SOL     OW33001   2.596   6.853   1.266
10701SOL    HW133002   2.666   6.914   1.231
10701SOL    HW233003   2.635   6.792   1.334
10702SOL     OW33004   4.907   2.230   0.873
10702SOL    HW133005   4.926   2.162   0.801
10702SOL    HW233006   4.970   2.217   0.949
10703SOL     OW33007   3.732   3.837   3.927
10703SOL    HW133008   3.712   3.761   3.990
10703SOL    HW233009   3.788   3.905   3.974
10704SOL     OW33010   5.515   5.584   1.599
10704SOL    HW133011   5.564   5.498   1.582
10704SOL    HW233012   5.522   5.608   1.696
10705SOL     OW33013   1.087   3.031   6.958
10705SOL    HW133014   1.004   3.065   6.914
10705SOL    HW233015   1.116   2.947   6.913
10706SOL     OW33016   3.150   3.705   0.600
10706SOL    HW133017   3.102   3.629   0.643
10706SOL    HW233018   3.209   3.749   0.668
10707SOL     OW33019   5.995   0.258   6.292
10707SOL    HW133020   5.922   0.205   6.335
10707SOL    HW233021   6.074   0.200   6.277
10708SOL     OW33022   4.662   2.705   1.319
10708SOL    HW133023   4.721   2.786   1.319
10708SOL    HW233024   4.699   2.637   1.382
10709SOL     OW33025   0.985   1.190   6.611
10709SOL    HW133026   1.017   1.095   6.605
10709SOL    HW233027   1.061   1.251   6.589
10710SOL     OW33028   6.857   6.768   3.539
10710SOL    HW133029   6.852   6.676   3.578
10710SOL    HW233030   6.952   6.798   3.535
10711SOL     OW33031   1.784   4.204   5.625
10711SOL    HW133032   1.729   4.123   5.607
10711SOL    HW233033   1.834   4.192   5.711
10712SOL     OW33034   3.859   1.914   6.098
10712SOL    HW133035   3.780   1.854   6.110
10712SOL    HW233036   3.906   1.891   6.013
10713SOL     OW33037   2.796   0.259   0.106
10713SOL    HW133038   2.780   0.248   0.204
10713SOL    HW233039   2.838   0.176   0.069
10714SOL     OW33040   5.171   5.691   4.486
10714SOL    HW133041   5.115   5.610   4.468
10714SOL    HW233042   5.256   5.663   4.533
10715SOL     OW33043   5.776   0.019   2.589
10715SOL    HW133044   5.808   7.020   2.496
10715SOL    HW233045   5.754   6.956   2.636
10716SOL     OW33046   0.073   2.038   2.243
10716SOL    HW133047   0.117   2.060   2.330
10716SOL    HW233048   0.018   1.955   2.254
10717SOL     OW33049   0.586   6.764   1.692
10717SOL    HW133050   0.664   6.816   1.657
10717SOL    HW233051   0.502   6.798   1.649
10718SOL     OW33052   6.476   4.946   5.318
10718SOL    HW133053   6.547   5.011   5.347
10718SOL    HW233054   6.446   4.893   5.397
10719SOL     OW33055   3.422   6.350   3.638
10719SOL    HW133056   3.390   6.282   3.704
10719SOL    HW233057   3.369   6.341   3.553
10720SOL     OW33058   0.672   3.218   5.951
10720SOL    HW133059   0.650   3.297   5.894
10720SOL    HW233060   0.771   3.204   5.952
10721SOL     OW33061   5.428   1.335   3.957
10721SOL    HW133062   5.438   1.289   4.046
10721SOL    HW233063   5.368   1.414   3.967
10722SOL     OW33064   0.906   5.333   0.670
10722SOL    HW133065   0.877   5.264   0.604
10722SOL    HW233066   0.958   5.289   0.744
10723SOL     OW33067   0.370   3.744   6.206
10723SOL    HW133068   0.327   3.655   6.221
10723SOL    HW233069   0.447   3.733   6.142
10724SOL     OW33070   3.780   6.575   5.909
10724SOL    HW133071   3.860   6.574   5.849
10724SOL    HW233072   3.771   6.485   5.954
10725SOL     OW33073   6.993   0.268   5.222
10725SOL    HW133074   6.903   0.253   5.181
10725SOL    HW233075   0.033   0.195   5.193
10726SOL     OW33076   6.659   0.677   3.762
10726SOL    HW133077   6.714   0.731   3.826
10726SOL    HW233078   6.573   0.650   3.807
10727SOL     OW33079   5.277   5.754   6.384
10727SOL    HW133080   5.320   5.681   6.332
10727SOL    HW233081   5.264   5.724   6.479
10728SOL     OW33082   5.587   6.041   4.378
10728SOL    HW133083   5.583   5.969   4.309
10728SOL    HW233084   5.494   6.062   4.409
10729SOL     OW33085   6.646   3.290   4.292
10729SOL    HW133086   6.633   3.281   4.391
10729SOL    HW233087   6.679   3.203   4.256
10730SOL     OW33088   1.371   6.367   4.191
10730SOL    HW133089   1.324   6.438   4.139
10730SOL    HW233090   1.304   6.312   4.241
10731SOL     OW33091   5.206   4.227   4.828
10731SOL    HW133092   5.122   4.251   4.876
10731SOL    HW233093   5.194   4.240   4.730
10732SOL     OW33094   5.522   5.863   2.722
10732SOL    HW133095   5.614   5.885   2.754
10732SOL    HW233096   5.510   5.764   2.721
10733SOL     OW33097   0.657   1.949   5.787
10733SOL    HW133098   0.633   1.940   5.884
10733SOL    HW233099   0.575   1.939   5.731
10734SOL     OW33100   0.411   0.571   4.185
10734SOL    HW133101   0.325   0.557   4.136
10734SOL    HW233102   0.418   0.666   4.214
10735SOL     OW33103   0.235   0.946   2.263
10735SOL    HW133104   0.216   0.915   2.170
10735SOL    HW233105   0.271   1.040   2.260
10736SOL     OW33106   5.694   5.842   4.199
10736SOL    HW133107   5.694   5.751   4.159
10736SOL    HW233108   5.657   5.908   4.133
10737SOL     OW33109   6.281   0.897   0.377
10737SOL    HW133110   6.242   0.872   0.289
10737SOL    HW233111   6.317   0.990   0.373
10738SOL     OW33112   0.889   6.327   2.250
10738SOL    HW133113   0.968   6.277   2.216
10738SOL    HW233114   0.879   6.412   2.198
10739SOL     OW33115   5.236   2.520   4.171
10739SOL    HW133116   5.303   2.532   4.097
10739SOL    HW233117   5.153   2.571   4.149
10740SOL     OW33118   2.777   0.870   6.303
10740SOL    HW133119   2.743   0.950   6.255
10740SOL    HW233120   2.781   0.888   6.401
10741SOL     OW33121   2.245   3.029   3.931
10741SOL    HW133122   2.191   3.085   3.993
10741SOL    HW233123   2.260   2.939   3.972
10742SOL     OW33124   6.987   0.441   2.304
10742SOL    HW133125   6.899   0.482   2.323
10742SOL    HW233126   7.008   0.372   2.373
10743SOL     OW33127   3.702   2.751   5.676
10743SOL    HW133128   3.726   2.690   5.751
10743SOL    HW233129   3.748   2.839   5.690
10744SOL     OW33130   1.420   1.434   0.586
10744SOL    HW133131   1.415   1.531   0.609
10744SOL    HW233132   1.513   1.401   0.604
10745SOL     OW33133   3.717   5.451   2.001
10745SOL    HW133134   3.755   5.361   1.981
10745SOL    HW233135   3.771   5.521   1.955
10746SOL     OW33136   2.507   5.997   6.109
10746SOL    HW133137   2.421   5.966   6.068
10746SOL    HW233138   2.584   5.959   6.058
10747SOL     OW33139   6.744   0.398   4.731
10747SOL    HW133140   6.827   0.422   4.680
10747SOL    HW233141   6.732   0.461   4.807
10748SOL     OW33142   3.526   6.179   2.348
10748SOL    HW133143   3.523   6.238   2.429
10748SOL    HW233144   3.575   6.226   2.275
10749SOL     OW33145   4.977   2.635   2.556
10749SOL    HW133146   5.071   2.659   2.531
10749SOL    HW233147   4.918   2.715   2.544
10750SOL     OW33148   3.239   1.441   4.489
10750SOL    HW133149   3.257   1.415   4.394
10750SOL    HW233150   3.323   1.476   4.531
10751SOL     OW33151   6.054   5.983   3.708
10751SOL    HW133152   6.061   6.024   3.617
10751SOL    HW233153   6.094   5.891   3.706
10752SOL     OW33154   0.133   6.124   6.452
10752SOL    HW133155   0.140   6.119   6.352
10752SOL    HW233156   0.038   6.107   6.479
10753SOL     OW33157   5.238   6.749   5.153
10753SOL    HW133158   5.244   6.782   5.059
10753SOL    HW233159   5.141   6.740   5.179
10754SOL     OW33160   6.786   5.745   2.248
10754SOL    HW133161   6.771   5.652   2.215
10754SOL    HW233162   6.783   5.745   2.348
10755SOL     OW33163   0.873   1.667   2.185
10755SOL    HW133164   0.784   1.712   2.193
10755SOL    HW233165   0.898   1.661   2.088
10756SOL     OW33166   0.520   0.369   6.764
10756SOL    HW133167   0.585   0.352   6.690
10756SOL    HW233168   0.482   0.461   6.753
10757SOL     OW33169   6.948   2.443   2.092
10757SOL    HW133170   6.857   2.463   2.055
10757SOL    HW233171   7.018   2.478   2.030
10758SOL     OW33172   0.262   1.634   0.836
10758SOL    HW133173   0.179   1.603   0.790
10758SOL    HW233174   0.255   1.732   0.854
10759SOL     OW33175   3.525   5.089   5.305
10759SOL    HW133176   3.546   5.028   5.229
10759SOL    HW233177   3.453   5.050   5.362
10760SOL     OW33178   0.963   4.743   7.002
10760SOL    HW133179   1.046   4.769   0.028
10760SOL    HW233180   0.886   4.797   0.014
10761SOL     OW33181   1.616   1.426   6.448
10761SOL    HW133182   1.633   1.524   6.451
10761SOL    HW233183   1.634   1.385   6.537
10762SOL     OW33184   1.772   6.050   1.331
10762SOL    HW133185   1.714   6.125   1.361
10762SOL    HW233186   1.765   6.040   1.231
10763SOL     OW33187   4.956   1.400   2.459
10763SOL    HW133188   4.886   1.423   2.391
10763SOL    HW233189   5.018   1.331   2.421
10764SOL     OW33190   5.310   6.146   4.319
10764SOL    HW133191   5.226   6.091   4.316
10764SOL    HW233192   5.301   6.218   4.388
10765SOL     OW33193   6.806   3.169   1.503
10765SOL    HW133194   6.867   3.171   1.583
10765SOL    HW233195   6.831   3.092   1.444
10766SOL     OW33196   3.300   5.495   6.730
10766SOL    HW133197   3.211   5.516   6.771
10766SOL    HW233198   3.323   5.566   6.663
10767SOL     OW33199   1.521   5.156   6.249
10767SOL    HW133200   1.453   5.229   6.250
10767SOL    HW233201   1.608   5.192   6.285
10768SOL     OW33202   5.923   6.191   0.111
10768SOL    HW133203   6.021   6.192   0.130
10768SOL    HW233204   5.908   6.203   0.012
10769SOL     OW33205   3.146   3.648   4.608
10769SOL    HW133206   3.195   3.721   4.656
10769SOL    HW233207   3.094   3.594   4.674
10770SOL     OW33208   4.443   0.072   4.384
10770SOL    HW133209   4.473   0.061   4.479
10770SOL    HW233210   4.513   0.036   4.323
10771SOL     OW33211   4.908   6.215   5.818
10771SOL    HW133212   4.928   6.216   5.720
10771SOL    HW233213   4.992   6.194   5.868
10772SOL     OW33214   5.216   3.214   3.945
10772SOL    HW133215   5.205   3.295   4.002
10772SOL    HW233216   5.149   3.215   3.871
10773SOL     OW33217   0.874   4.276   0.401
10773SOL    HW133218   0.964   4.244   0.373
10773SOL    HW233219   0.865   4.270   0.500
10774SOL     OW33220   6.437   3.088   0.642
10774SOL    HW133221   6.358   3.124   0.693
10774SOL    HW233222   6.446   2.990   0.659
10775SOL     OW33223   1.872   4.520   6.149
10775SOL    HW133224   1.796   4.458   6.166
10775SOL    HW233225   1.920   4.493   6.065
10776SOL     OW33226   0.018   3.640   2.906
10776SOL    HW133227   6.985   3.602   2.832
10776SOL    HW233228   6.992   3.629   2.993
10777SOL     OW33229   0.613   6.208   2.419
10777SOL    HW133230   0.588   6.249   2.506
10777SOL    HW233231   0.711   6.192   2.415
10778SOL     OW33232   4.926   6.890   3.542
10778SOL    HW133233   4.896   6.875   3.448
10778SOL    HW233234   4.876   6.829   3.603
10779SOL     OW33235   5.735   2.828   5.577
10779SOL    HW133236   5.733   2.910   5.520
10779SOL    HW233237   5.660   2.832   5.644
10780SOL     OW33238   1.102   5.632   4.844
10780SOL    HW133239   1.104   5.536   4.817
10780SOL    HW233240   1.053   5.641   4.931
10781SOL     OW33241   6.006   2.260   5.672
10781SOL    HW133242   5.999   2.348   5.624
10781SOL    HW233243   5.920   2.242   5.720
10782SOL     OW33244   1.454   3.398   5.052
10782SOL    HW133245   1.356   3.384   5.040
10782SOL    HW233246   1.480   3.374   5.146
10783SOL     OW33247   1.496   3.873   4.103
10783SOL    HW133248   1.401   3.903   4.113
10783SOL    HW233249   1.527   3.834   4.190
10784SOL     OW33250   4.990   5.207   4.158
10784SOL    HW133251   5.057   5.133   4.158
10784SOL    HW233252   4.906   5.176   4.202
10785SOL     OW33253   1.808   5.410   1.784
10785SOL    HW133254   1.774   5.319   1.761
10785SOL    HW233255   1.734   5.477   1.775
10786SOL     OW33256   4.847   1.459   2.705
10786SOL    HW133257   4.881   1.475   2.612
10786SOL    HW233258   4.778   1.386   2.702
10787SOL     OW33259   2.980   1.668   3.980
10787SOL    HW133260   3.037   1.672   3.898
10787SOL    HW233261   3.038   1.663   4.061
10788SOL     OW33262   1.348   3.118   6.778
10788SOL    HW133263   1.280   3.129   6.851
10788SOL    HW233264   1.434   3.087   6.817
10789SOL     OW33265   6.685   2.443   2.787
10789SOL    HW133266   6.720   2.527   2.828
10789SOL    HW233267   6.592   2.458   2.753
10790SOL     OW33268   6.669   2.670   4.974
10790SOL    HW133269   6.699   2.758   4.939
10790SOL    HW233270   6.675   2.601   4.902
10791SOL     OW33271   2.017   3.021   3.058
10791SOL    HW133272   2.041   3.040   3.153
10791SOL    HW233273   1.949   2.948   3.055
10792SOL     OW33274   3.825   1.118   2.335
10792SOL    HW133275   3.882   1.069   2.401
10792SOL    HW233276   3.880   1.139   2.254
10793SOL     OW33277   3.634   2.065   3.844
10793SOL    HW133278   3.542   2.085   3.877
10793SOL    HW233279   3.699   2.128   3.885
10794SOL     OW33280   4.162   2.893   6.959
10794SOL    HW133281   4.142   2.837   0.017
10794SOL    HW233282   4.222   2.969   6.985
10795SOL     OW33283   6.430   2.540   3.050
10795SOL    HW133284   6.504   2.473   3.047
10795SOL    HW233285   6.356   2.507   3.108
10796SOL     OW33286   6.556   2.179   6.400
10796SOL    HW133287   6.580   2.146   6.491
10796SOL    HW233288   6.553   2.279   6.400
10797SOL     OW33289   5.774   4.237   6.726
10797SOL    HW133290   5.679   4.254   6.752
10797SOL    HW233291   5.804   4.306   6.660
10798SOL     OW33292   2.489   5.832   0.392
10798SOL    HW133293   2.403   5.879   0.415
10798SOL    HW233294   2.480   5.734   0.412
10799SOL     OW33295   1.757   1.207   3.288
10799SOL    HW133296   1.672   1.171   3.326
10799SOL    HW233297   1.791   1.281   3.346
10800SOL     OW33298   0.928   0.475   5.155
10800SOL    HW133299   0.991   0.434   5.090
10800SOL    HW233300   0.841   0.426   5.154
10801SOL     OW33301   3.097   6.153   7.010
10801SOL    HW133302   3.028   6.203   6.957
10801SOL    HW233303   3.113   6.064   6.968
10802SOL     OW33304   0.419   4.674   3.529
10802SOL    HW133305   0.418   4.576   3.548
10802SOL    HW233306   0.341   4.697   3.471
10803SOL     OW33307   6.854   3.944   4.890
10803SOL    HW133308   6.930   3.977   4.945
10803SOL    HW233309   6.778   3.918   4.950
10804SOL     OW33310   4.392   5.183   6.578
10804SOL    HW133311   4.317   5.129   6.539
10804SOL    HW233312   4.475   5.168   6.526
10805SOL     OW33313   5.412   5.734   0.115
10805SOL    HW133314   5.445   5.790   0.191
10805SOL    HW233315   5.482   5.728   0.045
10806SOL     OW33316   5.995   3.057   5.054
10806SOL    HW133317   5.967   2.967   5.087
10806SOL    HW233318   6.076   3.047   4.995
10807SOL     OW33319   4.489   2.476   5.100
10807SOL    HW133320   4.471   2.573   5.117
10807SOL    HW233321   4.548   2.466   5.020
10808SOL     OW33322   0.748   2.678   0.957
10808SOL    HW133323   0.785   2.650   0.868
10808SOL    HW233324   0.745   2.778   0.962
10809SOL     OW33325   0.737   1.060   3.002
10809SOL    HW133326   0.641   1.087   3.010
10809SOL    HW233327   0.777   1.054   3.093
10810SOL     OW33328   2.059   2.173   6.494
10810SOL    HW133329   2.120   2.174   6.573
10810SOL    HW233330   2.043   2.266   6.462
10811SOL     OW33331   4.137   5.317   6.445
10811SOL    HW133332   4.070   5.329   6.372
10811SOL    HW233333   4.137   5.399   6.504
10812SOL     OW33334   6.726   3.333   2.313
10812SOL    HW133335   6.652   3.400   2.304
10812SOL    HW233336   6.689   3.247   2.347
10813SOL     OW33337   3.393   6.316   1.999
10813SOL    HW133338   3.432   6.382   2.063
10813SOL    HW233339   3.425   6.224   2.022
10814SOL     OW33340   1.960   6.058   4.117
10814SOL    HW133341   1.891   6.080   4.186
10814SOL    HW233342   1.973   5.959   4.113
10815SOL     OW33343   5.436   2.827   5.876
10815SOL    HW133344   5.454   2.766   5.953
10815SOL    HW233345   5.415   2.773   5.795
10816SOL     OW33346   2.445   2.694   1.046
10816SOL    HW133347   2.400   2.606   1.033
10816SOL    HW233348   2.461   2.709   1.144
10817SOL     OW33349   3.817   1.616   1.899
10817SOL    HW133350   3.780   1.657   1.816
10817SOL    HW233351   3.916   1.629   1.902
10818SOL     OW33352   4.468   3.633   5.575
10818SOL    HW133353   4.522   3.616   5.492
10818SOL    HW233354   4.499   3.574   5.649
10819SOL     OW33355   2.196   3.224   5.126
10819SOL    HW133356   2.175   3.294   5.058
10819SOL    HW233357   2.227   3.141   5.080
10820SOL     OW33358   0.388   6.608   5.104
10820SOL    HW133359   0.484   6.628   5.123
10820SOL    HW233360   0.381   6.548   5.025
10821SOL     OW33361   6.938   0.627   6.980
10821SOL    HW133362   6.852   0.578   6.995
10821SOL    HW233363   7.007   0.563   6.948
10822SOL     OW33364   0.135   5.531   5.642
10822SOL    HW133365   0.120   5.480   5.727
10822SOL    HW233366   0.224   5.506   5.603
10823SOL     OW33367   2.783   2.413   0.576
10823SOL    HW133368   2.773   2.317   0.603
10823SOL    HW233369   2.769   2.472   0.655
10824SOL     OW33370   4.858   1.577   4.608
10824SOL    HW133371   4.794   1.636   4.559
10824SOL    HW233372   4.814   1.543   4.691
10825SOL     OW33373   4.237   1.330   1.841
10825SOL    HW133374   4.209   1.257   1.904
10825SOL    HW233375   4.172   1.335   1.765
10826SOL     OW33376   0.675   3.626   0.970
10826SOL    HW133377   0.681   3.699   1.038
10826SOL    HW233378   0.586   3.632   0.924
10827SOL     OW33379   7.010   2.538   5.310
10827SOL    HW133380   0.009   2.509   5.217
10827SOL    HW233381   0.057   2.501   5.373
10828SOL     OW33382   2.854   4.408   6.982
10828SOL    HW133383   2.813   4.491   7.021
10828SOL    HW233384   2.876   4.344   0.033
10829SOL     OW33385   2.052   3.538   1.012
10829SOL    HW133386   2.062   3.580   1.102
10829SOL    HW233387   2.026   3.608   0.945
10830SOL     OW33388   6.024   0.148   4.158
10830SOL    HW133389   6.014   0.221   4.091
10830SOL    HW233390   5.938   0.138   4.209
10831SOL     OW33391   5.586   2.994   2.444
10831SOL    HW133392   5.507   2.935   2.431
10831SOL    HW233393   5.665   2.939   2.472
10832SOL     OW33394   1.804   3.150   2.073
10832SOL    HW133395   1.833   3.081   2.139
10832SOL    HW233396   1.784   3.106   1.985
10833SOL     OW33397   3.345   7.003   4.567
10833SOL    HW133398   3.292   6.923   4.595
10833SOL    HW233399   3.433   6.974   4.530
10834SOL     OW33400   6.863   2.376   5.598
10834SOL    HW133401   6.766   2.350   5.598
10834SOL    HW233402   6.913   2.318   5.534
10835SOL     OW33403   0.651   1.392   0.543
10835SOL    HW133404   0.700   1.306   0.528
10835SOL    HW233405   0.686   1.461   0.479
10836SOL     OW33406   0.023   1.583   1.322
10836SOL    HW133407   6.958   1.557   1.281
10836SOL    HW233408   0.094   1.520   1.289
10837SOL     OW33409   1.479   5.600   0.617
10837SOL    HW133410   1.410   5.666   0.587
10837SOL    HW233411   1.464   5.512   0.572
10838SOL     OW33412   6.441   6.043   1.231
10838SOL    HW133413   6.540   6.048   1.216
10838SOL    HW233414   6.401   6.134   1.218
10839SOL     OW33415   2.596   1.844   6.581
10839SOL    HW133416   2.620   1.848   6.678
10839SOL    HW233417   2.676   1.869   6.526
10840SOL     OW33418   1.054   1.020   3.320
10840SOL    HW133419   1.066   1.074   3.237
10840SOL    HW233420   1.049   1.081   3.399
10841SOL     OW33421   4.850   4.602   0.337
10841SOL    HW133422   4.898   4.515   0.337
10841SOL    HW233423   4.761   4.591   0.381
10842SOL     OW33424   5.709   1.626   1.777
10842SOL    HW133425   5.627   1.585   1.738
10842SOL    HW233426   5.685   1.676   1.860
10843SOL     OW33427   1.048   2.140   1.388
10843SOL    HW133428   0.969   2.095   1.347
10843SOL    HW233429   1.132   2.100   1.351
10844SOL     OW33430   4.593   6.759   3.906
10844SOL    HW133431   4.516   6.758   3.842
10844SOL    HW233432   4.590   6.842   3.961
10845SOL     OW33433   2.504   3.572   1.183
10845SOL    HW133434   2.584   3.601   1.235
10845SOL    HW233435   2.437   3.645   1.182
10846SOL     OW33436   3.536   2.337   1.259
10846SOL    HW133437   3.584   2.255   1.291
10846SOL    HW233438   3.600   2.413   1.255
10847SOL     OW33439   5.137   1.907   5.348
10847SOL    HW133440   5.209   1.875   5.286
10847SOL    HW233441   5.126   2.006   5.340
10848SOL     OW33442   2.036   0.500   6.602
10848SOL    HW133443   2.025   0.599   6.603
10848SOL    HW233444   2.127   0.477   6.638
10849SOL     OW33445   0.581   4.055   5.060
10849SOL    HW133446   0.624   3.987   5.001
10849SOL    HW233447   0.648   4.087   5.128
10850SOL     OW33448   5.649   0.697   3.224
10850SOL    HW133449   5.703   0.764   3.276
10850SOL    HW233450   5.566   0.742   3.190
10851SOL     OW33451   4.635   2.920   0.312
10851SOL    HW133452   4.545   2.896   0.275
10851SOL    HW233453   4.635   3.015   0.341
10852SOL     OW33454   5.958   1.538   5.909
10852SOL    HW133455   5.960   1.441   5.885
10852SOL    HW233456   5.902   1.551   5.991
10853SOL     OW33457   2.039   6.754   5.503
10853SOL    HW133458   2.132   6.785   5.520
10853SOL    HW233459   2.041   6.660   5.467
10854SOL     OW33460   5.533   6.890   6.991
10854SOL    HW133461   5.517   6.987   6.973
10854SOL    HW233462   5.632   6.875   7.002
10855SOL     OW33463   0.860   5.786   0.027
10855SOL    HW133464   0.896   5.785   0.120
10855SOL    HW233465   0.872   5.878   7.010
10856SOL     OW33466   4.676   6.990   6.338
10856SOL    HW133467   4.658   6.951   6.247
10856SOL    HW233468   4.594   0.016   6.370
10857SOL     OW33469   6.331   6.571   4.845
10857SOL    HW133470   6.359   6.496   4.905
10857SOL    HW233471   6.359   6.550   4.751
10858SOL     OW33472   2.122   2.875   1.140
10858SOL    HW133473   2.137   2.897   1.236
10858SOL    HW233474   2.147   2.779   1.123
10859SOL     OW33475   2.378   5.077   1.783
10859SOL    HW133476   2.458   5.133   1.765
10859SOL    HW233477   2.317   5.125   1.846
10860SOL     OW33478   5.513   1.471   2.101
10860SOL    HW133479   5.436   1.514   2.053
10860SOL    HW233480   5.497   1.373   2.109
10861SOL     OW33481   2.799   4.725   0.733
10861SOL    HW133482   2.863   4.801   0.718
10861SOL    HW233483   2.805   4.695   0.828
10862SOL     OW33484   3.922   4.771   5.378
10862SOL    HW133485   3.846   4.732   5.431
10862SOL    HW233486   3.988   4.699   5.357
10863SOL     OW33487   0.149   6.825   3.909
10863SOL    HW133488   0.050   6.835   3.916
10863SOL    HW233489   0.173   6.728   3.902
10864SOL     OW33490   3.021   3.710   2.755
10864SOL    HW133491   3.025   3.770   2.675
10864SOL    HW233492   2.984   3.760   2.833
10865SOL     OW33493   3.498   2.106   2.267
10865SOL    HW133494   3.525   2.201   2.253
10865SOL    HW233495   3.495   2.059   2.178
10866SOL     OW33496   0.382   3.430   5.011
10866SOL    HW133497   0.286   3.401   5.014
10866SOL    HW233498   0.385   3.530   5.008
10867SOL     OW33499   4.940   3.353   0.523
10867SOL    HW133500   5.004   3.377   0.450
10867SOL    HW233501   4.867   3.421   0.527
10868SOL     OW33502   6.941   6.936   6.045
10868SOL    HW133503   6.893   6.857   6.084
10868SOL    HW233504   6.991   6.983   6.117
10869NA      NA33505   6.580   0.985   7.003
10870NA      NA33506   4.747   4.559   4.913
10871NA      NA33507   0.847   4.520   3.008
10872NA      NA33508   6.593   3.468   3.533
10873NA      NA33509   4.343   2.305   5.161
10874NA      NA33510   2.467   3.399   6.670
10875NA      NA33511   1.686   5.533   0.126
10876NA      NA33512   4.308   4.862   1.950
10877NA      NA33513   5.420   3.654   1.127
10878NA      NA33514   3.407   2.032   0.428
10879NA      NA33515   5.067   6.151   1.643
10880NA      NA33516   2.592   6.491   4.593
10881NA      NA33517   3.014   5.536   2.653
10882NA      NA33518   4.434   4.926   6.024
   7.02247   7.02247   7.02247
