Generated by trjconv : CNT in water t= 472.00000
33518
    1C        C    1   2.843   2.773   4.747
    1C        C    2   2.900   2.723   4.866
    1C        C    3   2.839   2.771   4.983
    1C        C    4   2.856   2.779   4.260
    1C        C    5   2.904   2.730   4.384
    1C        C    6   2.846   2.776   4.504
    1C        C    7   3.012   2.643   4.625
    1C        C    8   2.896   2.724   4.625
    1C        C    9   3.075   2.606   4.745
    1C        C   10   3.010   2.635   4.867
    1C        C   11   3.179   2.489   4.977
    1C        C   12   3.056   2.558   4.975
    1C        C   13   2.857   2.776   3.770
    1C        C   14   2.907   2.728   3.894
    1C        C   15   2.856   2.781   4.014
    1C        C   16   3.023   2.651   4.138
    1C        C   17   2.908   2.733   4.136
    1C        C   18   3.086   2.620   4.261
    1C        C   19   3.021   2.651   4.383
    1C        C   20   3.210   2.558   4.504
    1C        C   21   3.080   2.611   4.505
    1C        C   22   3.276   2.531   4.626
    1C        C   23   3.206   2.550   4.748
    1C        C   24   3.410   2.479   4.866
    1C        C   25   3.269   2.505   4.867
    1C        C   26   3.489   2.476   4.982
    1C        C   27   2.853   2.769   3.281
    1C        C   28   2.911   2.727   3.403
    1C        C   29   2.860   2.779   3.524
    1C        C   30   3.026   2.650   3.649
    1C        C   31   2.912   2.733   3.647
    1C        C   32   3.079   2.605   3.772
    1C        C   33   3.016   2.639   3.894
    1C        C   34   3.208   2.550   4.017
    1C        C   35   3.080   2.608   4.016
    1C        C   36   3.276   2.527   4.139
    1C        C   37   3.211   2.556   4.262
    1C        C   38   3.417   2.503   4.381
    1C        C   39   3.279   2.531   4.383
    1C        C   40   3.486   2.492   4.504
    1C        C   41   3.413   2.497   4.624
    1C        C   42   3.627   2.483   4.744
    1C        C   43   3.484   2.480   4.745
    1C        C   44   3.702   2.490   4.863
    1C        C   45   3.628   2.479   4.981
    1C        C   46   2.843   2.758   2.795
    1C        C   47   2.900   2.714   2.916
    1C        C   48   2.849   2.766   3.037
    1C        C   49   3.020   2.640   3.160
    1C        C   50   2.904   2.721   3.159
    1C        C   51   3.084   2.606   3.282
    1C        C   52   3.023   2.642   3.405
    1C        C   53   3.210   2.544   3.526
    1C        C   54   3.083   2.605   3.527
    1C        C   55   3.275   2.523   3.650
    1C        C   56   3.209   2.549   3.772
    1C        C   57   3.414   2.503   3.893
    1C        C   58   3.275   2.526   3.895
    1C        C   59   3.486   2.499   4.015
    1C        C   60   3.415   2.502   4.136
    1C        C   61   3.628   2.498   4.260
    1C        C   62   3.487   2.497   4.258
    1C        C   63   3.701   2.502   4.381
    1C        C   64   3.627   2.495   4.501
    1C        C   65   3.833   2.539   4.624
    1C        C   66   3.698   2.495   4.623
    1C        C   67   3.904   2.558   4.744
    1C        C   68   3.839   2.526   4.865
    1C        C   69   4.049   2.587   4.979
    1C        C   70   3.922   2.527   4.978
    1C        C   71   2.824   2.735   2.310
    1C        C   72   2.880   2.691   2.432
    1C        C   73   2.832   2.745   2.553
    1C        C   74   3.004   2.618   2.672
    1C        C   75   2.895   2.706   2.674
    1C        C   76   3.070   2.587   2.794
    1C        C   77   3.014   2.631   2.916
    1C        C   78   3.209   2.546   3.034
    1C        C   79   3.077   2.598   3.038
    1C        C   80   3.274   2.518   3.156
    1C        C   81   3.210   2.543   3.280
    1C        C   82   3.413   2.490   3.403
    1C        C   83   3.275   2.519   3.403
    1C        C   84   3.482   2.483   3.526
    1C        C   85   3.413   2.496   3.649
    1C        C   86   3.625   2.491   3.768
    1C        C   87   3.484   2.491   3.771
    1C        C   88   3.696   2.500   3.890
    1C        C   89   3.627   2.500   4.014
    1C        C   90   3.833   2.545   4.135
    1C        C   91   3.697   2.507   4.137
    1C        C   92   3.900   2.570   4.257
    1C        C   93   3.837   2.540   4.380
    1C        C   94   4.022   2.639   4.498
    1C        C   95   3.901   2.565   4.503
    1C        C   96   4.088   2.667   4.619
    1C        C   97   4.030   2.625   4.740
    1C        C   98   4.184   2.769   4.863
    1C        C   99   4.089   2.662   4.864
    1C        C  100   4.213   2.844   4.978
    1C        C  101   2.819   2.731   2.073
    1C        C  102   2.991   2.594   2.191
    1C        C  103   2.876   2.679   2.190
    1C        C  104   3.062   2.573   2.313
    1C        C  105   3.000   2.616   2.432
    1C        C  106   3.200   2.535   2.550
    1C        C  107   3.067   2.581   2.551
    1C        C  108   3.271   2.517   2.671
    1C        C  109   3.200   2.532   2.792
    1C        C  110   3.412   2.491   2.915
    1C        C  111   3.272   2.513   2.913
    1C        C  112   3.484   2.487   3.036
    1C        C  113   3.413   2.492   3.158
    1C        C  114   3.624   2.495   3.278
    1C        C  115   3.483   2.485   3.281
    1C        C  116   3.692   2.507   3.402
    1C        C  117   3.623   2.493   3.524
    1C        C  118   3.831   2.541   3.645
    1C        C  119   3.695   2.504   3.646
    1C        C  120   3.894   2.573   3.767
    1C        C  121   3.830   2.546   3.890
    1C        C  122   4.017   2.645   4.012
    1C        C  123   3.895   2.575   4.012
    1C        C  124   4.082   2.681   4.132
    1C        C  125   4.024   2.639   4.253
    1C        C  126   4.187   2.772   4.378
    1C        C  127   4.081   2.679   4.376
    1C        C  128   4.234   2.825   4.500
    1C        C  129   4.186   2.770   4.621
    1C        C  130   4.315   2.941   4.741
    1C        C  131   4.232   2.825   4.742
    1C        C  132   4.350   3.006   4.861
    1C        C  133   4.282   2.965   4.977
    1C        C  134   3.173   2.469   2.080
    1C        C  135   3.039   2.511   2.085
    1C        C  136   3.257   2.471   2.192
    1C        C  137   3.190   2.512   2.310
    1C        C  138   3.403   2.475   2.427
    1C        C  139   3.264   2.497   2.430
    1C        C  140   3.478   2.476   2.547
    1C        C  141   3.409   2.489   2.670
    1C        C  142   3.621   2.483   2.790
    1C        C  143   3.480   2.481   2.792
    1C        C  144   3.694   2.498   2.910
    1C        C  145   3.625   2.490   3.033
    1C        C  146   3.831   2.537   3.154
    1C        C  147   3.694   2.501   3.156
    1C        C  148   3.897   2.560   3.277
    1C        C  149   3.830   2.540   3.400
    1C        C  150   4.024   2.626   3.523
    1C        C  151   3.897   2.562   3.522
    1C        C  152   4.082   2.668   3.644
    1C        C  153   4.019   2.638   3.767
    1C        C  154   4.188   2.769   3.886
    1C        C  155   4.077   2.682   3.889
    1C        C  156   4.240   2.814   4.009
    1C        C  157   4.195   2.766   4.134
    1C        C  158   4.335   2.925   4.253
    1C        C  159   4.244   2.817   4.256
    1C        C  160   4.374   2.986   4.374
    1C        C  161   4.322   2.935   4.496
    1C        C  162   4.427   3.119   4.614
    1C        C  163   4.358   2.996   4.618
    1C        C  164   4.456   3.187   4.734
    1C        C  165   4.426   3.125   4.857
    1C        C  166   4.514   3.320   4.971
    1C        C  167   4.474   3.187   4.973
    1C        C  168   3.473   2.431   2.074
    1C        C  169   3.396   2.449   2.190
    1C        C  170   3.617   2.463   2.306
    1C        C  171   3.475   2.461   2.306
    1C        C  172   3.690   2.481   2.426
    1C        C  173   3.619   2.478   2.548
    1C        C  174   3.827   2.532   2.665
    1C        C  175   3.692   2.490   2.668
    1C        C  176   3.894   2.559   2.787
    1C        C  177   3.831   2.532   2.910
    1C        C  178   4.022   2.628   3.031
    1C        C  179   3.896   2.563   3.032
    1C        C  180   4.083   2.662   3.154
    1C        C  181   4.023   2.625   3.276
    1C        C  182   4.191   2.751   3.397
    1C        C  183   4.083   2.660   3.399
    1C        C  184   4.239   2.807   3.517
    1C        C  185   4.189   2.761   3.640
    1C        C  186   4.332   2.918   3.765
    1C        C  187   4.243   2.808   3.762
    1C        C  188   4.376   2.977   3.886
    1C        C  189   4.333   2.920   4.008
    1C        C  190   4.443   3.105   4.128
    1C        C  191   4.372   2.983   4.129
    1C        C  192   4.472   3.173   4.249
    1C        C  193   4.438   3.111   4.371
    1C        C  194   4.506   3.315   4.490
    1C        C  195   4.460   3.182   4.492
    1C        C  196   4.523   3.387   4.611
    1C        C  197   4.502   3.322   4.734
    1C        C  198   4.549   3.537   4.853
    1C        C  199   4.527   3.395   4.853
    1C        C  200   4.582   3.621   4.963
    1C        C  201   3.612   2.413   2.074
    1C        C  202   3.825   2.507   2.185
    1C        C  203   3.691   2.457   2.185
    1C        C  204   3.898   2.538   2.303
    1C        C  205   3.827   2.515   2.423
    1C        C  206   4.021   2.614   2.541
    1C        C  207   3.894   2.551   2.542
    1C        C  208   4.081   2.651   2.663
    1C        C  209   4.019   2.624   2.787
    1C        C  210   4.194   2.747   2.907
    1C        C  211   4.081   2.663   2.908
    1C        C  212   4.246   2.797   3.029
    1C        C  213   4.194   2.749   3.151
    1C        C  214   4.333   2.907   3.272
    1C        C  215   4.245   2.796   3.274
    1C        C  216   4.368   2.971   3.393
    1C        C  217   4.329   2.917   3.518
    1C        C  218   4.432   3.100   3.639
    1C        C  219   4.369   2.974   3.641
    1C        C  220   4.460   3.167   3.760
    1C        C  221   4.437   3.104   3.884
    1C        C  222   4.502   3.307   4.002
    1C        C  223   4.469   3.170   4.006
    1C        C  224   4.513   3.380   4.123
    1C        C  225   4.502   3.311   4.245
    1C        C  226   4.521   3.524   4.368
    1C        C  227   4.517   3.383   4.366
    1C        C  228   4.525   3.597   4.489
    1C        C  229   4.536   3.527   4.611
    1C        C  230   4.511   3.744   4.726
    1C        C  231   4.544   3.606   4.728
    1C        C  232   4.502   3.824   4.842
    1C        C  233   4.554   3.758   4.953
    1C        C  234   4.013   2.609   2.063
    1C        C  235   3.889   2.546   2.067
    1C        C  236   4.083   2.646   2.179
    1C        C  237   4.023   2.606   2.300
    1C        C  238   4.195   2.739   2.420
    1C        C  239   4.083   2.651   2.420
    1C        C  240   4.247   2.784   2.543
    1C        C  241   4.192   2.739   2.665
    1C        C  242   4.330   2.908   2.782
    1C        C  243   4.243   2.796   2.784
    1C        C  244   4.373   2.964   2.905
    1C        C  245   4.333   2.909   3.028
    1C        C  246   4.437   3.093   3.150
    1C        C  247   4.374   2.966   3.151
    1C        C  248   4.453   3.163   3.271
    1C        C  249   4.428   3.099   3.395
    1C        C  250   4.490   3.304   3.514
    1C        C  251   4.454   3.167   3.516
    1C        C  252   4.505   3.373   3.636
    1C        C  253   4.503   3.302   3.758
    1C        C  254   4.524   3.515   3.875
    1C        C  255   4.517   3.374   3.879
    1C        C  256   4.520   3.587   3.996
    1C        C  257   4.523   3.521   4.121
    1C        C  258   4.495   3.730   4.241
    1C        C  259   4.516   3.591   4.244
    1C        C  260   4.475   3.803   4.360
    1C        C  261   4.490   3.734   4.483
    1C        C  262   4.429   3.939   4.604
    1C        C  263   4.479   3.807   4.603
    1C        C  264   4.402   4.011   4.722
    1C        C  265   4.440   3.951   4.844
    1C        C  266   4.323   4.135   4.958
    1C        C  267   4.393   4.015   4.959
    1C        C  268   4.259   2.773   2.060
    1C        C  269   4.196   2.730   2.177
    1C        C  270   4.344   2.889   2.298
    1C        C  271   4.250   2.782   2.297
    1C        C  272   4.377   2.954   2.419
    1C        C  273   4.340   2.891   2.540
    1C        C  274   4.443   3.083   2.659
    1C        C  275   4.371   2.961   2.658
    1C        C  276   4.470   3.151   2.780
    1C        C  277   4.438   3.089   2.903
    1C        C  278   4.500   3.291   3.023
    1C        C  279   4.463   3.154   3.026
    1C        C  280   4.506   3.365   3.143
    1C        C  281   4.490   3.299   3.267
    1C        C  282   4.515   3.509   3.389
    1C        C  283   4.505   3.368   3.389
    1C        C  284   4.515   3.583   3.509
    1C        C  285   4.517   3.514   3.633
    1C        C  286   4.490   3.726   3.753
    1C        C  287   4.518   3.587   3.754
    1C        C  288   4.469   3.793   3.875
    1C        C  289   4.491   3.726   3.997
    1C        C  290   4.422   3.928   4.119
    1C        C  291   4.476   3.798   4.118
    1C        C  292   4.391   3.998   4.238
    1C        C  293   4.423   3.934   4.360
    1C        C  294   4.326   4.122   4.480
    1C        C  295   4.398   4.001   4.481
    1C        C  296   4.281   4.185   4.598
    1C        C  297   4.321   4.129   4.721
    1C        C  298   4.200   4.314   4.837
    1C        C  299   4.279   4.195   4.839
    1C        C  300   4.171   4.403   4.946
    1C        C  301   4.349   2.879   2.059
    1C        C  302   4.469   3.064   2.173
    1C        C  303   4.393   2.943   2.176
    1C        C  304   4.483   3.137   2.294
    1C        C  305   4.447   3.077   2.416
    1C        C  306   4.501   3.284   2.535
    1C        C  307   4.473   3.146   2.537
    1C        C  308   4.511   3.356   2.656
    1C        C  309   4.504   3.288   2.780
    1C        C  310   4.525   3.500   2.897
    1C        C  311   4.520   3.359   2.901
    1C        C  312   4.515   3.573   3.018
    1C        C  313   4.512   3.506   3.142
    1C        C  314   4.496   3.717   3.263
    1C        C  315   4.513   3.576   3.265
    1C        C  316   4.479   3.787   3.384
    1C        C  317   4.493   3.723   3.508
    1C        C  318   4.424   3.925   3.629
    1C        C  319   4.475   3.793   3.630
    1C        C  320   4.390   3.989   3.750
    1C        C  321   4.418   3.925   3.873
    1C        C  322   4.319   4.111   3.988
    1C        C  323   4.389   3.989   3.996
    1C        C  324   4.278   4.171   4.110
    1C        C  325   4.319   4.119   4.235
    1C        C  326   4.189   4.285   4.354
    1C        C  327   4.282   4.179   4.358
    1C        C  328   4.134   4.335   4.474
    1C        C  329   4.187   4.291   4.597
    1C        C  330   4.017   4.428   4.715
    1C        C  331   4.136   4.350   4.715
    1C        C  332   3.968   4.485   4.834
    1C        C  333   4.055   4.481   4.943
    1C        C  334   4.552   3.264   2.058
    1C        C  335   4.536   3.125   2.063
    1C        C  336   4.536   3.344   2.172
    1C        C  337   4.513   3.277   2.294
    1C        C  338   4.523   3.494   2.411
    1C        C  339   4.520   3.353   2.413
    1C        C  340   4.520   3.568   2.532
    1C        C  341   4.522   3.497   2.654
    1C        C  342   4.492   3.708   2.774
    1C        C  343   4.522   3.570   2.774
    1C        C  344   4.475   3.780   2.894
    1C        C  345   4.497   3.713   3.016
    1C        C  346   4.423   3.912   3.137
    1C        C  347   4.476   3.781   3.138
    1C        C  348   4.389   3.976   3.258
    1C        C  349   4.421   3.916   3.382
    1C        C  350   4.317   4.100   3.501
    1C        C  351   4.396   3.983   3.503
    1C        C  352   4.273   4.163   3.620
    1C        C  353   4.317   4.110   3.743
    1C        C  354   4.175   4.265   3.866
    1C        C  355   4.276   4.167   3.866
    1C        C  356   4.121   4.312   3.988
    1C        C  357   4.178   4.270   4.110
    1C        C  358   4.011   4.399   4.229
    1C        C  359   4.132   4.326   4.232
    1C        C  360   3.948   4.436   4.350
    1C        C  361   4.015   4.412   4.472
    1C        C  362   3.826   4.514   4.592
    1C        C  363   3.956   4.459   4.591
    1C        C  364   3.760   4.549   4.712
    1C        C  365   3.837   4.539   4.830
    1C        C  366   3.629   4.592   4.946
    1C        C  367   3.767   4.577   4.945
    1C        C  368   4.506   3.564   2.056
    1C        C  369   4.521   3.484   2.170
    1C        C  370   4.500   3.703   2.289
    1C        C  371   4.514   3.562   2.288
    1C        C  372   4.475   3.774   2.408
    1C        C  373   4.497   3.707   2.531
    1C        C  374   4.427   3.910   2.648
    1C        C  375   4.479   3.778   2.652
    1C        C  376   4.396   3.974   2.770
    1C        C  377   4.429   3.914   2.893
    1C        C  378   4.320   4.096   3.012
    1C        C  379   4.400   3.979   3.015
    1C        C  380   4.272   4.150   3.133
    1C        C  381   4.312   4.095   3.257
    1C        C  382   4.179   4.260   3.376
    1C        C  383   4.273   4.155   3.378
    1C        C  384   4.122   4.308   3.496
    1C        C  385   4.174   4.264   3.620
    1C        C  386   4.005   4.390   3.742
    1C        C  387   4.120   4.308   3.743
    1C        C  388   3.941   4.423   3.863
    1C        C  389   4.003   4.391   3.986
    1C        C  390   3.814   4.484   4.106
    1C        C  391   3.942   4.426   4.109
    1C        C  392   3.752   4.515   4.229
    1C        C  393   3.821   4.496   4.351
    1C        C  394   3.615   4.555   4.472
    1C        C  395   3.754   4.528   4.472
    1C        C  396   3.544   4.567   4.593
    1C        C  397   3.620   4.569   4.712
    1C        C  398   3.407   4.567   4.838
    1C        C  399   3.548   4.578   4.833
    1C        C  400   3.340   4.528   4.955
    1C        C  401   4.504   3.703   2.053
    1C        C  402   4.455   3.916   2.169
    1C        C  403   4.490   3.779   2.170
    1C        C  404   4.413   3.979   2.288
    1C        C  405   4.436   3.909   2.409
    1C        C  406   4.320   4.094   2.526
    1C        C  407   4.401   3.978   2.527
    1C        C  408   4.277   4.152   2.647
    1C        C  409   4.315   4.090   2.768
    1C        C  410   4.176   4.251   2.887
    1C        C  411   4.271   4.148   2.890
    1C        C  412   4.124   4.299   3.010
    1C        C  413   4.177   4.255   3.133
    1C        C  414   4.002   4.378   3.250
    1C        C  415   4.121   4.303   3.254
    1C        C  416   3.942   4.411   3.373
    1C        C  417   4.001   4.380   3.498
    1C        C  418   3.812   4.478   3.619
    1C        C  419   3.942   4.421   3.620
    1C        C  420   3.745   4.502   3.740
    1C        C  421   3.812   4.480   3.863
    1C        C  422   3.608   4.538   3.983
    1C        C  423   3.746   4.507   3.984
    1C        C  424   3.541   4.547   4.107
    1C        C  425   3.612   4.537   4.228
    1C        C  426   3.402   4.556   4.356
    1C        C  427   3.543   4.554   4.350
    1C        C  428   3.330   4.552   4.477
    1C        C  429   3.403   4.566   4.597
    1C        C  430   3.194   4.520   4.721
    1C        C  431   3.332   4.553   4.719
    1C        C  432   3.125   4.499   4.843
    1C        C  433   3.204   4.498   4.959
    1C        C  434   4.383   4.124   2.051
    1C        C  435   4.443   3.997   2.056
    1C        C  436   4.301   4.160   2.163
    1C        C  437   4.328   4.092   2.285
    1C        C  438   4.176   4.248   2.400
    1C        C  439   4.277   4.150   2.404
    1C        C  440   4.121   4.296   2.521
    1C        C  441   4.181   4.256   2.643
    1C        C  442   4.008   4.380   2.763
    1C        C  443   4.124   4.300   2.765
    1C        C  444   3.945   4.412   2.886
    1C        C  445   4.005   4.375   3.008
    1C        C  446   3.807   4.464   3.128
    1C        C  447   3.938   4.411   3.128
    1C        C  448   3.745   4.490   3.252
    1C        C  449   3.814   4.471   3.374
    1C        C  450   3.609   4.529   3.496
    1C        C  451   3.746   4.495   3.495
    1C        C  452   3.538   4.542   3.617
    1C        C  453   3.607   4.535   3.741
    1C        C  454   3.395   4.546   3.864
    1C        C  455   3.536   4.547   3.862
    1C        C  456   3.329   4.539   3.989
    1C        C  457   3.400   4.543   4.111
    1C        C  458   3.194   4.509   4.236
    1C        C  459   3.331   4.543   4.235
    1C        C  460   3.127   4.489   4.359
    1C        C  461   3.193   4.518   4.480
    1C        C  462   2.996   4.435   4.601
    1C        C  463   3.123   4.496   4.601
    1C        C  464   2.932   4.402   4.723
    1C        C  465   2.992   4.445   4.844
    1C        C  466   2.802   4.333   4.957
    1C        C  467   2.906   4.428   4.957
    1C        C  468   4.116   4.279   2.041
    1C        C  469   4.187   4.247   2.158
    1C        C  470   4.005   4.370   2.275
    1C        C  471   4.126   4.295   2.277
    1C        C  472   3.940   4.401   2.397
    1C        C  473   4.006   4.377   2.519
    1C        C  474   3.812   4.463   2.640
    1C        C  475   3.945   4.414   2.641
    1C        C  476   3.744   4.486   2.762
    1C        C  477   3.814   4.466   2.883
    1C        C  478   3.607   4.519   3.006
    1C        C  479   3.745   4.488   3.004
    1C        C  480   3.538   4.529   3.129
    1C        C  481   3.607   4.520   3.251
    1C        C  482   3.396   4.532   3.375
    1C        C  483   3.537   4.532   3.374
    1C        C  484   3.326   4.531   3.498
    1C        C  485   3.397   4.542   3.620
    1C        C  486   3.188   4.503   3.743
    1C        C  487   3.325   4.537   3.741
    1C        C  488   3.127   4.476   3.868
    1C        C  489   3.193   4.499   3.990
    1C        C  490   3.004   4.412   4.114
    1C        C  491   3.130   4.477   4.114
    1C        C  492   2.947   4.377   4.238
    1C        C  493   3.003   4.421   4.360
    1C        C  494   2.832   4.294   4.483
    1C        C  495   2.943   4.382   4.482
    1C        C  496   2.774   4.251   4.604
    1C        C  497   2.819   4.315   4.722
    1C        C  498   2.668   4.161   4.843
    1C        C  499   2.756   4.272   4.840
    1C        C  500   2.593   4.119   4.953
    1C        C  501   3.996   4.349   2.038
    1C        C  502   3.812   4.465   2.154
    1C        C  503   3.936   4.398   2.155
    1C        C  504   3.740   4.479   2.275
    1C        C  505   3.807   4.449   2.395
    1C        C  506   3.604   4.501   2.518
    1C        C  507   3.742   4.473   2.518
    1C        C  508   3.534   4.510   2.640
    1C        C  509   3.605   4.511   2.762
    1C        C  510   3.393   4.523   2.885
    1C        C  511   3.535   4.519   2.885
    1C        C  512   3.324   4.519   3.008
    1C        C  513   3.396   4.524   3.129
    1C        C  514   3.190   4.491   3.253
    1C        C  515   3.327   4.526   3.252
    1C        C  516   3.124   4.466   3.375
    1C        C  517   3.189   4.497   3.497
    1C        C  518   3.001   4.407   3.626
    1C        C  519   3.124   4.475   3.620
    1C        C  520   2.942   4.368   3.749
    1C        C  521   3.004   4.406   3.870
    1C        C  522   2.836   4.280   3.998
    1C        C  523   2.949   4.364   3.993
    1C        C  524   2.792   4.231   4.123
    1C        C  525   2.843   4.282   4.245
    1C        C  526   2.689   4.131   4.362
    1C        C  527   2.780   4.240   4.364
    1C        C  528   2.649   4.072   4.484
    1C        C  529   2.688   4.139   4.602
    1C        C  530   2.580   3.959   4.731
    1C        C  531   2.642   4.086   4.725
    1C        C  532   2.542   3.900   4.855
    1C        C  533   2.532   3.993   4.963
    1C        C  534   3.617   4.564   2.039
    1C        C  535   3.748   4.516   2.040
    1C        C  536   3.534   4.537   2.152
    1C        C  537   3.601   4.509   2.274
    1C        C  538   3.391   4.516   2.398
    1C        C  539   3.532   4.515   2.397
    1C        C  540   3.319   4.512   2.520
    1C        C  541   3.392   4.511   2.640
    1C        C  542   3.185   4.483   2.765
    1C        C  543   3.323   4.513   2.763
    1C        C  544   3.120   4.462   2.889
    1C        C  545   3.186   4.487   3.011
    1C        C  546   2.993   4.400   3.134
    1C        C  547   3.119   4.465   3.133
    1C        C  548   2.939   4.362   3.258
    1C        C  549   3.000   4.400   3.380
    1C        C  550   2.833   4.276   3.505
    1C        C  551   2.944   4.363   3.504
    1C        C  552   2.783   4.229   3.628
    1C        C  553   2.833   4.278   3.751
    1C        C  554   2.701   4.118   3.876
    1C        C  555   2.787   4.230   3.876
    1C        C  556   2.662   4.061   3.999
    1C        C  557   2.701   4.124   4.120
    1C        C  558   2.594   3.941   4.243
    1C        C  559   2.650   4.070   4.240
    1C        C  560   2.566   3.878   4.367
    1C        C  561   2.587   3.946   4.489
    1C        C  562   2.532   3.746   4.615
    1C        C  563   2.561   3.884   4.613
    1C        C  564   2.512   3.679   4.738
    1C        C  565   2.514   3.760   4.855
    1C        C  566   2.521   3.546   4.974
    1C        C  567   2.517   3.685   4.974
    1C        C  568   3.324   4.484   2.037
    1C        C  569   3.393   4.516   2.154
    1C        C  570   3.182   4.475   2.281
    1C        C  571   3.320   4.508   2.276
    1C        C  572   3.112   4.458   2.403
    1C        C  573   3.181   4.483   2.523
    1C        C  574   2.986   4.398   2.646
    1C        C  575   3.113   4.460   2.645
    1C        C  576   2.931   4.359   2.770
    1C        C  577   2.995   4.397   2.891
    1C        C  578   2.824   4.270   3.015
    1C        C  579   2.933   4.360   3.012
    1C        C  580   2.781   4.217   3.139
    1C        C  581   2.835   4.266   3.260
    1C        C  582   2.695   4.113   3.385
    1C        C  583   2.783   4.223   3.384
    1C        C  584   2.662   4.054   3.509
    1C        C  585   2.701   4.114   3.630
    1C        C  586   2.591   3.936   3.755
    1C        C  587   2.660   4.059   3.754
    1C        C  588   2.568   3.869   3.878
    1C        C  589   2.601   3.933   4.000
    1C        C  590   2.529   3.736   4.125
    1C        C  591   2.568   3.872   4.122
    1C        C  592   2.518   3.670   4.250
    1C        C  593   2.525   3.743   4.371
    1C        C  594   2.506   3.533   4.495
    1C        C  595   2.518   3.674   4.494
    1C        C  596   2.508   3.464   4.618
    1C        C  597   2.510   3.537   4.739
    1C        C  598   2.533   3.325   4.864
    1C        C  599   2.521   3.465   4.860
    1C        C  600   2.541   3.249   4.981
    1C        C  601   3.194   4.439   2.045
    1C        C  602   2.983   4.387   2.161
    1C        C  603   3.115   4.440   2.161
    1C        C  604   2.925   4.351   2.286
    1C        C  605   2.989   4.387   2.406
    1C        C  606   2.810   4.272   2.531
    1C        C  607   2.925   4.354   2.527
    1C        C  608   2.766   4.218   2.653
    1C        C  609   2.824   4.267   2.772
    1C        C  610   2.686   4.106   2.897
    1C        C  611   2.772   4.218   2.894
    1C        C  612   2.652   4.048   3.021
    1C        C  613   2.691   4.109   3.142
    1C        C  614   2.589   3.925   3.267
    1C        C  615   2.650   4.052   3.265
    1C        C  616   2.559   3.864   3.391
    1C        C  617   2.592   3.931   3.511
    1C        C  618   2.527   3.731   3.637
    1C        C  619   2.567   3.867   3.635
    1C        C  620   2.513   3.663   3.760
    1C        C  621   2.525   3.735   3.882
    1C        C  622   2.500   3.525   4.008
    1C        C  623   2.512   3.665   4.004
    1C        C  624   2.505   3.457   4.132
    1C        C  625   2.499   3.530   4.252
    1C        C  626   2.527   3.321   4.379
    1C        C  627   2.503   3.460   4.374
    1C        C  628   2.551   3.253   4.500
    1C        C  629   2.536   3.325   4.621
    1C        C  630   2.590   3.118   4.742
    1C        C  631   2.547   3.254   4.742
    1C        C  632   2.611   3.048   4.864
    1C        C  633   2.558   3.110   4.981
    1C        C  634   2.779   4.303   2.054
    1C        C  635   2.894   4.383   2.049
    1C        C  636   2.748   4.228   2.169
    1C        C  637   2.807   4.272   2.289
    1C        C  638   2.673   4.106   2.408
    1C        C  639   2.759   4.219   2.410
    1C        C  640   2.635   4.048   2.531
    1C        C  641   2.680   4.105   2.652
    1C        C  642   2.584   3.919   2.777
    1C        C  643   2.644   4.047   2.776
    1C        C  644   2.559   3.856   2.902
    1C        C  645   2.588   3.923   3.023
    1C        C  646   2.516   3.724   3.149
    1C        C  647   2.560   3.858   3.146
    1C        C  648   2.503   3.656   3.273
    1C        C  649   2.520   3.728   3.393
    1C        C  650   2.498   3.519   3.518
    1C        C  651   2.510   3.660   3.516
    1C        C  652   2.507   3.451   3.641
    1C        C  653   2.509   3.522   3.763
    1C        C  654   2.531   3.315   3.888
    1C        C  655   2.502   3.453   3.886
    1C        C  656   2.549   3.248   4.011
    1C        C  657   2.530   3.318   4.133
    1C        C  658   2.601   3.122   4.258
    1C        C  659   2.547   3.252   4.257
    1C        C  660   2.635   3.058   4.379
    1C        C  661   2.603   3.122   4.501
    1C        C  662   2.711   2.940   4.623
    1C        C  663   2.626   3.052   4.622
    1C        C  664   2.750   2.880   4.745
    1C        C  665   2.691   2.929   4.865
    1C        C  666   2.735   2.863   4.981
    1C        C  667   2.681   4.020   2.054
    1C        C  668   2.680   4.104   2.166
    1C        C  669   2.586   3.911   2.287
    1C        C  670   2.639   4.043   2.287
    1C        C  671   2.557   3.849   2.410
    1C        C  672   2.579   3.919   2.531
    1C        C  673   2.521   3.718   2.658
    1C        C  674   2.555   3.855   2.655
    1C        C  675   2.508   3.649   2.781
    1C        C  676   2.523   3.720   2.902
    1C        C  677   2.501   3.513   3.030
    1C        C  678   2.512   3.654   3.027
    1C        C  679   2.502   3.442   3.152
    1C        C  680   2.499   3.515   3.273
    1C        C  681   2.526   3.307   3.400
    1C        C  682   2.502   3.447   3.397
    1C        C  683   2.549   3.242   3.523
    1C        C  684   2.528   3.312   3.644
    1C        C  685   2.603   3.114   3.770
    1C        C  686   2.548   3.244   3.767
    1C        C  687   2.638   3.054   3.894
    1C        C  688   2.601   3.117   4.015
    1C        C  689   2.714   2.939   4.138
    1C        C  690   2.630   3.053   4.138
    1C        C  691   2.761   2.883   4.259
    1C        C  692   2.714   2.941   4.379
    1C        C  693   2.756   2.885   4.501
    1C        C  694   2.625   3.891   2.054
    1C        C  695   2.523   3.701   2.173
    1C        C  696   2.571   3.833   2.170
    1C        C  697   2.503   3.637   2.297
    1C        C  698   2.519   3.713   2.415
    1C        C  699   2.487   3.505   2.540
    1C        C  700   2.503   3.645   2.538
    1C        C  701   2.500   3.437   2.663
    1C        C  702   2.501   3.508   2.785
    1C        C  703   2.520   3.301   2.911
    1C        C  704   2.496   3.440   2.908
    1C        C  705   2.541   3.233   3.033
    1C        C  706   2.528   3.303   3.155
    1C        C  707   2.603   3.108   3.278
    1C        C  708   2.545   3.237   3.279
    1C        C  709   2.637   3.049   3.402
    1C        C  710   2.604   3.112   3.524
    1C        C  711   2.714   2.934   3.649
    1C        C  712   2.633   3.050   3.648
    1C        C  713   2.760   2.879   3.771
    1C        C  714   2.718   2.938   3.892
    1C        C  715   2.759   2.884   4.016
    1C        C  716   2.447   3.495   2.062
    1C        C  717   2.485   3.630   2.058
    1C        C  718   2.460   3.421   2.184
    1C        C  719   2.474   3.498   2.303
    1C        C  720   2.505   3.286   2.425
    1C        C  721   2.480   3.425   2.424
    1C        C  722   2.533   3.222   2.548
    1C        C  723   2.518   3.297   2.666
    1C        C  724   2.595   3.101   2.790
    1C        C  725   2.537   3.231   2.790
    1C        C  726   2.627   3.037   2.912
    1C        C  727   2.595   3.102   3.033
    1C        C  728   2.710   2.926   3.160
    1C        C  729   2.632   3.043   3.156
    1C        C  730   2.757   2.873   3.283
    1C        C  731   2.716   2.933   3.404
    1C        C  732   2.761   2.880   3.528
    1C        C  733   2.488   3.197   2.072
    1C        C  734   2.486   3.281   2.184
    1C        C  735   2.588   3.088   2.304
    1C        C  736   2.524   3.215   2.305
    1C        C  737   2.614   3.021   2.426
    1C        C  738   2.590   3.092   2.545
    1C        C  739   2.702   2.917   2.670
    1C        C  740   2.624   3.034   2.670
    1C        C  741   2.748   2.863   2.792
    1C        C  742   2.707   2.921   2.914
    1C        C  743   2.756   2.873   3.038
    1C        C  744   2.549   3.072   2.070
    1C        C  745   2.684   2.899   2.187
    1C        C  746   2.614   3.021   2.183
    1C        C  747   2.728   2.840   2.308
    1C        C  748   2.686   2.900   2.429
    1C        C  749   2.739   2.852   2.550
    1C        C  750   2.738   2.844   2.070
    1C        C  751   3.666   2.289   2.014
    1C        O  752   3.675   2.188   2.090
    1C        O  753   3.676   2.278   1.875
    1C        C  754   4.642   3.047   1.994
    1C        O  755   4.632   3.023   1.871
    1C        O  756   4.766   3.049   2.058
    1C        C  757   4.469   4.230   1.996
    1C        O  758   4.582   4.260   2.043
    1C        O  759   4.456   4.279   1.865
    1C        C  760   3.593   4.672   1.939
    1C        O  761   3.613   4.794   1.960
    1C        O  762   3.567   4.647   1.804
    1C        C  763   2.877   4.503   1.963
    1C        O  764   2.943   4.507   1.856
    1C        O  765   2.804   4.618   1.993
    1C        C  766   2.341   3.457   1.966
    1C        O  767   2.371   3.456   1.844
    1C        O  768   2.212   3.435   2.015
    1C        C  769   4.677   3.571   5.065
    1C        O  770   4.636   3.550   5.182
    1C        O  771   4.806   3.625   5.077
    1C        C  772   4.276   4.446   5.041
    1C        O  773   4.258   4.423   5.164
    1C        O  774   4.346   4.566   5.025
    1C        C  775   4.144   2.550   5.086
    1C        O  776   4.234   2.461   5.085
    1C        O  777   4.110   2.575   5.220
    1C        C  778   2.881   4.542   5.048
    1C        O  779   2.855   4.656   5.002
    1C        O  780   2.906   4.541   5.186
    1C        C  781   2.471   3.034   5.074
    1C        O  782   2.349   3.017   5.045
    1C        O  783   2.490   3.033   5.212
    1C        C  784   2.412   3.998   5.051
    1C        O  785   2.325   4.088   5.046
    1C        O  786   2.415   3.944   5.180
    1C        C  787   2.943   2.416   2.026
    1C        O  788   2.872   2.449   1.927
    1C        O  789   2.862   2.343   2.113
    1C        C  790   3.178   2.371   5.066
    1C        O  791   3.147   2.259   5.017
    1C        O  792   3.223   2.361   5.199
    1C        H  793   4.310   3.006   5.072
    1C        H  794   4.162   2.818   5.068
    1C        H  795   4.515   3.119   5.045
    1C        H  796   4.578   3.357   5.049
    1C        H  797   4.602   3.822   5.024
    1C        H  798   4.392   3.959   5.051
    1C        H  799   4.278   4.169   5.050
    1C        H  800   4.050   4.565   5.010
    1C        H  801   3.821   4.628   5.023
    1C        H  802   3.584   4.632   5.034
    1C        H  803   3.396   4.514   5.045
    1C        H  804   3.173   4.429   5.035
    1C        H  805   3.876   2.530   5.075
    1C        H  806   3.672   2.413   5.052
    1C        H  807   2.991   2.549   5.060
    1C        H  808   3.443   2.456   5.076
    1C        H  809   2.876   2.743   5.079
    1C        H  810   2.661   2.847   5.057
    1C        H  811   2.587   3.296   5.065
    1C        H  812   2.499   3.499   5.068
    1C        H  813   2.470   3.729   5.059
    1C        H  814   2.557   4.193   5.021
    1C        H  815   2.733   4.330   5.039
    1C        H  816   2.741   2.908   1.984
    1C        H  817   2.880   2.712   1.987
    1C        H  818   3.212   2.433   1.987
    1C        H  819   3.431   2.449   1.977
    1C        H  820   3.822   2.557   1.984
    1C        H  821   4.061   2.617   1.968
    1C        H  822   4.258   2.714   1.970
    1C        H  823   4.390   2.904   1.964
    1C        H  824   4.603   3.305   1.973
    1C        H  825   4.484   3.517   1.963
    1C        H  826   4.541   3.750   1.964
    1C        H  827   3.789   4.494   1.943
    1C        H  828   3.962   4.391   1.946
    1C        H  829   4.170   4.275   1.948
    1C        H  830   4.504   3.974   1.971
    1C        H  831   2.614   3.843   1.960
    1C        H  832   2.734   4.045   1.965
    1C        H  833   2.720   4.289   1.966
    1C        H  834   3.374   4.480   1.942
    1C        H  835   3.154   4.399   1.954
    1C        H  836   2.493   2.995   2.020
    1C        H  837   2.408   3.205   2.002
    1C        H  838   2.445   3.684   1.974
    2V3OU   H29  839   2.805   3.551   5.206
    2V3OU   C27  840   2.780   3.504   5.305
    2V3OU   H27  841   2.722   3.570   5.374
    2V3OU   H28  842   2.730   3.407   5.281
    2V3OU   O11  843   2.908   3.473   5.362
    2V3OU   C15  844   2.920   3.393   5.474
    2V3OU   C13  845   3.050   3.376   5.526
    2V3OU   C14  846   3.075   3.265   5.607
    2V3OU   C16  847   2.967   3.187   5.647
    2V3OU    H6  848   2.988   3.104   5.716
    2V3OU   C12  849   3.211   3.235   5.658
    2V3OU    O2  850   3.239   3.133   5.725
    2V3OU   C10  851   3.323   3.304   5.593
    2V3OU    C8  852   3.454   3.266   5.621
    2V3OU   O10  853   3.489   3.149   5.681
    2V3OU   H26  854   3.400   3.111   5.689
    2V3OU    C6  855   3.566   3.344   5.578
    2V3OU    C5  856   3.535   3.464   5.514
    2V3OU    C4  857   3.706   3.295   5.576
    2V3OU    H4  858   3.724   3.229   5.667
    2V3OU    H5  859   3.714   3.234   5.482
    2V3OU    C2  860   3.818   3.399   5.579
    2V3OU    O6  861   3.809   3.472   5.701
    2V3OU   H21  862   3.762   3.555   5.683
    2V3OU    C3  863   3.780   3.495   5.466
    2V3OU    H2  864   3.861   3.573   5.465
    2V3OU    H3  865   3.784   3.436   5.370
    2V3OU   C25  866   3.952   3.326   5.562
    2V3OU    O7  867   3.999   3.293   5.453
    2V3OU   C26  868   4.028   3.292   5.689
    2V3OU   H22  869   4.060   3.390   5.733
    2V3OU   H23  870   4.117   3.228   5.664
    2V3OU    O8  871   3.960   3.209   5.780
    2V3OU   H24  872   3.924   3.269   5.847
    2V3OU    C1  873   3.644   3.560   5.479
    2V3OU    H1  874   3.626   3.619   5.384
    2V3OU    O3  875   3.655   3.654   5.586
    2V3OU   C19  876   3.616   3.791   5.573
    2V3OU    H9  877   3.525   3.811   5.510
    2V3OU    O4  878   3.714   3.844   5.486
    2V3OU   C20  879   3.844   3.873   5.538
    2V3OU   H10  880   3.896   3.775   5.560
    2V3OU   C24  881   3.613   3.855   5.712
    2V3OU   H16  882   3.546   3.789   5.773
    2V3OU   H17  883   3.572   3.959   5.698
    2V3OU   C23  884   3.751   3.878   5.773
    2V3OU   H15  885   3.786   3.772   5.796
    2V3OU    N1  886   3.734   3.961   5.890
    2V3OU   H19  887   3.799   3.929   5.960
    2V3OU   H20  888   3.644   3.935   5.926
    2V3OU   C21  889   3.850   3.945   5.673
    2V3OU   H11  890   3.951   3.923   5.721
    2V3OU    O5  891   3.832   4.085   5.668
    2V3OU   H18  892   3.781   4.101   5.748
    2V3OU   C22  893   3.920   3.947   5.429
    2V3OU   H12  894   3.867   4.043   5.404
    2V3OU   H13  895   3.913   3.889   5.333
    2V3OU   H14  896   4.025   3.963   5.463
    2V3OU   C11  897   3.160   3.472   5.517
    2V3OU    O1  898   3.135   3.592   5.492
    2V3OU    C9  899   3.299   3.420   5.516
    2V3OU    C7  900   3.403   3.502   5.475
    2V3OU    O9  901   3.382   3.623   5.412
    2V3OU   H25  902   3.286   3.637   5.413
    2V3OU   C17  903   2.814   3.315   5.525
    2V3OU    H7  904   2.710   3.344   5.516
    2V3OU   C18  905   2.834   3.211   5.615
    2V3OU    H8  906   2.756   3.145   5.656
    3SOL     OW  907   3.838   3.013   3.925
    3SOL    HW1  908   3.740   3.032   3.933
    3SOL    HW2  909   3.861   2.998   3.828
    4SOL     OW  910   6.740   6.338   0.934
    4SOL    HW1  911   6.720   6.290   1.020
    4SOL    HW2  912   6.745   6.273   0.859
    5SOL     OW  913   4.753   2.175   0.424
    5SOL    HW1  914   4.761   2.097   0.363
    5SOL    HW2  915   4.781   2.148   0.516
    6SOL     OW  916   5.015   0.921   2.926
    6SOL    HW1  917   4.930   0.946   2.973
    6SOL    HW2  918   4.993   0.889   2.833
    7SOL     OW  919   1.596   3.915   4.078
    7SOL    HW1  920   1.597   3.993   4.016
    7SOL    HW2  921   1.688   3.877   4.087
    8SOL     OW  922   1.471   3.273   5.054
    8SOL    HW1  923   1.569   3.259   5.071
    8SOL    HW2  924   1.439   3.208   4.985
    9SOL     OW  925   0.145   1.059   6.718
    9SOL    HW1  926   0.193   1.068   6.631
    9SOL    HW2  927   0.084   0.980   6.715
   10SOL     OW  928   5.378   4.882   1.914
   10SOL    HW1  929   5.460   4.868   1.859
   10SOL    HW2  930   5.310   4.934   1.862
   11SOL     OW  931   2.003   2.446   0.390
   11SOL    HW1  932   2.049   2.383   0.452
   11SOL    HW2  933   1.983   2.399   0.304
   12SOL     OW  934   3.305   5.169   2.910
   12SOL    HW1  935   3.296   5.245   2.974
   12SOL    HW2  936   3.224   5.110   2.917
   13SOL     OW  937   5.735   5.769   1.018
   13SOL    HW1  938   5.735   5.683   0.966
   13SOL    HW2  939   5.672   5.834   0.976
   14SOL     OW  940   4.092   5.973   5.277
   14SOL    HW1  941   4.047   5.982   5.366
   14SOL    HW2  942   4.147   6.055   5.259
   15SOL     OW  943   0.608   6.677   6.165
   15SOL    HW1  944   0.646   6.679   6.073
   15SOL    HW2  945   0.508   6.684   6.161
   16SOL     OW  946   2.064   4.404   4.961
   16SOL    HW1  947   2.073   4.309   4.992
   16SOL    HW2  948   2.155   4.444   4.949
   17SOL     OW  949   6.304   1.307   5.599
   17SOL    HW1  950   6.214   1.319   5.641
   17SOL    HW2  951   6.308   1.217   5.555
   18SOL     OW  952   2.345   0.851   6.660
   18SOL    HW1  953   2.385   0.812   6.743
   18SOL    HW2  954   2.276   0.789   6.623
   19SOL     OW  955   2.879   6.939   3.308
   19SOL    HW1  956   2.784   6.914   3.326
   19SOL    HW2  957   2.887   0.017   3.304
   20SOL     OW  958   6.459   1.763   5.545
   20SOL    HW1  959   6.436   1.811   5.460
   20SOL    HW2  960   6.381   1.768   5.608
   21SOL     OW  961   2.702   4.653   2.815
   21SOL    HW1  962   2.725   4.744   2.778
   21SOL    HW2  963   2.786   4.601   2.830
   22SOL     OW  964   1.271   0.765   6.825
   22SOL    HW1  965   1.293   0.757   6.727
   22SOL    HW2  966   1.196   0.703   6.847
   23SOL     OW  967   6.032   4.590   1.379
   23SOL    HW1  968   6.060   4.681   1.346
   23SOL    HW2  969   5.939   4.571   1.350
   24SOL     OW  970   4.454   1.097   0.554
   24SOL    HW1  971   4.493   1.011   0.522
   24SOL    HW2  972   4.367   1.079   0.600
   25SOL     OW  973   1.735   1.270   4.729
   25SOL    HW1  974   1.829   1.279   4.695
   25SOL    HW2  975   1.723   1.329   4.809
   26SOL     OW  976   0.883   2.864   6.430
   26SOL    HW1  977   0.916   2.831   6.342
   26SOL    HW2  978   0.834   2.950   6.418
   27SOL     OW  979   5.922   0.511   1.573
   27SOL    HW1  980   6.000   0.519   1.510
   27SOL    HW2  981   5.914   0.417   1.605
   28SOL     OW  982   2.223   0.911   5.516
   28SOL    HW1  983   2.295   0.956   5.462
   28SOL    HW2  984   2.147   0.886   5.456
   29SOL     OW  985   0.381   6.875   0.911
   29SOL    HW1  986   0.301   6.918   0.870
   29SOL    HW2  987   0.454   6.942   0.920
   30SOL     OW  988   5.027   0.239   5.133
   30SOL    HW1  989   4.984   0.300   5.199
   30SOL    HW2  990   5.124   0.228   5.154
   31SOL     OW  991   1.072   3.125   5.052
   31SOL    HW1  992   1.126   3.044   5.072
   31SOL    HW2  993   0.975   3.102   5.050
   32SOL     OW  994   3.562   0.448   1.244
   32SOL    HW1  995   3.533   0.360   1.205
   32SOL    HW2  996   3.623   0.431   1.322
   33SOL     OW  997   1.423   5.771   6.010
   33SOL    HW1  998   1.383   5.754   6.100
   33SOL    HW2  999   1.522   5.782   6.019
   34SOL     OW 1000   2.548   5.202   5.190
   34SOL    HW1 1001   2.623   5.142   5.219
   34SOL    HW2 1002   2.547   5.284   5.247
   35SOL     OW 1003   2.345   3.356   0.028
   35SOL    HW1 1004   2.431   3.407   0.018
   35SOL    HW2 1005   2.343   3.283   6.982
   36SOL     OW 1006   3.847   1.029   4.105
   36SOL    HW1 1007   3.780   1.059   4.037
   36SOL    HW2 1008   3.847   0.929   4.109
   37SOL     OW 1009   2.820   0.330   4.050
   37SOL    HW1 1010   2.830   0.292   3.958
   37SOL    HW2 1011   2.765   0.268   4.105
   38SOL     OW 1012   1.258   3.936   2.729
   38SOL    HW1 1013   1.260   4.010   2.796
   38SOL    HW2 1014   1.351   3.919   2.696
   39SOL     OW 1015   0.074   4.788   0.763
   39SOL    HW1 1016   0.038   4.865   0.815
   39SOL    HW2 1017   0.172   4.799   0.750
   40SOL     OW 1018   4.769   1.756   0.971
   40SOL    HW1 1019   4.794   1.662   0.947
   40SOL    HW2 1020   4.837   1.819   0.933
   41SOL     OW 1021   5.312   4.083   1.576
   41SOL    HW1 1022   5.307   4.161   1.639
   41SOL    HW2 1023   5.338   4.001   1.627
   42SOL     OW 1024   2.615   4.887   6.483
   42SOL    HW1 1025   2.634   4.977   6.442
   42SOL    HW2 1026   2.547   4.898   6.556
   43SOL     OW 1027   3.943   6.846   5.052
   43SOL    HW1 1028   3.946   6.920   5.120
   43SOL    HW2 1029   3.933   6.885   4.961
   44SOL     OW 1030   6.787   1.330   5.690
   44SOL    HW1 1031   6.792   1.285   5.601
   44SOL    HW2 1032   6.705   1.299   5.739
   45SOL     OW 1033   2.442   5.002   5.849
   45SOL    HW1 1034   2.506   4.932   5.880
   45SOL    HW2 1035   2.356   4.993   5.899
   46SOL     OW 1036   0.704   2.990   4.338
   46SOL    HW1 1037   0.736   3.040   4.257
   46SOL    HW2 1038   0.781   2.973   4.399
   47SOL     OW 1039   6.601   3.604   0.652
   47SOL    HW1 1040   6.661   3.667   0.603
   47SOL    HW2 1041   6.650   3.520   0.673
   48SOL     OW 1042   5.843   3.609   0.943
   48SOL    HW1 1043   5.876   3.537   0.882
   48SOL    HW2 1044   5.753   3.583   0.979
   49SOL     OW 1045   3.296   3.916   6.766
   49SOL    HW1 1046   3.241   3.953   6.840
   49SOL    HW2 1047   3.260   3.948   6.678
   50SOL     OW 1048   6.472   2.297   0.442
   50SOL    HW1 1049   6.495   2.257   0.353
   50SOL    HW2 1050   6.469   2.224   0.511
   51SOL     OW 1051   1.826   5.554   2.962
   51SOL    HW1 1052   1.923   5.572   2.950
   51SOL    HW2 1053   1.809   5.455   2.957
   52SOL     OW 1054   6.192   3.307   1.809
   52SOL    HW1 1055   6.243   3.319   1.893
   52SOL    HW2 1056   6.184   3.209   1.788
   53SOL     OW 1057   4.020   0.848   1.695
   53SOL    HW1 1058   4.001   0.817   1.602
   53SOL    HW2 1059   4.035   0.769   1.754
   54SOL     OW 1060   5.373   0.156   6.853
   54SOL    HW1 1061   5.403   0.062   6.864
   54SOL    HW2 1062   5.452   0.217   6.856
   55SOL     OW 1063   1.273   3.523   5.977
   55SOL    HW1 1064   1.325   3.599   6.017
   55SOL    HW2 1065   1.199   3.497   6.038
   56SOL     OW 1066   0.589   2.406   6.676
   56SOL    HW1 1067   0.511   2.393   6.614
   56SOL    HW2 1068   0.606   2.321   6.726
   57SOL     OW 1069   4.329   6.220   0.252
   57SOL    HW1 1070   4.237   6.184   0.265
   57SOL    HW2 1071   4.384   6.202   0.334
   58SOL     OW 1072   0.301   0.209   0.298
   58SOL    HW1 1073   0.257   0.178   0.382
   58SOL    HW2 1074   0.400   0.199   0.306
   59SOL     OW 1075   5.015   3.066   5.516
   59SOL    HW1 1076   5.016   2.998   5.442
   59SOL    HW2 1077   5.078   3.140   5.494
   60SOL     OW 1078   5.203   2.022   2.217
   60SOL    HW1 1079   5.120   2.077   2.209
   60SOL    HW2 1080   5.215   1.967   2.134
   61SOL     OW 1081   0.742   6.010   4.272
   61SOL    HW1 1082   0.832   6.005   4.315
   61SOL    HW2 1083   0.750   6.051   4.181
   62SOL     OW 1084   5.977   3.061   2.464
   62SOL    HW1 1085   5.906   2.995   2.442
   62SOL    HW2 1086   5.936   3.140   2.510
   63SOL     OW 1087   4.057   6.866   6.056
   63SOL    HW1 1088   3.999   6.825   6.126
   63SOL    HW2 1089   4.076   6.961   6.080
   64SOL     OW 1090   0.887   4.025   5.109
   64SOL    HW1 1091   0.916   4.023   5.013
   64SOL    HW2 1092   0.841   3.939   5.132
   65SOL     OW 1093   0.546   6.214   4.937
   65SOL    HW1 1094   0.452   6.194   4.965
   65SOL    HW2 1095   0.546   6.292   4.875
   66SOL     OW 1096   3.758   1.075   2.411
   66SOL    HW1 1097   3.752   1.049   2.508
   66SOL    HW2 1098   3.670   1.111   2.381
   67SOL     OW 1099   0.424   2.986   1.255
   67SOL    HW1 1100   0.422   3.073   1.304
   67SOL    HW2 1101   0.421   3.004   1.157
   68SOL     OW 1102   6.582   1.739   6.083
   68SOL    HW1 1103   6.564   1.695   6.171
   68SOL    HW2 1104   6.679   1.761   6.076
   69SOL     OW 1105   1.199   6.086   6.245
   69SOL    HW1 1106   1.107   6.109   6.214
   69SOL    HW2 1107   1.194   6.016   6.316
   70SOL     OW 1108   5.095   3.575   3.823
   70SOL    HW1 1109   5.030   3.554   3.751
   70SOL    HW2 1110   5.068   3.529   3.908
   71SOL     OW 1111   5.103   2.159   4.293
   71SOL    HW1 1112   5.134   2.095   4.223
   71SOL    HW2 1113   5.031   2.217   4.256
   72SOL     OW 1114   0.585   0.699   2.667
   72SOL    HW1 1115   0.613   0.736   2.755
   72SOL    HW2 1116   0.619   0.605   2.658
   73SOL     OW 1117   3.107   0.832   0.743
   73SOL    HW1 1118   3.197   0.793   0.724
   73SOL    HW2 1119   3.117   0.925   0.778
   74SOL     OW 1120   2.373   2.873   1.194
   74SOL    HW1 1121   2.470   2.873   1.171
   74SOL    HW2 1122   2.361   2.832   1.285
   75SOL     OW 1123   3.176   3.110   0.981
   75SOL    HW1 1124   3.129   3.080   0.899
   75SOL    HW2 1125   3.275   3.098   0.969
   76SOL     OW 1126   3.497   4.477   5.300
   76SOL    HW1 1127   3.508   4.414   5.223
   76SOL    HW2 1128   3.466   4.425   5.380
   77SOL     OW 1129   0.398   5.691   4.399
   77SOL    HW1 1130   0.347   5.769   4.364
   77SOL    HW2 1131   0.341   5.609   4.394
   78SOL     OW 1132   4.907   1.889   1.478
   78SOL    HW1 1133   4.873   1.893   1.571
   78SOL    HW2 1134   4.837   1.923   1.415
   79SOL     OW 1135   0.875   4.625   3.307
   79SOL    HW1 1136   0.878   4.532   3.270
   79SOL    HW2 1137   0.785   4.643   3.347
   80SOL     OW 1138   3.682   1.144   5.568
   80SOL    HW1 1139   3.613   1.169   5.500
   80SOL    HW2 1140   3.667   1.197   5.652
   81SOL     OW 1141   4.562   5.123   1.823
   81SOL    HW1 1142   4.554   5.066   1.905
   81SOL    HW2 1143   4.635   5.190   1.837
   82SOL     OW 1144   2.832   6.156   2.151
   82SOL    HW1 1145   2.914   6.143   2.096
   82SOL    HW2 1146   2.800   6.067   2.184
   83SOL     OW 1147   5.442   1.412   4.619
   83SOL    HW1 1148   5.488   1.500   4.630
   83SOL    HW2 1149   5.509   1.343   4.592
   84SOL     OW 1150   5.409   2.184   2.199
   84SOL    HW1 1151   5.339   2.115   2.221
   84SOL    HW2 1152   5.499   2.149   2.223
   85SOL     OW 1153   2.702   6.361   3.851
   85SOL    HW1 1154   2.711   6.459   3.865
   85SOL    HW2 1155   2.631   6.344   3.782
   86SOL     OW 1156   5.592   0.322   0.114
   86SOL    HW1 1157   5.606   0.308   0.212
   86SOL    HW2 1158   5.529   0.398   0.100
   87SOL     OW 1159   2.422   4.135   6.123
   87SOL    HW1 1160   2.383   4.044   6.134
   87SOL    HW2 1161   2.352   4.199   6.091
   88SOL     OW 1162   3.046   3.157   1.468
   88SOL    HW1 1163   3.009   3.096   1.397
   88SOL    HW2 1164   3.108   3.223   1.426
   89SOL     OW 1165   3.133   4.048   4.081
   89SOL    HW1 1166   3.160   4.129   4.133
   89SOL    HW2 1167   3.152   4.062   3.984
   90SOL     OW 1168   4.969   3.483   1.898
   90SOL    HW1 1169   5.021   3.459   1.816
   90SOL    HW2 1170   4.871   3.474   1.879
   91SOL     OW 1171   4.293   5.416   5.607
   91SOL    HW1 1172   4.295   5.342   5.674
   91SOL    HW2 1173   4.384   5.456   5.599
   92SOL     OW 1174   5.212   3.686   6.822
   92SOL    HW1 1175   5.174   3.777   6.813
   92SOL    HW2 1176   5.153   3.630   6.880
   93SOL     OW 1177   2.981   3.761   1.973
   93SOL    HW1 1178   3.037   3.740   1.894
   93SOL    HW2 1179   2.995   3.856   2.000
   94SOL     OW 1180   3.344   2.115   4.561
   94SOL    HW1 1181   3.442   2.121   4.580
   94SOL    HW2 1182   3.293   2.117   4.647
   95SOL     OW 1183   0.624   0.379   3.950
   95SOL    HW1 1184   0.525   0.368   3.944
   95SOL    HW2 1185   0.654   0.367   4.044
   96SOL     OW 1186   6.328   4.939   0.202
   96SOL    HW1 1187   6.314   5.038   0.202
   96SOL    HW2 1188   6.336   4.906   0.108
   97SOL     OW 1189   2.010   4.436   5.374
   97SOL    HW1 1190   2.019   4.505   5.446
   97SOL    HW2 1191   2.097   4.388   5.363
   98SOL     OW 1192   1.838   2.291   3.164
   98SOL    HW1 1193   1.906   2.232   3.121
   98SOL    HW2 1194   1.777   2.236   3.222
   99SOL     OW 1195   3.565   4.054   5.365
   99SOL    HW1 1196   3.545   4.022   5.272
   99SOL    HW2 1197   3.626   3.989   5.410
  100SOL     OW 1198   6.701   0.856   4.973
  100SOL    HW1 1199   6.715   0.940   5.026
  100SOL    HW2 1200   6.608   0.822   4.987
  101SOL     OW 1201   5.698   4.078   2.140
  101SOL    HW1 1202   5.706   4.122   2.230
  101SOL    HW2 1203   5.777   4.102   2.084
  102SOL     OW 1204   4.659   0.074   0.291
  102SOL    HW1 1205   4.740   0.023   0.321
  102SOL    HW2 1206   4.626   0.131   0.367
  103SOL     OW 1207   2.481   1.110   2.204
  103SOL    HW1 1208   2.519   1.129   2.114
  103SOL    HW2 1209   2.443   1.195   2.242
  104SOL     OW 1210   6.512   4.787   2.033
  104SOL    HW1 1211   6.519   4.746   1.943
  104SOL    HW2 1212   6.514   4.887   2.025
  105SOL     OW 1213   6.572   0.782   5.835
  105SOL    HW1 1214   6.620   0.695   5.819
  105SOL    HW2 1215   6.474   0.766   5.839
  106SOL     OW 1216   4.328   4.015   1.437
  106SOL    HW1 1217   4.392   4.090   1.422
  106SOL    HW2 1218   4.286   3.989   1.351
  107SOL     OW 1219   5.339   0.344   1.594
  107SOL    HW1 1220   5.425   0.351   1.544
  107SOL    HW2 1221   5.309   0.249   1.597
  108SOL     OW 1222   2.611   1.057   4.348
  108SOL    HW1 1223   2.610   1.096   4.440
  108SOL    HW2 1224   2.526   1.081   4.301
  109SOL     OW 1225   1.892   1.373   4.243
  109SOL    HW1 1226   1.794   1.382   4.223
  109SOL    HW2 1227   1.919   1.277   4.238
  110SOL     OW 1228   3.301   4.000   5.963
  110SOL    HW1 1229   3.237   4.000   5.886
  110SOL    HW2 1230   3.251   3.981   6.047
  111SOL     OW 1231   6.441   3.001   1.299
  111SOL    HW1 1232   6.527   2.952   1.311
  111SOL    HW2 1233   6.443   3.085   1.354
  112SOL     OW 1234   5.129   6.280   6.170
  112SOL    HW1 1235   5.214   6.296   6.220
  112SOL    HW2 1236   5.124   6.342   6.092
  113SOL     OW 1237   0.564   5.512   2.878
  113SOL    HW1 1238   0.561   5.496   2.779
  113SOL    HW2 1239   0.491   5.575   2.904
  114SOL     OW 1240   6.550   2.575   2.456
  114SOL    HW1 1241   6.513   2.665   2.480
  114SOL    HW2 1242   6.590   2.580   2.365
  115SOL     OW 1243   5.556   0.016   3.266
  115SOL    HW1 1244   5.530   0.078   3.192
  115SOL    HW2 1245   5.632   6.980   3.235
  116SOL     OW 1246   0.528   4.894   0.530
  116SOL    HW1 1247   0.508   4.854   0.440
  116SOL    HW2 1248   0.512   4.992   0.528
  117SOL     OW 1249   2.143   2.750   6.889
  117SOL    HW1 1250   2.047   2.720   6.892
  117SOL    HW2 1251   2.184   2.723   6.802
  118SOL     OW 1252   0.184   2.018   2.975
  118SOL    HW1 1253   0.254   2.020   2.904
  118SOL    HW2 1254   0.229   2.019   3.065
  119SOL     OW 1255   6.086   0.142   5.703
  119SOL    HW1 1256   6.006   0.168   5.757
  119SOL    HW2 1257   6.056   0.102   5.617
  120SOL     OW 1258   5.340   2.447   4.797
  120SOL    HW1 1259   5.299   2.398   4.874
  120SOL    HW2 1260   5.277   2.445   4.720
  121SOL     OW 1261   0.772   4.928   6.616
  121SOL    HW1 1262   0.783   5.008   6.557
  121SOL    HW2 1263   0.855   4.915   6.671
  122SOL     OW 1264   6.634   4.759   6.662
  122SOL    HW1 1265   6.597   4.719   6.578
  122SOL    HW2 1266   6.602   4.707   6.741
  123SOL     OW 1267   0.835   2.471   1.709
  123SOL    HW1 1268   0.780   2.492   1.628
  123SOL    HW2 1269   0.844   2.554   1.765
  124SOL     OW 1270   1.771   2.965   0.114
  124SOL    HW1 1271   1.754   2.944   0.017
  124SOL    HW2 1272   1.827   3.048   0.120
  125SOL     OW 1273   4.547   3.338   0.556
  125SOL    HW1 1274   4.612   3.397   0.509
  125SOL    HW2 1275   4.458   3.383   0.559
  126SOL     OW 1276   3.911   3.025   4.587
  126SOL    HW1 1277   3.862   3.025   4.675
  126SOL    HW2 1278   3.844   3.022   4.512
  127SOL     OW 1279   0.223   5.372   5.928
  127SOL    HW1 1280   0.235   5.471   5.930
  127SOL    HW2 1281   0.237   5.334   6.019
  128SOL     OW 1282   4.840   3.804   0.034
  128SOL    HW1 1283   4.894   3.740   7.001
  128SOL    HW2 1284   4.745   3.774   0.035
  129SOL     OW 1285   1.555   5.888   2.114
  129SOL    HW1 1286   1.533   5.798   2.076
  129SOL    HW2 1287   1.568   5.879   2.213
  130SOL     OW 1288   6.493   3.067   3.621
  130SOL    HW1 1289   6.481   3.117   3.535
  130SOL    HW2 1290   6.417   3.003   3.633
  131SOL     OW 1291   0.129   2.609   3.521
  131SOL    HW1 1292   0.197   2.563   3.578
  131SOL    HW2 1293   0.054   2.545   3.500
  132SOL     OW 1294   3.405   2.724   1.473
  132SOL    HW1 1295   3.409   2.656   1.546
  132SOL    HW2 1296   3.316   2.770   1.477
  133SOL     OW 1297   5.776   6.674   6.566
  133SOL    HW1 1298   5.760   6.638   6.658
  133SOL    HW2 1299   5.810   6.768   6.573
  134SOL     OW 1300   5.758   1.637   1.655
  134SOL    HW1 1301   5.801   1.548   1.634
  134SOL    HW2 1302   5.733   1.639   1.751
  135SOL     OW 1303   4.867   3.060   3.986
  135SOL    HW1 1304   4.897   3.147   3.947
  135SOL    HW2 1305   4.798   3.019   3.927
  136SOL     OW 1306   3.288   0.621   6.275
  136SOL    HW1 1307   3.316   0.525   6.276
  136SOL    HW2 1308   3.238   0.642   6.359
  137SOL     OW 1309   3.132   3.379   6.188
  137SOL    HW1 1310   3.106   3.299   6.244
  137SOL    HW2 1311   3.184   3.443   6.244
  138SOL     OW 1312   0.880   5.340   6.170
  138SOL    HW1 1313   0.819   5.406   6.213
  138SOL    HW2 1314   0.881   5.355   6.071
  139SOL     OW 1315   2.034   6.494   0.954
  139SOL    HW1 1316   1.972   6.450   0.889
  139SOL    HW2 1317   2.090   6.562   0.905
  140SOL     OW 1318   3.518   0.290   0.808
  140SOL    HW1 1319   3.425   0.263   0.783
  140SOL    HW2 1320   3.549   0.234   0.885
  141SOL     OW 1321   0.280   3.054   0.704
  141SOL    HW1 1322   0.262   2.977   0.766
  141SOL    HW2 1323   0.312   3.132   0.757
  142SOL     OW 1324   1.699   4.049   1.294
  142SOL    HW1 1325   1.680   3.974   1.230
  142SOL    HW2 1326   1.769   4.020   1.359
  143SOL     OW 1327   4.752   6.610   2.185
  143SOL    HW1 1328   4.656   6.606   2.213
  143SOL    HW2 1329   4.797   6.686   2.233
  144SOL     OW 1330   3.048   5.583   3.724
  144SOL    HW1 1331   3.026   5.486   3.731
  144SOL    HW2 1332   2.979   5.636   3.773
  145SOL     OW 1333   0.094   4.485   3.095
  145SOL    HW1 1334   0.012   4.529   3.058
  145SOL    HW2 1335   0.067   4.410   3.155
  146SOL     OW 1336   5.053   0.590   5.950
  146SOL    HW1 1337   4.981   0.660   5.947
  146SOL    HW2 1338   5.067   0.562   6.045
  147SOL     OW 1339   4.576   1.083   4.962
  147SOL    HW1 1340   4.624   1.163   5.000
  147SOL    HW2 1341   4.536   1.030   5.037
  148SOL     OW 1342   1.658   5.894   1.749
  148SOL    HW1 1343   1.737   5.953   1.764
  148SOL    HW2 1344   1.574   5.949   1.750
  149SOL     OW 1345   2.314   2.250   4.771
  149SOL    HW1 1346   2.359   2.281   4.688
  149SOL    HW2 1347   2.378   2.197   4.827
  150SOL     OW 1348   4.328   1.668   5.314
  150SOL    HW1 1349   4.356   1.720   5.233
  150SOL    HW2 1350   4.371   1.706   5.395
  151SOL     OW 1351   4.246   2.885   1.192
  151SOL    HW1 1352   4.220   2.807   1.135
  151SOL    HW2 1353   4.246   2.858   1.288
  152SOL     OW 1354   0.332   2.277   0.436
  152SOL    HW1 1355   0.339   2.200   0.374
  152SOL    HW2 1356   0.423   2.306   0.465
  153SOL     OW 1357   2.820   1.296   3.422
  153SOL    HW1 1358   2.895   1.307   3.356
  153SOL    HW2 1359   2.816   1.376   3.482
  154SOL     OW 1360   6.697   1.709   2.682
  154SOL    HW1 1361   6.634   1.740   2.753
  154SOL    HW2 1362   6.783   1.760   2.690
  155SOL     OW 1363   0.750   6.418   2.580
  155SOL    HW1 1364   0.767   6.484   2.653
  155SOL    HW2 1365   0.812   6.435   2.504
  156SOL     OW 1366   5.732   2.744   0.432
  156SOL    HW1 1367   5.828   2.743   0.457
  156SOL    HW2 1368   5.701   2.839   0.421
  157SOL     OW 1369   4.804   5.775   0.558
  157SOL    HW1 1370   4.773   5.696   0.611
  157SOL    HW2 1371   4.872   5.745   0.491
  158SOL     OW 1372   0.276   3.124   3.727
  158SOL    HW1 1373   0.211   3.047   3.733
  158SOL    HW2 1374   0.367   3.088   3.709
  159SOL     OW 1375   6.022   5.285   0.355
  159SOL    HW1 1376   6.060   5.200   0.391
  159SOL    HW2 1377   6.096   5.351   0.339
  160SOL     OW 1378   6.453   6.909   1.753
  160SOL    HW1 1379   6.540   6.875   1.717
  160SOL    HW2 1380   6.401   6.832   1.791
  161SOL     OW 1381   0.431   6.550   0.921
  161SOL    HW1 1382   0.463   6.556   1.015
  161SOL    HW2 1383   0.374   6.629   0.900
  162SOL     OW 1384   4.577   6.883   6.562
  162SOL    HW1 1385   4.481   6.860   6.551
  162SOL    HW2 1386   4.622   6.883   6.473
  163SOL     OW 1387   0.630   3.659   2.518
  163SOL    HW1 1388   0.638   3.628   2.423
  163SOL    HW2 1389   0.579   3.593   2.571
  164SOL     OW 1390   2.969   2.239   4.065
  164SOL    HW1 1391   2.907   2.283   4.000
  164SOL    HW2 1392   3.023   2.170   4.018
  165SOL     OW 1393   0.510   5.918   3.661
  165SOL    HW1 1394   0.490   5.902   3.564
  165SOL    HW2 1395   0.460   5.853   3.717
  166SOL     OW 1396   6.417   3.827   2.658
  166SOL    HW1 1397   6.373   3.741   2.635
  166SOL    HW2 1398   6.348   3.899   2.668
  167SOL     OW 1399   2.390   2.118   0.166
  167SOL    HW1 1400   2.445   2.037   0.183
  167SOL    HW2 1401   2.416   2.191   0.230
  168SOL     OW 1402   3.864   3.915   1.444
  168SOL    HW1 1403   3.911   3.839   1.399
  168SOL    HW2 1404   3.792   3.879   1.503
  169SOL     OW 1405   4.888   2.140   0.720
  169SOL    HW1 1406   4.947   2.217   0.696
  169SOL    HW2 1407   4.871   2.141   0.819
  170SOL     OW 1408   6.976   5.854   2.234
  170SOL    HW1 1409   6.968   5.797   2.315
  170SOL    HW2 1410   0.006   5.806   2.164
  171SOL     OW 1411   3.462   3.037   1.044
  171SOL    HW1 1412   3.514   3.110   1.000
  171SOL    HW2 1413   3.514   3.001   1.122
  172SOL     OW 1414   0.812   2.071   6.543
  172SOL    HW1 1415   0.727   2.084   6.493
  172SOL    HW2 1416   0.825   1.974   6.564
  173SOL     OW 1417   6.515   1.606   4.335
  173SOL    HW1 1418   6.594   1.645   4.288
  173SOL    HW2 1419   6.468   1.543   4.274
  174SOL     OW 1420   5.300   4.751   5.338
  174SOL    HW1 1421   5.375   4.693   5.305
  174SOL    HW2 1422   5.316   4.845   5.310
  175SOL     OW 1423   0.527   0.104   1.842
  175SOL    HW1 1424   0.521   0.080   1.939
  175SOL    HW2 1425   0.502   0.200   1.829
  176SOL     OW 1426   5.988   4.061   1.142
  176SOL    HW1 1427   5.961   4.010   1.061
  176SOL    HW2 1428   6.021   3.998   1.212
  177SOL     OW 1429   5.714   1.894   4.276
  177SOL    HW1 1430   5.764   1.850   4.202
  177SOL    HW2 1431   5.701   1.991   4.255
  178SOL     OW 1432   2.672   6.218   5.122
  178SOL    HW1 1433   2.703   6.311   5.103
  178SOL    HW2 1434   2.583   6.203   5.079
  179SOL     OW 1435   3.662   4.690   1.081
  179SOL    HW1 1436   3.668   4.600   1.123
  179SOL    HW2 1437   3.624   4.681   0.989
  180SOL     OW 1438   3.923   1.000   0.348
  180SOL    HW1 1439   3.966   1.067   0.287
  180SOL    HW2 1440   3.862   0.941   0.295
  181SOL     OW 1441   3.003   1.966   5.653
  181SOL    HW1 1442   3.029   2.040   5.715
  181SOL    HW2 1443   3.005   2.000   5.559
  182SOL     OW 1444   3.325   3.016   6.153
  182SOL    HW1 1445   3.356   3.060   6.238
  182SOL    HW2 1446   3.403   3.006   6.090
  183SOL     OW 1447   3.837   0.783   3.483
  183SOL    HW1 1448   3.788   0.865   3.454
  183SOL    HW2 1449   3.925   0.810   3.524
  184SOL     OW 1450   5.346   5.610   3.607
  184SOL    HW1 1451   5.411   5.667   3.658
  184SOL    HW2 1452   5.377   5.601   3.512
  185SOL     OW 1453   0.234   0.563   4.788
  185SOL    HW1 1454   0.194   0.600   4.872
  185SOL    HW2 1455   0.229   0.633   4.716
  186SOL     OW 1456   4.234   6.436   4.387
  186SOL    HW1 1457   4.272   6.371   4.321
  186SOL    HW2 1458   4.197   6.515   4.338
  187SOL     OW 1459   4.244   6.243   1.298
  187SOL    HW1 1460   4.326   6.268   1.350
  187SOL    HW2 1461   4.163   6.260   1.353
  188SOL     OW 1462   1.231   3.040   3.397
  188SOL    HW1 1463   1.162   2.995   3.341
  188SOL    HW2 1464   1.322   3.021   3.361
  189SOL     OW 1465   6.043   5.172   5.903
  189SOL    HW1 1466   6.063   5.270   5.902
  189SOL    HW2 1467   6.036   5.140   5.997
  190SOL     OW 1468   6.078   1.101   0.325
  190SOL    HW1 1469   6.086   1.183   0.268
  190SOL    HW2 1470   5.984   1.069   0.325
  191SOL     OW 1471   0.184   0.762   5.580
  191SOL    HW1 1472   0.139   0.691   5.526
  191SOL    HW2 1473   0.282   0.741   5.589
  192SOL     OW 1474   0.329   5.398   0.964
  192SOL    HW1 1475   0.248   5.340   0.968
  192SOL    HW2 1476   0.316   5.469   0.895
  193SOL     OW 1477   2.547   6.683   0.329
  193SOL    HW1 1478   2.462   6.736   0.335
  193SOL    HW2 1479   2.561   6.633   0.415
  194SOL     OW 1480   3.967   6.609   1.778
  194SOL    HW1 1481   3.981   6.658   1.692
  194SOL    HW2 1482   3.926   6.671   1.845
  195SOL     OW 1483   3.328   1.398   0.806
  195SOL    HW1 1484   3.328   1.341   0.724
  195SOL    HW2 1485   3.398   1.469   0.798
  196SOL     OW 1486   3.230   2.313   7.010
  196SOL    HW1 1487   3.237   2.412   0.000
  196SOL    HW2 1488   3.318   2.277   6.979
  197SOL     OW 1489   2.187   6.565   0.553
  197SOL    HW1 1490   2.225   6.585   0.644
  197SOL    HW2 1491   2.116   6.632   0.532
  198SOL     OW 1492   4.299   0.666   6.815
  198SOL    HW1 1493   4.272   0.715   6.898
  198SOL    HW2 1494   4.311   0.731   6.740
  199SOL     OW 1495   0.121   0.134   2.299
  199SOL    HW1 1496   0.127   0.101   2.205
  199SOL    HW2 1497   0.031   0.112   2.336
  200SOL     OW 1498   0.429   4.330   3.020
  200SOL    HW1 1499   0.373   4.409   3.043
  200SOL    HW2 1500   0.386   4.278   2.946
  201SOL     OW 1501   3.851   1.415   6.857
  201SOL    HW1 1502   3.923   1.361   6.814
  201SOL    HW2 1503   3.762   1.387   6.819
  202SOL     OW 1504   3.345   0.600   2.531
  202SOL    HW1 1505   3.288   0.539   2.585
  202SOL    HW2 1506   3.414   0.642   2.590
  203SOL     OW 1507   5.323   2.452   0.128
  203SOL    HW1 1508   5.418   2.482   0.136
  203SOL    HW2 1509   5.271   2.484   0.207
  204SOL     OW 1510   2.815   5.825   1.058
  204SOL    HW1 1511   2.746   5.790   1.120
  204SOL    HW2 1512   2.796   5.792   0.965
  205SOL     OW 1513   6.337   0.636   0.182
  205SOL    HW1 1514   6.322   0.619   0.280
  205SOL    HW2 1515   6.253   0.616   0.132
  206SOL     OW 1516   0.631   4.314   1.397
  206SOL    HW1 1517   0.667   4.318   1.490
  206SOL    HW2 1518   0.645   4.223   1.359
  207SOL     OW 1519   4.750   1.121   5.502
  207SOL    HW1 1520   4.842   1.125   5.462
  207SOL    HW2 1521   4.685   1.165   5.440
  208SOL     OW 1522   3.422   4.818   6.091
  208SOL    HW1 1523   3.467   4.842   6.005
  208SOL    HW2 1524   3.399   4.721   6.091
  209SOL     OW 1525   6.297   5.536   5.601
  209SOL    HW1 1526   6.332   5.472   5.669
  209SOL    HW2 1527   6.198   5.522   5.590
  210SOL     OW 1528   3.840   2.157   2.308
  210SOL    HW1 1529   3.918   2.187   2.253
  210SOL    HW2 1530   3.757   2.206   2.279
  211SOL     OW 1531   1.136   1.881   1.858
  211SOL    HW1 1532   1.101   1.967   1.895
  211SOL    HW2 1533   1.085   1.805   1.898
  212SOL     OW 1534   1.243   5.186   4.299
  212SOL    HW1 1535   1.157   5.140   4.277
  212SOL    HW2 1536   1.320   5.127   4.272
  213SOL     OW 1537   4.378   2.636   6.857
  213SOL    HW1 1538   4.465   2.630   6.807
  213SOL    HW2 1539   4.379   2.717   6.915
  214SOL     OW 1540   1.265   0.194   2.671
  214SOL    HW1 1541   1.322   0.129   2.620
  214SOL    HW2 1542   1.261   0.167   2.767
  215SOL     OW 1543   3.190   3.561   2.464
  215SOL    HW1 1544   3.091   3.556   2.448
  215SOL    HW2 1545   3.211   3.639   2.522
  216SOL     OW 1546   1.152   6.428   5.783
  216SOL    HW1 1547   1.131   6.418   5.881
  216SOL    HW2 1548   1.145   6.339   5.738
  217SOL     OW 1549   0.183   2.866   3.504
  217SOL    HW1 1550   0.150   2.910   3.588
  217SOL    HW2 1551   0.163   2.768   3.507
  218SOL     OW 1552   1.251   3.955   5.497
  218SOL    HW1 1553   1.167   3.960   5.444
  218SOL    HW2 1554   1.234   3.983   5.591
  219SOL     OW 1555   4.608   5.010   6.865
  219SOL    HW1 1556   4.631   4.941   6.797
  219SOL    HW2 1557   4.512   5.002   6.890
  220SOL     OW 1558   2.916   4.746   0.811
  220SOL    HW1 1559   2.914   4.814   0.737
  220SOL    HW2 1560   2.837   4.686   0.803
  221SOL     OW 1561   6.596   2.426   4.138
  221SOL    HW1 1562   6.531   2.444   4.064
  221SOL    HW2 1563   6.677   2.483   4.125
  222SOL     OW 1564   1.147   6.227   5.035
  222SOL    HW1 1565   1.225   6.252   5.092
  222SOL    HW2 1566   1.069   6.204   5.093
  223SOL     OW 1567   6.069   4.132   1.710
  223SOL    HW1 1568   6.157   4.179   1.727
  223SOL    HW2 1569   6.022   4.176   1.634
  224SOL     OW 1570   3.265   1.997   1.556
  224SOL    HW1 1571   3.178   2.027   1.594
  224SOL    HW2 1572   3.339   2.026   1.617
  225SOL     OW 1573   0.011   0.056   0.384
  225SOL    HW1 1574   0.085   0.057   0.316
  225SOL    HW2 1575   0.046   0.090   0.472
  226SOL     OW 1576   6.896   5.725   0.995
  226SOL    HW1 1577   6.828   5.796   1.016
  226SOL    HW2 1578   6.988   5.764   1.000
  227SOL     OW 1579   1.393   2.936   3.693
  227SOL    HW1 1580   1.440   2.934   3.781
  227SOL    HW2 1581   1.332   3.015   3.689
  228SOL     OW 1582   3.661   6.927   2.854
  228SOL    HW1 1583   3.659   6.847   2.914
  228SOL    HW2 1584   3.744   6.924   2.799
  229SOL     OW 1585   5.970   5.294   2.776
  229SOL    HW1 1586   5.904   5.353   2.731
  229SOL    HW2 1587   6.063   5.328   2.758
  230SOL     OW 1588   1.445   4.131   5.438
  230SOL    HW1 1589   1.447   4.210   5.500
  230SOL    HW2 1590   1.365   4.075   5.458
  231SOL     OW 1591   0.638   1.828   6.864
  231SOL    HW1 1592   0.686   1.852   6.780
  231SOL    HW2 1593   0.604   1.734   6.858
  232SOL     OW 1594   2.078   4.961   6.259
  232SOL    HW1 1595   1.982   4.972   6.234
  232SOL    HW2 1596   2.088   4.967   6.358
  233SOL     OW 1597   2.882   1.155   6.025
  233SOL    HW1 1598   2.835   1.198   5.948
  233SOL    HW2 1599   2.978   1.139   6.001
  234SOL     OW 1600   2.790   6.107   6.870
  234SOL    HW1 1601   2.811   6.204   6.864
  234SOL    HW2 1602   2.855   6.055   6.815
  235SOL     OW 1603   3.530   3.158   4.763
  235SOL    HW1 1604   3.592   3.081   4.781
  235SOL    HW2 1605   3.486   3.146   4.674
  236SOL     OW 1606   6.782   2.471   5.859
  236SOL    HW1 1607   6.834   2.553   5.883
  236SOL    HW2 1608   6.686   2.496   5.845
  237SOL     OW 1609   0.641   7.007   1.627
  237SOL    HW1 1610   0.607   0.021   1.714
  237SOL    HW2 1611   0.700   0.053   1.584
  238SOL     OW 1612   6.232   2.347   2.085
  238SOL    HW1 1613   6.176   2.310   2.011
  238SOL    HW2 1614   6.222   2.446   2.087
  239SOL     OW 1615   0.424   5.774   0.421
  239SOL    HW1 1616   0.423   5.732   0.330
  239SOL    HW2 1617   0.505   5.741   0.471
  240SOL     OW 1618   6.830   3.845   5.251
  240SOL    HW1 1619   6.794   3.859   5.159
  240SOL    HW2 1620   6.849   3.748   5.266
  241SOL     OW 1621   6.956   1.500   3.715
  241SOL    HW1 1622   0.027   1.522   3.747
  241SOL    HW2 1623   6.962   1.436   3.638
  242SOL     OW 1624   2.312   2.497   3.533
  242SOL    HW1 1625   2.380   2.505   3.605
  242SOL    HW2 1626   2.308   2.583   3.481
  243SOL     OW 1627   4.535   0.937   5.186
  243SOL    HW1 1628   4.463   0.873   5.213
  243SOL    HW2 1629   4.538   1.012   5.251
  244SOL     OW 1630   6.708   0.556   5.766
  244SOL    HW1 1631   6.756   0.601   5.691
  244SOL    HW2 1632   6.772   0.499   5.818
  245SOL     OW 1633   6.073   1.716   3.539
  245SOL    HW1 1634   6.131   1.637   3.558
  245SOL    HW2 1635   6.129   1.790   3.501
  246SOL     OW 1636   4.923   3.129   3.340
  246SOL    HW1 1637   4.861   3.054   3.315
  246SOL    HW2 1638   4.963   3.110   3.430
  247SOL     OW 1639   3.659   1.098   3.655
  247SOL    HW1 1640   3.646   1.192   3.624
  247SOL    HW2 1641   3.665   1.037   3.577
  248SOL     OW 1642   5.171   1.238   2.584
  248SOL    HW1 1643   5.164   1.294   2.501
  248SOL    HW2 1644   5.120   1.153   2.571
  249SOL     OW 1645   2.786   0.045   3.659
  249SOL    HW1 1646   2.878   0.014   3.634
  249SOL    HW2 1647   2.757   0.001   3.744
  250SOL     OW 1648   4.785   2.999   5.962
  250SOL    HW1 1649   4.831   2.939   5.898
  250SOL    HW2 1650   4.798   2.965   6.055
  251SOL     OW 1651   2.523   2.504   0.676
  251SOL    HW1 1652   2.425   2.496   0.659
  251SOL    HW2 1653   2.572   2.506   0.589
  252SOL     OW 1654   0.299   1.418   6.459
  252SOL    HW1 1655   0.284   1.425   6.360
  252SOL    HW2 1656   0.213   1.393   6.504
  253SOL     OW 1657   1.917   3.800   5.865
  253SOL    HW1 1658   2.008   3.814   5.828
  253SOL    HW2 1659   1.884   3.709   5.840
  254SOL     OW 1660   5.192   3.313   5.551
  254SOL    HW1 1661   5.165   3.370   5.628
  254SOL    HW2 1662   5.142   3.341   5.469
  255SOL     OW 1663   3.521   2.099   3.546
  255SOL    HW1 1664   3.522   2.017   3.489
  255SOL    HW2 1665   3.470   2.171   3.499
  256SOL     OW 1666   6.453   5.623   0.251
  256SOL    HW1 1667   6.450   5.719   0.281
  256SOL    HW2 1668   6.426   5.617   0.155
  257SOL     OW 1669   3.265   5.899   6.285
  257SOL    HW1 1670   3.184   5.849   6.255
  257SOL    HW2 1671   3.347   5.857   6.245
  258SOL     OW 1672   5.174   3.929   4.122
  258SOL    HW1 1673   5.212   3.911   4.031
  258SOL    HW2 1674   5.224   3.875   4.190
  259SOL     OW 1675   1.257   2.154   2.851
  259SOL    HW1 1676   1.255   2.086   2.924
  259SOL    HW2 1677   1.332   2.134   2.788
  260SOL     OW 1678   6.306   6.950   5.907
  260SOL    HW1 1679   6.247   6.909   5.976
  260SOL    HW2 1680   6.250   6.985   5.832
  261SOL     OW 1681   1.226   1.702   2.811
  261SOL    HW1 1682   1.267   1.756   2.738
  261SOL    HW2 1683   1.239   1.605   2.792
  262SOL     OW 1684   1.910   5.143   1.860
  262SOL    HW1 1685   1.938   5.096   1.776
  262SOL    HW2 1686   1.901   5.076   1.934
  263SOL     OW 1687   0.414   1.881   4.693
  263SOL    HW1 1688   0.456   1.971   4.704
  263SOL    HW2 1689   0.452   1.837   4.611
  264SOL     OW 1690   2.434   4.741   5.704
  264SOL    HW1 1691   2.474   4.723   5.794
  264SOL    HW2 1692   2.496   4.799   5.651
  265SOL     OW 1693   5.491   5.217   5.412
  265SOL    HW1 1694   5.475   5.120   5.390
  265SOL    HW2 1695   5.409   5.270   5.394
  266SOL     OW 1696   3.973   2.232   0.467
  266SOL    HW1 1697   3.993   2.190   0.556
  266SOL    HW2 1698   4.025   2.186   0.395
  267SOL     OW 1699   1.411   1.191   6.003
  267SOL    HW1 1700   1.335   1.200   5.938
  267SOL    HW2 1701   1.444   1.096   6.002
  268SOL     OW 1702   3.436   5.462   4.429
  268SOL    HW1 1703   3.410   5.461   4.525
  268SOL    HW2 1704   3.490   5.545   4.410
  269SOL     OW 1705   1.156   1.196   6.145
  269SOL    HW1 1706   1.242   1.217   6.192
  269SOL    HW2 1707   1.175   1.150   6.059
  270SOL     OW 1708   5.463   0.366   3.804
  270SOL    HW1 1709   5.371   0.338   3.829
  270SOL    HW2 1710   5.497   0.433   3.870
  271SOL     OW 1711   1.396   1.626   0.096
  271SOL    HW1 1712   1.470   1.568   0.062
  271SOL    HW2 1713   1.406   1.637   0.195
  272SOL     OW 1714   4.592   6.010   2.731
  272SOL    HW1 1715   4.671   6.073   2.728
  272SOL    HW2 1716   4.528   6.041   2.801
  273SOL     OW 1717   3.024   0.155   5.128
  273SOL    HW1 1718   2.980   0.232   5.174
  273SOL    HW2 1719   3.090   0.190   5.061
  274SOL     OW 1720   5.881   1.839   1.068
  274SOL    HW1 1721   5.967   1.813   1.024
  274SOL    HW2 1722   5.837   1.758   1.106
  275SOL     OW 1723   5.360   5.682   4.921
  275SOL    HW1 1724   5.355   5.782   4.911
  275SOL    HW2 1725   5.456   5.655   4.928
  276SOL     OW 1726   6.929   6.295   4.068
  276SOL    HW1 1727   6.979   6.212   4.089
  276SOL    HW2 1728   6.841   6.294   4.114
  277SOL     OW 1729   5.011   1.449   5.616
  277SOL    HW1 1730   4.935   1.508   5.592
  277SOL    HW2 1731   5.082   1.455   5.546
  278SOL     OW 1732   6.062   3.221   3.441
  278SOL    HW1 1733   6.026   3.270   3.361
  278SOL    HW2 1734   6.161   3.214   3.434
  279SOL     OW 1735   0.561   3.627   4.636
  279SOL    HW1 1736   0.616   3.687   4.578
  279SOL    HW2 1737   0.561   3.662   4.730
  280SOL     OW 1738   3.631   0.592   3.407
  280SOL    HW1 1739   3.701   0.661   3.426
  280SOL    HW2 1740   3.612   0.589   3.309
  281SOL     OW 1741   5.687   6.681   3.991
  281SOL    HW1 1742   5.633   6.764   4.009
  281SOL    HW2 1743   5.625   6.603   3.979
  282SOL     OW 1744   2.262   2.438   0.664
  282SOL    HW1 1745   2.223   2.392   0.584
  282SOL    HW2 1746   2.194   2.501   0.703
  283SOL     OW 1747   6.842   2.487   4.709
  283SOL    HW1 1748   6.784   2.516   4.785
  283SOL    HW2 1749   6.937   2.478   4.741
  284SOL     OW 1750   4.840   5.681   3.185
  284SOL    HW1 1751   4.775   5.634   3.125
  284SOL    HW2 1752   4.806   5.773   3.205
  285SOL     OW 1753   4.518   0.250   5.858
  285SOL    HW1 1754   4.500   0.348   5.870
  285SOL    HW2 1755   4.600   0.239   5.801
  286SOL     OW 1756   2.448   4.881   5.416
  286SOL    HW1 1757   2.530   4.898   5.470
  286SOL    HW2 1758   2.376   4.946   5.442
  287SOL     OW 1759   3.356   0.074   6.592
  287SOL    HW1 1760   3.284   0.140   6.616
  287SOL    HW2 1761   3.338   7.009   6.638
  288SOL     OW 1762   4.410   0.848   0.944
  288SOL    HW1 1763   4.338   0.792   0.984
  288SOL    HW2 1764   4.470   0.790   0.889
  289SOL     OW 1765   5.946   6.080   3.803
  289SOL    HW1 1766   5.951   6.180   3.808
  289SOL    HW2 1767   5.865   6.048   3.852
  290SOL     OW 1768   3.545   0.238   6.066
  290SOL    HW1 1769   3.641   0.265   6.058
  290SOL    HW2 1770   3.493   0.313   6.107
  291SOL     OW 1771   3.137   6.885   4.527
  291SOL    HW1 1772   3.140   6.866   4.429
  291SOL    HW2 1773   3.049   6.855   4.563
  292SOL     OW 1774   5.064   0.521   4.120
  292SOL    HW1 1775   5.030   0.429   4.098
  292SOL    HW2 1776   5.001   0.589   4.084
  293SOL     OW 1777   5.957   0.199   2.046
  293SOL    HW1 1778   5.996   0.285   2.013
  293SOL    HW2 1779   6.016   0.123   2.019
  294SOL     OW 1780   6.205   0.659   6.391
  294SOL    HW1 1781   6.263   0.737   6.367
  294SOL    HW2 1782   6.115   0.692   6.420
  295SOL     OW 1783   1.419   1.624   4.968
  295SOL    HW1 1784   1.401   1.651   4.873
  295SOL    HW2 1785   1.336   1.638   5.023
  296SOL     OW 1786   0.036   2.026   0.945
  296SOL    HW1 1787   6.983   2.030   1.012
  296SOL    HW2 1788   0.008   1.969   0.868
  297SOL     OW 1789   5.524   3.305   3.165
  297SOL    HW1 1790   5.429   3.290   3.192
  297SOL    HW2 1791   5.532   3.391   3.116
  298SOL     OW 1792   4.036   0.386   6.013
  298SOL    HW1 1793   4.073   0.411   6.102
  298SOL    HW2 1794   4.083   0.438   5.942
  299SOL     OW 1795   0.319   0.721   6.961
  299SOL    HW1 1796   0.400   0.740   7.015
  299SOL    HW2 1797   0.266   0.805   6.949
  300SOL     OW 1798   4.363   0.091   3.636
  300SOL    HW1 1799   4.273   0.135   3.642
  300SOL    HW2 1800   4.354   7.016   3.663
  301SOL     OW 1801   6.472   5.643   0.618
  301SOL    HW1 1802   6.502   5.738   0.615
  301SOL    HW2 1803   6.540   5.585   0.573
  302SOL     OW 1804   0.661   5.644   1.854
  302SOL    HW1 1805   0.706   5.726   1.890
  302SOL    HW2 1806   0.602   5.670   1.777
  303SOL     OW 1807   5.512   6.142   3.163
  303SOL    HW1 1808   5.437   6.078   3.146
  303SOL    HW2 1809   5.476   6.222   3.211
  304SOL     OW 1810   2.517   5.798   4.834
  304SOL    HW1 1811   2.557   5.720   4.786
  304SOL    HW2 1812   2.421   5.808   4.806
  305SOL     OW 1813   0.909   3.111   2.051
  305SOL    HW1 1814   0.936   3.171   1.976
  305SOL    HW2 1815   0.862   3.164   2.122
  306SOL     OW 1816   0.224   6.511   3.370
  306SOL    HW1 1817   0.218   6.586   3.436
  306SOL    HW2 1818   0.316   6.509   3.331
  307SOL     OW 1819   3.337   2.948   3.953
  307SOL    HW1 1820   3.271   2.985   4.019
  307SOL    HW2 1821   3.288   2.912   3.873
  308SOL     OW 1822   5.862   2.570   3.311
  308SOL    HW1 1823   5.847   2.553   3.213
  308SOL    HW2 1824   5.950   2.616   3.324
  309SOL     OW 1825   1.733   6.369   6.860
  309SOL    HW1 1826   1.649   6.337   6.904
  309SOL    HW2 1827   1.810   6.356   6.922
  310SOL     OW 1828   5.534   0.325   5.508
  310SOL    HW1 1829   5.500   0.359   5.595
  310SOL    HW2 1830   5.490   0.237   5.487
  311SOL     OW 1831   2.096   5.830   2.401
  311SOL    HW1 1832   2.091   5.930   2.392
  311SOL    HW2 1833   2.191   5.803   2.416
  312SOL     OW 1834   3.892   0.618   3.076
  312SOL    HW1 1835   3.930   0.545   3.133
  312SOL    HW2 1836   3.898   0.705   3.126
  313SOL     OW 1837   3.788   3.293   2.747
  313SOL    HW1 1838   3.730   3.258   2.820
  313SOL    HW2 1839   3.865   3.231   2.733
  314SOL     OW 1840   2.762   5.654   5.831
  314SOL    HW1 1841   2.711   5.618   5.908
  314SOL    HW2 1842   2.742   5.752   5.821
  315SOL     OW 1843   6.198   0.679   4.013
  315SOL    HW1 1844   6.241   0.598   3.972
  315SOL    HW2 1845   6.187   0.750   3.944
  316SOL     OW 1846   3.884   1.556   6.234
  316SOL    HW1 1847   3.958   1.622   6.224
  316SOL    HW2 1848   3.796   1.602   6.218
  317SOL     OW 1849   1.180   1.811   1.596
  317SOL    HW1 1850   1.124   1.885   1.559
  317SOL    HW2 1851   1.179   1.815   1.695
  318SOL     OW 1852   0.902   0.313   4.628
  318SOL    HW1 1853   0.831   0.265   4.681
  318SOL    HW2 1854   0.975   0.248   4.604
  319SOL     OW 1855   1.044   1.349   2.680
  319SOL    HW1 1856   0.965   1.410   2.675
  319SOL    HW2 1857   1.076   1.344   2.775
  320SOL     OW 1858   6.040   2.131   6.266
  320SOL    HW1 1859   5.998   2.221   6.251
  320SOL    HW2 1860   5.980   2.075   6.322
  321SOL     OW 1861   4.984   3.255   0.688
  321SOL    HW1 1862   4.915   3.187   0.662
  321SOL    HW2 1863   4.939   3.343   0.703
  322SOL     OW 1864   3.140   3.466   5.901
  322SOL    HW1 1865   3.140   3.432   5.995
  322SOL    HW2 1866   3.232   3.454   5.861
  323SOL     OW 1867   0.875   3.800   1.956
  323SOL    HW1 1868   0.913   3.763   1.872
  323SOL    HW2 1869   0.892   3.736   2.031
  324SOL     OW 1870   0.311   6.917   3.328
  324SOL    HW1 1871   0.258   7.000   3.314
  324SOL    HW2 1872   0.404   6.941   3.356
  325SOL     OW 1873   6.741   4.034   1.644
  325SOL    HW1 1874   6.691   4.095   1.582
  325SOL    HW2 1875   6.676   3.993   1.708
  326SOL     OW 1876   1.183   6.410   6.054
  326SOL    HW1 1877   1.254   6.437   6.119
  326SOL    HW2 1878   1.104   6.374   6.104
  327SOL     OW 1879   5.410   5.350   3.970
  327SOL    HW1 1880   5.358   5.365   4.054
  327SOL    HW2 1881   5.349   5.320   3.897
  328SOL     OW 1882   1.956   3.436   2.812
  328SOL    HW1 1883   2.036   3.439   2.753
  328SOL    HW2 1884   1.903   3.353   2.793
  329SOL     OW 1885   3.178   2.761   1.654
  329SOL    HW1 1886   3.215   2.721   1.738
  329SOL    HW2 1887   3.084   2.731   1.642
  330SOL     OW 1888   3.098   5.258   0.876
  330SOL    HW1 1889   3.121   5.280   0.970
  330SOL    HW2 1890   3.007   5.293   0.855
  331SOL     OW 1891   5.896   5.443   7.019
  331SOL    HW1 1892   5.920   5.409   6.928
  331SOL    HW2 1893   5.863   5.368   0.054
  332SOL     OW 1894   5.833   2.220   3.900
  332SOL    HW1 1895   5.928   2.252   3.891
  332SOL    HW2 1896   5.795   2.252   3.987
  333SOL     OW 1897   3.121   1.117   5.885
  333SOL    HW1 1898   3.060   1.053   5.839
  333SOL    HW2 1899   3.206   1.126   5.833
  334SOL     OW 1900   3.599   3.210   3.398
  334SOL    HW1 1901   3.620   3.296   3.446
  334SOL    HW2 1902   3.530   3.227   3.328
  335SOL     OW 1903   3.582   1.058   0.247
  335SOL    HW1 1904   3.661   1.008   0.210
  335SOL    HW2 1905   3.543   1.007   0.323
  336SOL     OW 1906   2.865   2.008   3.930
  336SOL    HW1 1907   2.824   1.953   4.002
  336SOL    HW2 1908   2.818   2.096   3.924
  337SOL     OW 1909   1.348   0.699   5.876
  337SOL    HW1 1910   1.415   0.627   5.858
  337SOL    HW2 1911   1.263   0.657   5.910
  338SOL     OW 1912   4.194   1.562   1.154
  338SOL    HW1 1913   4.125   1.491   1.171
  338SOL    HW2 1914   4.215   1.608   1.239
  339SOL     OW 1915   3.813   5.973   4.864
  339SOL    HW1 1916   3.775   5.969   4.956
  339SOL    HW2 1917   3.760   5.913   4.803
  340SOL     OW 1918   5.310   2.214   4.443
  340SOL    HW1 1919   5.254   2.183   4.367
  340SOL    HW2 1920   5.258   2.278   4.500
  341SOL     OW 1921   6.301   6.560   3.021
  341SOL    HW1 1922   6.395   6.526   3.021
  341SOL    HW2 1923   6.297   6.649   2.976
  342SOL     OW 1924   4.458   2.463   2.062
  342SOL    HW1 1925   4.419   2.408   1.988
  342SOL    HW2 1926   4.411   2.440   2.148
  343SOL     OW 1927   0.158   5.690   2.738
  343SOL    HW1 1928   0.083   5.750   2.765
  343SOL    HW2 1929   0.121   5.612   2.688
  344SOL     OW 1930   1.280   2.693   1.070
  344SOL    HW1 1931   1.286   2.614   1.131
  344SOL    HW2 1932   1.242   2.771   1.120
  345SOL     OW 1933   6.850   3.686   3.893
  345SOL    HW1 1934   6.798   3.765   3.927
  345SOL    HW2 1935   6.878   3.704   3.798
  346SOL     OW 1936   1.890   6.710   3.337
  346SOL    HW1 1937   1.793   6.699   3.359
  346SOL    HW2 1938   1.934   6.769   3.405
  347SOL     OW 1939   2.283   4.737   0.933
  347SOL    HW1 1940   2.211   4.700   0.992
  347SOL    HW2 1941   2.347   4.790   0.989
  348SOL     OW 1942   4.328   5.219   1.368
  348SOL    HW1 1943   4.321   5.318   1.359
  348SOL    HW2 1944   4.351   5.196   1.462
  349SOL     OW 1945   6.210   4.466   1.153
  349SOL    HW1 1946   6.296   4.422   1.176
  349SOL    HW2 1947   6.134   4.409   1.185
  350SOL     OW 1948   3.374   2.743   0.263
  350SOL    HW1 1949   3.279   2.711   0.266
  350SOL    HW2 1950   3.380   2.836   0.299
  351SOL     OW 1951   3.164   4.296   0.889
  351SOL    HW1 1952   3.254   4.257   0.906
  351SOL    HW2 1953   3.116   4.307   0.976
  352SOL     OW 1954   4.155   6.773   3.011
  352SOL    HW1 1955   4.088   6.805   3.078
  352SOL    HW2 1956   4.247   6.788   3.045
  353SOL     OW 1957   2.140   6.613   6.300
  353SOL    HW1 1958   2.106   6.706   6.288
  353SOL    HW2 1959   2.098   6.572   6.380
  354SOL     OW 1960   0.369   2.814   0.147
  354SOL    HW1 1961   0.323   2.840   0.232
  354SOL    HW2 1962   0.337   2.872   0.072
  355SOL     OW 1963   1.621   1.552   2.369
  355SOL    HW1 1964   1.552   1.590   2.307
  355SOL    HW2 1965   1.617   1.600   2.457
  356SOL     OW 1966   1.544   0.473   6.111
  356SOL    HW1 1967   1.461   0.529   6.118
  356SOL    HW2 1968   1.587   0.491   6.022
  357SOL     OW 1969   5.469   6.933   4.935
  357SOL    HW1 1970   5.455   6.872   4.857
  357SOL    HW2 1971   5.391   6.995   4.942
  358SOL     OW 1972   4.198   5.381   7.009
  358SOL    HW1 1973   4.238   5.465   0.024
  358SOL    HW2 1974   4.271   5.320   6.978
  359SOL     OW 1975   2.172   1.553   2.710
  359SOL    HW1 1976   2.101   1.482   2.698
  359SOL    HW2 1977   2.144   1.616   2.782
  360SOL     OW 1978   1.202   4.244   4.276
  360SOL    HW1 1979   1.280   4.297   4.245
  360SOL    HW2 1980   1.138   4.304   4.323
  361SOL     OW 1981   6.187   1.265   3.115
  361SOL    HW1 1982   6.127   1.226   3.046
  361SOL    HW2 1983   6.162   1.361   3.131
  362SOL     OW 1984   4.063   4.970   0.873
  362SOL    HW1 1985   4.130   4.978   0.947
  362SOL    HW2 1986   4.099   4.911   0.802
  363SOL     OW 1987   5.901   5.385   1.891
  363SOL    HW1 1988   5.861   5.306   1.845
  363SOL    HW2 1989   5.884   5.467   1.836
  364SOL     OW 1990   0.750   6.480   6.285
  364SOL    HW1 1991   0.750   6.512   6.380
  364SOL    HW2 1992   0.690   6.539   6.230
  365SOL     OW 1993   4.795   1.817   3.588
  365SOL    HW1 1994   4.878   1.767   3.562
  365SOL    HW2 1995   4.800   1.842   3.684
  366SOL     OW 1996   5.039   2.187   6.649
  366SOL    HW1 1997   5.120   2.128   6.644
  366SOL    HW2 1998   5.064   2.274   6.691
  367SOL     OW 1999   5.364   2.027   5.854
  367SOL    HW1 2000   5.397   2.116   5.823
  367SOL    HW2 2001   5.321   1.978   5.778
  368SOL     OW 2002   6.366   2.217   5.795
  368SOL    HW1 2003   6.430   2.143   5.811
  368SOL    HW2 2004   6.394   2.298   5.847
  369SOL     OW 2005   5.898   3.436   2.165
  369SOL    HW1 2006   5.900   3.336   2.170
  369SOL    HW2 2007   5.874   3.474   2.254
  370SOL     OW 2008   1.682   3.232   3.740
  370SOL    HW1 2009   1.722   3.231   3.832
  370SOL    HW2 2010   1.720   3.156   3.687
  371SOL     OW 2011   1.163   5.436   6.952
  371SOL    HW1 2012   1.146   5.371   0.005
  371SOL    HW2 2013   1.097   5.420   6.878
  372SOL     OW 2014   3.362   6.253   6.147
  372SOL    HW1 2015   3.305   6.278   6.225
  372SOL    HW2 2016   3.311   6.190   6.087
  373SOL     OW 2017   5.779   5.623   4.024
  373SOL    HW1 2018   5.866   5.575   4.031
  373SOL    HW2 2019   5.726   5.584   3.948
  374SOL     OW 2020   2.970   1.819   3.198
  374SOL    HW1 2021   3.028   1.745   3.231
  374SOL    HW2 2022   3.000   1.905   3.239
  375SOL     OW 2023   1.604   4.896   4.832
  375SOL    HW1 2024   1.663   4.854   4.901
  375SOL    HW2 2025   1.511   4.905   4.868
  376SOL     OW 2026   2.637   0.964   4.830
  376SOL    HW1 2027   2.703   0.927   4.895
  376SOL    HW2 2028   2.550   0.982   4.877
  377SOL     OW 2029   0.832   1.852   6.289
  377SOL    HW1 2030   0.867   1.945   6.282
  377SOL    HW2 2031   0.888   1.800   6.354
  378SOL     OW 2032   4.048   1.133   1.615
  378SOL    HW1 2033   4.140   1.145   1.578
  378SOL    HW2 2034   4.036   1.038   1.642
  379SOL     OW 2035   6.084   1.761   6.501
  379SOL    HW1 2036   6.062   1.787   6.407
  379SOL    HW2 2037   6.092   1.661   6.507
  380SOL     OW 2038   4.027   2.062   1.174
  380SOL    HW1 2039   4.116   2.027   1.145
  380SOL    HW2 2040   3.998   2.135   1.111
  381SOL     OW 2041   1.916   3.674   2.963
  381SOL    HW1 2042   1.996   3.653   3.019
  381SOL    HW2 2043   1.902   3.602   2.895
  382SOL     OW 2044   5.175   0.495   0.070
  382SOL    HW1 2045   5.195   0.426   0.000
  382SOL    HW2 2046   5.261   0.529   0.108
  383SOL     OW 2047   4.386   2.748   0.786
  383SOL    HW1 2048   4.465   2.687   0.798
  383SOL    HW2 2049   4.322   2.736   0.861
  384SOL     OW 2050   5.483   3.868   4.767
  384SOL    HW1 2051   5.545   3.812   4.713
  384SOL    HW2 2052   5.429   3.810   4.829
  385SOL     OW 2053   4.388   4.133   0.262
  385SOL    HW1 2054   4.423   4.064   0.199
  385SOL    HW2 2055   4.436   4.219   0.246
  386SOL     OW 2056   3.317   6.777   3.644
  386SOL    HW1 2057   3.279   6.780   3.552
  386SOL    HW2 2058   3.278   6.700   3.694
  387SOL     OW 2059   2.265   5.973   3.514
  387SOL    HW1 2060   2.289   5.885   3.555
  387SOL    HW2 2061   2.224   6.032   3.584
  388SOL     OW 2062   2.120   3.433   6.424
  388SOL    HW1 2063   2.129   3.461   6.329
  388SOL    HW2 2064   2.123   3.334   6.431
  389SOL     OW 2065   2.928   3.775   3.141
  389SOL    HW1 2066   2.936   3.709   3.066
  389SOL    HW2 2067   2.858   3.843   3.118
  390SOL     OW 2068   2.158   1.138   4.307
  390SOL    HW1 2069   2.235   1.185   4.264
  390SOL    HW2 2070   2.191   1.073   4.375
  391SOL     OW 2071   0.603   3.119   6.861
  391SOL    HW1 2072   0.586   3.094   6.957
  391SOL    HW2 2073   0.699   3.147   6.851
  392SOL     OW 2074   2.444   5.012   2.817
  392SOL    HW1 2075   2.522   5.073   2.831
  392SOL    HW2 2076   2.386   5.013   2.899
  393SOL     OW 2077   6.183   4.583   4.598
  393SOL    HW1 2078   6.227   4.669   4.573
  393SOL    HW2 2079   6.087   4.586   4.568
  394SOL     OW 2080   2.070   0.463   6.973
  394SOL    HW1 2081   2.020   0.408   0.019
  394SOL    HW2 2082   2.007   0.525   6.927
  395SOL     OW 2083   5.108   3.971   1.424
  395SOL    HW1 2084   5.168   4.008   1.495
  395SOL    HW2 2085   5.080   3.878   1.449
  396SOL     OW 2086   3.423   4.120   3.946
  396SOL    HW1 2087   3.420   4.020   3.945
  396SOL    HW2 2088   3.388   4.156   3.860
  397SOL     OW 2089   4.342   2.274   5.724
  397SOL    HW1 2090   4.431   2.278   5.678
  397SOL    HW2 2091   4.270   2.302   5.659
  398SOL     OW 2092   1.422   5.130   2.436
  398SOL    HW1 2093   1.372   5.142   2.350
  398SOL    HW2 2094   1.431   5.032   2.456
  399SOL     OW 2095   4.782   5.486   1.516
  399SOL    HW1 2096   4.834   5.412   1.473
  399SOL    HW2 2097   4.820   5.506   1.606
  400SOL     OW 2098   0.706   5.854   5.148
  400SOL    HW1 2099   0.708   5.755   5.138
  400SOL    HW2 2100   0.758   5.881   5.229
  401SOL     OW 2101   4.973   2.129   6.364
  401SOL    HW1 2102   4.873   2.131   6.359
  401SOL    HW2 2103   5.002   2.140   6.459
  402SOL     OW 2104   5.766   5.637   1.668
  402SOL    HW1 2105   5.698   5.566   1.651
  402SOL    HW2 2106   5.786   5.686   1.583
  403SOL     OW 2107   4.770   2.276   5.832
  403SOL    HW1 2108   4.828   2.357   5.846
  403SOL    HW2 2109   4.723   2.254   5.917
  404SOL     OW 2110   1.206   0.069   4.407
  404SOL    HW1 2111   1.263   7.013   4.378
  404SOL    HW2 2112   1.241   0.153   4.365
  405SOL     OW 2113   0.736   2.420   0.705
  405SOL    HW1 2114   0.775   2.512   0.706
  405SOL    HW2 2115   0.795   2.358   0.757
  406SOL     OW 2116   2.054   2.644   4.115
  406SOL    HW1 2117   1.988   2.688   4.176
  406SOL    HW2 2118   2.020   2.650   4.021
  407SOL     OW 2119   3.006   0.612   5.174
  407SOL    HW1 2120   2.978   0.659   5.090
  407SOL    HW2 2121   3.076   0.544   5.152
  408SOL     OW 2122   2.045   0.556   3.940
  408SOL    HW1 2123   2.073   0.597   4.027
  408SOL    HW2 2124   1.947   0.534   3.943
  409SOL     OW 2125   5.479   3.427   3.628
  409SOL    HW1 2126   5.504   3.362   3.556
  409SOL    HW2 2127   5.549   3.427   3.699
  410SOL     OW 2128   2.715   1.280   6.529
  410SOL    HW1 2129   2.726   1.228   6.444
  410SOL    HW2 2130   2.778   1.357   6.528
  411SOL     OW 2131   6.324   4.404   4.991
  411SOL    HW1 2132   6.324   4.492   4.945
  411SOL    HW2 2133   6.257   4.343   4.949
  412SOL     OW 2134   3.927   0.383   2.447
  412SOL    HW1 2135   4.003   0.330   2.409
  412SOL    HW2 2136   3.851   0.321   2.468
  413SOL     OW 2137   3.094   6.553   0.449
  413SOL    HW1 2138   3.143   6.635   0.479
  413SOL    HW2 2139   3.100   6.482   0.520
  414SOL     OW 2140   4.346   4.060   0.532
  414SOL    HW1 2141   4.351   4.078   0.433
  414SOL    HW2 2142   4.269   4.111   0.571
  415SOL     OW 2143   2.006   6.531   1.429
  415SOL    HW1 2144   2.081   6.556   1.490
  415SOL    HW2 2145   1.963   6.614   1.394
  416SOL     OW 2146   4.358   6.293   4.856
  416SOL    HW1 2147   4.387   6.265   4.765
  416SOL    HW2 2148   4.304   6.377   4.849
  417SOL     OW 2149   4.273   6.283   1.718
  417SOL    HW1 2150   4.211   6.280   1.796
  417SOL    HW2 2151   4.251   6.361   1.661
  418SOL     OW 2152   4.916   5.923   0.833
  418SOL    HW1 2153   4.990   5.874   0.787
  418SOL    HW2 2154   4.846   5.858   0.863
  419SOL     OW 2155   0.230   6.537   1.175
  419SOL    HW1 2156   0.328   6.556   1.164
  419SOL    HW2 2157   0.186   6.541   1.086
  420SOL     OW 2158   5.045   4.525   0.156
  420SOL    HW1 2159   4.981   4.555   0.227
  420SOL    HW2 2160   4.996   4.513   0.070
  421SOL     OW 2161   2.682   6.247   6.556
  421SOL    HW1 2162   2.678   6.346   6.569
  421SOL    HW2 2163   2.596   6.205   6.587
  422SOL     OW 2164   5.757   4.203   6.720
  422SOL    HW1 2165   5.681   4.250   6.673
  422SOL    HW2 2166   5.818   4.164   6.651
  423SOL     OW 2167   6.492   3.342   6.824
  423SOL    HW1 2168   6.399   3.324   6.792
  423SOL    HW2 2169   6.498   3.435   6.859
  424SOL     OW 2170   3.130   4.168   0.525
  424SOL    HW1 2171   3.119   4.264   0.552
  424SOL    HW2 2172   3.103   4.157   0.429
  425SOL     OW 2173   3.355   1.268   1.066
  425SOL    HW1 2174   3.353   1.303   0.972
  425SOL    HW2 2175   3.437   1.302   1.112
  426SOL     OW 2176   5.381   3.691   6.401
  426SOL    HW1 2177   5.289   3.653   6.417
  426SOL    HW2 2178   5.405   3.679   6.305
  427SOL     OW 2179   5.505   4.112   1.359
  427SOL    HW1 2180   5.563   4.040   1.397
  427SOL    HW2 2181   5.421   4.119   1.414
  428SOL     OW 2182   4.140   0.406   5.540
  428SOL    HW1 2183   4.233   0.413   5.502
  428SOL    HW2 2184   4.138   0.334   5.609
  429SOL     OW 2185   1.671   5.009   6.727
  429SOL    HW1 2186   1.766   4.983   6.711
  429SOL    HW2 2187   1.643   4.983   6.820
  430SOL     OW 2188   1.288   7.002   4.792
  430SOL    HW1 2189   1.344   0.020   4.865
  430SOL    HW2 2190   1.344   6.939   4.738
  431SOL     OW 2191   3.572   1.726   0.564
  431SOL    HW1 2192   3.646   1.659   0.561
  431SOL    HW2 2193   3.498   1.697   0.503
  432SOL     OW 2194   6.865   1.215   0.823
  432SOL    HW1 2195   6.844   1.304   0.782
  432SOL    HW2 2196   6.790   1.187   0.882
  433SOL     OW 2197   3.100   6.617   4.839
  433SOL    HW1 2198   3.066   6.558   4.766
  433SOL    HW2 2199   3.163   6.684   4.801
  434SOL     OW 2200   5.756   3.381   1.224
  434SOL    HW1 2201   5.663   3.376   1.260
  434SOL    HW2 2202   5.753   3.393   1.124
  435SOL     OW 2203   3.036   4.214   6.492
  435SOL    HW1 2204   3.019   4.269   6.573
  435SOL    HW2 2205   3.072   4.125   6.519
  436SOL     OW 2206   1.945   1.102   0.551
  436SOL    HW1 2207   1.876   1.170   0.577
  436SOL    HW2 2208   1.957   1.103   0.452
  437SOL     OW 2209   6.824   0.075   6.374
  437SOL    HW1 2210   6.872   0.005   6.321
  437SOL    HW2 2211   6.883   0.107   6.448
  438SOL     OW 2212   1.166   3.473   1.711
  438SOL    HW1 2213   1.129   3.424   1.632
  438SOL    HW2 2214   1.266   3.472   1.707
  439SOL     OW 2215   6.120   5.100   2.483
  439SOL    HW1 2216   6.164   5.028   2.430
  439SOL    HW2 2217   6.186   5.173   2.501
  440SOL     OW 2218   0.936   2.501   3.754
  440SOL    HW1 2219   0.846   2.491   3.711
  440SOL    HW2 2220   1.005   2.517   3.684
  441SOL     OW 2221   1.481   1.442   3.046
  441SOL    HW1 2222   1.537   1.383   3.104
  441SOL    HW2 2223   1.463   1.395   2.959
  442SOL     OW 2224   6.758   4.130   0.042
  442SOL    HW1 2225   6.710   4.193   0.103
  442SOL    HW2 2226   6.729   4.036   0.061
  443SOL     OW 2227   1.175   3.785   4.992
  443SOL    HW1 2228   1.269   3.819   4.980
  443SOL    HW2 2229   1.176   3.685   4.993
  444SOL     OW 2230   4.801   2.503   6.168
  444SOL    HW1 2231   4.782   2.432   6.236
  444SOL    HW2 2232   4.798   2.593   6.213
  445SOL     OW 2233   2.557   4.576   3.585
  445SOL    HW1 2234   2.583   4.584   3.489
  445SOL    HW2 2235   2.458   4.563   3.592
  446SOL     OW 2236   3.740   5.171   3.912
  446SOL    HW1 2237   3.821   5.114   3.898
  446SOL    HW2 2238   3.754   5.261   3.870
  447SOL     OW 2239   0.112   5.512   0.634
  447SOL    HW1 2240   0.069   5.445   0.694
  447SOL    HW2 2241   0.044   5.578   0.603
  448SOL     OW 2242   4.240   0.903   4.916
  448SOL    HW1 2243   4.304   0.835   4.952
  448SOL    HW2 2244   4.162   0.857   4.875
  449SOL     OW 2245   5.754   1.031   4.835
  449SOL    HW1 2246   5.709   0.955   4.881
  449SOL    HW2 2247   5.814   0.996   4.763
  450SOL     OW 2248   0.341   5.707   3.809
  450SOL    HW1 2249   0.347   5.619   3.761
  450SOL    HW2 2250   0.359   5.693   3.906
  451SOL     OW 2251   0.486   1.495   2.698
  451SOL    HW1 2252   0.421   1.511   2.623
  451SOL    HW2 2253   0.460   1.412   2.747
  452SOL     OW 2254   0.474   4.248   0.021
  452SOL    HW1 2255   0.463   4.212   0.113
  452SOL    HW2 2256   0.555   4.307   0.018
  453SOL     OW 2257   3.079   1.859   6.168
  453SOL    HW1 2258   3.033   1.932   6.218
  453SOL    HW2 2259   3.021   1.778   6.166
  454SOL     OW 2260   0.731   6.246   6.607
  454SOL    HW1 2261   0.810   6.288   6.652
  454SOL    HW2 2262   0.712   6.157   6.649
  455SOL     OW 2263   6.141   0.572   4.271
  455SOL    HW1 2264   6.045   0.568   4.243
  455SOL    HW2 2265   6.186   0.649   4.226
  456SOL     OW 2266   4.045   6.405   6.231
  456SOL    HW1 2267   3.976   6.340   6.264
  456SOL    HW2 2268   4.027   6.425   6.134
  457SOL     OW 2269   2.418   4.435   3.188
  457SOL    HW1 2270   2.345   4.412   3.251
  457SOL    HW2 2271   2.490   4.485   3.236
  458SOL     OW 2272   5.963   5.485   5.604
  458SOL    HW1 2273   5.921   5.399   5.574
  458SOL    HW2 2274   5.909   5.562   5.570
  459SOL     OW 2275   1.555   0.667   2.645
  459SOL    HW1 2276   1.523   0.574   2.625
  459SOL    HW2 2277   1.602   0.667   2.734
  460SOL     OW 2278   6.366   1.622   2.565
  460SOL    HW1 2279   6.359   1.545   2.502
  460SOL    HW2 2280   6.459   1.659   2.564
  461SOL     OW 2281   4.561   0.101   5.125
  461SOL    HW1 2282   4.627   0.026   5.125
  461SOL    HW2 2283   4.482   0.075   5.180
  462SOL     OW 2284   3.170   3.214   6.435
  462SOL    HW1 2285   3.251   3.169   6.399
  462SOL    HW2 2286   3.158   3.189   6.531
  463SOL     OW 2287   6.715   5.238   3.201
  463SOL    HW1 2288   6.798   5.262   3.151
  463SOL    HW2 2289   6.736   5.165   3.266
  464SOL     OW 2290   1.184   1.483   6.320
  464SOL    HW1 2291   1.114   1.420   6.355
  464SOL    HW2 2292   1.180   1.485   6.220
  465SOL     OW 2293   0.835   2.184   3.815
  465SOL    HW1 2294   0.918   2.238   3.809
  465SOL    HW2 2295   0.845   2.101   3.760
  466SOL     OW 2296   1.000   7.005   3.952
  466SOL    HW1 2297   0.921   6.981   4.010
  466SOL    HW2 2298   1.067   6.932   3.956
  467SOL     OW 2299   1.650   0.240   5.354
  467SOL    HW1 2300   1.611   0.154   5.321
  467SOL    HW2 2301   1.701   0.224   5.438
  468SOL     OW 2302   4.072   5.668   0.989
  468SOL    HW1 2303   4.160   5.676   0.943
  468SOL    HW2 2304   4.087   5.640   1.084
  469SOL     OW 2305   2.192   5.816   0.129
  469SOL    HW1 2306   2.227   5.723   0.116
  469SOL    HW2 2307   2.230   5.854   0.213
  470SOL     OW 2308   4.095   0.979   2.235
  470SOL    HW1 2309   4.118   1.055   2.296
  470SOL    HW2 2310   3.999   0.955   2.245
  471SOL     OW 2311   2.234   2.656   4.859
  471SOL    HW1 2312   2.203   2.738   4.907
  471SOL    HW2 2313   2.325   2.631   4.892
  472SOL     OW 2314   4.657   5.671   6.457
  472SOL    HW1 2315   4.629   5.737   6.387
  472SOL    HW2 2316   4.584   5.659   6.523
  473SOL     OW 2317   0.677   2.881   2.457
  473SOL    HW1 2318   0.589   2.890   2.409
  473SOL    HW2 2319   0.729   2.966   2.445
  474SOL     OW 2320   4.280   5.084   4.579
  474SOL    HW1 2321   4.368   5.051   4.546
  474SOL    HW2 2322   4.232   5.132   4.506
  475SOL     OW 2323   0.189   6.840   6.366
  475SOL    HW1 2324   0.091   6.833   6.349
  475SOL    HW2 2325   0.207   6.918   6.425
  476SOL     OW 2326   5.942   4.846   2.161
  476SOL    HW1 2327   6.035   4.874   2.139
  476SOL    HW2 2328   5.900   4.914   2.222
  477SOL     OW 2329   1.971   4.800   4.228
  477SOL    HW1 2330   2.023   4.821   4.310
  477SOL    HW2 2331   1.966   4.701   4.215
  478SOL     OW 2332   3.574   5.596   3.568
  478SOL    HW1 2333   3.509   5.556   3.633
  478SOL    HW2 2334   3.558   5.694   3.562
  479SOL     OW 2335   2.903   2.644   0.576
  479SOL    HW1 2336   2.971   2.677   0.512
  479SOL    HW2 2337   2.926   2.551   0.605
  480SOL     OW 2338   1.557   0.137   2.333
  480SOL    HW1 2339   1.613   0.110   2.254
  480SOL    HW2 2340   1.613   0.191   2.396
  481SOL     OW 2341   2.738   0.039   1.469
  481SOL    HW1 2342   2.745   6.976   1.522
  481SOL    HW2 2343   2.644   0.073   1.471
  482SOL     OW 2344   5.253   4.580   2.467
  482SOL    HW1 2345   5.261   4.556   2.370
  482SOL    HW2 2346   5.241   4.679   2.476
  483SOL     OW 2347   6.144   1.744   1.848
  483SOL    HW1 2348   6.238   1.731   1.880
  483SOL    HW2 2349   6.099   1.655   1.837
  484SOL     OW 2350   0.596   3.137   4.133
  484SOL    HW1 2351   0.675   3.198   4.141
  484SOL    HW2 2352   0.512   3.190   4.150
  485SOL     OW 2353   3.509   4.868   2.575
  485SOL    HW1 2354   3.464   4.871   2.486
  485SOL    HW2 2355   3.442   4.887   2.647
  486SOL     OW 2356   0.758   1.397   0.448
  486SOL    HW1 2357   0.857   1.409   0.441
  486SOL    HW2 2358   0.738   1.302   0.472
  487SOL     OW 2359   0.642   2.275   0.178
  487SOL    HW1 2360   0.699   2.357   0.178
  487SOL    HW2 2361   0.669   2.216   0.253
  488SOL     OW 2362   0.508   2.090   2.002
  488SOL    HW1 2363   0.530   2.176   1.955
  488SOL    HW2 2364   0.586   2.028   1.998
  489SOL     OW 2365   3.550   5.992   0.221
  489SOL    HW1 2366   3.617   5.951   0.158
  489SOL    HW2 2367   3.458   5.963   0.195
  490SOL     OW 2368   6.357   6.721   4.327
  490SOL    HW1 2369   6.394   6.696   4.237
  490SOL    HW2 2370   6.317   6.813   4.321
  491SOL     OW 2371   0.316   2.319   3.159
  491SOL    HW1 2372   0.373   2.284   3.084
  491SOL    HW2 2373   0.223   2.285   3.148
  492SOL     OW 2374   2.758   0.450   6.267
  492SOL    HW1 2375   2.846   0.463   6.221
  492SOL    HW2 2376   2.735   0.532   6.318
  493SOL     OW 2377   6.336   4.539   5.794
  493SOL    HW1 2378   6.380   4.480   5.727
  493SOL    HW2 2379   6.239   4.549   5.770
  494SOL     OW 2380   0.360   6.555   6.940
  494SOL    HW1 2381   0.362   6.484   6.870
  494SOL    HW2 2382   0.266   6.570   6.970
  495SOL     OW 2383   4.882   4.940   2.242
  495SOL    HW1 2384   4.816   4.999   2.287
  495SOL    HW2 2385   4.973   4.980   2.249
  496SOL     OW 2386   5.487   3.429   2.880
  496SOL    HW1 2387   5.520   3.508   2.932
  496SOL    HW2 2388   5.536   3.423   2.793
  497SOL     OW 2389   3.410   1.338   5.127
  497SOL    HW1 2390   3.495   1.300   5.090
  497SOL    HW2 2391   3.406   1.436   5.109
  498SOL     OW 2392   0.526   2.962   2.066
  498SOL    HW1 2393   0.466   2.886   2.091
  498SOL    HW2 2394   0.517   3.034   2.135
  499SOL     OW 2395   3.143   0.340   4.507
  499SOL    HW1 2396   3.094   0.415   4.463
  499SOL    HW2 2397   3.211   0.378   4.571
  500SOL     OW 2398   0.732   3.883   2.810
  500SOL    HW1 2399   0.775   3.837   2.888
  500SOL    HW2 2400   0.800   3.899   2.739
  501SOL     OW 2401   2.366   3.131   6.899
  501SOL    HW1 2402   2.294   3.109   6.832
  501SOL    HW2 2403   2.456   3.112   6.859
  502SOL     OW 2404   4.824   4.783   6.336
  502SOL    HW1 2405   4.767   4.729   6.274
  502SOL    HW2 2406   4.900   4.823   6.286
  503SOL     OW 2407   6.172   4.555   5.442
  503SOL    HW1 2408   6.242   4.511   5.386
  503SOL    HW2 2409   6.093   4.576   5.384
  504SOL     OW 2410   2.322   5.853   4.430
  504SOL    HW1 2411   2.376   5.768   4.428
  504SOL    HW2 2412   2.376   5.927   4.390
  505SOL     OW 2413   4.182   0.617   6.366
  505SOL    HW1 2414   4.270   0.664   6.375
  505SOL    HW2 2415   4.127   0.632   6.449
  506SOL     OW 2416   1.709   4.160   5.544
  506SOL    HW1 2417   1.621   4.122   5.516
  506SOL    HW2 2418   1.706   4.259   5.539
  507SOL     OW 2419   2.986   0.054   4.243
  507SOL    HW1 2420   3.063   0.109   4.274
  507SOL    HW2 2421   2.909   0.066   4.306
  508SOL     OW 2422   5.650   4.154   2.719
  508SOL    HW1 2423   5.721   4.221   2.700
  508SOL    HW2 2424   5.585   4.151   2.642
  509SOL     OW 2425   4.305   1.362   1.416
  509SOL    HW1 2426   4.383   1.385   1.357
  509SOL    HW2 2427   4.334   1.294   1.483
  510SOL     OW 2428   6.789   4.873   5.834
  510SOL    HW1 2429   6.733   4.866   5.917
  510SOL    HW2 2430   6.742   4.928   5.766
  511SOL     OW 2431   0.195   6.425   0.462
  511SOL    HW1 2432   0.272   6.461   0.515
  511SOL    HW2 2433   0.230   6.383   0.378
  512SOL     OW 2434   1.561   3.371   6.783
  512SOL    HW1 2435   1.484   3.329   6.831
  512SOL    HW2 2436   1.562   3.341   6.688
  513SOL     OW 2437   6.526   6.041   3.425
  513SOL    HW1 2438   6.626   6.034   3.433
  513SOL    HW2 2439   6.485   5.952   3.444
  514SOL     OW 2440   6.838   2.094   4.354
  514SOL    HW1 2441   6.816   2.180   4.399
  514SOL    HW2 2442   6.937   2.080   4.355
  515SOL     OW 2443   2.194   0.111   5.982
  515SOL    HW1 2444   2.109   0.093   5.933
  515SOL    HW2 2445   2.219   0.030   6.036
  516SOL     OW 2446   2.183   5.144   1.871
  516SOL    HW1 2447   2.239   5.206   1.927
  516SOL    HW2 2448   2.086   5.160   1.889
  517SOL     OW 2449   5.270   0.056   1.746
  517SOL    HW1 2450   5.318   7.009   1.691
  517SOL    HW2 2451   5.321   0.073   1.830
  518SOL     OW 2452   1.948   2.215   1.401
  518SOL    HW1 2453   2.028   2.274   1.412
  518SOL    HW2 2454   1.956   2.136   1.462
  519SOL     OW 2455   0.528   0.353   5.682
  519SOL    HW1 2456   0.488   0.407   5.756
  519SOL    HW2 2457   0.550   0.413   5.605
  520SOL     OW 2458   5.686   5.036   5.789
  520SOL    HW1 2459   5.769   5.025   5.733
  520SOL    HW2 2460   5.682   4.964   5.857
  521SOL     OW 2461   0.209   1.989   6.352
  521SOL    HW1 2462   0.283   2.020   6.292
  521SOL    HW2 2463   0.237   2.001   6.447
  522SOL     OW 2464   3.883   2.970   5.183
  522SOL    HW1 2465   3.926   2.899   5.239
  522SOL    HW2 2466   3.947   3.046   5.171
  523SOL     OW 2467   6.995   6.981   3.729
  523SOL    HW1 2468   0.045   0.002   3.674
  523SOL    HW2 2469   6.905   7.008   3.694
  524SOL     OW 2470   2.752   1.079   6.795
  524SOL    HW1 2471   2.723   1.098   6.702
  524SOL    HW2 2472   2.835   1.023   6.794
  525SOL     OW 2473   2.929   3.539   6.386
  525SOL    HW1 2474   2.907   3.537   6.288
  525SOL    HW2 2475   2.871   3.607   6.431
  526SOL     OW 2476   3.097   5.358   4.585
  526SOL    HW1 2477   3.099   5.324   4.679
  526SOL    HW2 2478   3.139   5.291   4.525
  527SOL     OW 2479   6.878   1.737   6.319
  527SOL    HW1 2480   6.919   1.828   6.322
  527SOL    HW2 2481   6.883   1.702   6.226
  528SOL     OW 2482   1.711   1.275   5.296
  528SOL    HW1 2483   1.717   1.369   5.328
  528SOL    HW2 2484   1.799   1.248   5.255
  529SOL     OW 2485   1.346   4.986   4.907
  529SOL    HW1 2486   1.320   4.963   5.001
  529SOL    HW2 2487   1.336   5.084   4.893
  530SOL     OW 2488   2.464   3.265   5.354
  530SOL    HW1 2489   2.395   3.328   5.316
  530SOL    HW2 2490   2.452   3.175   5.313
  531SOL     OW 2491   0.517   0.414   1.213
  531SOL    HW1 2492   0.558   0.346   1.274
  531SOL    HW2 2493   0.582   0.488   1.196
  532SOL     OW 2494   1.183   2.112   5.819
  532SOL    HW1 2495   1.223   2.195   5.859
  532SOL    HW2 2496   1.113   2.076   5.881
  533SOL     OW 2497   5.320   6.329   4.574
  533SOL    HW1 2498   5.337   6.231   4.585
  533SOL    HW2 2499   5.346   6.376   4.658
  534SOL     OW 2500   4.216   5.551   2.851
  534SOL    HW1 2501   4.223   5.625   2.784
  534SOL    HW2 2502   4.257   5.581   2.937
  535SOL     OW 2503   0.523   4.114   3.569
  535SOL    HW1 2504   0.560   4.131   3.478
  535SOL    HW2 2505   0.489   4.020   3.574
  536SOL     OW 2506   1.498   5.407   1.350
  536SOL    HW1 2507   1.530   5.425   1.443
  536SOL    HW2 2508   1.499   5.308   1.333
  537SOL     OW 2509   2.540   6.597   2.913
  537SOL    HW1 2510   2.611   6.562   2.850
  537SOL    HW2 2511   2.494   6.520   2.957
  538SOL     OW 2512   1.321   5.794   3.364
  538SOL    HW1 2513   1.320   5.695   3.377
  538SOL    HW2 2514   1.255   5.819   3.293
  539SOL     OW 2515   1.532   5.223   1.733
  539SOL    HW1 2516   1.548   5.149   1.668
  539SOL    HW2 2517   1.616   5.274   1.747
  540SOL     OW 2518   0.938   2.129   2.233
  540SOL    HW1 2519   0.885   2.195   2.286
  540SOL    HW2 2520   0.919   2.036   2.265
  541SOL     OW 2521   3.022   6.365   5.401
  541SOL    HW1 2522   2.993   6.459   5.420
  541SOL    HW2 2523   3.112   6.349   5.440
  542SOL     OW 2524   5.426   6.115   6.911
  542SOL    HW1 2525   5.459   6.193   6.965
  542SOL    HW2 2526   5.372   6.055   6.969
  543SOL     OW 2527   1.399   4.690   7.011
  543SOL    HW1 2528   1.365   4.759   6.948
  543SOL    HW2 2529   1.407   4.602   6.963
  544SOL     OW 2530   0.563   5.392   0.539
  544SOL    HW1 2531   0.566   5.371   0.441
  544SOL    HW2 2532   0.646   5.442   0.564
  545SOL     OW 2533   4.015   1.246   2.754
  545SOL    HW1 2534   4.017   1.332   2.806
  545SOL    HW2 2535   4.097   1.239   2.698
  546SOL     OW 2536   0.984   3.706   1.249
  546SOL    HW1 2537   1.049   3.782   1.255
  546SOL    HW2 2538   0.945   3.702   1.158
  547SOL     OW 2539   2.584   3.023   0.636
  547SOL    HW1 2540   2.593   3.110   0.684
  547SOL    HW2 2541   2.515   2.967   0.681
  548SOL     OW 2542   3.702   2.931   4.394
  548SOL    HW1 2543   3.647   2.904   4.315
  548SOL    HW2 2544   3.663   2.891   4.477
  549SOL     OW 2545   4.977   3.722   1.462
  549SOL    HW1 2546   4.984   3.665   1.544
  549SOL    HW2 2547   4.883   3.722   1.429
  550SOL     OW 2548   6.493   2.887   2.549
  550SOL    HW1 2549   6.398   2.920   2.553
  550SOL    HW2 2550   6.540   2.931   2.473
  551SOL     OW 2551   6.954   1.553   1.092
  551SOL    HW1 2552   6.955   1.596   1.182
  551SOL    HW2 2553   6.862   1.562   1.052
  552SOL     OW 2554   3.603   5.370   0.680
  552SOL    HW1 2555   3.633   5.336   0.591
  552SOL    HW2 2556   3.596   5.293   0.744
  553SOL     OW 2557   2.450   1.198   1.174
  553SOL    HW1 2558   2.526   1.250   1.211
  553SOL    HW2 2559   2.364   1.236   1.208
  554SOL     OW 2560   5.966   6.851   5.759
  554SOL    HW1 2561   5.907   6.893   5.689
  554SOL    HW2 2562   6.040   6.800   5.714
  555SOL     OW 2563   1.437   4.633   4.509
  555SOL    HW1 2564   1.412   4.537   4.520
  555SOL    HW2 2565   1.532   4.646   4.537
  556SOL     OW 2566   5.726   2.674   3.799
  556SOL    HW1 2567   5.804   2.714   3.847
  556SOL    HW2 2568   5.710   2.724   3.714
  557SOL     OW 2569   6.827   5.906   6.430
  557SOL    HW1 2570   6.750   5.952   6.387
  557SOL    HW2 2571   6.799   5.816   6.463
  558SOL     OW 2572   4.436   3.480   5.327
  558SOL    HW1 2573   4.375   3.425   5.271
  558SOL    HW2 2574   4.506   3.522   5.269
  559SOL     OW 2575   0.607   5.890   6.431
  559SOL    HW1 2576   0.546   5.811   6.442
  559SOL    HW2 2577   0.579   5.962   6.494
  560SOL     OW 2578   4.908   6.725   0.031
  560SOL    HW1 2579   4.949   6.814   0.053
  560SOL    HW2 2580   4.809   6.730   0.044
  561SOL     OW 2581   5.860   7.010   0.669
  561SOL    HW1 2582   5.920   6.997   0.590
  561SOL    HW2 2583   5.904   0.050   0.734
  562SOL     OW 2584   5.252   1.200   6.050
  562SOL    HW1 2585   5.345   1.174   6.027
  562SOL    HW2 2586   5.204   1.231   5.968
  563SOL     OW 2587   3.012   6.292   4.329
  563SOL    HW1 2588   3.053   6.233   4.398
  563SOL    HW2 2589   3.065   6.376   4.321
  564SOL     OW 2590   0.555   1.591   7.001
  564SOL    HW1 2591   0.575   1.629   0.070
  564SOL    HW2 2592   0.513   1.501   7.011
  565SOL     OW 2593   4.754   3.878   5.680
  565SOL    HW1 2594   4.828   3.895   5.745
  565SOL    HW2 2595   4.666   3.902   5.721
  566SOL     OW 2596   4.518   4.560   3.544
  566SOL    HW1 2597   4.460   4.560   3.626
  566SOL    HW2 2598   4.515   4.471   3.500
  567SOL     OW 2599   3.084   3.441   5.007
  567SOL    HW1 2600   2.997   3.465   4.965
  567SOL    HW2 2601   3.154   3.430   4.936
  568SOL     OW 2602   2.786   1.969   0.421
  568SOL    HW1 2603   2.765   1.925   0.334
  568SOL    HW2 2604   2.753   2.064   0.419
  569SOL     OW 2605   1.749   3.238   1.030
  569SOL    HW1 2606   1.764   3.181   1.111
  569SOL    HW2 2607   1.666   3.208   0.983
  570SOL     OW 2608   1.112   6.278   0.561
  570SOL    HW1 2609   1.207   6.274   0.529
  570SOL    HW2 2610   1.101   6.216   0.639
  571SOL     OW 2611   3.717   5.343   2.744
  571SOL    HW1 2612   3.794   5.280   2.747
  571SOL    HW2 2613   3.738   5.419   2.683
  572SOL     OW 2614   1.537   4.085   5.160
  572SOL    HW1 2615   1.504   4.082   5.254
  572SOL    HW2 2616   1.634   4.112   5.159
  573SOL     OW 2617   4.216   1.424   5.402
  573SOL    HW1 2618   4.239   1.402   5.497
  573SOL    HW2 2619   4.257   1.511   5.376
  574SOL     OW 2620   2.135   2.030   4.213
  574SOL    HW1 2621   2.114   2.121   4.250
  574SOL    HW2 2622   2.221   1.998   4.252
  575SOL     OW 2623   6.797   2.325   0.331
  575SOL    HW1 2624   6.752   2.357   0.414
  575SOL    HW2 2625   6.831   2.403   0.279
  576SOL     OW 2626   1.303   1.795   2.487
  576SOL    HW1 2627   1.311   1.895   2.499
  576SOL    HW2 2628   1.382   1.762   2.436
  577SOL     OW 2629   2.776   1.969   3.612
  577SOL    HW1 2630   2.781   2.058   3.567
  577SOL    HW2 2631   2.759   1.982   3.710
  578SOL     OW 2632   0.582   3.235   3.502
  578SOL    HW1 2633   0.524   3.301   3.549
  578SOL    HW2 2634   0.646   3.283   3.441
  579SOL     OW 2635   5.022   2.230   0.293
  579SOL    HW1 2636   4.945   2.289   0.317
  579SOL    HW2 2637   5.034   2.160   0.364
  580SOL     OW 2638   1.527   5.477   6.606
  580SOL    HW1 2639   1.536   5.559   6.664
  580SOL    HW2 2640   1.575   5.401   6.649
  581SOL     OW 2641   3.747   2.963   2.798
  581SOL    HW1 2642   3.714   2.897   2.730
  581SOL    HW2 2643   3.692   2.956   2.881
  582SOL     OW 2644   5.348   3.839   2.532
  582SOL    HW1 2645   5.307   3.767   2.476
  582SOL    HW2 2646   5.286   3.865   2.605
  583SOL     OW 2647   2.280   4.422   0.626
  583SOL    HW1 2648   2.350   4.490   0.647
  583SOL    HW2 2649   2.318   4.330   0.639
  584SOL     OW 2650   6.996   4.777   5.082
  584SOL    HW1 2651   0.059   4.819   5.048
  584SOL    HW2 2652   6.917   4.823   5.040
  585SOL     OW 2653   6.932   1.593   6.097
  585SOL    HW1 2654   7.009   1.537   6.126
  585SOL    HW2 2655   6.918   1.582   5.999
  586SOL     OW 2656   2.217   6.765   0.788
  586SOL    HW1 2657   2.214   6.852   0.739
  586SOL    HW2 2658   2.312   6.740   0.807
  587SOL     OW 2659   0.975   3.439   5.594
  587SOL    HW1 2660   1.051   3.478   5.645
  587SOL    HW2 2661   0.933   3.365   5.646
  588SOL     OW 2662   3.334   6.138   1.707
  588SOL    HW1 2663   3.326   6.215   1.644
  588SOL    HW2 2664   3.274   6.064   1.677
  589SOL     OW 2665   3.519   5.194   2.470
  589SOL    HW1 2666   3.486   5.219   2.561
  589SOL    HW2 2667   3.442   5.171   2.411
  590SOL     OW 2668   6.938   1.892   1.716
  590SOL    HW1 2669   6.838   1.887   1.708
  590SOL    HW2 2670   6.978   1.809   1.678
  591SOL     OW 2671   4.014   6.876   3.342
  591SOL    HW1 2672   4.107   6.903   3.319
  591SOL    HW2 2673   4.011   6.778   3.360
  592SOL     OW 2674   5.108   1.009   0.090
  592SOL    HW1 2675   5.199   1.003   0.049
  592SOL    HW2 2676   5.090   1.103   0.119
  593SOL     OW 2677   4.808   2.404   3.922
  593SOL    HW1 2678   4.888   2.357   3.884
  593SOL    HW2 2679   4.796   2.377   4.018
  594SOL     OW 2680   4.023   3.690   1.316
  594SOL    HW1 2681   3.990   3.600   1.289
  594SOL    HW2 2682   4.061   3.737   1.236
  595SOL     OW 2683   3.608   6.203   3.737
  595SOL    HW1 2684   3.554   6.284   3.762
  595SOL    HW2 2685   3.562   6.121   3.771
  596SOL     OW 2686   0.986   4.200   2.950
  596SOL    HW1 2687   0.965   4.286   2.996
  596SOL    HW2 2688   0.955   4.205   2.855
  597SOL     OW 2689   4.374   0.725   5.265
  597SOL    HW1 2690   4.392   0.649   5.328
  597SOL    HW2 2691   4.280   0.719   5.232
  598SOL     OW 2692   3.861   4.634   0.704
  598SOL    HW1 2693   3.820   4.564   0.763
  598SOL    HW2 2694   3.956   4.610   0.685
  599SOL     OW 2695   6.355   0.053   2.526
  599SOL    HW1 2696   6.345   0.091   2.434
  599SOL    HW2 2697   6.383   0.125   2.589
  600SOL     OW 2698   1.960   0.422   0.245
  600SOL    HW1 2699   1.915   0.459   0.325
  600SOL    HW2 2700   2.046   0.377   0.272
  601SOL     OW 2701   3.095   5.604   4.442
  601SOL    HW1 2702   3.172   5.629   4.383
  601SOL    HW2 2703   3.107   5.510   4.474
  602SOL     OW 2704   2.235   0.142   1.297
  602SOL    HW1 2705   2.178   0.067   1.263
  602SOL    HW2 2706   2.192   0.229   1.276
  603SOL     OW 2707   4.118   2.144   3.210
  603SOL    HW1 2708   4.201   2.114   3.164
  603SOL    HW2 2709   4.108   2.243   3.200
  604SOL     OW 2710   0.536   3.995   6.217
  604SOL    HW1 2711   0.611   3.982   6.282
  604SOL    HW2 2712   0.457   4.035   6.264
  605SOL     OW 2713   5.803   0.018   3.831
  605SOL    HW1 2714   5.903   0.018   3.837
  605SOL    HW2 2715   5.774   6.983   3.753
  606SOL     OW 2716   4.114   0.197   3.663
  606SOL    HW1 2717   4.100   0.102   3.690
  606SOL    HW2 2718   4.059   0.218   3.582
  607SOL     OW 2719   5.327   0.832   4.084
  607SOL    HW1 2720   5.251   0.896   4.086
  607SOL    HW2 2721   5.397   0.862   4.149
  608SOL     OW 2722   3.764   0.900   0.801
  608SOL    HW1 2723   3.777   0.964   0.725
  608SOL    HW2 2724   3.738   0.951   0.883
  609SOL     OW 2725   3.352   3.203   4.543
  609SOL    HW1 2726   3.394   3.185   4.455
  609SOL    HW2 2727   3.275   3.141   4.558
  610SOL     OW 2728   5.070   2.551   4.113
  610SOL    HW1 2729   5.146   2.593   4.064
  610SOL    HW2 2730   5.040   2.469   4.064
  611SOL     OW 2731   0.143   6.748   0.268
  611SOL    HW1 2732   0.090   6.676   0.223
  611SOL    HW2 2733   0.195   6.798   0.200
  612SOL     OW 2734   2.853   5.798   6.224
  612SOL    HW1 2735   2.949   5.816   6.201
  612SOL    HW2 2736   2.795   5.822   6.146
  613SOL     OW 2737   3.460   2.021   0.053
  613SOL    HW1 2738   3.422   1.943   0.004
  613SOL    HW2 2739   3.471   1.997   0.149
  614SOL     OW 2740   5.170   5.049   1.103
  614SOL    HW1 2741   5.186   4.980   1.174
  614SOL    HW2 2742   5.258   5.085   1.072
  615SOL     OW 2743   6.974   6.766   1.110
  615SOL    HW1 2744   6.908   6.697   1.080
  615SOL    HW2 2745   0.007   6.797   1.032
  616SOL     OW 2746   5.940   1.155   4.401
  616SOL    HW1 2747   5.933   1.187   4.306
  616SOL    HW2 2748   5.878   1.208   4.459
  617SOL     OW 2749   0.566   4.830   5.636
  617SOL    HW1 2750   0.653   4.814   5.682
  617SOL    HW2 2751   0.564   4.923   5.598
  618SOL     OW 2752   6.056   3.485   0.397
  618SOL    HW1 2753   6.077   3.451   0.488
  618SOL    HW2 2754   6.135   3.537   0.362
  619SOL     OW 2755   2.571   0.479   0.415
  619SOL    HW1 2756   2.579   0.573   0.447
  619SOL    HW2 2757   2.602   0.472   0.320
  620SOL     OW 2758   6.658   1.817   2.385
  620SOL    HW1 2759   6.667   1.861   2.295
  620SOL    HW2 2760   6.621   1.725   2.373
  621SOL     OW 2761   3.546   1.184   6.927
  621SOL    HW1 2762   3.491   1.215   6.850
  621SOL    HW2 2763   3.577   1.263   6.979
  622SOL     OW 2764   1.340   2.002   4.919
  622SOL    HW1 2765   1.413   2.068   4.907
  622SOL    HW2 2766   1.362   1.919   4.868
  623SOL     OW 2767   5.926   6.972   4.340
  623SOL    HW1 2768   5.839   6.953   4.294
  623SOL    HW2 2769   5.908   7.021   4.425
  624SOL     OW 2770   6.414   0.425   6.317
  624SOL    HW1 2771   6.479   0.487   6.273
  624SOL    HW2 2772   6.332   0.475   6.344
  625SOL     OW 2773   2.486   1.409   0.176
  625SOL    HW1 2774   2.515   1.483   0.116
  625SOL    HW2 2775   2.562   1.381   0.234
  626SOL     OW 2776   0.644   5.051   3.890
  626SOL    HW1 2777   0.662   5.039   3.793
  626SOL    HW2 2778   0.724   5.092   3.934
  627SOL     OW 2779   6.407   0.143   7.012
  627SOL    HW1 2780   6.483   0.141   0.055
  627SOL    HW2 2781   6.363   0.054   7.009
  628SOL     OW 2782   4.976   5.016   5.475
  628SOL    HW1 2783   5.004   5.062   5.559
  628SOL    HW2 2784   4.945   4.923   5.496
  629SOL     OW 2785   0.145   6.282   6.125
  629SOL    HW1 2786   0.157   6.380   6.141
  629SOL    HW2 2787   0.219   6.232   6.171
  630SOL     OW 2788   6.543   0.592   1.003
  630SOL    HW1 2789   6.478   0.647   1.054
  630SOL    HW2 2790   6.598   0.651   0.943
  631SOL     OW 2791   2.128   2.423   4.900
  631SOL    HW1 2792   2.192   2.361   4.856
  631SOL    HW2 2793   2.157   2.517   4.885
  632SOL     OW 2794   2.947   3.253   0.010
  632SOL    HW1 2795   2.881   3.177   0.005
  632SOL    HW2 2796   2.938   3.309   6.949
  633SOL     OW 2797   1.944   5.834   1.546
  633SOL    HW1 2798   1.909   5.765   1.483
  633SOL    HW2 2799   1.888   5.917   1.538
  634SOL     OW 2800   3.032   3.269   3.977
  634SOL    HW1 2801   3.033   3.363   4.013
  634SOL    HW2 2802   2.985   3.269   3.888
  635SOL     OW 2803   5.676   0.850   6.484
  635SOL    HW1 2804   5.741   0.803   6.425
  635SOL    HW2 2805   5.654   0.791   6.562
  636SOL     OW 2806   2.541   0.958   7.006
  636SOL    HW1 2807   2.604   0.986   6.934
  636SOL    HW2 2808   2.485   1.036   0.012
  637SOL     OW 2809   6.773   1.021   1.961
  637SOL    HW1 2810   6.782   1.005   2.060
  637SOL    HW2 2811   6.776   1.120   1.943
  638SOL     OW 2812   6.468   3.306   3.826
  638SOL    HW1 2813   6.509   3.373   3.888
  638SOL    HW2 2814   6.531   3.289   3.750
  639SOL     OW 2815   4.671   4.931   2.935
  639SOL    HW1 2816   4.694   4.920   3.031
  639SOL    HW2 2817   4.587   4.880   2.915
  640SOL     OW 2818   0.711   2.350   2.094
  640SOL    HW1 2819   0.754   2.285   2.031
  640SOL    HW2 2820   0.736   2.443   2.068
  641SOL     OW 2821   1.888   5.073   4.271
  641SOL    HW1 2822   1.928   4.984   4.246
  641SOL    HW2 2823   1.852   5.068   4.364
  642SOL     OW 2824   0.805   3.606   5.041
  642SOL    HW1 2825   0.710   3.575   5.044
  642SOL    HW2 2826   0.819   3.660   4.958
  643SOL     OW 2827   4.893   5.135   6.701
  643SOL    HW1 2828   4.834   5.071   6.650
  643SOL    HW2 2829   4.837   5.196   6.756
  644SOL     OW 2830   6.501   6.936   5.131
  644SOL    HW1 2831   6.465   6.913   5.041
  644SOL    HW2 2832   6.502   0.014   5.142
  645SOL     OW 2833   4.222   5.213   2.062
  645SOL    HW1 2834   4.276   5.176   2.138
  645SOL    HW2 2835   4.125   5.211   2.086
  646SOL     OW 2836   3.811   1.009   5.360
  646SOL    HW1 2837   3.770   1.068   5.429
  646SOL    HW2 2838   3.857   0.931   5.404
  647SOL     OW 2839   4.603   2.249   5.615
  647SOL    HW1 2840   4.658   2.312   5.561
  647SOL    HW2 2841   4.657   2.217   5.693
  648SOL     OW 2842   5.638   2.241   3.299
  648SOL    HW1 2843   5.688   2.297   3.365
  648SOL    HW2 2844   5.544   2.275   3.289
  649SOL     OW 2845   2.672   5.568   0.965
  649SOL    HW1 2846   2.691   5.482   1.013
  649SOL    HW2 2847   2.751   5.593   0.908
  650SOL     OW 2848   6.985   5.215   1.268
  650SOL    HW1 2849   6.961   5.134   1.321
  650SOL    HW2 2850   0.023   5.274   1.323
  651SOL     OW 2851   1.569   0.400   4.872
  651SOL    HW1 2852   1.552   0.401   4.774
  651SOL    HW2 2853   1.484   0.419   4.921
  652SOL     OW 2854   3.383   6.293   1.465
  652SOL    HW1 2855   3.385   6.392   1.480
  652SOL    HW2 2856   3.470   6.253   1.493
  653SOL     OW 2857   0.989   6.724   1.862
  653SOL    HW1 2858   1.056   6.724   1.788
  653SOL    HW2 2859   0.897   6.737   1.825
  654SOL     OW 2860   6.959   6.729   4.852
  654SOL    HW1 2861   6.886   6.745   4.918
  654SOL    HW2 2862   6.947   6.638   4.811
  655SOL     OW 2863   6.843   4.299   1.936
  655SOL    HW1 2864   6.859   4.201   1.923
  655SOL    HW2 2865   6.794   4.313   2.022
  656SOL     OW 2866   3.489   6.678   0.583
  656SOL    HW1 2867   3.501   6.604   0.516
  656SOL    HW2 2868   3.392   6.702   0.589
  657SOL     OW 2869   3.835   2.885   2.065
  657SOL    HW1 2870   3.871   2.978   2.071
  657SOL    HW2 2871   3.911   2.820   2.066
  658SOL     OW 2872   2.163   3.165   4.129
  658SOL    HW1 2873   2.147   3.261   4.152
  658SOL    HW2 2874   2.090   3.132   4.070
  659SOL     OW 2875   2.585   6.298   5.756
  659SOL    HW1 2876   2.503   6.295   5.699
  659SOL    HW2 2877   2.622   6.205   5.766
  660SOL     OW 2878   4.969   4.253   2.506
  660SOL    HW1 2879   5.033   4.208   2.444
  660SOL    HW2 2880   4.913   4.185   2.553
  661SOL     OW 2881   4.189   4.778   4.392
  661SOL    HW1 2882   4.226   4.800   4.301
  661SOL    HW2 2883   4.151   4.861   4.432
  662SOL     OW 2884   4.910   3.081   0.108
  662SOL    HW1 2885   4.993   3.081   0.053
  662SOL    HW2 2886   4.835   3.122   0.056
  663SOL     OW 2887   0.316   4.334   0.552
  663SOL    HW1 2888   0.311   4.301   0.647
  663SOL    HW2 2889   0.228   4.372   0.525
  664SOL     OW 2890   1.761   0.226   6.999
  664SOL    HW1 2891   1.711   0.202   0.060
  664SOL    HW2 2892   1.859   0.228   7.019
  665SOL     OW 2893   4.263   5.368   0.886
  665SOL    HW1 2894   4.183   5.331   0.839
  665SOL    HW2 2895   4.256   5.468   0.891
  666SOL     OW 2896   3.491   1.928   0.333
  666SOL    HW1 2897   3.411   1.895   0.383
  666SOL    HW2 2898   3.538   1.998   0.387
  667SOL     OW 2899   0.569   2.552   2.801
  667SOL    HW1 2900   0.591   2.529   2.896
  667SOL    HW2 2901   0.475   2.584   2.795
  668SOL     OW 2902   5.137   0.103   0.610
  668SOL    HW1 2903   5.060   0.094   0.546
  668SOL    HW2 2904   5.197   0.177   0.580
  669SOL     OW 2905   1.808   6.216   3.104
  669SOL    HW1 2906   1.878   6.267   3.152
  669SOL    HW2 2907   1.842   6.186   3.015
  670SOL     OW 2908   3.176   3.554   3.871
  670SOL    HW1 2909   3.225   3.482   3.822
  670SOL    HW2 2910   3.108   3.512   3.932
  671SOL     OW 2911   1.890   0.069   6.125
  671SOL    HW1 2912   1.847   0.128   6.056
  671SOL    HW2 2913   1.956   0.122   6.178
  672SOL     OW 2914   2.316   2.851   4.100
  672SOL    HW1 2915   2.325   2.865   4.199
  672SOL    HW2 2916   2.302   2.939   4.055
  673SOL     OW 2917   5.690   0.213   0.868
  673SOL    HW1 2918   5.673   0.300   0.915
  673SOL    HW2 2919   5.765   0.165   0.913
  674SOL     OW 2920   0.469   1.824   3.601
  674SOL    HW1 2921   0.561   1.824   3.562
  674SOL    HW2 2922   0.461   1.898   3.669
  675SOL     OW 2923   7.018   2.789   4.768
  675SOL    HW1 2924   6.951   2.862   4.757
  675SOL    HW2 2925   6.997   2.736   4.850
  676SOL     OW 2926   2.071   4.664   4.654
  676SOL    HW1 2927   2.159   4.692   4.693
  676SOL    HW2 2928   2.087   4.606   4.575
  677SOL     OW 2929   6.527   6.795   1.019
  677SOL    HW1 2930   6.550   6.774   0.925
  677SOL    HW2 2931   6.495   6.890   1.025
  678SOL     OW 2932   2.231   1.454   6.079
  678SOL    HW1 2933   2.224   1.388   6.005
  678SOL    HW2 2934   2.327   1.478   6.093
  679SOL     OW 2935   4.603   0.020   2.708
  679SOL    HW1 2936   4.615   0.100   2.767
  679SOL    HW2 2937   4.522   6.991   2.736
  680SOL     OW 2938   4.834   4.120   5.472
  680SOL    HW1 2939   4.753   4.100   5.527
  680SOL    HW2 2940   4.896   4.041   5.476
  681SOL     OW 2941   0.994   6.851   1.357
  681SOL    HW1 2942   0.898   6.826   1.346
  681SOL    HW2 2943   1.008   6.893   1.446
  682SOL     OW 2944   2.124   5.952   0.548
  682SOL    HW1 2945   2.058   5.930   0.477
  682SOL    HW2 2946   2.192   6.015   0.512
  683SOL     OW 2947   5.232   1.569   0.169
  683SOL    HW1 2948   5.217   1.580   0.268
  683SOL    HW2 2949   5.188   1.644   0.120
  684SOL     OW 2950   0.339   5.539   6.269
  684SOL    HW1 2951   0.283   5.468   6.311
  684SOL    HW2 2952   0.298   5.567   6.182
  685SOL     OW 2953   5.899   0.281   5.201
  685SOL    HW1 2954   5.940   0.346   5.265
  685SOL    HW2 2955   5.971   0.222   5.163
  686SOL     OW 2956   5.138   4.894   3.029
  686SOL    HW1 2957   5.133   4.922   2.933
  686SOL    HW2 2958   5.211   4.826   3.040
  687SOL     OW 2959   6.448   3.677   5.757
  687SOL    HW1 2960   6.411   3.585   5.763
  687SOL    HW2 2961   6.374   3.743   5.747
  688SOL     OW 2962   6.763   4.051   5.821
  688SOL    HW1 2963   6.774   3.956   5.850
  688SOL    HW2 2964   6.684   4.091   5.866
  689SOL     OW 2965   5.742   3.578   5.815
  689SOL    HW1 2966   5.751   3.525   5.731
  689SOL    HW2 2967   5.693   3.523   5.883
  690SOL     OW 2968   1.326   2.536   3.014
  690SOL    HW1 2969   1.276   2.542   2.928
  690SOL    HW2 2970   1.275   2.481   3.080
  691SOL     OW 2971   1.109   2.881   6.587
  691SOL    HW1 2972   1.021   2.872   6.540
  691SOL    HW2 2973   1.156   2.793   6.586
  692SOL     OW 2974   2.418   0.066   2.912
  692SOL    HW1 2975   2.470   0.012   2.979
  692SOL    HW2 2976   2.377   0.005   2.845
  693SOL     OW 2977   6.808   2.538   2.118
  693SOL    HW1 2978   6.901   2.570   2.136
  693SOL    HW2 2979   6.809   2.473   2.043
  694SOL     OW 2980   1.845   0.189   0.991
  694SOL    HW1 2981   1.828   0.122   0.918
  694SOL    HW2 2982   1.917   0.251   0.962
  695SOL     OW 2983   4.773   6.185   5.486
  695SOL    HW1 2984   4.776   6.191   5.386
  695SOL    HW2 2985   4.691   6.134   5.513
  696SOL     OW 2986   4.208   4.854   2.549
  696SOL    HW1 2987   4.197   4.943   2.505
  696SOL    HW2 2988   4.305   4.837   2.564
  697SOL     OW 2989   1.040   3.902   3.871
  697SOL    HW1 2990   1.045   3.858   3.961
  697SOL    HW2 2991   0.944   3.916   3.846
  698SOL     OW 2992   4.683   0.313   3.342
  698SOL    HW1 2993   4.650   0.402   3.373
  698SOL    HW2 2994   4.759   0.283   3.401
  699SOL     OW 2995   1.842   4.468   0.952
  699SOL    HW1 2996   1.795   4.380   0.943
  699SOL    HW2 2997   1.923   4.469   0.894
  700SOL     OW 2998   2.561   2.111   4.374
  700SOL    HW1 2999   2.643   2.145   4.329
  700SOL    HW2 3000   2.586   2.044   4.444
  701SOL     OW 3001   0.047   3.940   5.854
  701SOL    HW1 3002   6.985   3.994   5.853
  701SOL    HW2 3003   0.126   4.001   5.845
  702SOL     OW 3004   5.246   6.055   4.351
  702SOL    HW1 3005   5.171   5.990   4.339
  702SOL    HW2 3006   5.226   6.139   4.300
  703SOL     OW 3007   3.771   3.746   6.573
  703SOL    HW1 3008   3.769   3.649   6.597
  703SOL    HW2 3009   3.679   3.784   6.579
  704SOL     OW 3010   1.509   0.430   7.020
  704SOL    HW1 3011   1.602   0.395   7.017
  704SOL    HW2 3012   1.507   0.524   6.988
  705SOL     OW 3013   6.128   1.993   2.460
  705SOL    HW1 3014   6.030   2.010   2.468
  705SOL    HW2 3015   6.164   2.047   2.383
  706SOL     OW 3016   3.700   1.754   3.691
  706SOL    HW1 3017   3.699   1.674   3.631
  706SOL    HW2 3018   3.752   1.828   3.647
  707SOL     OW 3019   4.681   0.493   1.487
  707SOL    HW1 3020   4.772   0.490   1.527
  707SOL    HW2 3021   4.616   0.523   1.557
  708SOL     OW 3022   4.198   0.783   1.308
  708SOL    HW1 3023   4.227   0.864   1.258
  708SOL    HW2 3024   4.098   0.779   1.308
  709SOL     OW 3025   0.788   4.637   0.357
  709SOL    HW1 3026   0.777   4.660   0.454
  709SOL    HW2 3027   0.768   4.718   0.301
  710SOL     OW 3028   3.003   3.768   2.785
  710SOL    HW1 3029   2.971   3.745   2.693
  710SOL    HW2 3030   2.951   3.715   2.853
  711SOL     OW 3031   0.075   1.055   4.365
  711SOL    HW1 3032   7.008   1.047   4.410
  711SOL    HW2 3033   0.086   0.980   4.299
  712SOL     OW 3034   1.571   3.953   1.556
  712SOL    HW1 3035   1.514   3.991   1.629
  712SOL    HW2 3036   1.580   4.020   1.482
  713SOL     OW 3037   3.434   2.875   2.826
  713SOL    HW1 3038   3.488   2.897   2.907
  713SOL    HW2 3039   3.343   2.916   2.835
  714SOL     OW 3040   4.865   4.744   5.103
  714SOL    HW1 3041   4.954   4.712   5.137
  714SOL    HW2 3042   4.802   4.755   5.179
  715SOL     OW 3043   4.720   0.127   6.402
  715SOL    HW1 3044   4.793   0.066   6.432
  715SOL    HW2 3045   4.677   0.089   6.320
  716SOL     OW 3046   0.171   5.017   1.636
  716SOL    HW1 3047   0.098   5.077   1.670
  716SOL    HW2 3048   0.178   4.936   1.694
  717SOL     OW 3049   6.290   2.555   0.605
  717SOL    HW1 3050   6.190   2.551   0.613
  717SOL    HW2 3051   6.331   2.514   0.686
  718SOL     OW 3052   3.665   3.573   6.010
  718SOL    HW1 3053   3.600   3.638   6.047
  718SOL    HW2 3054   3.750   3.620   5.986
  719SOL     OW 3055   5.672   4.187   1.127
  719SOL    HW1 3056   5.592   4.178   1.188
  719SOL    HW2 3057   5.749   4.136   1.166
  720SOL     OW 3058   2.198   1.791   6.083
  720SOL    HW1 3059   2.188   1.846   6.000
  720SOL    HW2 3060   2.226   1.698   6.059
  721SOL     OW 3061   1.380   6.984   5.898
  721SOL    HW1 3062   1.422   6.894   5.900
  721SOL    HW2 3063   1.329   6.999   5.983
  722SOL     OW 3064   3.779   0.186   4.664
  722SOL    HW1 3065   3.844   0.249   4.621
  722SOL    HW2 3066   3.709   0.159   4.597
  723SOL     OW 3067   1.118   2.987   2.174
  723SOL    HW1 3068   1.041   3.035   2.131
  723SOL    HW2 3069   1.140   2.905   2.121
  724SOL     OW 3070   6.900   0.933   4.545
  724SOL    HW1 3071   6.923   0.855   4.487
  724SOL    HW2 3072   6.842   0.902   4.620
  725SOL     OW 3073   1.966   4.638   2.215
  725SOL    HW1 3074   1.987   4.590   2.300
  725SOL    HW2 3075   1.893   4.705   2.232
  726SOL     OW 3076   3.985   6.967   6.948
  726SOL    HW1 3077   3.982   7.003   6.854
  726SOL    HW2 3078   3.942   6.877   6.951
  727SOL     OW 3079   2.652   5.232   4.075
  727SOL    HW1 3080   2.553   5.238   4.075
  727SOL    HW2 3081   2.687   5.260   4.165
  728SOL     OW 3082   6.983   4.130   4.631
  728SOL    HW1 3083   6.988   4.194   4.707
  728SOL    HW2 3084   6.941   4.174   4.552
  729SOL     OW 3085   2.308   0.321   1.636
  729SOL    HW1 3086   2.258   0.407   1.643
  729SOL    HW2 3087   2.327   0.287   1.728
  730SOL     OW 3088   6.438   0.476   3.432
  730SOL    HW1 3089   6.410   0.474   3.528
  730SOL    HW2 3090   6.520   0.532   3.421
  731SOL     OW 3091   5.551   3.639   4.428
  731SOL    HW1 3092   5.573   3.697   4.350
  731SOL    HW2 3093   5.635   3.620   4.480
  732SOL     OW 3094   6.418   2.568   1.148
  732SOL    HW1 3095   6.374   2.638   1.203
  732SOL    HW2 3096   6.465   2.503   1.208
  733SOL     OW 3097   4.737   4.194   4.007
  733SOL    HW1 3098   4.727   4.173   3.910
  733SOL    HW2 3099   4.762   4.111   4.057
  734SOL     OW 3100   6.261   4.715   1.068
  734SOL    HW1 3101   6.244   4.624   1.107
  734SOL    HW2 3102   6.358   4.737   1.074
  735SOL     OW 3103   1.711   4.421   6.096
  735SOL    HW1 3104   1.753   4.472   6.021
  735SOL    HW2 3105   1.720   4.323   6.080
  736SOL     OW 3106   6.630   0.676   3.423
  736SOL    HW1 3107   6.584   0.750   3.374
  736SOL    HW2 3108   6.686   0.714   3.497
  737SOL     OW 3109   5.601   3.301   0.710
  737SOL    HW1 3110   5.546   3.219   0.695
  737SOL    HW2 3111   5.677   3.303   0.645
  738SOL     OW 3112   0.445   3.941   3.801
  738SOL    HW1 3113   0.543   3.960   3.792
  738SOL    HW2 3114   0.432   3.850   3.841
  739SOL     OW 3115   4.102   6.224   5.687
  739SOL    HW1 3116   4.113   6.187   5.779
  739SOL    HW2 3117   4.051   6.311   5.693
  740SOL     OW 3118   6.440   6.534   1.446
  740SOL    HW1 3119   6.456   6.453   1.390
  740SOL    HW2 3120   6.361   6.584   1.411
  741SOL     OW 3121   2.205   6.815   2.958
  741SOL    HW1 3122   2.106   6.821   2.959
  741SOL    HW2 3123   2.242   6.871   2.884
  742SOL     OW 3124   1.652   0.183   3.422
  742SOL    HW1 3125   1.745   0.152   3.445
  742SOL    HW2 3126   1.642   0.186   3.322
  743SOL     OW 3127   1.738   3.827   4.392
  743SOL    HW1 3128   1.811   3.860   4.452
  743SOL    HW2 3129   1.770   3.827   4.297
  744SOL     OW 3130   0.269   5.494   0.417
  744SOL    HW1 3131   0.201   5.490   0.490
  744SOL    HW2 3132   0.313   5.584   0.417
  745SOL     OW 3133   1.769   5.945   2.526
  745SOL    HW1 3134   1.833   5.972   2.454
  745SOL    HW2 3135   1.678   5.934   2.487
  746SOL     OW 3136   1.571   0.706   5.066
  746SOL    HW1 3137   1.526   0.627   5.023
  746SOL    HW2 3138   1.504   0.757   5.120
  747SOL     OW 3139   4.782   4.743   3.564
  747SOL    HW1 3140   4.723   4.662   3.563
  747SOL    HW2 3141   4.867   4.722   3.515
  748SOL     OW 3142   4.876   3.538   1.159
  748SOL    HW1 3143   4.886   3.498   1.250
  748SOL    HW2 3144   4.832   3.627   1.167
  749SOL     OW 3145   0.663   2.339   5.402
  749SOL    HW1 3146   0.740   2.283   5.432
  749SOL    HW2 3147   0.624   2.301   5.318
  750SOL     OW 3148   2.414   4.173   0.029
  750SOL    HW1 3149   2.353   4.153   6.974
  750SOL    HW2 3150   2.496   4.217   7.018
  751SOL     OW 3151   4.246   0.754   0.043
  751SOL    HW1 3152   4.243   0.854   0.048
  751SOL    HW2 3153   4.155   0.718   0.026
  752SOL     OW 3154   4.477   2.517   1.622
  752SOL    HW1 3155   4.452   2.514   1.525
  752SOL    HW2 3156   4.466   2.426   1.662
  753SOL     OW 3157   2.322   2.826   4.570
  753SOL    HW1 3158   2.325   2.858   4.475
  753SOL    HW2 3159   2.298   2.902   4.630
  754SOL     OW 3160   3.840   5.251   6.641
  754SOL    HW1 3161   3.803   5.173   6.591
  754SOL    HW2 3162   3.807   5.250   6.735
  755SOL     OW 3163   0.328   6.261   0.260
  755SOL    HW1 3164   0.320   6.247   0.161
  755SOL    HW2 3165   0.325   6.173   0.306
  756SOL     OW 3166   4.876   0.781   1.656
  756SOL    HW1 3167   4.839   0.748   1.743
  756SOL    HW2 3168   4.801   0.816   1.600
  757SOL     OW 3169   0.550   6.557   3.708
  757SOL    HW1 3170   0.452   6.540   3.695
  757SOL    HW2 3171   0.596   6.560   3.620
  758SOL     OW 3172   3.739   1.908   1.279
  758SOL    HW1 3173   3.802   1.833   1.298
  758SOL    HW2 3174   3.649   1.871   1.256
  759SOL     OW 3175   1.142   2.124   0.463
  759SOL    HW1 3176   1.139   2.039   0.515
  759SOL    HW2 3177   1.080   2.191   0.504
  760SOL     OW 3178   5.099   0.993   6.685
  760SOL    HW1 3179   5.002   0.968   6.685
  760SOL    HW2 3180   5.146   0.943   6.758
  761SOL     OW 3181   5.860   2.349   0.152
  761SOL    HW1 3182   5.895   2.297   0.074
  761SOL    HW2 3183   5.877   2.446   0.137
  762SOL     OW 3184   2.404   6.512   3.836
  762SOL    HW1 3185   2.311   6.543   3.854
  762SOL    HW2 3186   2.469   6.577   3.873
  763SOL     OW 3187   3.975   6.376   6.831
  763SOL    HW1 3188   3.992   6.327   6.745
  763SOL    HW2 3189   4.040   6.451   6.840
  764SOL     OW 3190   3.414   1.766   1.725
  764SOL    HW1 3191   3.427   1.676   1.767
  764SOL    HW2 3192   3.339   1.814   1.771
  765SOL     OW 3193   6.865   0.012   2.781
  765SOL    HW1 3194   6.882   0.011   2.879
  765SOL    HW2 3195   6.820   6.949   2.753
  766SOL     OW 3196   0.078   6.529   6.985
  766SOL    HW1 3197   0.048   6.434   6.993
  766SOL    HW2 3198   0.008   6.589   0.001
  767SOL     OW 3199   6.440   6.807   2.626
  767SOL    HW1 3200   6.408   6.890   2.581
  767SOL    HW2 3201   6.483   6.747   2.559
  768SOL     OW 3202   2.735   6.509   2.759
  768SOL    HW1 3203   2.729   6.466   2.669
  768SOL    HW2 3204   2.831   6.525   2.782
  769SOL     OW 3205   4.387   0.443   5.359
  769SOL    HW1 3206   4.451   0.438   5.435
  769SOL    HW2 3207   4.433   0.418   5.274
  770SOL     OW 3208   2.842   4.748   4.102
  770SOL    HW1 3209   2.757   4.801   4.105
  770SOL    HW2 3210   2.836   4.672   4.167
  771SOL     OW 3211   0.778   5.202   3.355
  771SOL    HW1 3212   0.706   5.271   3.362
  771SOL    HW2 3213   0.781   5.150   3.441
  772SOL     OW 3214   6.711   3.857   0.020
  772SOL    HW1 3215   6.678   3.851   6.947
  772SOL    HW2 3216   6.803   3.817   0.024
  773SOL     OW 3217   6.420   3.812   2.102
  773SOL    HW1 3218   6.438   3.822   2.200
  773SOL    HW2 3219   6.447   3.721   2.072
  774SOL     OW 3220   1.544   1.366   1.324
  774SOL    HW1 3221   1.489   1.436   1.368
  774SOL    HW2 3222   1.640   1.378   1.351
  775SOL     OW 3223   1.476   1.950   4.384
  775SOL    HW1 3224   1.482   1.851   4.371
  775SOL    HW2 3225   1.540   1.978   4.455
  776SOL     OW 3226   2.400   0.518   6.331
  776SOL    HW1 3227   2.330   0.481   6.391
  776SOL    HW2 3228   2.363   0.596   6.281
  777SOL     OW 3229   4.125   1.210   0.850
  777SOL    HW1 3230   4.078   1.166   0.927
  777SOL    HW2 3231   4.215   1.242   0.880
  778SOL     OW 3232   4.448   0.337   3.885
  778SOL    HW1 3233   4.355   0.367   3.862
  778SOL    HW2 3234   4.487   0.399   3.953
  779SOL     OW 3235   0.479   2.360   2.212
  779SOL    HW1 3236   0.565   2.366   2.162
  779SOL    HW2 3237   0.406   2.403   2.159
  780SOL     OW 3238   6.169   3.614   4.550
  780SOL    HW1 3239   6.100   3.599   4.621
  780SOL    HW2 3240   6.194   3.527   4.509
  781SOL     OW 3241   6.747   0.959   6.304
  781SOL    HW1 3242   6.842   0.966   6.333
  781SOL    HW2 3243   6.687   0.950   6.383
  782SOL     OW 3244   0.175   2.892   0.903
  782SOL    HW1 3245   0.204   2.797   0.895
  782SOL    HW2 3246   0.206   2.928   0.991
  783SOL     OW 3247   3.187   5.025   0.237
  783SOL    HW1 3248   3.121   4.957   0.206
  783SOL    HW2 3249   3.139   5.099   0.286
  784SOL     OW 3250   3.993   0.624   4.949
  784SOL    HW1 3251   4.017   0.557   5.018
  784SOL    HW2 3252   4.004   0.584   4.858
  785SOL     OW 3253   5.814   1.488   3.595
  785SOL    HW1 3254   5.794   1.535   3.681
  785SOL    HW2 3255   5.870   1.408   3.613
  786SOL     OW 3256   6.766   6.527   0.635
  786SOL    HW1 3257   6.853   6.478   0.640
  786SOL    HW2 3258   6.734   6.527   0.540
  787SOL     OW 3259   2.595   2.234   6.575
  787SOL    HW1 3260   2.552   2.303   6.634
  787SOL    HW2 3261   2.564   2.247   6.481
  788SOL     OW 3262   1.833   3.540   4.252
  788SOL    HW1 3263   1.786   3.542   4.340
  788SOL    HW2 3264   1.771   3.502   4.182
  789SOL     OW 3265   5.323   3.829   1.708
  789SOL    HW1 3266   5.266   3.774   1.768
  789SOL    HW2 3267   5.370   3.770   1.643
  790SOL     OW 3268   3.015   1.160   3.605
  790SOL    HW1 3269   3.095   1.204   3.564
  790SOL    HW2 3270   2.933   1.183   3.553
  791SOL     OW 3271   3.468   1.218   4.829
  791SOL    HW1 3272   3.527   1.187   4.904
  791SOL    HW2 3273   3.436   1.139   4.776
  792SOL     OW 3274   5.912   0.127   2.838
  792SOL    HW1 3275   5.836   0.076   2.878
  792SOL    HW2 3276   5.943   0.081   2.755
  793SOL     OW 3277   5.223   0.214   0.267
  793SOL    HW1 3278   5.128   0.186   0.283
  793SOL    HW2 3279   5.248   0.286   0.332
  794SOL     OW 3280   2.431   5.187   5.623
  794SOL    HW1 3281   2.468   5.280   5.626
  794SOL    HW2 3282   2.451   5.141   5.710
  795SOL     OW 3283   4.627   4.726   6.142
  795SOL    HW1 3284   4.557   4.680   6.197
  795SOL    HW2 3285   4.584   4.775   6.066
  796SOL     OW 3286   7.016   2.541   6.482
  796SOL    HW1 3287   6.919   2.556   6.466
  796SOL    HW2 3288   0.011   2.444   6.499
  797SOL     OW 3289   5.976   2.649   4.375
  797SOL    HW1 3290   6.021   2.621   4.290
  797SOL    HW2 3291   6.020   2.603   4.453
  798SOL     OW 3292   5.344   0.713   6.649
  798SOL    HW1 3293   5.345   0.796   6.594
  798SOL    HW2 3294   5.254   0.669   6.643
  799SOL     OW 3295   6.630   2.068   3.364
  799SOL    HW1 3296   6.630   2.025   3.455
  799SOL    HW2 3297   6.558   2.138   3.361
  800SOL     OW 3298   5.641   1.117   2.316
  800SOL    HW1 3299   5.715   1.152   2.374
  800SOL    HW2 3300   5.561   1.098   2.372
  801SOL     OW 3301   7.004   2.201   3.584
  801SOL    HW1 3302   6.985   2.252   3.668
  801SOL    HW2 3303   7.006   2.265   3.507
  802SOL     OW 3304   5.554   1.408   0.295
  802SOL    HW1 3305   5.486   1.477   0.273
  802SOL    HW2 3306   5.645   1.449   0.296
  803SOL     OW 3307   6.225   5.634   4.202
  803SOL    HW1 3308   6.318   5.596   4.199
  803SOL    HW2 3309   6.227   5.722   4.249
  804SOL     OW 3310   0.894   6.664   0.077
  804SOL    HW1 3311   0.801   6.676   0.042
  804SOL    HW2 3312   0.890   6.648   0.176
  805SOL     OW 3313   3.065   2.808   5.847
  805SOL    HW1 3314   3.126   2.881   5.878
  805SOL    HW2 3315   3.034   2.755   5.926
  806SOL     OW 3316   4.996   1.603   6.943
  806SOL    HW1 3317   4.925   1.578   6.877
  806SOL    HW2 3318   4.953   1.620   0.011
  807SOL     OW 3319   1.316   0.568   3.134
  807SOL    HW1 3320   1.229   0.593   3.094
  807SOL    HW2 3321   1.305   0.557   3.233
  808SOL     OW 3322   5.579   3.417   5.953
  808SOL    HW1 3323   5.523   3.480   6.006
  808SOL    HW2 3324   5.524   3.376   5.880
  809SOL     OW 3325   0.893   4.477   0.177
  809SOL    HW1 3326   0.872   4.545   0.247
  809SOL    HW2 3327   0.939   4.399   0.220
  810SOL     OW 3328   5.639   3.895   0.093
  810SOL    HW1 3329   5.570   3.829   0.065
  810SOL    HW2 3330   5.682   3.935   0.012
  811SOL     OW 3331   5.260   4.900   3.818
  811SOL    HW1 3332   5.268   4.825   3.884
  811SOL    HW2 3333   5.166   4.906   3.786
  812SOL     OW 3334   0.428   7.007   1.386
  812SOL    HW1 3335   0.369   7.007   1.467
  812SOL    HW2 3336   0.399   6.934   1.324
  813SOL     OW 3337   4.764   5.347   2.543
  813SOL    HW1 3338   4.698   5.359   2.470
  813SOL    HW2 3339   4.820   5.267   2.525
  814SOL     OW 3340   6.408   6.098   2.345
  814SOL    HW1 3341   6.308   6.101   2.341
  814SOL    HW2 3342   6.445   6.168   2.284
  815SOL     OW 3343   6.520   2.285   0.821
  815SOL    HW1 3344   6.472   2.371   0.837
  815SOL    HW2 3345   6.603   2.303   0.769
  816SOL     OW 3346   6.434   5.953   1.341
  816SOL    HW1 3347   6.364   5.990   1.402
  816SOL    HW2 3348   6.399   5.950   1.248
  817SOL     OW 3349   1.916   3.327   2.327
  817SOL    HW1 3350   1.929   3.339   2.229
  817SOL    HW2 3351   1.857   3.248   2.344
  818SOL     OW 3352   5.925   1.160   0.922
  818SOL    HW1 3353   5.853   1.186   0.859
  818SOL    HW2 3354   5.945   1.237   0.984
  819SOL     OW 3355   0.038   2.579   3.212
  819SOL    HW1 3356   0.108   2.642   3.247
  819SOL    HW2 3357   6.972   2.627   3.206
  820SOL     OW 3358   1.074   2.523   4.636
  820SOL    HW1 3359   1.038   2.610   4.669
  820SOL    HW2 3360   1.033   2.448   4.689
  821SOL     OW 3361   1.375   3.767   6.866
  821SOL    HW1 3362   1.417   3.727   6.948
  821SOL    HW2 3363   1.278   3.783   6.883
  822SOL     OW 3364   1.243   4.003   4.390
  822SOL    HW1 3365   1.333   3.965   4.369
  822SOL    HW2 3366   1.223   4.078   4.326
  823SOL     OW 3367   4.572   4.308   0.001
  823SOL    HW1 3368   4.538   4.324   0.094
  823SOL    HW2 3369   4.659   4.258   0.005
  824SOL     OW 3370   5.243   2.633   5.098
  824SOL    HW1 3371   5.260   2.715   5.043
  824SOL    HW2 3372   5.181   2.572   5.048
  825SOL     OW 3373   2.152   3.335   2.619
  825SOL    HW1 3374   2.140   3.282   2.535
  825SOL    HW2 3375   2.151   3.273   2.697
  826SOL     OW 3376   6.507   3.206   6.427
  826SOL    HW1 3377   6.586   3.177   6.373
  826SOL    HW2 3378   6.523   3.298   6.463
  827SOL     OW 3379   3.542   5.491   0.238
  827SOL    HW1 3380   3.612   5.523   0.302
  827SOL    HW2 3381   3.578   5.496   0.144
  828SOL     OW 3382   5.755   0.889   5.502
  828SOL    HW1 3383   5.808   0.974   5.498
  828SOL    HW2 3384   5.661   0.907   5.474
  829SOL     OW 3385   3.105   3.096   4.418
  829SOL    HW1 3386   3.083   3.188   4.383
  829SOL    HW2 3387   3.067   3.085   4.509
  830SOL     OW 3388   4.739   3.993   5.225
  830SOL    HW1 3389   4.725   3.908   5.276
  830SOL    HW2 3390   4.753   4.068   5.290
  831SOL     OW 3391   6.790   0.696   5.526
  831SOL    HW1 3392   6.786   0.792   5.501
  831SOL    HW2 3393   6.873   0.655   5.490
  832SOL     OW 3394   2.160   2.118   6.294
  832SOL    HW1 3395   2.079   2.128   6.351
  832SOL    HW2 3396   2.236   2.084   6.349
  833SOL     OW 3397   6.132   6.776   6.620
  833SOL    HW1 3398   6.079   6.860   6.625
  833SOL    HW2 3399   6.107   6.725   6.538
  834SOL     OW 3400   2.955   3.887   4.383
  834SOL    HW1 3401   3.036   3.930   4.424
  834SOL    HW2 3402   2.876   3.905   4.441
  835SOL     OW 3403   3.647   6.969   3.593
  835SOL    HW1 3404   3.567   7.010   3.549
  835SOL    HW2 3405   3.649   6.997   3.689
  836SOL     OW 3406   3.217   0.574   0.307
  836SOL    HW1 3407   3.264   0.662   0.302
  836SOL    HW2 3408   3.219   0.530   0.218
  837SOL     OW 3409   4.820   0.725   5.609
  837SOL    HW1 3410   4.761   0.800   5.639
  837SOL    HW2 3411   4.837   0.734   5.511
  838SOL     OW 3412   1.911   5.495   3.865
  838SOL    HW1 3413   1.818   5.476   3.896
  838SOL    HW2 3414   1.965   5.532   3.940
  839SOL     OW 3415   3.074   1.568   3.255
  839SOL    HW1 3416   3.001   1.533   3.314
  839SOL    HW2 3417   3.059   1.538   3.161
  840SOL     OW 3418   0.770   1.306   6.728
  840SOL    HW1 3419   0.793   1.217   6.690
  840SOL    HW2 3420   0.796   1.310   6.824
  841SOL     OW 3421   0.013   3.443   0.069
  841SOL    HW1 3422   6.966   3.399   0.127
  841SOL    HW2 3423   0.044   3.378   7.021
  842SOL     OW 3424   3.795   4.886   3.153
  842SOL    HW1 3425   3.853   4.808   3.177
  842SOL    HW2 3426   3.802   4.903   3.055
  843SOL     OW 3427   6.489   2.216   2.056
  843SOL    HW1 3428   6.587   2.239   2.057
  843SOL    HW2 3429   6.435   2.299   2.065
  844SOL     OW 3430   4.701   5.741   0.892
  844SOL    HW1 3431   4.611   5.757   0.850
  844SOL    HW2 3432   4.696   5.761   0.989
  845SOL     OW 3433   0.120   4.344   4.447
  845SOL    HW1 3434   0.177   4.322   4.527
  845SOL    HW2 3435   0.035   4.388   4.478
  846SOL     OW 3436   6.375   1.651   6.947
  846SOL    HW1 3437   6.441   1.720   6.979
  846SOL    HW2 3438   6.420   1.590   6.882
  847SOL     OW 3439   5.187   3.313   2.166
  847SOL    HW1 3440   5.216   3.276   2.077
  847SOL    HW2 3441   5.115   3.381   2.151
  848SOL     OW 3442   5.901   0.264   6.176
  848SOL    HW1 3443   5.982   0.217   6.213
  848SOL    HW2 3444   5.885   0.347   6.229
  849SOL     OW 3445   0.567   5.137   4.730
  849SOL    HW1 3446   0.642   5.124   4.665
  849SOL    HW2 3447   0.561   5.233   4.756
  850SOL     OW 3448   4.358   0.933   2.989
  850SOL    HW1 3449   4.365   0.941   2.889
  850SOL    HW2 3450   4.390   1.018   3.031
  851SOL     OW 3451   0.928   0.906   6.897
  851SOL    HW1 3452   0.982   0.989   6.914
  851SOL    HW2 3453   0.988   0.834   6.863
  852SOL     OW 3454   2.416   3.696   6.569
  852SOL    HW1 3455   2.447   3.608   6.533
  852SOL    HW2 3456   2.326   3.684   6.611
  853SOL     OW 3457   0.800   3.012   1.403
  853SOL    HW1 3458   0.757   3.086   1.352
  853SOL    HW2 3459   0.832   2.942   1.340
  854SOL     OW 3460   5.175   5.255   2.362
  854SOL    HW1 3461   5.245   5.291   2.424
  854SOL    HW2 3462   5.120   5.330   2.326
  855SOL     OW 3463   5.251   6.713   1.765
  855SOL    HW1 3464   5.304   6.759   1.694
  855SOL    HW2 3465   5.271   6.615   1.764
  856SOL     OW 3466   2.185   6.191   5.224
  856SOL    HW1 3467   2.242   6.272   5.238
  856SOL    HW2 3468   2.104   6.196   5.282
  857SOL     OW 3469   6.008   3.317   1.427
  857SOL    HW1 3470   6.027   3.346   1.520
  857SOL    HW2 3471   5.912   3.289   1.420
  858SOL     OW 3472   2.970   4.988   1.188
  858SOL    HW1 3473   2.910   5.001   1.267
  858SOL    HW2 3474   2.943   4.905   1.140
  859SOL     OW 3475   6.865   5.039   0.345
  859SOL    HW1 3476   6.929   5.017   0.419
  859SOL    HW2 3477   6.909   5.101   0.281
  860SOL     OW 3478   2.082   4.960   1.158
  860SOL    HW1 3479   2.096   4.862   1.160
  860SOL    HW2 3480   1.986   4.980   1.140
  861SOL     OW 3481   3.554   5.686   5.604
  861SOL    HW1 3482   3.532   5.643   5.692
  861SOL    HW2 3483   3.648   5.720   5.607
  862SOL     OW 3484   4.688   4.291   4.337
  862SOL    HW1 3485   4.689   4.270   4.434
  862SOL    HW2 3486   4.708   4.208   4.285
  863SOL     OW 3487   6.720   0.577   1.254
  863SOL    HW1 3488   6.773   0.492   1.248
  863SOL    HW2 3489   6.624   0.557   1.231
  864SOL     OW 3490   6.249   4.440   2.529
  864SOL    HW1 3491   6.199   4.464   2.445
  864SOL    HW2 3492   6.346   4.461   2.516
  865SOL     OW 3493   2.094   6.501   4.194
  865SOL    HW1 3494   2.111   6.538   4.286
  865SOL    HW2 3495   2.000   6.468   4.188
  866SOL     OW 3496   3.311   1.865   2.264
  866SOL    HW1 3497   3.336   1.792   2.201
  866SOL    HW2 3498   3.282   1.946   2.213
  867SOL     OW 3499   2.530   3.486   6.468
  867SOL    HW1 3500   2.579   3.446   6.391
  867SOL    HW2 3501   2.524   3.419   6.542
  868SOL     OW 3502   5.174   1.611   3.180
  868SOL    HW1 3503   5.230   1.678   3.229
  868SOL    HW2 3504   5.106   1.572   3.242
  869SOL     OW 3505   6.352   6.113   2.652
  869SOL    HW1 3506   6.316   6.104   2.744
  869SOL    HW2 3507   6.298   6.058   2.588
  870SOL     OW 3508   6.669   0.832   1.295
  870SOL    HW1 3509   6.631   0.869   1.210
  870SOL    HW2 3510   6.683   0.734   1.286
  871SOL     OW 3511   6.026   2.598   1.128
  871SOL    HW1 3512   6.027   2.696   1.149
  871SOL    HW2 3513   5.932   2.569   1.113
  872SOL     OW 3514   6.433   2.118   3.737
  872SOL    HW1 3515   6.511   2.093   3.680
  872SOL    HW2 3516   6.461   2.127   3.832
  873SOL     OW 3517   3.728   6.592   4.704
  873SOL    HW1 3518   3.741   6.514   4.643
  873SOL    HW2 3519   3.770   6.574   4.793
  874SOL     OW 3520   1.107   3.599   5.392
  874SOL    HW1 3521   1.080   3.572   5.300
  874SOL    HW2 3522   1.047   3.555   5.459
  875SOL     OW 3523   6.209   4.030   0.118
  875SOL    HW1 3524   6.155   3.953   0.086
  875SOL    HW2 3525   6.166   4.070   0.199
  876SOL     OW 3526   0.087   3.330   1.842
  876SOL    HW1 3527   0.166   3.285   1.801
  876SOL    HW2 3528   0.029   3.369   1.771
  877SOL     OW 3529   5.251   6.002   0.101
  877SOL    HW1 3530   5.165   6.011   0.051
  877SOL    HW2 3531   5.261   5.909   0.134
  878SOL     OW 3532   2.587   4.800   0.607
  878SOL    HW1 3533   2.619   4.868   0.673
  878SOL    HW2 3534   2.502   4.759   0.639
  879SOL     OW 3535   4.485   2.358   2.469
  879SOL    HW1 3536   4.518   2.439   2.517
  879SOL    HW2 3537   4.409   2.383   2.410
  880SOL     OW 3538   4.065   5.501   0.356
  880SOL    HW1 3539   4.148   5.538   0.313
  880SOL    HW2 3540   4.031   5.566   0.424
  881SOL     OW 3541   3.938   4.915   4.967
  881SOL    HW1 3542   3.992   4.918   4.883
  881SOL    HW2 3543   3.846   4.949   4.949
  882SOL     OW 3544   1.093   1.287   4.383
  882SOL    HW1 3545   1.060   1.275   4.476
  882SOL    HW2 3546   1.016   1.294   4.321
  883SOL     OW 3547   3.109   5.738   6.162
  883SOL    HW1 3548   3.108   5.735   6.062
  883SOL    HW2 3549   3.113   5.645   6.198
  884SOL     OW 3550   5.069   3.153   1.723
  884SOL    HW1 3551   5.022   3.082   1.671
  884SOL    HW2 3552   5.047   3.145   1.820
  885SOL     OW 3553   5.465   6.411   0.541
  885SOL    HW1 3554   5.513   6.385   0.624
  885SOL    HW2 3555   5.437   6.506   0.547
  886SOL     OW 3556   4.264   2.033   6.147
  886SOL    HW1 3557   4.271   2.108   6.081
  886SOL    HW2 3558   4.255   2.071   6.239
  887SOL     OW 3559   3.957   0.114   6.029
  887SOL    HW1 3560   3.909   0.089   5.945
  887SOL    HW2 3561   4.000   0.204   6.017
  888SOL     OW 3562   6.411   6.084   3.161
  888SOL    HW1 3563   6.471   6.061   3.238
  888SOL    HW2 3564   6.464   6.136   3.093
  889SOL     OW 3565   0.619   6.826   5.021
  889SOL    HW1 3566   0.588   6.816   5.115
  889SOL    HW2 3567   0.621   6.923   4.997
  890SOL     OW 3568   2.698   4.777   2.184
  890SOL    HW1 3569   2.646   4.732   2.257
  890SOL    HW2 3570   2.778   4.721   2.161
  891SOL     OW 3571   5.440   3.195   6.769
  891SOL    HW1 3572   5.372   3.263   6.799
  891SOL    HW2 3573   5.466   3.213   6.675
  892SOL     OW 3574   2.633   4.602   1.416
  892SOL    HW1 3575   2.558   4.577   1.477
  892SOL    HW2 3576   2.703   4.531   1.418
  893SOL     OW 3577   1.307   0.225   0.044
  893SOL    HW1 3578   1.373   0.285   7.020
  893SOL    HW2 3579   1.339   0.131   0.039
  894SOL     OW 3580   1.248   5.626   4.193
  894SOL    HW1 3581   1.218   5.558   4.260
  894SOL    HW2 3582   1.220   5.717   4.224
  895SOL     OW 3583   2.664   6.628   4.975
  895SOL    HW1 3584   2.617   6.616   5.062
  895SOL    HW2 3585   2.639   6.554   4.913
  896SOL     OW 3586   5.703   6.737   2.570
  896SOL    HW1 3587   5.640   6.661   2.587
  896SOL    HW2 3588   5.785   6.702   2.525
  897SOL     OW 3589   5.269   2.058   6.117
  897SOL    HW1 3590   5.188   2.002   6.131
  897SOL    HW2 3591   5.285   2.070   6.019
  898SOL     OW 3592   5.892   6.325   3.588
  898SOL    HW1 3593   5.842   6.335   3.674
  898SOL    HW2 3594   5.876   6.234   3.551
  899SOL     OW 3595   0.383   4.695   5.491
  899SOL    HW1 3596   0.451   4.762   5.519
  899SOL    HW2 3597   0.337   4.658   5.572
  900SOL     OW 3598   0.859   5.949   3.141
  900SOL    HW1 3599   0.781   5.894   3.109
  900SOL    HW2 3600   0.833   5.997   3.224
  901SOL     OW 3601   6.080   1.239   3.924
  901SOL    HW1 3602   6.068   1.310   3.993
  901SOL    HW2 3603   6.002   1.177   3.926
  902SOL     OW 3604   0.029   6.269   0.120
  902SOL    HW1 3605   0.108   6.225   0.079
  902SOL    HW2 3606   0.003   6.220   0.204
  903SOL     OW 3607   1.425   4.997   0.238
  903SOL    HW1 3608   1.513   5.006   0.285
  903SOL    HW2 3609   1.390   4.904   0.251
  904SOL     OW 3610   1.924   1.513   3.542
  904SOL    HW1 3611   1.933   1.470   3.452
  904SOL    HW2 3612   2.009   1.501   3.594
  905SOL     OW 3613   5.697   2.508   5.210
  905SOL    HW1 3614   5.642   2.582   5.171
  905SOL    HW2 3615   5.770   2.548   5.266
  906SOL     OW 3616   6.317   3.429   5.777
  906SOL    HW1 3617   6.244   3.486   5.815
  906SOL    HW2 3618   6.337   3.354   5.840
  907SOL     OW 3619   6.354   2.493   2.738
  907SOL    HW1 3620   6.364   2.437   2.657
  907SOL    HW2 3621   6.419   2.463   2.808
  908SOL     OW 3622   1.902   0.902   3.916
  908SOL    HW1 3623   1.828   0.836   3.928
  908SOL    HW2 3624   1.902   0.967   3.992
  909SOL     OW 3625   3.502   1.222   2.097
  909SOL    HW1 3626   3.447   1.179   2.026
  909SOL    HW2 3627   3.595   1.238   2.062
  910SOL     OW 3628   2.338   2.210   0.852
  910SOL    HW1 3629   2.414   2.268   0.882
  910SOL    HW2 3630   2.262   2.268   0.822
  911SOL     OW 3631   0.335   4.500   0.913
  911SOL    HW1 3632   0.369   4.501   1.008
  911SOL    HW2 3633   0.410   4.523   0.851
  912SOL     OW 3634   1.135   0.508   5.920
  912SOL    HW1 3635   1.116   0.416   5.953
  912SOL    HW2 3636   1.095   0.521   5.830
  913SOL     OW 3637   2.892   0.875   2.159
  913SOL    HW1 3638   2.802   0.855   2.200
  913SOL    HW2 3639   2.936   0.949   2.211
  914SOL     OW 3640   2.993   6.269   2.834
  914SOL    HW1 3641   2.997   6.328   2.754
  914SOL    HW2 3642   3.084   6.264   2.876
  915SOL     OW 3643   0.557   2.968   0.371
  915SOL    HW1 3644   0.546   2.917   0.456
  915SOL    HW2 3645   0.499   3.049   0.372
  916SOL     OW 3646   2.063   2.960   2.689
  916SOL    HW1 3647   2.096   3.034   2.748
  916SOL    HW2 3648   2.141   2.914   2.647
  917SOL     OW 3649   3.918   1.917   0.409
  917SOL    HW1 3650   3.955   1.950   0.323
  917SOL    HW2 3651   3.818   1.927   0.409
  918SOL     OW 3652   1.419   0.328   6.386
  918SOL    HW1 3653   1.452   0.362   6.297
  918SOL    HW2 3654   1.438   0.231   6.393
  919SOL     OW 3655   2.954   6.038   2.683
  919SOL    HW1 3656   2.951   6.120   2.740
  919SOL    HW2 3657   2.872   5.983   2.699
  920SOL     OW 3658   2.500   0.650   3.811
  920SOL    HW1 3659   2.510   0.683   3.905
  920SOL    HW2 3660   2.588   0.657   3.764
  921SOL     OW 3661   5.663   4.697   5.207
  921SOL    HW1 3662   5.673   4.662   5.114
  921SOL    HW2 3663   5.640   4.794   5.204
  922SOL     OW 3664   2.713   4.116   0.158
  922SOL    HW1 3665   2.722   4.196   0.217
  922SOL    HW2 3666   2.760   4.132   0.071
  923SOL     OW 3667   4.013   0.179   6.434
  923SOL    HW1 3668   3.951   0.152   6.360
  923SOL    HW2 3669   3.985   0.267   6.471
  924SOL     OW 3670   5.595   3.522   3.318
  924SOL    HW1 3671   5.626   3.427   3.307
  924SOL    HW2 3672   5.667   3.576   3.361
  925SOL     OW 3673   6.594   1.788   3.599
  925SOL    HW1 3674   6.541   1.754   3.521
  925SOL    HW2 3675   6.689   1.758   3.590
  926SOL     OW 3676   5.264   5.951   0.981
  926SOL    HW1 3677   5.205   5.963   1.061
  926SOL    HW2 3678   5.247   6.024   0.915
  927SOL     OW 3679   4.031   5.071   5.206
  927SOL    HW1 3680   3.996   5.009   5.136
  927SOL    HW2 3681   3.966   5.078   5.281
  928SOL     OW 3682   1.030   1.596   1.156
  928SOL    HW1 3683   1.126   1.601   1.128
  928SOL    HW2 3684   1.006   1.680   1.205
  929SOL     OW 3685   0.279   2.205   2.309
  929SOL    HW1 3686   0.269   2.219   2.408
  929SOL    HW2 3687   0.363   2.250   2.278
  930SOL     OW 3688   4.973   6.003   4.082
  930SOL    HW1 3689   4.983   5.994   4.181
  930SOL    HW2 3690   4.945   5.915   4.043
  931SOL     OW 3691   1.854   2.521   2.510
  931SOL    HW1 3692   1.827   2.575   2.590
  931SOL    HW2 3693   1.949   2.541   2.487
  932SOL     OW 3694   4.817   6.340   0.885
  932SOL    HW1 3695   4.758   6.406   0.931
  932SOL    HW2 3696   4.835   6.371   0.791
  933SOL     OW 3697   1.934   5.878   2.740
  933SOL    HW1 3698   1.870   5.896   2.665
  933SOL    HW2 3699   2.024   5.860   2.702
  934SOL     OW 3700   3.444   0.648   5.461
  934SOL    HW1 3701   3.447   0.747   5.474
  934SOL    HW2 3702   3.486   0.603   5.540
  935SOL     OW 3703   3.318   3.535   6.318
  935SOL    HW1 3704   3.413   3.504   6.330
  935SOL    HW2 3705   3.318   3.621   6.267
  936SOL     OW 3706   0.932   1.811   1.319
  936SOL    HW1 3707   0.934   1.754   1.401
  936SOL    HW2 3708   0.842   1.804   1.275
  937SOL     OW 3709   4.791   2.401   4.462
  937SOL    HW1 3710   4.858   2.472   4.485
  937SOL    HW2 3711   4.703   2.444   4.441
  938SOL     OW 3712   0.325   2.421   6.581
  938SOL    HW1 3713   0.291   2.513   6.601
  938SOL    HW2 3714   0.279   2.355   6.641
  939SOL     OW 3715   5.859   0.916   5.798
  939SOL    HW1 3716   5.801   0.865   5.863
  939SOL    HW2 3717   5.804   0.985   5.752
  940SOL     OW 3718   6.824   1.012   4.243
  940SOL    HW1 3719   6.882   0.935   4.215
  940SOL    HW2 3720   6.731   0.979   4.261
  941SOL     OW 3721   5.597   2.780   4.733
  941SOL    HW1 3722   5.567   2.724   4.657
  941SOL    HW2 3723   5.591   2.727   4.818
  942SOL     OW 3724   5.597   6.478   5.232
  942SOL    HW1 3725   5.573   6.516   5.143
  942SOL    HW2 3726   5.598   6.552   5.300
  943SOL     OW 3727   5.765   2.055   1.206
  943SOL    HW1 3728   5.827   1.999   1.151
  943SOL    HW2 3729   5.674   2.013   1.206
  944SOL     OW 3730   5.632   4.435   4.219
  944SOL    HW1 3731   5.661   4.350   4.175
  944SOL    HW2 3732   5.689   4.511   4.187
  945SOL     OW 3733   5.139   4.069   4.685
  945SOL    HW1 3734   5.229   4.109   4.701
  945SOL    HW2 3735   5.091   4.120   4.614
  946SOL     OW 3736   5.535   2.408   5.607
  946SOL    HW1 3737   5.630   2.434   5.622
  946SOL    HW2 3738   5.528   2.357   5.521
  947SOL     OW 3739   2.057   2.699   5.629
  947SOL    HW1 3740   2.130   2.695   5.560
  947SOL    HW2 3741   2.059   2.615   5.684
  948SOL     OW 3742   3.603   1.925   0.721
  948SOL    HW1 3743   3.581   1.865   0.644
  948SOL    HW2 3744   3.553   1.894   0.802
  949SOL     OW 3745   5.660   5.788   6.276
  949SOL    HW1 3746   5.706   5.716   6.327
  949SOL    HW2 3747   5.595   5.835   6.335
  950SOL     OW 3748   4.378   5.077   1.620
  950SOL    HW1 3749   4.298   5.119   1.664
  950SOL    HW2 3750   4.452   5.070   1.686
  951SOL     OW 3751   0.508   2.173   2.999
  951SOL    HW1 3752   0.601   2.207   2.980
  951SOL    HW2 3753   0.482   2.105   2.930
  952SOL     OW 3754   4.585   1.866   2.246
  952SOL    HW1 3755   4.606   1.958   2.281
  952SOL    HW2 3756   4.499   1.835   2.286
  953SOL     OW 3757   4.200   0.006   0.110
  953SOL    HW1 3758   4.121   6.989   0.063
  953SOL    HW2 3759   4.242   0.076   0.052
  954SOL     OW 3760   6.408   6.294   0.798
  954SOL    HW1 3761   6.321   6.259   0.833
  954SOL    HW2 3762   6.450   6.353   0.866
  955SOL     OW 3763   0.180   6.464   2.959
  955SOL    HW1 3764   0.220   6.535   3.017
  955SOL    HW2 3765   0.098   6.499   2.913
  956SOL     OW 3766   0.890   2.630   0.790
  956SOL    HW1 3767   0.860   2.686   0.868
  956SOL    HW2 3768   0.982   2.594   0.809
  957SOL     OW 3769   2.283   5.817   4.719
  957SOL    HW1 3770   2.195   5.795   4.762
  957SOL    HW2 3771   2.271   5.818   4.620
  958SOL     OW 3772   4.925   2.660   0.894
  958SOL    HW1 3773   4.864   2.581   0.897
  958SOL    HW2 3774   4.958   2.674   0.801
  959SOL     OW 3775   1.740   4.267   2.789
  959SOL    HW1 3776   1.644   4.243   2.801
  959SOL    HW2 3777   1.784   4.202   2.727
  960SOL     OW 3778   1.317   5.509   4.806
  960SOL    HW1 3779   1.220   5.502   4.785
  960SOL    HW2 3780   1.369   5.518   4.721
  961SOL     OW 3781   3.699   0.415   2.081
  961SOL    HW1 3782   3.787   0.448   2.117
  961SOL    HW2 3783   3.637   0.492   2.068
  962SOL     OW 3784   1.603   0.390   4.306
  962SOL    HW1 3785   1.689   0.424   4.269
  962SOL    HW2 3786   1.529   0.411   4.241
  963SOL     OW 3787   6.796   6.870   0.833
  963SOL    HW1 3788   6.759   6.887   0.742
  963SOL    HW2 3789   6.756   6.936   0.898
  964SOL     OW 3790   5.168   3.686   1.909
  964SOL    HW1 3791   5.072   3.666   1.890
  964SOL    HW2 3792   5.175   3.747   1.987
  965SOL     OW 3793   0.773   1.979   0.759
  965SOL    HW1 3794   0.690   2.018   0.719
  965SOL    HW2 3795   0.825   1.930   0.689
  966SOL     OW 3796   6.753   2.301   2.864
  966SOL    HW1 3797   6.758   2.340   2.772
  966SOL    HW2 3798   6.839   2.255   2.886
  967SOL     OW 3799   1.386   6.310   2.235
  967SOL    HW1 3800   1.288   6.329   2.236
  967SOL    HW2 3801   1.403   6.232   2.175
  968SOL     OW 3802   5.088   2.944   2.466
  968SOL    HW1 3803   4.994   2.950   2.498
  968SOL    HW2 3804   5.095   2.986   2.375
  969SOL     OW 3805   4.564   6.003   5.553
  969SOL    HW1 3806   4.502   5.999   5.474
  969SOL    HW2 3807   4.586   5.910   5.582
  970SOL     OW 3808   4.464   2.275   5.255
  970SOL    HW1 3809   4.408   2.201   5.291
  970SOL    HW2 3810   4.427   2.363   5.285
  971SOL     OW 3811   6.737   1.495   1.574
  971SOL    HW1 3812   6.638   1.493   1.556
  971SOL    HW2 3813   6.754   1.524   1.668
  972SOL     OW 3814   6.520   5.688   1.163
  972SOL    HW1 3815   6.496   5.648   1.252
  972SOL    HW2 3816   6.576   5.770   1.178
  973SOL     OW 3817   5.854   4.151   5.808
  973SOL    HW1 3818   5.877   4.224   5.873
  973SOL    HW2 3819   5.811   4.192   5.727
  974SOL     OW 3820   2.598   0.802   4.044
  974SOL    HW1 3821   2.649   0.850   3.973
  974SOL    HW2 3822   2.661   0.750   4.101
  975SOL     OW 3823   3.193   6.648   5.194
  975SOL    HW1 3824   3.134   6.728   5.182
  975SOL    HW2 3825   3.277   6.660   5.140
  976SOL     OW 3826   0.227   4.533   3.776
  976SOL    HW1 3827   0.268   4.479   3.702
  976SOL    HW2 3828   0.150   4.586   3.739
  977SOL     OW 3829   2.403   1.092   3.599
  977SOL    HW1 3830   2.325   1.088   3.661
  977SOL    HW2 3831   2.419   1.002   3.559
  978SOL     OW 3832   5.785   3.298   4.446
  978SOL    HW1 3833   5.687   3.279   4.447
  978SOL    HW2 3834   5.803   3.379   4.390
  979SOL     OW 3835   6.299   0.832   3.519
  979SOL    HW1 3836   6.258   0.741   3.523
  979SOL    HW2 3837   6.315   0.857   3.424
  980SOL     OW 3838   6.288   1.524   4.638
  980SOL    HW1 3839   6.198   1.535   4.596
  980SOL    HW2 3840   6.359   1.533   4.568
  981SOL     OW 3841   0.031   2.221   5.086
  981SOL    HW1 3842   0.003   2.287   5.156
  981SOL    HW2 3843   0.004   2.129   5.115
  982SOL     OW 3844   1.451   3.244   1.384
  982SOL    HW1 3845   1.393   3.324   1.369
  982SOL    HW2 3846   1.501   3.255   1.469
  983SOL     OW 3847   5.789   1.938   3.496
  983SOL    HW1 3848   5.812   1.881   3.417
  983SOL    HW2 3849   5.767   2.031   3.465
  984SOL     OW 3850   4.412   1.803   4.830
  984SOL    HW1 3851   4.441   1.894   4.801
  984SOL    HW2 3852   4.356   1.762   4.759
  985SOL     OW 3853   3.658   5.230   0.414
  985SOL    HW1 3854   3.748   5.195   0.389
  985SOL    HW2 3855   3.626   5.293   0.343
  986SOL     OW 3856   4.490   4.964   6.037
  986SOL    HW1 3857   4.542   4.958   5.951
  986SOL    HW2 3858   4.544   5.014   6.105
  987SOL     OW 3859   3.899   6.998   2.286
  987SOL    HW1 3860   3.896   0.009   2.191
  987SOL    HW2 3861   3.818   0.007   2.335
  988SOL     OW 3862   3.748   3.612   2.221
  988SOL    HW1 3863   3.676   3.616   2.152
  988SOL    HW2 3864   3.806   3.693   2.213
  989SOL     OW 3865   0.336   0.143   6.047
  989SOL    HW1 3866   0.242   0.112   6.056
  989SOL    HW2 3867   0.392   0.069   6.008
  990SOL     OW 3868   4.722   0.227   3.742
  990SOL    HW1 3869   4.741   0.130   3.759
  990SOL    HW2 3870   4.625   0.245   3.759
  991SOL     OW 3871   6.918   1.243   5.093
  991SOL    HW1 3872   6.898   1.194   5.008
  991SOL    HW2 3873   6.968   1.327   5.072
  992SOL     OW 3874   0.385   3.473   0.327
  992SOL    HW1 3875   0.363   3.549   0.388
  992SOL    HW2 3876   0.364   3.499   0.233
  993SOL     OW 3877   3.171   5.111   3.201
  993SOL    HW1 3878   3.126   5.102   3.290
  993SOL    HW2 3879   3.150   5.201   3.162
  994SOL     OW 3880   2.874   3.515   2.974
  994SOL    HW1 3881   2.913   3.437   2.924
  994SOL    HW2 3882   2.819   3.481   3.050
  995SOL     OW 3883   2.160   1.631   4.876
  995SOL    HW1 3884   2.253   1.611   4.845
  995SOL    HW2 3885   2.158   1.721   4.920
  996SOL     OW 3886   2.125   3.862   2.427
  996SOL    HW1 3887   2.107   3.872   2.329
  996SOL    HW2 3888   2.151   3.767   2.447
  997SOL     OW 3889   0.012   1.114   1.700
  997SOL    HW1 3890   0.056   1.058   1.630
  997SOL    HW2 3891   6.950   1.068   1.731
  998SOL     OW 3892   4.597   6.991   2.427
  998SOL    HW1 3893   4.618   7.016   2.522
  998SOL    HW2 3894   4.630   0.041   2.366
  999SOL     OW 3895   6.687   5.395   1.574
  999SOL    HW1 3896   6.755   5.327   1.602
  999SOL    HW2 3897   6.643   5.365   1.489
 1000SOL     OW 3898   3.449   1.718   4.096
 1000SOL    HW1 3899   3.493   1.759   4.015
 1000SOL    HW2 3900   3.509   1.729   4.175
 1001SOL     OW 3901   5.402   0.162   5.769
 1001SOL    HW1 3902   5.335   0.110   5.822
 1001SOL    HW2 3903   5.410   0.254   5.805
 1002SOL     OW 3904   6.393   0.914   0.531
 1002SOL    HW1 3905   6.318   0.959   0.579
 1002SOL    HW2 3906   6.476   0.970   0.538
 1003SOL     OW 3907   3.813   5.984   2.750
 1003SOL    HW1 3908   3.855   5.897   2.773
 1003SOL    HW2 3909   3.872   6.034   2.687
 1004SOL     OW 3910   5.920   0.015   0.389
 1004SOL    HW1 3911   6.008   0.030   0.344
 1004SOL    HW2 3912   5.866   6.972   0.335
 1005SOL     OW 3913   0.638   6.802   2.913
 1005SOL    HW1 3914   0.554   6.748   2.909
 1005SOL    HW2 3915   0.665   6.814   3.009
 1006SOL     OW 3916   2.282   5.140   1.030
 1006SOL    HW1 3917   2.356   5.129   1.096
 1006SOL    HW2 3918   2.207   5.079   1.055
 1007SOL     OW 3919   0.137   1.569   3.864
 1007SOL    HW1 3920   0.138   1.669   3.863
 1007SOL    HW2 3921   0.229   1.534   3.883
 1008SOL     OW 3922   2.122   3.374   3.773
 1008SOL    HW1 3923   2.120   3.404   3.869
 1008SOL    HW2 3924   2.082   3.282   3.767
 1009SOL     OW 3925   0.684   6.249   5.184
 1009SOL    HW1 3926   0.658   6.264   5.088
 1009SOL    HW2 3927   0.636   6.168   5.219
 1010SOL     OW 3928   4.599   2.473   0.134
 1010SOL    HW1 3929   4.597   2.430   0.044
 1010SOL    HW2 3930   4.664   2.549   0.133
 1011SOL     OW 3931   2.529   6.190   3.413
 1011SOL    HW1 3932   2.601   6.194   3.481
 1011SOL    HW2 3933   2.446   6.151   3.454
 1012SOL     OW 3934   5.255   5.113   6.999
 1012SOL    HW1 3935   5.190   5.126   0.052
 1012SOL    HW2 3936   5.259   5.195   6.943
 1013SOL     OW 3937   0.763   1.251   1.233
 1013SOL    HW1 3938   0.794   1.237   1.139
 1013SOL    HW2 3939   0.723   1.167   1.268
 1014SOL     OW 3940   4.566   6.881   5.810
 1014SOL    HW1 3941   4.473   6.874   5.846
 1014SOL    HW2 3942   4.568   6.944   5.733
 1015SOL     OW 3943   3.536   5.929   4.277
 1015SOL    HW1 3944   3.578   5.856   4.224
 1015SOL    HW2 3945   3.497   5.892   4.360
 1016SOL     OW 3946   4.001   2.669   1.363
 1016SOL    HW1 3947   3.969   2.710   1.278
 1016SOL    HW2 3948   4.065   2.732   1.408
 1017SOL     OW 3949   4.248   2.458   7.005
 1017SOL    HW1 3950   4.315   2.386   7.021
 1017SOL    HW2 3951   4.290   2.531   6.951
 1018SOL     OW 3952   1.459   2.925   2.735
 1018SOL    HW1 3953   1.459   2.996   2.805
 1018SOL    HW2 3954   1.499   2.960   2.650
 1019SOL     OW 3955   0.234   1.716   6.685
 1019SOL    HW1 3956   0.180   1.716   6.770
 1019SOL    HW2 3957   0.240   1.622   6.650
 1020SOL     OW 3958   2.986   1.468   1.449
 1020SOL    HW1 3959   2.892   1.501   1.438
 1020SOL    HW2 3960   3.017   1.488   1.542
 1021SOL     OW 3961   6.654   1.271   0.999
 1021SOL    HW1 3962   6.565   1.277   0.955
 1021SOL    HW2 3963   6.642   1.263   1.098
 1022SOL     OW 3964   4.355   3.570   6.019
 1022SOL    HW1 3965   4.309   3.637   6.077
 1022SOL    HW2 3966   4.393   3.497   6.076
 1023SOL     OW 3967   5.646   0.824   2.546
 1023SOL    HW1 3968   5.580   0.750   2.564
 1023SOL    HW2 3969   5.660   0.833   2.448
 1024SOL     OW 3970   6.744   1.296   3.747
 1024SOL    HW1 3971   6.782   1.388   3.744
 1024SOL    HW2 3972   6.799   1.239   3.809
 1025SOL     OW 3973   3.359   4.564   1.082
 1025SOL    HW1 3974   3.427   4.576   1.009
 1025SOL    HW2 3975   3.267   4.564   1.042
 1026SOL     OW 3976   1.625   2.337   0.381
 1026SOL    HW1 3977   1.565   2.372   0.309
 1026SOL    HW2 3978   1.704   2.398   0.392
 1027SOL     OW 3979   2.922   4.953   2.521
 1027SOL    HW1 3980   2.872   5.008   2.455
 1027SOL    HW2 3981   3.018   4.983   2.524
 1028SOL     OW 3982   1.371   6.118   0.902
 1028SOL    HW1 3983   1.387   6.126   0.804
 1028SOL    HW2 3984   1.419   6.192   0.949
 1029SOL     OW 3985   2.200   0.105   6.347
 1029SOL    HW1 3986   2.147   0.184   6.317
 1029SOL    HW2 3987   2.196   0.098   6.447
 1030SOL     OW 3988   4.074   3.476   4.997
 1030SOL    HW1 3989   4.030   3.537   5.064
 1030SOL    HW2 3990   4.164   3.450   5.031
 1031SOL     OW 3991   2.552   5.759   2.138
 1031SOL    HW1 3992   2.565   5.666   2.171
 1031SOL    HW2 3993   2.479   5.760   2.069
 1032SOL     OW 3994   1.437   1.333   4.732
 1032SOL    HW1 3995   1.523   1.313   4.778
 1032SOL    HW2 3996   1.454   1.394   4.655
 1033SOL     OW 3997   2.347   5.760   2.440
 1033SOL    HW1 3998   2.376   5.691   2.373
 1033SOL    HW2 3999   2.413   5.836   2.440
 1034SOL     OW 4000   1.698   4.845   3.768
 1034SOL    HW1 4001   1.717   4.830   3.671
 1034SOL    HW2 4002   1.763   4.792   3.823
 1035SOL     OW 4003   2.700   1.151   4.609
 1035SOL    HW1 4004   2.702   1.083   4.683
 1035SOL    HW2 4005   2.775   1.216   4.622
 1036SOL     OW 4006   4.356   2.383   0.518
 1036SOL    HW1 4007   4.403   2.469   0.498
 1036SOL    HW2 4008   4.384   2.314   0.451
 1037SOL     OW 4009   2.179   1.751   0.150
 1037SOL    HW1 4010   2.254   1.784   0.207
 1037SOL    HW2 4011   2.202   1.764   0.054
 1038SOL     OW 4012   2.110   1.408   5.230
 1038SOL    HW1 4013   2.091   1.373   5.322
 1038SOL    HW2 4014   2.164   1.341   5.179
 1039SOL     OW 4015   4.042   2.207   4.286
 1039SOL    HW1 4016   3.986   2.219   4.204
 1039SOL    HW2 4017   3.992   2.152   4.353
 1040SOL     OW 4018   6.495   4.423   2.883
 1040SOL    HW1 4019   6.433   4.467   2.949
 1040SOL    HW2 4020   6.446   4.406   2.798
 1041SOL     OW 4021   0.737   0.925   4.187
 1041SOL    HW1 4022   0.696   0.867   4.257
 1041SOL    HW2 4023   0.837   0.925   4.198
 1042SOL     OW 4024   5.918   4.978   0.660
 1042SOL    HW1 4025   5.868   5.054   0.703
 1042SOL    HW2 4026   5.951   4.916   0.731
 1043SOL     OW 4027   3.105   2.189   6.265
 1043SOL    HW1 4028   3.170   2.261   6.239
 1043SOL    HW2 4029   3.151   2.124   6.326
 1044SOL     OW 4030   4.184   3.239   2.090
 1044SOL    HW1 4031   4.239   3.160   2.064
 1044SOL    HW2 4032   4.208   3.317   2.033
 1045SOL     OW 4033   3.212   1.353   3.488
 1045SOL    HW1 4034   3.171   1.359   3.398
 1045SOL    HW2 4035   3.172   1.423   3.548
 1046SOL     OW 4036   4.304   0.158   1.595
 1046SOL    HW1 4037   4.341   0.145   1.688
 1046SOL    HW2 4038   4.350   0.235   1.552
 1047SOL     OW 4039   0.669   4.814   2.745
 1047SOL    HW1 4040   0.663   4.910   2.774
 1047SOL    HW2 4041   0.720   4.809   2.659
 1048SOL     OW 4042   4.991   4.364   5.511
 1048SOL    HW1 4043   4.940   4.421   5.575
 1048SOL    HW2 4044   4.936   4.283   5.488
 1049SOL     OW 4045   0.227   3.467   4.820
 1049SOL    HW1 4046   0.252   3.500   4.729
 1049SOL    HW2 4047   0.128   3.475   4.832
 1050SOL     OW 4048   3.505   0.580   0.068
 1050SOL    HW1 4049   3.504   0.480   0.061
 1050SOL    HW2 4050   3.557   0.607   0.149
 1051SOL     OW 4051   4.919   4.257   1.079
 1051SOL    HW1 4052   4.951   4.222   0.991
 1051SOL    HW2 4053   4.958   4.347   1.096
 1052SOL     OW 4054   3.587   0.407   4.317
 1052SOL    HW1 4055   3.554   0.325   4.363
 1052SOL    HW2 4056   3.662   0.448   4.370
 1053SOL     OW 4057   4.640   4.443   4.063
 1053SOL    HW1 4058   4.711   4.475   4.127
 1053SOL    HW2 4059   4.656   4.347   4.041
 1054SOL     OW 4060   3.395   5.780   4.498
 1054SOL    HW1 4061   3.486   5.817   4.520
 1054SOL    HW2 4062   3.341   5.774   4.582
 1055SOL     OW 4063   4.188   6.260   5.310
 1055SOL    HW1 4064   4.273   6.209   5.320
 1055SOL    HW2 4065   4.209   6.355   5.284
 1056SOL     OW 4066   1.799   6.651   5.181
 1056SOL    HW1 4067   1.879   6.606   5.142
 1056SOL    HW2 4068   1.829   6.719   5.248
 1057SOL     OW 4069   3.171   3.971   2.712
 1057SOL    HW1 4070   3.120   3.899   2.760
 1057SOL    HW2 4071   3.249   3.999   2.768
 1058SOL     OW 4072   3.579   0.957   1.442
 1058SOL    HW1 4073   3.657   1.010   1.474
 1058SOL    HW2 4074   3.553   0.987   1.350
 1059SOL     OW 4075   4.040   1.826   1.603
 1059SOL    HW1 4076   3.979   1.763   1.555
 1059SOL    HW2 4077   4.062   1.903   1.542
 1060SOL     OW 4078   1.639   1.810   5.581
 1060SOL    HW1 4079   1.695   1.738   5.622
 1060SOL    HW2 4080   1.633   1.887   5.645
 1061SOL     OW 4081   3.448   4.879   1.650
 1061SOL    HW1 4082   3.382   4.823   1.600
 1061SOL    HW2 4083   3.481   4.829   1.729
 1062SOL     OW 4084   5.585   5.548   5.027
 1062SOL    HW1 4085   5.598   5.490   4.946
 1062SOL    HW2 4086   5.512   5.510   5.084
 1063SOL     OW 4087   1.724   2.858   6.785
 1063SOL    HW1 4088   1.741   2.951   6.819
 1063SOL    HW2 4089   1.670   2.862   6.701
 1064SOL     OW 4090   6.571   2.932   2.252
 1064SOL    HW1 4091   6.658   2.955   2.296
 1064SOL    HW2 4092   6.590   2.891   2.162
 1065SOL     OW 4093   6.480   6.534   5.109
 1065SOL    HW1 4094   6.527   6.446   5.104
 1065SOL    HW2 4095   6.519   6.588   5.184
 1066SOL     OW 4096   4.902   0.281   3.516
 1066SOL    HW1 4097   4.853   0.253   3.598
 1066SOL    HW2 4098   5.000   0.263   3.528
 1067SOL     OW 4099   1.779   3.045   2.209
 1067SOL    HW1 4100   1.790   2.958   2.256
 1067SOL    HW2 4101   1.699   3.093   2.244
 1068SOL     OW 4102   0.285   3.614   2.080
 1068SOL    HW1 4103   0.299   3.695   2.137
 1068SOL    HW2 4104   0.193   3.617   2.040
 1069SOL     OW 4105   3.890   4.095   1.235
 1069SOL    HW1 4106   3.942   4.161   1.290
 1069SOL    HW2 4107   3.873   4.013   1.289
 1070SOL     OW 4108   2.361   1.011   0.258
 1070SOL    HW1 4109   2.364   1.106   0.228
 1070SOL    HW2 4110   2.298   0.959   0.201
 1071SOL     OW 4111   4.223   6.511   2.939
 1071SOL    HW1 4112   4.183   6.464   3.018
 1071SOL    HW2 4113   4.192   6.606   2.938
 1072SOL     OW 4114   4.147   6.007   2.829
 1072SOL    HW1 4115   4.181   5.922   2.790
 1072SOL    HW2 4116   4.110   6.065   2.756
 1073SOL     OW 4117   2.191   4.681   2.584
 1073SOL    HW1 4118   2.287   4.694   2.561
 1073SOL    HW2 4119   2.184   4.618   2.662
 1074SOL     OW 4120   1.366   5.438   1.799
 1074SOL    HW1 4121   1.417   5.368   1.749
 1074SOL    HW2 4122   1.275   5.402   1.824
 1075SOL     OW 4123   6.462   4.465   4.303
 1075SOL    HW1 4124   6.544   4.456   4.361
 1075SOL    HW2 4125   6.451   4.561   4.277
 1076SOL     OW 4126   0.549   4.590   3.634
 1076SOL    HW1 4127   0.567   4.629   3.544
 1076SOL    HW2 4128   0.459   4.546   3.634
 1077SOL     OW 4129   4.429   0.033   1.018
 1077SOL    HW1 4130   4.434   7.016   0.927
 1077SOL    HW2 4131   4.491   0.112   1.025
 1078SOL     OW 4132   1.090   2.322   1.310
 1078SOL    HW1 4133   1.080   2.319   1.409
 1078SOL    HW2 4134   1.067   2.233   1.271
 1079SOL     OW 4135   2.336   5.694   3.519
 1079SOL    HW1 4136   2.337   5.616   3.457
 1079SOL    HW2 4137   2.424   5.699   3.566
 1080SOL     OW 4138   1.597   5.460   4.682
 1080SOL    HW1 4139   1.690   5.446   4.647
 1080SOL    HW2 4140   1.541   5.381   4.659
 1081SOL     OW 4141   1.634   0.994   0.229
 1081SOL    HW1 4142   1.597   0.905   0.204
 1081SOL    HW2 4143   1.725   0.982   0.270
 1082SOL     OW 4144   2.357   6.706   5.882
 1082SOL    HW1 4145   2.391   6.781   5.938
 1082SOL    HW2 4146   2.320   6.634   5.941
 1083SOL     OW 4147   3.692   3.389   1.221
 1083SOL    HW1 4148   3.691   3.489   1.226
 1083SOL    HW2 4149   3.747   3.353   1.297
 1084SOL     OW 4150   6.339   3.993   0.556
 1084SOL    HW1 4151   6.348   4.065   0.625
 1084SOL    HW2 4152   6.308   3.909   0.600
 1085SOL     OW 4153   2.121   3.881   4.241
 1085SOL    HW1 4154   2.152   3.903   4.148
 1085SOL    HW2 4155   2.118   3.964   4.296
 1086SOL     OW 4156   4.392   4.635   2.297
 1086SOL    HW1 4157   4.320   4.607   2.234
 1086SOL    HW2 4158   4.481   4.612   2.258
 1087SOL     OW 4159   4.408   2.963   5.408
 1087SOL    HW1 4160   4.330   2.991   5.352
 1087SOL    HW2 4161   4.467   3.042   5.424
 1088SOL     OW 4162   5.072   4.021   3.715
 1088SOL    HW1 4163   4.998   3.954   3.718
 1088SOL    HW2 4164   5.086   4.053   3.622
 1089SOL     OW 4165   0.330   6.721   3.125
 1089SOL    HW1 4166   0.332   6.800   3.186
 1089SOL    HW2 4167   0.358   6.639   3.175
 1090SOL     OW 4168   1.066   1.500   6.063
 1090SOL    HW1 4169   1.027   1.591   6.054
 1090SOL    HW2 4170   1.008   1.434   6.014
 1091SOL     OW 4171   1.669   1.898   4.770
 1091SOL    HW1 4172   1.677   1.967   4.698
 1091SOL    HW2 4173   1.639   1.941   4.855
 1092SOL     OW 4174   2.485   4.266   1.503
 1092SOL    HW1 4175   2.503   4.230   1.595
 1092SOL    HW2 4176   2.477   4.365   1.508
 1093SOL     OW 4177   0.305   1.800   2.616
 1093SOL    HW1 4178   0.244   1.748   2.677
 1093SOL    HW2 4179   0.277   1.787   2.521
 1094SOL     OW 4180   0.662   6.110   1.412
 1094SOL    HW1 4181   0.721   6.099   1.332
 1094SOL    HW2 4182   0.591   6.039   1.412
 1095SOL     OW 4183   5.892   3.845   5.972
 1095SOL    HW1 4184   5.865   3.924   5.916
 1095SOL    HW2 4185   5.991   3.833   5.966
 1096SOL     OW 4186   3.356   4.579   1.694
 1096SOL    HW1 4187   3.275   4.625   1.730
 1096SOL    HW2 4188   3.437   4.607   1.747
 1097SOL     OW 4189   0.917   5.606   5.461
 1097SOL    HW1 4190   0.899   5.519   5.415
 1097SOL    HW2 4191   1.011   5.607   5.495
 1098SOL     OW 4192   4.219   2.067   2.295
 1098SOL    HW1 4193   4.171   2.067   2.383
 1098SOL    HW2 4194   4.157   2.096   2.223
 1099SOL     OW 4195   4.138   2.013   3.455
 1099SOL    HW1 4196   4.103   2.036   3.364
 1099SOL    HW2 4197   4.140   2.095   3.512
 1100SOL     OW 4198   0.516   0.775   0.110
 1100SOL    HW1 4199   0.538   0.868   0.140
 1100SOL    HW2 4200   0.601   0.727   0.088
 1101SOL     OW 4201   5.552   2.608   0.973
 1101SOL    HW1 4202   5.649   2.584   0.968
 1101SOL    HW2 4203   5.499   2.540   0.923
 1102SOL     OW 4204   0.606   4.723   3.413
 1102SOL    HW1 4205   0.537   4.691   3.347
 1102SOL    HW2 4206   0.617   4.822   3.405
 1103SOL     OW 4207   0.835   3.035   1.080
 1103SOL    HW1 4208   0.802   3.100   1.148
 1103SOL    HW2 4209   0.885   2.962   1.125
 1104SOL     OW 4210   2.992   5.166   6.081
 1104SOL    HW1 4211   2.926   5.115   6.027
 1104SOL    HW2 4212   3.084   5.127   6.069
 1105SOL     OW 4213   4.452   4.662   6.604
 1105SOL    HW1 4214   4.549   4.639   6.609
 1105SOL    HW2 4215   4.403   4.615   6.677
 1106SOL     OW 4216   0.245   2.376   6.142
 1106SOL    HW1 4217   0.271   2.355   6.236
 1106SOL    HW2 4218   0.323   2.361   6.082
 1107SOL     OW 4219   0.682   0.555   0.805
 1107SOL    HW1 4220   0.774   0.589   0.826
 1107SOL    HW2 4221   0.643   0.609   0.731
 1108SOL     OW 4222   0.829   1.657   5.212
 1108SOL    HW1 4223   0.893   1.644   5.287
 1108SOL    HW2 4224   0.737   1.630   5.241
 1109SOL     OW 4225   4.729   0.351   4.142
 1109SOL    HW1 4226   4.760   0.401   4.224
 1109SOL    HW2 4227   4.637   0.315   4.158
 1110SOL     OW 4228   2.946   3.106   2.211
 1110SOL    HW1 4229   2.907   3.057   2.133
 1110SOL    HW2 4230   2.914   3.201   2.211
 1111SOL     OW 4231   5.687   0.245   6.887
 1111SOL    HW1 4232   5.655   0.265   6.979
 1111SOL    HW2 4233   5.666   0.322   6.826
 1112SOL     OW 4234   6.769   0.856   2.610
 1112SOL    HW1 4235   6.784   0.791   2.536
 1112SOL    HW2 4236   6.779   0.809   2.698
 1113SOL     OW 4237   6.467   3.558   2.048
 1113SOL    HW1 4238   6.376   3.518   2.040
 1113SOL    HW2 4239   6.525   3.523   1.975
 1114SOL     OW 4240   4.915   1.704   4.957
 1114SOL    HW1 4241   4.869   1.691   4.869
 1114SOL    HW2 4242   4.967   1.789   4.955
 1115SOL     OW 4243   2.880   3.547   0.747
 1115SOL    HW1 4244   2.904   3.457   0.783
 1115SOL    HW2 4245   2.953   3.612   0.769
 1116SOL     OW 4246   4.750   7.000   4.336
 1116SOL    HW1 4247   4.788   0.032   4.411
 1116SOL    HW2 4248   4.658   6.969   4.360
 1117SOL     OW 4249   2.696   3.105   1.471
 1117SOL    HW1 4250   2.761   3.041   1.512
 1117SOL    HW2 4251   2.713   3.197   1.506
 1118SOL     OW 4252   2.149   3.686   3.921
 1118SOL    HW1 4253   2.158   3.782   3.949
 1118SOL    HW2 4254   2.144   3.682   3.821
 1119SOL     OW 4255   4.079   3.871   1.908
 1119SOL    HW1 4256   4.108   3.916   1.992
 1119SOL    HW2 4257   4.014   3.930   1.859
 1120SOL     OW 4258   3.880   0.866   4.924
 1120SOL    HW1 4259   3.850   0.912   5.007
 1120SOL    HW2 4260   3.931   0.783   4.947
 1121SOL     OW 4261   5.611   2.891   1.852
 1121SOL    HW1 4262   5.613   2.934   1.761
 1121SOL    HW2 4263   5.623   2.961   1.922
 1122SOL     OW 4264   5.113   3.937   6.812
 1122SOL    HW1 4265   5.032   3.954   6.755
 1122SOL    HW2 4266   5.127   4.015   6.873
 1123SOL     OW 4267   3.708   0.235   2.287
 1123SOL    HW1 4268   3.790   0.228   2.232
 1123SOL    HW2 4269   3.658   0.319   2.263
 1124SOL     OW 4270   0.758   4.071   4.695
 1124SOL    HW1 4271   0.750   4.011   4.615
 1124SOL    HW2 4272   0.844   4.052   4.742
 1125SOL     OW 4273   3.399   3.321   5.056
 1125SOL    HW1 4274   3.467   3.276   5.114
 1125SOL    HW2 4275   3.307   3.300   5.089
 1126SOL     OW 4276   5.504   6.299   1.925
 1126SOL    HW1 4277   5.555   6.373   1.968
 1126SOL    HW2 4278   5.567   6.230   1.891
 1127SOL     OW 4279   1.426   5.006   6.561
 1127SOL    HW1 4280   1.435   4.929   6.497
 1127SOL    HW2 4281   1.517   5.035   6.590
 1128SOL     OW 4282   2.763   1.975   4.807
 1128SOL    HW1 4283   2.702   2.044   4.844
 1128SOL    HW2 4284   2.812   2.012   4.727
 1129SOL     OW 4285   5.617   0.738   6.746
 1129SOL    HW1 4286   5.626   0.830   6.784
 1129SOL    HW2 4287   5.521   0.711   6.744
 1130SOL     OW 4288   0.181   4.684   6.649
 1130SOL    HW1 4289   0.094   4.729   6.670
 1130SOL    HW2 4290   0.165   4.587   6.632
 1131SOL     OW 4291   0.320   5.294   5.677
 1131SOL    HW1 4292   0.279   5.323   5.764
 1131SOL    HW2 4293   0.382   5.364   5.644
 1132SOL     OW 4294   5.648   6.672   5.451
 1132SOL    HW1 4295   5.694   6.725   5.381
 1132SOL    HW2 4296   5.592   6.733   5.508
 1133SOL     OW 4297   0.142   3.780   1.608
 1133SOL    HW1 4298   0.122   3.878   1.603
 1133SOL    HW2 4299   0.232   3.767   1.648
 1134SOL     OW 4300   5.288   2.503   6.328
 1134SOL    HW1 4301   5.238   2.430   6.281
 1134SOL    HW2 4302   5.377   2.516   6.284
 1135SOL     OW 4303   2.946   2.151   3.034
 1135SOL    HW1 4304   3.017   2.186   2.972
 1135SOL    HW2 4305   2.982   2.149   3.127
 1136SOL     OW 4306   3.218   5.241   3.913
 1136SOL    HW1 4307   3.177   5.300   3.982
 1136SOL    HW2 4308   3.313   5.221   3.938
 1137SOL     OW 4309   1.550   0.945   6.030
 1137SOL    HW1 4310   1.494   0.902   6.101
 1137SOL    HW2 4311   1.568   0.879   5.957
 1138SOL     OW 4312   0.578   4.229   5.582
 1138SOL    HW1 4313   0.570   4.134   5.550
 1138SOL    HW2 4314   0.545   4.291   5.511
 1139SOL     OW 4315   1.442   6.123   2.071
 1139SOL    HW1 4316   1.487   6.034   2.084
 1139SOL    HW2 4317   1.460   6.156   1.978
 1140SOL     OW 4318   3.824   1.661   4.025
 1140SOL    HW1 4319   3.827   1.570   3.984
 1140SOL    HW2 4320   3.750   1.715   3.983
 1141SOL     OW 4321   6.608   5.489   5.240
 1141SOL    HW1 4322   6.697   5.531   5.223
 1141SOL    HW2 4323   6.537   5.559   5.240
 1142SOL     OW 4324   6.593   0.913   4.310
 1142SOL    HW1 4325   6.574   0.868   4.223
 1142SOL    HW2 4326   6.510   0.957   4.344
 1143SOL     OW 4327   4.473   1.996   2.812
 1143SOL    HW1 4328   4.448   1.910   2.767
 1143SOL    HW2 4329   4.429   2.073   2.764
 1144SOL     OW 4330   0.372   5.510   4.695
 1144SOL    HW1 4331   0.425   5.569   4.634
 1144SOL    HW2 4332   0.288   5.557   4.722
 1145SOL     OW 4333   0.818   5.830   4.704
 1145SOL    HW1 4334   0.744   5.809   4.639
 1145SOL    HW2 4335   0.783   5.890   4.776
 1146SOL     OW 4336   5.849   2.037   0.846
 1146SOL    HW1 4337   5.833   1.960   0.907
 1146SOL    HW2 4338   5.765   2.092   0.839
 1147SOL     OW 4339   6.831   2.867   2.074
 1147SOL    HW1 4340   6.811   2.957   2.033
 1147SOL    HW2 4341   6.764   2.800   2.040
 1148SOL     OW 4342   3.571   6.870   0.752
 1148SOL    HW1 4343   3.628   6.945   0.717
 1148SOL    HW2 4344   3.544   6.810   0.678
 1149SOL     OW 4345   6.294   2.885   1.887
 1149SOL    HW1 4346   6.242   2.924   1.962
 1149SOL    HW2 4347   6.279   2.938   1.804
 1150SOL     OW 4348   1.299   4.871   6.829
 1150SOL    HW1 4349   1.257   4.912   6.910
 1150SOL    HW2 4350   1.316   4.942   6.761
 1151SOL     OW 4351   4.896   5.159   6.364
 1151SOL    HW1 4352   4.979   5.208   6.336
 1151SOL    HW2 4353   4.902   5.138   6.462
 1152SOL     OW 4354   1.165   0.170   4.642
 1152SOL    HW1 4355   1.193   0.148   4.549
 1152SOL    HW2 4356   1.188   0.094   4.703
 1153SOL     OW 4357   2.274   5.102   3.042
 1153SOL    HW1 4358   2.181   5.074   3.065
 1153SOL    HW2 4359   2.334   5.083   3.119
 1154SOL     OW 4360   1.371   4.872   1.711
 1154SOL    HW1 4361   1.322   4.956   1.733
 1154SOL    HW2 4362   1.305   4.804   1.679
 1155SOL     OW 4363   3.504   5.995   1.932
 1155SOL    HW1 4364   3.456   6.064   1.877
 1155SOL    HW2 4365   3.466   5.904   1.913
 1156SOL     OW 4366   2.253   0.307   4.214
 1156SOL    HW1 4367   2.233   0.338   4.307
 1156SOL    HW2 4368   2.245   0.207   4.210
 1157SOL     OW 4369   0.753   2.848   3.998
 1157SOL    HW1 4370   0.760   2.765   3.944
 1157SOL    HW2 4371   0.689   2.834   4.073
 1158SOL     OW 4372   4.550   5.461   5.694
 1158SOL    HW1 4373   4.603   5.492   5.772
 1158SOL    HW2 4374   4.610   5.445   5.616
 1159SOL     OW 4375   4.684   5.010   3.583
 1159SOL    HW1 4376   4.715   4.916   3.570
 1159SOL    HW2 4377   4.585   5.014   3.576
 1160SOL     OW 4378   3.050   3.875   0.699
 1160SOL    HW1 4379   3.033   3.970   0.725
 1160SOL    HW2 4380   3.091   3.872   0.608
 1161SOL     OW 4381   5.191   0.907   3.529
 1161SOL    HW1 4382   5.195   0.868   3.621
 1161SOL    HW2 4383   5.102   0.888   3.488
 1162SOL     OW 4384   3.758   4.014   2.002
 1162SOL    HW1 4385   3.677   4.071   2.014
 1162SOL    HW2 4386   3.784   4.013   1.906
 1163SOL     OW 4387   5.130   2.070   2.930
 1163SOL    HW1 4388   5.091   2.095   2.842
 1163SOL    HW2 4389   5.176   1.981   2.922
 1164SOL     OW 4390   6.101   3.513   4.019
 1164SOL    HW1 4391   6.027   3.572   3.989
 1164SOL    HW2 4392   6.169   3.567   4.069
 1165SOL     OW 4393   1.004   4.968   3.109
 1165SOL    HW1 4394   1.056   5.019   3.040
 1165SOL    HW2 4395   1.027   4.871   3.104
 1166SOL     OW 4396   4.267   2.669   6.528
 1166SOL    HW1 4397   4.312   2.580   6.527
 1166SOL    HW2 4398   4.232   2.690   6.436
 1167SOL     OW 4399   4.461   1.687   5.082
 1167SOL    HW1 4400   4.425   1.737   5.003
 1167SOL    HW2 4401   4.554   1.720   5.103
 1168SOL     OW 4402   6.081   6.389   3.404
 1168SOL    HW1 4403   6.030   6.370   3.488
 1168SOL    HW2 4404   6.022   6.437   3.339
 1169SOL     OW 4405   0.475   3.502   1.927
 1169SOL    HW1 4406   0.398   3.548   1.969
 1169SOL    HW2 4407   0.548   3.568   1.909
 1170SOL     OW 4408   2.767   0.741   1.117
 1170SOL    HW1 4409   2.681   0.700   1.089
 1170SOL    HW2 4410   2.752   0.798   1.198
 1171SOL     OW 4411   2.681   6.230   0.212
 1171SOL    HW1 4412   2.690   6.293   0.135
 1171SOL    HW2 4413   2.762   6.235   0.269
 1172SOL     OW 4414   3.229   3.616   5.145
 1172SOL    HW1 4415   3.176   3.671   5.209
 1172SOL    HW2 4416   3.169   3.556   5.093
 1173SOL     OW 4417   3.742   1.173   6.657
 1173SOL    HW1 4418   3.697   1.198   6.743
 1173SOL    HW2 4419   3.804   1.097   6.673
 1174SOL     OW 4420   2.924   5.847   0.603
 1174SOL    HW1 4421   2.880   5.936   0.614
 1174SOL    HW2 4422   2.898   5.787   0.678
 1175SOL     OW 4423   6.187   4.825   6.166
 1175SOL    HW1 4424   6.205   4.734   6.202
 1175SOL    HW2 4425   6.147   4.818   6.075
 1176SOL     OW 4426   5.712   4.238   0.826
 1176SOL    HW1 4427   5.677   4.199   0.912
 1176SOL    HW2 4428   5.768   4.169   0.780
 1177SOL     OW 4429   6.552   2.553   6.108
 1177SOL    HW1 4430   6.623   2.494   6.145
 1177SOL    HW2 4431   6.464   2.531   6.150
 1178SOL     OW 4432   6.301   3.508   1.671
 1178SOL    HW1 4433   6.241   3.588   1.667
 1178SOL    HW2 4434   6.264   3.443   1.737
 1179SOL     OW 4435   2.740   5.513   6.275
 1179SOL    HW1 4436   2.661   5.475   6.227
 1179SOL    HW2 4437   2.754   5.608   6.247
 1180SOL     OW 4438   2.711   1.877   4.118
 1180SOL    HW1 4439   2.733   1.791   4.163
 1180SOL    HW2 4440   2.631   1.865   4.060
 1181SOL     OW 4441   2.288   4.221   3.041
 1181SOL    HW1 4442   2.320   4.255   2.953
 1181SOL    HW2 4443   2.333   4.273   3.115
 1182SOL     OW 4444   1.875   3.941   3.322
 1182SOL    HW1 4445   1.806   3.913   3.388
 1182SOL    HW2 4446   1.847   3.913   3.230
 1183SOL     OW 4447   4.288   5.485   1.337
 1183SOL    HW1 4448   4.305   5.558   1.404
 1183SOL    HW2 4449   4.194   5.492   1.304
 1184SOL     OW 4450   2.976   2.647   5.403
 1184SOL    HW1 4451   2.878   2.651   5.384
 1184SOL    HW2 4452   3.025   2.704   5.337
 1185SOL     OW 4453   1.777   1.126   6.602
 1185SOL    HW1 4454   1.866   1.136   6.647
 1185SOL    HW2 4455   1.719   1.204   6.624
 1186SOL     OW 4456   4.528   1.462   4.882
 1186SOL    HW1 4457   4.497   1.511   4.963
 1186SOL    HW2 4458   4.520   1.363   4.898
 1187SOL     OW 4459   6.503   0.631   5.446
 1187SOL    HW1 4460   6.588   0.666   5.487
 1187SOL    HW2 4461   6.467   0.699   5.381
 1188SOL     OW 4462   1.521   0.378   5.596
 1188SOL    HW1 4463   1.480   0.300   5.642
 1188SOL    HW2 4464   1.522   0.363   5.497
 1189SOL     OW 4465   5.609   0.924   1.904
 1189SOL    HW1 4466   5.537   0.866   1.943
 1189SOL    HW2 4467   5.589   0.942   1.808
 1190SOL     OW 4468   4.239   5.012   2.823
 1190SOL    HW1 4469   4.230   5.103   2.781
 1190SOL    HW2 4470   4.160   4.956   2.799
 1191SOL     OW 4471   3.548   5.424   6.350
 1191SOL    HW1 4472   3.639   5.403   6.385
 1191SOL    HW2 4473   3.512   5.505   6.396
 1192SOL     OW 4474   5.276   5.270   2.695
 1192SOL    HW1 4475   5.237   5.306   2.779
 1192SOL    HW2 4476   5.283   5.343   2.627
 1193SOL     OW 4477   4.943   0.659   3.853
 1193SOL    HW1 4478   4.934   0.559   3.857
 1193SOL    HW2 4479   4.860   0.698   3.814
 1194SOL     OW 4480   6.153   6.919   1.026
 1194SOL    HW1 4481   6.191   6.828   1.011
 1194SOL    HW2 4482   6.202   6.986   0.970
 1195SOL     OW 4483   4.456   0.697   6.300
 1195SOL    HW1 4484   4.458   0.619   6.362
 1195SOL    HW2 4485   4.538   0.696   6.243
 1196SOL     OW 4486   0.923   5.471   2.112
 1196SOL    HW1 4487   0.991   5.421   2.167
 1196SOL    HW2 4488   0.900   5.418   2.031
 1197SOL     OW 4489   3.520   5.263   6.003
 1197SOL    HW1 4490   3.536   5.256   5.905
 1197SOL    HW2 4491   3.600   5.228   6.052
 1198SOL     OW 4492   2.815   1.982   2.772
 1198SOL    HW1 4493   2.820   1.930   2.857
 1198SOL    HW2 4494   2.863   2.069   2.783
 1199SOL     OW 4495   4.037   3.667   2.921
 1199SOL    HW1 4496   4.123   3.620   2.899
 1199SOL    HW2 4497   4.027   3.672   3.021
 1200SOL     OW 4498   3.703   3.900   0.399
 1200SOL    HW1 4499   3.718   3.864   0.307
 1200SOL    HW2 4500   3.741   3.837   0.467
 1201SOL     OW 4501   1.163   0.901   4.925
 1201SOL    HW1 4502   1.246   0.952   4.904
 1201SOL    HW2 4503   1.104   0.957   4.983
 1202SOL     OW 4504   5.975   6.966   4.786
 1202SOL    HW1 4505   5.973   0.038   4.821
 1202SOL    HW2 4506   6.045   6.959   4.714
 1203SOL     OW 4507   5.353   7.003   1.395
 1203SOL    HW1 4508   5.264   6.960   1.405
 1203SOL    HW2 4509   5.416   6.968   1.465
 1204SOL     OW 4510   2.945   0.789   0.535
 1204SOL    HW1 4511   3.021   0.816   0.594
 1204SOL    HW2 4512   2.971   0.708   0.483
 1205SOL     OW 4513   6.713   3.022   5.263
 1205SOL    HW1 4514   6.682   3.116   5.247
 1205SOL    HW2 4515   6.728   3.009   5.361
 1206SOL     OW 4516   2.419   1.580   4.757
 1206SOL    HW1 4517   2.380   1.488   4.748
 1206SOL    HW2 4518   2.516   1.573   4.779
 1207SOL     OW 4519   5.611   0.074   6.557
 1207SOL    HW1 4520   5.669   0.029   6.625
 1207SOL    HW2 4521   5.515   0.050   6.574
 1208SOL     OW 4522   4.024   3.312   3.473
 1208SOL    HW1 4523   4.090   3.267   3.412
 1208SOL    HW2 4524   4.010   3.255   3.554
 1209SOL     OW 4525   5.937   5.397   3.953
 1209SOL    HW1 4526   5.880   5.348   4.018
 1209SOL    HW2 4527   5.967   5.335   3.881
 1210SOL     OW 4528   3.222   6.885   2.731
 1210SOL    HW1 4529   3.320   6.873   2.716
 1210SOL    HW2 4530   3.181   6.928   2.651
 1211SOL     OW 4531   0.680   4.351   4.530
 1211SOL    HW1 4532   0.580   4.346   4.529
 1211SOL    HW2 4533   0.717   4.278   4.587
 1212SOL     OW 4534   1.870   4.120   5.178
 1212SOL    HW1 4535   1.868   4.213   5.143
 1212SOL    HW2 4536   1.941   4.111   5.247
 1213SOL     OW 4537   5.781   2.116   5.703
 1213SOL    HW1 4538   5.764   2.024   5.668
 1213SOL    HW2 4539   5.726   2.131   5.786
 1214SOL     OW 4540   2.251   2.925   3.440
 1214SOL    HW1 4541   2.177   2.970   3.390
 1214SOL    HW2 4542   2.268   2.834   3.401
 1215SOL     OW 4543   0.956   4.688   1.677
 1215SOL    HW1 4544   0.923   4.725   1.764
 1215SOL    HW2 4545   0.913   4.737   1.601
 1216SOL     OW 4546   2.596   0.200   1.966
 1216SOL    HW1 4547   2.505   0.169   1.939
 1216SOL    HW2 4548   2.589   0.255   2.049
 1217SOL     OW 4549   1.369   0.189   2.070
 1217SOL    HW1 4550   1.374   0.182   2.170
 1217SOL    HW2 4551   1.401   0.279   2.041
 1218SOL     OW 4552   0.624   3.832   3.174
 1218SOL    HW1 4553   0.657   3.786   3.256
 1218SOL    HW2 4554   0.674   3.799   3.095
 1219SOL     OW 4555   3.386   6.142   2.281
 1219SOL    HW1 4556   3.375   6.183   2.372
 1219SOL    HW2 4557   3.332   6.058   2.276
 1220SOL     OW 4558   6.029   3.647   3.348
 1220SOL    HW1 4559   5.935   3.651   3.382
 1220SOL    HW2 4560   6.085   3.593   3.410
 1221SOL     OW 4561   4.695   3.242   6.990
 1221SOL    HW1 4562   4.743   3.242   6.903
 1221SOL    HW2 4563   4.639   3.325   6.998
 1222SOL     OW 4564   6.710   6.295   1.461
 1222SOL    HW1 4565   6.621   6.254   1.439
 1222SOL    HW2 4566   6.747   6.340   1.379
 1223SOL     OW 4567   6.256   6.544   5.831
 1223SOL    HW1 4568   6.251   6.457   5.782
 1223SOL    HW2 4569   6.257   6.619   5.765
 1224SOL     OW 4570   5.159   4.923   2.220
 1224SOL    HW1 4571   5.096   4.886   2.152
 1224SOL    HW2 4572   5.248   4.878   2.211
 1225SOL     OW 4573   4.964   2.331   6.943
 1225SOL    HW1 4574   4.960   2.393   7.021
 1225SOL    HW2 4575   5.035   2.262   6.958
 1226SOL     OW 4576   5.685   5.468   0.910
 1226SOL    HW1 4577   5.661   5.477   1.007
 1226SOL    HW2 4578   5.733   5.382   0.895
 1227SOL     OW 4579   5.091   4.117   6.428
 1227SOL    HW1 4580   5.072   4.205   6.471
 1227SOL    HW2 4581   5.184   4.117   6.391
 1228SOL     OW 4582   3.580   2.987   3.045
 1228SOL    HW1 4583   3.591   2.950   3.138
 1228SOL    HW2 4584   3.582   3.086   3.048
 1229SOL     OW 4585   2.285   5.395   3.018
 1229SOL    HW1 4586   2.239   5.444   2.944
 1229SOL    HW2 4587   2.264   5.297   3.012
 1230SOL     OW 4588   5.419   5.159   1.278
 1230SOL    HW1 4589   5.431   5.130   1.183
 1230SOL    HW2 4590   5.494   5.220   1.304
 1231SOL     OW 4591   1.691   2.566   6.158
 1231SOL    HW1 4592   1.715   2.652   6.113
 1231SOL    HW2 4593   1.757   2.548   6.231
 1232SOL     OW 4594   3.494   0.373   5.589
 1232SOL    HW1 4595   3.428   0.337   5.523
 1232SOL    HW2 4596   3.447   0.391   5.675
 1233SOL     OW 4597   0.459   5.532   5.614
 1233SOL    HW1 4598   0.521   5.515   5.537
 1233SOL    HW2 4599   0.402   5.611   5.594
 1234SOL     OW 4600   6.772   2.966   0.167
 1234SOL    HW1 4601   6.820   3.053   0.160
 1234SOL    HW2 4602   6.703   2.960   0.094
 1235SOL     OW 4603   6.232   5.121   0.766
 1235SOL    HW1 4604   6.223   5.021   0.765
 1235SOL    HW2 4605   6.310   5.146   0.823
 1236SOL     OW 4606   1.054   1.839   2.340
 1236SOL    HW1 4607   1.133   1.825   2.400
 1236SOL    HW2 4608   0.972   1.804   2.385
 1237SOL     OW 4609   0.516   6.994   4.594
 1237SOL    HW1 4610   0.544   6.899   4.608
 1237SOL    HW2 4611   0.464   0.004   4.673
 1238SOL     OW 4612   0.395   0.282   4.716
 1238SOL    HW1 4613   0.427   0.276   4.622
 1238SOL    HW2 4614   0.332   0.359   4.725
 1239SOL     OW 4615   5.761   4.650   4.926
 1239SOL    HW1 4616   5.743   4.562   4.882
 1239SOL    HW2 4617   5.859   4.657   4.946
 1240SOL     OW 4618   6.211   4.567   3.308
 1240SOL    HW1 4619   6.309   4.566   3.327
 1240SOL    HW2 4620   6.169   4.647   3.351
 1241SOL     OW 4621   4.760   4.991   5.060
 1241SOL    HW1 4622   4.712   5.010   5.146
 1241SOL    HW2 4623   4.792   4.896   5.061
 1242SOL     OW 4624   1.093   5.101   6.757
 1242SOL    HW1 4625   1.158   5.056   6.818
 1242SOL    HW2 4626   1.101   5.063   6.666
 1243SOL     OW 4627   1.039   4.351   4.766
 1243SOL    HW1 4628   1.012   4.319   4.675
 1243SOL    HW2 4629   1.084   4.440   4.758
 1244SOL     OW 4630   5.586   0.423   5.023
 1244SOL    HW1 4631   5.633   0.434   5.110
 1244SOL    HW2 4632   5.514   0.492   5.014
 1245SOL     OW 4633   4.842   6.838   1.263
 1245SOL    HW1 4634   4.925   6.874   1.219
 1245SOL    HW2 4635   4.825   6.745   1.231
 1246SOL     OW 4636   5.229   1.351   0.021
 1246SOL    HW1 4637   5.163   1.397   6.984
 1246SOL    HW2 4638   5.239   1.403   0.107
 1247SOL     OW 4639   0.351   6.937   3.846
 1247SOL    HW1 4640   0.281   6.874   3.814
 1247SOL    HW2 4641   0.309   0.002   3.873
 1248SOL     OW 4642   1.326   6.497   4.271
 1248SOL    HW1 4643   1.404   6.439   4.249
 1248SOL    HW2 4644   1.339   6.587   4.230
 1249SOL     OW 4645   5.688   4.995   6.718
 1249SOL    HW1 4646   5.637   4.914   6.745
 1249SOL    HW2 4647   5.786   4.980   6.734
 1250SOL     OW 4648   6.730   3.312   5.016
 1250SOL    HW1 4649   6.771   3.232   4.972
 1250SOL    HW2 4650   6.801   3.377   5.041
 1251SOL     OW 4651   3.129   0.464   2.675
 1251SOL    HW1 4652   3.031   0.468   2.654
 1251SOL    HW2 4653   3.164   0.374   2.652
 1252SOL     OW 4654   1.744   5.579   6.818
 1252SOL    HW1 4655   1.814   5.647   6.799
 1252SOL    HW2 4656   1.778   5.488   6.793
 1253SOL     OW 4657   3.058   1.340   0.918
 1253SOL    HW1 4658   3.005   1.425   0.921
 1253SOL    HW2 4659   3.142   1.355   0.866
 1254SOL     OW 4660   6.405   1.075   1.817
 1254SOL    HW1 4661   6.427   1.172   1.829
 1254SOL    HW2 4662   6.473   1.020   1.865
 1255SOL     OW 4663   5.756   1.416   5.501
 1255SOL    HW1 4664   5.851   1.444   5.487
 1255SOL    HW2 4665   5.717   1.386   5.413
 1256SOL     OW 4666   1.358   5.498   4.489
 1256SOL    HW1 4667   1.273   5.522   4.442
 1256SOL    HW2 4668   1.415   5.579   4.498
 1257SOL     OW 4669   0.673   5.638   3.810
 1257SOL    HW1 4670   0.679   5.673   3.717
 1257SOL    HW2 4671   0.688   5.539   3.809
 1258SOL     OW 4672   4.469   6.782   4.992
 1258SOL    HW1 4673   4.426   6.792   4.902
 1258SOL    HW2 4674   4.462   6.687   5.022
 1259SOL     OW 4675   5.952   0.240   4.184
 1259SOL    HW1 4676   6.013   0.293   4.242
 1259SOL    HW2 4677   5.961   0.143   4.205
 1260SOL     OW 4678   2.437   0.663   1.845
 1260SOL    HW1 4679   2.505   0.623   1.783
 1260SOL    HW2 4680   2.481   0.727   1.907
 1261SOL     OW 4681   6.360   4.484   6.304
 1261SOL    HW1 4682   6.365   4.474   6.205
 1261SOL    HW2 4683   6.438   4.538   6.337
 1262SOL     OW 4684   4.480   5.217   0.866
 1262SOL    HW1 4685   4.418   5.296   0.875
 1262SOL    HW2 4686   4.509   5.188   0.957
 1263SOL     OW 4687   6.886   2.312   0.994
 1263SOL    HW1 4688   6.879   2.215   1.017
 1263SOL    HW2 4689   6.815   2.337   0.928
 1264SOL     OW 4690   0.346   3.365   3.356
 1264SOL    HW1 4691   0.415   3.331   3.292
 1264SOL    HW2 4692   0.255   3.356   3.315
 1265SOL     OW 4693   6.488   4.879   5.244
 1265SOL    HW1 4694   6.400   4.838   5.219
 1265SOL    HW2 4695   6.538   4.815   5.303
 1266SOL     OW 4696   2.909   2.032   4.591
 1266SOL    HW1 4697   2.964   2.115   4.594
 1266SOL    HW2 4698   2.903   1.999   4.496
 1267SOL     OW 4699   7.002   4.990   2.727
 1267SOL    HW1 4700   7.011   4.967   2.824
 1267SOL    HW2 4701   0.055   5.051   2.700
 1268SOL     OW 4702   6.178   2.999   0.056
 1268SOL    HW1 4703   6.082   2.975   0.074
 1268SOL    HW2 4704   6.233   2.974   0.135
 1269SOL     OW 4705   6.903   5.370   5.396
 1269SOL    HW1 4706   6.928   5.399   5.304
 1269SOL    HW2 4707   6.966   5.411   5.462
 1270SOL     OW 4708   2.008   3.137   4.919
 1270SOL    HW1 4709   2.014   3.219   4.975
 1270SOL    HW2 4710   1.916   3.098   4.927
 1271SOL     OW 4711   4.057   1.214   2.368
 1271SOL    HW1 4712   4.121   1.232   2.443
 1271SOL    HW2 4713   3.966   1.195   2.406
 1272SOL     OW 4714   0.503   5.632   1.599
 1272SOL    HW1 4715   0.586   5.685   1.578
 1272SOL    HW2 4716   0.423   5.687   1.579
 1273SOL     OW 4717   2.546   5.978   6.653
 1273SOL    HW1 4718   2.642   5.977   6.625
 1273SOL    HW2 4719   2.512   5.884   6.660
 1274SOL     OW 4720   6.956   2.636   1.838
 1274SOL    HW1 4721   6.858   2.623   1.829
 1274SOL    HW2 4722   6.991   2.580   1.913
 1275SOL     OW 4723   3.557   1.766   4.343
 1275SOL    HW1 4724   3.483   1.824   4.379
 1275SOL    HW2 4725   3.629   1.824   4.306
 1276SOL     OW 4726   6.927   6.967   3.401
 1276SOL    HW1 4727   7.013   7.006   3.436
 1276SOL    HW2 4728   6.850   7.017   3.440
 1277SOL     OW 4729   0.049   0.320   5.053
 1277SOL    HW1 4730   0.044   0.403   5.109
 1277SOL    HW2 4731   0.077   0.243   5.111
 1278SOL     OW 4732   1.922   2.130   5.849
 1278SOL    HW1 4733   1.972   2.168   5.771
 1278SOL    HW2 4734   1.987   2.109   5.922
 1279SOL     OW 4735   2.698   5.391   7.009
 1279SOL    HW1 4736   2.765   5.344   6.951
 1279SOL    HW2 4737   2.703   5.489   6.993
 1280SOL     OW 4738   2.950   6.830   3.702
 1280SOL    HW1 4739   2.889   6.757   3.671
 1280SOL    HW2 4740   3.037   6.824   3.654
 1281SOL     OW 4741   1.107   6.243   3.328
 1281SOL    HW1 4742   1.007   6.246   3.321
 1281SOL    HW2 4743   1.147   6.296   3.253
 1282SOL     OW 4744   0.382   0.843   1.804
 1282SOL    HW1 4745   0.353   0.829   1.709
 1282SOL    HW2 4746   0.435   0.928   1.810
 1283SOL     OW 4747   5.757   5.251   5.252
 1283SOL    HW1 4748   5.675   5.299   5.285
 1283SOL    HW2 4749   5.729   5.171   5.199
 1284SOL     OW 4750   2.585   2.572   1.851
 1284SOL    HW1 4751   2.498   2.602   1.891
 1284SOL    HW2 4752   2.647   2.543   1.924
 1285SOL     OW 4753   4.328   2.496   5.356
 1285SOL    HW1 4754   4.378   2.580   5.378
 1285SOL    HW2 4755   4.260   2.515   5.286
 1286SOL     OW 4756   5.872   4.716   1.889
 1286SOL    HW1 4757   5.853   4.620   1.868
 1286SOL    HW2 4758   5.889   4.726   1.987
 1287SOL     OW 4759   0.133   5.739   6.783
 1287SOL    HW1 4760   0.139   5.823   6.729
 1287SOL    HW2 4761   0.120   5.661   6.721
 1288SOL     OW 4762   6.659   3.458   1.130
 1288SOL    HW1 4763   6.654   3.407   1.215
 1288SOL    HW2 4764   6.573   3.448   1.080
 1289SOL     OW 4765   0.849   5.954   2.610
 1289SOL    HW1 4766   0.885   5.863   2.633
 1289SOL    HW2 4767   0.754   5.961   2.641
 1290SOL     OW 4768   0.848   6.004   0.789
 1290SOL    HW1 4769   0.763   5.999   0.737
 1290SOL    HW2 4770   0.899   6.085   0.761
 1291SOL     OW 4771   1.755   5.908   0.136
 1291SOL    HW1 4772   1.806   5.926   0.052
 1291SOL    HW2 4773   1.657   5.916   0.117
 1292SOL     OW 4774   0.798   5.549   0.589
 1292SOL    HW1 4775   0.851   5.488   0.531
 1292SOL    HW2 4776   0.860   5.607   0.642
 1293SOL     OW 4777   0.661   2.551   6.376
 1293SOL    HW1 4778   0.582   2.491   6.388
 1293SOL    HW2 4779   0.706   2.529   6.289
 1294SOL     OW 4780   0.463   2.663   2.282
 1294SOL    HW1 4781   0.467   2.760   2.304
 1294SOL    HW2 4782   0.530   2.614   2.337
 1295SOL     OW 4783   5.878   2.414   1.830
 1295SOL    HW1 4784   5.928   2.454   1.753
 1295SOL    HW2 4785   5.797   2.470   1.850
 1296SOL     OW 4786   3.354   2.004   6.401
 1296SOL    HW1 4787   3.426   2.015   6.470
 1296SOL    HW2 4788   3.391   1.958   6.321
 1297SOL     OW 4789   6.739   1.564   5.852
 1297SOL    HW1 4790   6.691   1.535   5.935
 1297SOL    HW2 4791   6.763   1.484   5.798
 1298SOL     OW 4792   6.119   2.711   3.214
 1298SOL    HW1 4793   6.147   2.733   3.308
 1298SOL    HW2 4794   6.168   2.629   3.184
 1299SOL     OW 4795   1.508   3.673   4.012
 1299SOL    HW1 4796   1.549   3.764   4.020
 1299SOL    HW2 4797   1.427   3.668   4.071
 1300SOL     OW 4798   3.546   2.894   1.677
 1300SOL    HW1 4799   3.518   2.826   1.609
 1300SOL    HW2 4800   3.496   2.979   1.661
 1301SOL     OW 4801   1.396   6.767   4.123
 1301SOL    HW1 4802   1.467   6.827   4.088
 1301SOL    HW2 4803   1.311   6.781   4.072
 1302SOL     OW 4804   2.943   6.357   4.823
 1302SOL    HW1 4805   2.879   6.323   4.754
 1302SOL    HW2 4806   2.935   6.301   4.906
 1303SOL     OW 4807   3.413   1.587   1.035
 1303SOL    HW1 4808   3.320   1.563   1.065
 1303SOL    HW2 4809   3.413   1.604   0.936
 1304SOL     OW 4810   2.760   0.557   6.670
 1304SOL    HW1 4811   2.780   0.629   6.603
 1304SOL    HW2 4812   2.669   0.519   6.651
 1305SOL     OW 4813   4.656   0.491   4.929
 1305SOL    HW1 4814   4.634   0.409   4.877
 1305SOL    HW2 4815   4.749   0.484   4.965
 1306SOL     OW 4816   0.667   4.637   4.320
 1306SOL    HW1 4817   0.622   4.559   4.364
 1306SOL    HW2 4818   0.765   4.619   4.313
 1307SOL     OW 4819   1.371   2.161   3.946
 1307SOL    HW1 4820   1.394   2.071   3.982
 1307SOL    HW2 4821   1.359   2.225   4.022
 1308SOL     OW 4822   4.807   6.338   3.710
 1308SOL    HW1 4823   4.863   6.276   3.766
 1308SOL    HW2 4824   4.725   6.289   3.680
 1309SOL     OW 4825   6.394   2.807   4.670
 1309SOL    HW1 4826   6.488   2.776   4.685
 1309SOL    HW2 4827   6.364   2.860   4.750
 1310SOL     OW 4828   5.833   3.886   4.666
 1310SOL    HW1 4829   5.925   3.921   4.684
 1310SOL    HW2 4830   5.794   3.934   4.588
 1311SOL     OW 4831   6.479   5.766   5.238
 1311SOL    HW1 4832   6.493   5.865   5.242
 1311SOL    HW2 4833   6.404   5.745   5.176
 1312SOL     OW 4834   0.643   6.942   0.536
 1312SOL    HW1 4835   0.649   6.888   0.620
 1312SOL    HW2 4836   0.641   6.881   0.457
 1313SOL     OW 4837   3.487   5.217   4.751
 1313SOL    HW1 4838   3.473   5.316   4.748
 1313SOL    HW2 4839   3.420   5.176   4.812
 1314SOL     OW 4840   0.947   1.395   5.495
 1314SOL    HW1 4841   1.045   1.404   5.515
 1314SOL    HW2 4842   0.934   1.329   5.421
 1315SOL     OW 4843   2.326   1.373   1.976
 1315SOL    HW1 4844   2.316   1.351   2.073
 1315SOL    HW2 4845   2.311   1.470   1.962
 1316SOL     OW 4846   2.734   6.668   3.855
 1316SOL    HW1 4847   2.787   6.743   3.894
 1316SOL    HW2 4848   2.748   6.664   3.757
 1317SOL     OW 4849   6.909   5.220   4.289
 1317SOL    HW1 4850   6.930   5.240   4.193
 1317SOL    HW2 4851   6.956   5.136   4.317
 1318SOL     OW 4852   0.357   6.742   0.476
 1318SOL    HW1 4853   0.434   6.716   0.419
 1318SOL    HW2 4854   0.275   6.754   0.419
 1319SOL     OW 4855   6.180   1.242   6.822
 1319SOL    HW1 4856   6.154   1.331   6.784
 1319SOL    HW2 4857   6.214   1.254   6.915
 1320SOL     OW 4858   5.325   5.312   5.691
 1320SOL    HW1 4859   5.424   5.327   5.684
 1320SOL    HW2 4860   5.301   5.227   5.645
 1321SOL     OW 4861   3.542   2.495   0.164
 1321SOL    HW1 4862   3.600   2.414   0.150
 1321SOL    HW2 4863   3.582   2.552   0.236
 1322SOL     OW 4864   6.563   1.568   3.941
 1322SOL    HW1 4865   6.534   1.517   4.022
 1322SOL    HW2 4866   6.659   1.546   3.920
 1323SOL     OW 4867   0.074   1.760   4.927
 1323SOL    HW1 4868   0.011   1.765   4.850
 1323SOL    HW2 4869   0.031   1.802   5.007
 1324SOL     OW 4870   1.449   3.479   1.645
 1324SOL    HW1 4871   1.518   3.406   1.643
 1324SOL    HW2 4872   1.473   3.550   1.579
 1325SOL     OW 4873   2.953   5.819   2.924
 1325SOL    HW1 4874   2.854   5.832   2.921
 1325SOL    HW2 4875   2.977   5.733   2.877
 1326SOL     OW 4876   5.536   3.194   4.392
 1326SOL    HW1 4877   5.591   3.115   4.368
 1326SOL    HW2 4878   5.440   3.176   4.371
 1327SOL     OW 4879   3.985   5.312   3.090
 1327SOL    HW1 4880   3.907   5.279   3.144
 1327SOL    HW2 4881   3.954   5.383   3.028
 1328SOL     OW 4882   1.980   2.150   6.490
 1328SOL    HW1 4883   1.970   2.239   6.534
 1328SOL    HW2 4884   1.919   2.084   6.533
 1329SOL     OW 4885   0.653   0.994   0.269
 1329SOL    HW1 4886   0.704   0.918   0.311
 1329SOL    HW2 4887   0.716   1.052   0.218
 1330SOL     OW 4888   6.822   6.736   1.359
 1330SOL    HW1 4889   6.858   6.756   1.267
 1330SOL    HW2 4890   6.726   6.761   1.363
 1331SOL     OW 4891   4.973   0.457   1.885
 1331SOL    HW1 4892   4.942   0.550   1.863
 1331SOL    HW2 4893   5.073   0.454   1.884
 1332SOL     OW 4894   4.501   1.424   1.256
 1332SOL    HW1 4895   4.560   1.505   1.260
 1332SOL    HW2 4896   4.505   1.385   1.164
 1333SOL     OW 4897   4.203   3.815   5.167
 1333SOL    HW1 4898   4.232   3.889   5.228
 1333SOL    HW2 4899   4.274   3.798   5.099
 1334SOL     OW 4900   0.268   4.030   4.463
 1334SOL    HW1 4901   0.244   3.972   4.541
 1334SOL    HW2 4902   0.196   4.024   4.394
 1335SOL     OW 4903   2.412   4.784   3.243
 1335SOL    HW1 4904   2.433   4.881   3.234
 1335SOL    HW2 4905   2.407   4.743   3.152
 1336SOL     OW 4906   0.409   0.836   5.175
 1336SOL    HW1 4907   0.383   0.757   5.231
 1336SOL    HW2 4908   0.456   0.904   5.231
 1337SOL     OW 4909   2.066   2.465   6.166
 1337SOL    HW1 4910   1.991   2.493   6.107
 1337SOL    HW2 4911   2.056   2.369   6.190
 1338SOL     OW 4912   4.235   5.569   6.740
 1338SOL    HW1 4913   4.156   5.530   6.692
 1338SOL    HW2 4914   4.305   5.499   6.752
 1339SOL     OW 4915   6.543   4.259   5.333
 1339SOL    HW1 4916   6.563   4.172   5.289
 1339SOL    HW2 4917   6.535   4.245   5.432
 1340SOL     OW 4918   1.416   2.212   0.573
 1340SOL    HW1 4919   1.347   2.160   0.522
 1340SOL    HW2 4920   1.490   2.239   0.511
 1341SOL     OW 4921   3.690   1.385   3.602
 1341SOL    HW1 4922   3.723   1.413   3.511
 1341SOL    HW2 4923   3.595   1.412   3.612
 1342SOL     OW 4924   0.590   6.688   0.656
 1342SOL    HW1 4925   0.514   6.627   0.634
 1342SOL    HW2 4926   0.560   6.758   0.721
 1343SOL     OW 4927   3.765   5.813   3.452
 1343SOL    HW1 4928   3.666   5.803   3.463
 1343SOL    HW2 4929   3.808   5.821   3.542
 1344SOL     OW 4930   6.326   1.170   2.508
 1344SOL    HW1 4931   6.283   1.169   2.598
 1344SOL    HW2 4932   6.408   1.111   2.509
 1345SOL     OW 4933   0.273   0.393   2.357
 1345SOL    HW1 4934   0.366   0.397   2.394
 1345SOL    HW2 4935   0.259   0.305   2.312
 1346SOL     OW 4936   0.340   0.458   3.544
 1346SOL    HW1 4937   0.284   0.376   3.528
 1346SOL    HW2 4938   0.431   0.444   3.504
 1347SOL     OW 4939   6.193   6.832   3.652
 1347SOL    HW1 4940   6.231   6.755   3.704
 1347SOL    HW2 4941   6.118   6.799   3.594
 1348SOL     OW 4942   5.809   4.335   4.421
 1348SOL    HW1 4943   5.898   4.307   4.385
 1348SOL    HW2 4944   5.748   4.356   4.344
 1349SOL     OW 4945   3.733   3.094   6.692
 1349SOL    HW1 4946   3.805   3.028   6.671
 1349SOL    HW2 4947   3.682   3.063   6.772
 1350SOL     OW 4948   3.228   0.534   6.718
 1350SOL    HW1 4949   3.310   0.556   6.666
 1350SOL    HW2 4950   3.238   0.568   6.812
 1351SOL     OW 4951   0.432   1.015   3.771
 1351SOL    HW1 4952   0.498   0.998   3.698
 1351SOL    HW2 4953   0.479   1.013   3.859
 1352SOL     OW 4954   0.263   0.723   3.539
 1352SOL    HW1 4955   0.163   0.721   3.538
 1352SOL    HW2 4956   0.297   0.631   3.557
 1353SOL     OW 4957   0.765   3.995   3.851
 1353SOL    HW1 4958   0.718   4.077   3.818
 1353SOL    HW2 4959   0.760   3.990   3.950
 1354SOL     OW 4960   0.455   6.570   2.790
 1354SOL    HW1 4961   0.477   6.598   2.696
 1354SOL    HW2 4962   0.378   6.506   2.788
 1355SOL     OW 4963   4.656   2.913   0.213
 1355SOL    HW1 4964   4.596   2.871   0.281
 1355SOL    HW2 4965   4.665   3.011   0.234
 1356SOL     OW 4966   3.459   3.368   2.531
 1356SOL    HW1 4967   3.485   3.283   2.577
 1356SOL    HW2 4968   3.513   3.444   2.567
 1357SOL     OW 4969   2.642   2.859   5.557
 1357SOL    HW1 4970   2.635   2.779   5.498
 1357SOL    HW2 4971   2.702   2.839   5.634
 1358SOL     OW 4972   1.965   2.815   6.379
 1358SOL    HW1 4973   1.983   2.885   6.448
 1358SOL    HW2 4974   1.977   2.854   6.288
 1359SOL     OW 4975   6.508   2.163   0.183
 1359SOL    HW1 4976   6.527   2.070   0.214
 1359SOL    HW2 4977   6.578   2.191   0.118
 1360SOL     OW 4978   3.703   3.838   4.010
 1360SOL    HW1 4979   3.734   3.867   3.920
 1360SOL    HW2 4980   3.738   3.901   4.080
 1361SOL     OW 4981   1.047   6.175   0.316
 1361SOL    HW1 4982   1.100   6.189   0.399
 1361SOL    HW2 4983   1.107   6.146   0.242
 1362SOL     OW 4984   2.896   3.210   6.051
 1362SOL    HW1 4985   2.887   3.192   6.149
 1362SOL    HW2 4986   2.975   3.160   6.015
 1363SOL     OW 4987   6.332   6.481   2.543
 1363SOL    HW1 4988   6.352   6.553   2.476
 1363SOL    HW2 4989   6.411   6.468   2.603
 1364SOL     OW 4990   6.837   3.699   1.117
 1364SOL    HW1 4991   6.756   3.643   1.104
 1364SOL    HW2 4992   6.820   3.792   1.084
 1365SOL     OW 4993   0.404   3.868   6.665
 1365SOL    HW1 4994   0.429   3.940   6.600
 1365SOL    HW2 4995   0.361   3.909   6.745
 1366SOL     OW 4996   6.561   1.628   0.771
 1366SOL    HW1 4997   6.607   1.713   0.744
 1366SOL    HW2 4998   6.462   1.640   0.763
 1367SOL     OW 4999   0.327   5.890   4.219
 1367SOL    HW1 5000   0.381   5.883   4.135
 1367SOL    HW2 5001   0.360   5.966   4.275
 1368SOL     OW 5002   0.148   6.860   5.000
 1368SOL    HW1 5003   0.220   6.791   4.989
 1368SOL    HW2 5004   0.078   6.846   4.930
 1369SOL     OW 5005   2.819   6.309   3.257
 1369SOL    HW1 5006   2.719   6.307   3.254
 1369SOL    HW2 5007   2.855   6.228   3.210
 1370SOL     OW 5008   6.606   2.811   3.204
 1370SOL    HW1 5009   6.537   2.867   3.159
 1370SOL    HW2 5010   6.580   2.796   3.300
 1371SOL     OW 5011   5.969   1.731   5.243
 1371SOL    HW1 5012   5.882   1.780   5.230
 1371SOL    HW2 5013   6.026   1.742   5.163
 1372SOL     OW 5014   6.434   2.727   7.001
 1372SOL    HW1 5015   6.523   2.685   7.015
 1372SOL    HW2 5016   6.438   2.790   6.923
 1373SOL     OW 5017   4.651   2.635   2.008
 1373SOL    HW1 5018   4.671   2.612   1.913
 1373SOL    HW2 5019   4.556   2.609   2.028
 1374SOL     OW 5020   4.731   5.106   0.530
 1374SOL    HW1 5021   4.735   5.183   0.593
 1374SOL    HW2 5022   4.790   5.032   0.564
 1375SOL     OW 5023   5.882   5.694   4.839
 1375SOL    HW1 5024   5.911   5.726   4.748
 1375SOL    HW2 5025   5.902   5.597   4.847
 1376SOL     OW 5026   2.070   5.235   6.211
 1376SOL    HW1 5027   2.080   5.136   6.220
 1376SOL    HW2 5028   1.979   5.263   6.242
 1377SOL     OW 5029   1.465   1.326   2.794
 1377SOL    HW1 5030   1.442   1.229   2.780
 1377SOL    HW2 5031   1.397   1.383   2.748
 1378SOL     OW 5032   5.024   2.577   4.417
 1378SOL    HW1 5033   5.041   2.660   4.471
 1378SOL    HW2 5034   5.070   2.585   4.329
 1379SOL     OW 5035   5.079   5.427   1.160
 1379SOL    HW1 5036   5.066   5.425   1.061
 1379SOL    HW2 5037   5.035   5.509   1.198
 1380SOL     OW 5038   0.229   5.634   1.364
 1380SOL    HW1 5039   0.177   5.558   1.402
 1380SOL    HW2 5040   0.304   5.598   1.308
 1381SOL     OW 5041   5.948   2.389   5.768
 1381SOL    HW1 5042   5.867   2.392   5.826
 1381SOL    HW2 5043   6.004   2.470   5.784
 1382SOL     OW 5044   4.489   3.063   0.913
 1382SOL    HW1 5045   4.526   3.156   0.913
 1382SOL    HW2 5046   4.464   3.037   0.820
 1383SOL     OW 5047   0.298   0.698   2.008
 1383SOL    HW1 5048   0.315   0.754   1.926
 1383SOL    HW2 5049   0.375   0.707   2.071
 1384SOL     OW 5050   5.141   1.142   1.477
 1384SOL    HW1 5051   5.168   1.236   1.454
 1384SOL    HW2 5052   5.198   1.078   1.426
 1385SOL     OW 5053   1.782   5.376   2.390
 1385SOL    HW1 5054   1.693   5.404   2.355
 1385SOL    HW2 5055   1.792   5.277   2.381
 1386SOL     OW 5056   3.173   5.669   3.998
 1386SOL    HW1 5057   3.075   5.686   4.009
 1386SOL    HW2 5058   3.188   5.603   3.924
 1387SOL     OW 5059   3.738   5.879   1.877
 1387SOL    HW1 5060   3.660   5.942   1.886
 1387SOL    HW2 5061   3.709   5.787   1.902
 1388SOL     OW 5062   0.119   0.167   1.148
 1388SOL    HW1 5063   0.148   0.118   1.230
 1388SOL    HW2 5064   0.020   0.158   1.138
 1389SOL     OW 5065   6.360   0.893   3.264
 1389SOL    HW1 5066   6.411   0.956   3.206
 1389SOL    HW2 5067   6.295   0.842   3.208
 1390SOL     OW 5068   6.916   1.999   5.676
 1390SOL    HW1 5069   6.897   2.081   5.730
 1390SOL    HW2 5070   6.835   1.939   5.677
 1391SOL     OW 5071   6.383   1.603   3.131
 1391SOL    HW1 5072   6.409   1.674   3.066
 1391SOL    HW2 5073   6.295   1.564   3.104
 1392SOL     OW 5074   4.732   5.146   5.456
 1392SOL    HW1 5075   4.813   5.087   5.451
 1392SOL    HW2 5076   4.754   5.235   5.415
 1393SOL     OW 5077   4.335   0.132   5.540
 1393SOL    HW1 5078   4.340   0.036   5.514
 1393SOL    HW2 5079   4.272   0.143   5.616
 1394SOL     OW 5080   2.758   5.661   5.453
 1394SOL    HW1 5081   2.697   5.719   5.507
 1394SOL    HW2 5082   2.759   5.694   5.358
 1395SOL     OW 5083   3.722   4.728   5.895
 1395SOL    HW1 5084   3.798   4.715   5.832
 1395SOL    HW2 5085   3.651   4.659   5.877
 1396SOL     OW 5086   6.551   6.141   4.509
 1396SOL    HW1 5087   6.578   6.045   4.517
 1396SOL    HW2 5088   6.467   6.148   4.454
 1397SOL     OW 5089   5.002   6.943   4.583
 1397SOL    HW1 5090   5.081   6.896   4.543
 1397SOL    HW2 5091   4.948   6.878   4.636
 1398SOL     OW 5092   1.451   1.600   5.261
 1398SOL    HW1 5093   1.522   1.627   5.195
 1398SOL    HW2 5094   1.363   1.637   5.231
 1399SOL     OW 5095   3.447   5.597   1.234
 1399SOL    HW1 5096   3.352   5.628   1.225
 1399SOL    HW2 5097   3.505   5.646   1.169
 1400SOL     OW 5098   6.575   0.972   2.232
 1400SOL    HW1 5099   6.498   1.016   2.187
 1400SOL    HW2 5100   6.648   1.039   2.248
 1401SOL     OW 5101   0.718   2.006   5.424
 1401SOL    HW1 5102   0.729   1.943   5.501
 1401SOL    HW2 5103   0.737   1.958   5.339
 1402SOL     OW 5104   6.972   3.174   0.143
 1402SOL    HW1 5105   0.037   3.161   0.191
 1402SOL    HW2 5106   6.978   3.134   0.052
 1403SOL     OW 5107   3.150   6.589   2.182
 1403SOL    HW1 5108   3.222   6.538   2.136
 1403SOL    HW2 5109   3.141   6.680   2.140
 1404SOL     OW 5110   5.726   0.783   0.231
 1404SOL    HW1 5111   5.630   0.803   0.211
 1404SOL    HW2 5112   5.733   0.739   0.320
 1405SOL     OW 5113   1.930   4.068   1.058
 1405SOL    HW1 5114   1.907   4.106   0.968
 1405SOL    HW2 5115   1.855   4.009   1.089
 1406SOL     OW 5116   0.724   4.108   1.694
 1406SOL    HW1 5117   0.706   4.206   1.688
 1406SOL    HW2 5118   0.760   4.086   1.785
 1407SOL     OW 5119   6.534   1.571   2.253
 1407SOL    HW1 5120   6.621   1.540   2.214
 1407SOL    HW2 5121   6.476   1.491   2.271
 1408SOL     OW 5122   5.524   0.945   6.292
 1408SOL    HW1 5123   5.432   0.951   6.329
 1408SOL    HW2 5124   5.589   0.927   6.366
 1409SOL     OW 5125   0.250   0.751   4.597
 1409SOL    HW1 5126   0.198   0.705   4.525
 1409SOL    HW2 5127   0.259   0.848   4.575
 1410SOL     OW 5128   0.636   3.086   0.106
 1410SOL    HW1 5129   0.624   2.992   0.074
 1410SOL    HW2 5130   0.688   3.085   0.191
 1411SOL     OW 5131   2.085   6.420   2.802
 1411SOL    HW1 5132   2.050   6.455   2.889
 1411SOL    HW2 5133   2.159   6.479   2.770
 1412SOL     OW 5134   1.757   2.976   0.456
 1412SOL    HW1 5135   1.685   2.932   0.403
 1412SOL    HW2 5136   1.725   2.994   0.549
 1413SOL     OW 5137   2.413   0.691   4.313
 1413SOL    HW1 5138   2.494   0.721   4.261
 1413SOL    HW2 5139   2.366   0.772   4.350
 1414SOL     OW 5140   2.447   2.075   1.928
 1414SOL    HW1 5141   2.544   2.086   1.908
 1414SOL    HW2 5142   2.421   2.135   2.003
 1415SOL     OW 5143   3.386   6.304   4.980
 1415SOL    HW1 5144   3.393   6.343   4.888
 1415SOL    HW2 5145   3.301   6.336   5.023
 1416SOL     OW 5146   4.396   4.548   2.577
 1416SOL    HW1 5147   4.409   4.593   2.489
 1416SOL    HW2 5148   4.327   4.597   2.630
 1417SOL     OW 5149   2.665   2.815   6.776
 1417SOL    HW1 5150   2.657   2.763   6.861
 1417SOL    HW2 5151   2.699   2.756   6.703
 1418SOL     OW 5152   3.161   4.060   3.027
 1418SOL    HW1 5153   3.096   4.041   2.953
 1418SOL    HW2 5154   3.252   4.030   3.001
 1419SOL     OW 5155   3.355   6.450   4.756
 1419SOL    HW1 5156   3.437   6.507   4.757
 1419SOL    HW2 5157   3.278   6.502   4.719
 1420SOL     OW 5158   1.315   6.560   2.644
 1420SOL    HW1 5159   1.350   6.470   2.671
 1420SOL    HW2 5160   1.384   6.607   2.588
 1421SOL     OW 5161   2.071   2.187   3.006
 1421SOL    HW1 5162   2.148   2.144   3.053
 1421SOL    HW2 5163   2.095   2.281   2.983
 1422SOL     OW 5164   1.955   4.950   2.051
 1422SOL    HW1 5165   1.898   4.873   2.080
 1422SOL    HW2 5166   2.034   4.958   2.112
 1423SOL     OW 5167   5.177   6.425   2.572
 1423SOL    HW1 5168   5.129   6.342   2.544
 1423SOL    HW2 5169   5.155   6.499   2.508
 1424SOL     OW 5170   5.472   4.698   4.878
 1424SOL    HW1 5171   5.466   4.774   4.813
 1424SOL    HW2 5172   5.568   4.674   4.892
 1425SOL     OW 5173   2.148   6.494   3.903
 1425SOL    HW1 5174   2.080   6.499   3.831
 1425SOL    HW2 5175   2.110   6.445   3.981
 1426SOL     OW 5176   1.039   1.685   5.769
 1426SOL    HW1 5177   1.079   1.594   5.760
 1426SOL    HW2 5178   1.013   1.700   5.865
 1427SOL     OW 5179   6.743   0.043   3.559
 1427SOL    HW1 5180   6.680   7.008   3.612
 1427SOL    HW2 5181   6.693   0.120   3.520
 1428SOL     OW 5182   6.236   2.093   0.257
 1428SOL    HW1 5183   6.325   2.131   0.231
 1428SOL    HW2 5184   6.208   2.024   0.190
 1429SOL     OW 5185   6.532   0.262   0.749
 1429SOL    HW1 5186   6.531   0.295   0.654
 1429SOL    HW2 5187   6.621   0.223   0.770
 1430SOL     OW 5188   1.633   4.015   3.807
 1430SOL    HW1 5189   1.721   4.002   3.762
 1430SOL    HW2 5190   1.564   3.958   3.763
 1431SOL     OW 5191   2.934   1.760   2.110
 1431SOL    HW1 5192   2.937   1.844   2.057
 1431SOL    HW2 5193   2.869   1.696   2.069
 1432SOL     OW 5194   2.536   1.246   2.941
 1432SOL    HW1 5195   2.593   1.326   2.961
 1432SOL    HW2 5196   2.450   1.276   2.900
 1433SOL     OW 5197   4.416   0.672   3.937
 1433SOL    HW1 5198   4.401   0.764   3.975
 1433SOL    HW2 5199   4.407   0.604   4.010
 1434SOL     OW 5200   0.448   0.800   5.654
 1434SOL    HW1 5201   0.513   0.739   5.700
 1434SOL    HW2 5202   0.491   0.888   5.636
 1435SOL     OW 5203   5.603   1.442   2.982
 1435SOL    HW1 5204   5.634   1.535   2.963
 1435SOL    HW2 5205   5.503   1.440   2.981
 1436SOL     OW 5206   3.991   4.013   6.913
 1436SOL    HW1 5207   3.950   4.079   6.850
 1436SOL    HW2 5208   4.019   4.059   6.997
 1437SOL     OW 5209   3.071   1.242   3.275
 1437SOL    HW1 5210   3.123   1.157   3.269
 1437SOL    HW2 5211   3.034   1.265   3.185
 1438SOL     OW 5212   3.300   6.513   1.688
 1438SOL    HW1 5213   3.317   6.566   1.605
 1438SOL    HW2 5214   3.203   6.520   1.713
 1439SOL     OW 5215   0.649   6.145   2.118
 1439SOL    HW1 5216   0.626   6.051   2.093
 1439SOL    HW2 5217   0.592   6.174   2.195
 1440SOL     OW 5218   2.797   4.014   0.996
 1440SOL    HW1 5219   2.715   3.982   0.949
 1440SOL    HW2 5220   2.860   4.055   0.930
 1441SOL     OW 5221   6.087   6.614   1.515
 1441SOL    HW1 5222   6.055   6.562   1.436
 1441SOL    HW2 5223   6.008   6.645   1.569
 1442SOL     OW 5224   5.813   6.127   0.165
 1442SOL    HW1 5225   5.770   6.206   0.210
 1442SOL    HW2 5226   5.751   6.048   0.170
 1443SOL     OW 5227   0.705   2.341   2.638
 1443SOL    HW1 5228   0.734   2.349   2.543
 1443SOL    HW2 5229   0.664   2.427   2.668
 1444SOL     OW 5230   5.659   6.659   0.310
 1444SOL    HW1 5231   5.564   6.643   0.282
 1444SOL    HW2 5232   5.687   6.750   0.282
 1445SOL     OW 5233   0.494   3.426   2.722
 1445SOL    HW1 5234   0.590   3.406   2.703
 1445SOL    HW2 5235   0.486   3.519   2.758
 1446SOL     OW 5236   5.946   6.950   6.677
 1446SOL    HW1 5237   5.963   0.011   6.623
 1446SOL    HW2 5238   5.869   6.965   6.739
 1447SOL     OW 5239   5.608   5.444   3.526
 1447SOL    HW1 5240   5.705   5.423   3.514
 1447SOL    HW2 5241   5.578   5.505   3.452
 1448SOL     OW 5242   0.573   2.946   5.188
 1448SOL    HW1 5243   0.564   2.940   5.089
 1448SOL    HW2 5244   0.625   3.028   5.211
 1449SOL     OW 5245   1.462   3.880   4.994
 1449SOL    HW1 5246   1.488   3.957   5.051
 1449SOL    HW2 5247   1.433   3.913   4.904
 1450SOL     OW 5248   1.626   1.859   5.303
 1450SOL    HW1 5249   1.567   1.832   5.380
 1450SOL    HW2 5250   1.615   1.794   5.228
 1451SOL     OW 5251   2.415   6.411   1.300
 1451SOL    HW1 5252   2.416   6.332   1.239
 1451SOL    HW2 5253   2.341   6.473   1.272
 1452SOL     OW 5254   4.200   3.078   6.530
 1452SOL    HW1 5255   4.155   3.163   6.500
 1452SOL    HW2 5256   4.154   3.042   6.610
 1453SOL     OW 5257   0.523   4.431   5.432
 1453SOL    HW1 5258   0.606   4.486   5.441
 1453SOL    HW2 5259   0.443   4.490   5.439
 1454SOL     OW 5260   3.123   2.163   3.677
 1454SOL    HW1 5261   3.136   2.165   3.776
 1454SOL    HW2 5262   3.186   2.097   3.637
 1455SOL     OW 5263   1.517   6.561   2.828
 1455SOL    HW1 5264   1.450   6.503   2.876
 1455SOL    HW2 5265   1.579   6.503   2.776
 1456SOL     OW 5266   6.426   5.622   6.041
 1456SOL    HW1 5267   6.459   5.628   5.946
 1456SOL    HW2 5268   6.369   5.540   6.051
 1457SOL     OW 5269   0.667   3.919   0.130
 1457SOL    HW1 5270   0.757   3.881   0.154
 1457SOL    HW2 5271   0.668   4.018   0.143
 1458SOL     OW 5272   5.533   4.946   5.554
 1458SOL    HW1 5273   5.543   5.003   5.636
 1458SOL    HW2 5274   5.620   4.944   5.505
 1459SOL     OW 5275   5.006   6.361   5.395
 1459SOL    HW1 5276   5.010   6.264   5.419
 1459SOL    HW2 5277   4.917   6.399   5.421
 1460SOL     OW 5278   1.878   6.279   5.254
 1460SOL    HW1 5279   1.895   6.248   5.160
 1460SOL    HW2 5280   1.786   6.317   5.260
 1461SOL     OW 5281   7.008   3.145   2.269
 1461SOL    HW1 5282   0.015   3.060   2.227
 1461SOL    HW2 5283   0.062   3.185   2.321
 1462SOL     OW 5284   0.950   0.170   0.313
 1462SOL    HW1 5285   0.915   0.122   0.233
 1462SOL    HW2 5286   0.894   0.149   0.392
 1463SOL     OW 5287   2.020   6.189   6.941
 1463SOL    HW1 5288   2.068   6.139   7.014
 1463SOL    HW2 5289   1.941   6.134   6.911
 1464SOL     OW 5290   6.063   4.060   4.358
 1464SOL    HW1 5291   6.101   4.147   4.327
 1464SOL    HW2 5292   6.041   4.003   4.279
 1465SOL     OW 5293   1.583   1.562   3.309
 1465SOL    HW1 5294   1.625   1.473   3.289
 1465SOL    HW2 5295   1.498   1.572   3.256
 1466SOL     OW 5296   3.671   2.473   1.647
 1466SOL    HW1 5297   3.588   2.527   1.663
 1466SOL    HW2 5298   3.689   2.415   1.726
 1467SOL     OW 5299   0.908   1.191   3.623
 1467SOL    HW1 5300   0.901   1.203   3.722
 1467SOL    HW2 5301   0.999   1.218   3.593
 1468SOL     OW 5302   3.190   5.465   1.895
 1468SOL    HW1 5303   3.114   5.444   1.834
 1468SOL    HW2 5304   3.184   5.560   1.925
 1469SOL     OW 5305   6.212   6.021   3.659
 1469SOL    HW1 5306   6.159   6.075   3.725
 1469SOL    HW2 5307   6.190   6.052   3.567
 1470SOL     OW 5308   6.738   2.757   0.923
 1470SOL    HW1 5309   6.769   2.774   1.017
 1470SOL    HW2 5310   6.709   2.662   0.915
 1471SOL     OW 5311   6.312   6.812   1.442
 1471SOL    HW1 5312   6.344   6.887   1.500
 1471SOL    HW2 5313   6.231   6.770   1.484
 1472SOL     OW 5314   2.739   0.027   6.200
 1472SOL    HW1 5315   2.747   0.089   6.279
 1472SOL    HW2 5316   2.705   0.079   6.121
 1473SOL     OW 5317   3.319   4.945   4.201
 1473SOL    HW1 5318   3.255   4.908   4.133
 1473SOL    HW2 5319   3.403   4.974   4.155
 1474SOL     OW 5320   4.088   4.534   1.452
 1474SOL    HW1 5321   4.145   4.558   1.530
 1474SOL    HW2 5322   4.119   4.584   1.371
 1475SOL     OW 5323   5.414   0.797   0.242
 1475SOL    HW1 5324   5.379   0.872   0.186
 1475SOL    HW2 5325   5.408   0.821   0.338
 1476SOL     OW 5326   3.133   0.932   1.497
 1476SOL    HW1 5327   3.080   0.851   1.525
 1476SOL    HW2 5328   3.153   0.925   1.399
 1477SOL     OW 5329   4.309   5.789   1.049
 1477SOL    HW1 5330   4.372   5.855   1.009
 1477SOL    HW2 5331   4.237   5.838   1.098
 1478SOL     OW 5332   5.114   5.889   5.169
 1478SOL    HW1 5333   5.126   5.960   5.100
 1478SOL    HW2 5334   5.022   5.893   5.206
 1479SOL     OW 5335   3.690   3.701   1.253
 1479SOL    HW1 5336   3.765   3.726   1.192
 1479SOL    HW2 5337   3.714   3.724   1.347
 1480SOL     OW 5338   3.008   0.803   5.365
 1480SOL    HW1 5339   2.985   0.892   5.325
 1480SOL    HW2 5340   3.008   0.733   5.294
 1481SOL     OW 5341   5.333   2.838   4.915
 1481SOL    HW1 5342   5.363   2.835   4.819
 1481SOL    HW2 5343   5.323   2.933   4.943
 1482SOL     OW 5344   4.470   6.946   0.771
 1482SOL    HW1 5345   4.487   6.905   0.681
 1482SOL    HW2 5346   4.374   6.970   0.778
 1483SOL     OW 5347   4.317   1.168   6.199
 1483SOL    HW1 5348   4.250   1.235   6.232
 1483SOL    HW2 5349   4.387   1.215   6.144
 1484SOL     OW 5350   2.814   5.325   4.287
 1484SOL    HW1 5351   2.794   5.265   4.365
 1484SOL    HW2 5352   2.799   5.420   4.313
 1485SOL     OW 5353   5.033   1.934   2.538
 1485SOL    HW1 5354   5.129   1.958   2.528
 1485SOL    HW2 5355   4.987   1.941   2.449
 1486SOL     OW 5356   5.094   6.729   3.277
 1486SOL    HW1 5357   5.163   6.799   3.296
 1486SOL    HW2 5358   5.060   6.692   3.363
 1487SOL     OW 5359   6.957   0.495   0.864
 1487SOL    HW1 5360   6.902   0.487   0.782
 1487SOL    HW2 5361   7.005   0.409   0.881
 1488SOL     OW 5362   6.540   0.778   2.832
 1488SOL    HW1 5363   6.629   0.734   2.849
 1488SOL    HW2 5364   6.489   0.726   2.764
 1489SOL     OW 5365   3.961   5.166   6.304
 1489SOL    HW1 5366   4.051   5.205   6.321
 1489SOL    HW2 5367   3.970   5.071   6.278
 1490SOL     OW 5368   0.110   2.549   2.062
 1490SOL    HW1 5369   0.195   2.496   2.061
 1490SOL    HW2 5370   0.105   2.602   2.146
 1491SOL     OW 5371   6.741   3.303   1.457
 1491SOL    HW1 5372   6.742   3.401   1.435
 1491SOL    HW2 5373   6.765   3.251   1.375
 1492SOL     OW 5374   5.936   0.897   2.840
 1492SOL    HW1 5375   5.859   0.943   2.795
 1492SOL    HW2 5376   5.943   0.803   2.807
 1493SOL     OW 5377   4.425   1.737   5.823
 1493SOL    HW1 5378   4.326   1.723   5.823
 1493SOL    HW2 5379   4.468   1.669   5.764
 1494SOL     OW 5380   5.531   2.750   6.084
 1494SOL    HW1 5381   5.507   2.836   6.040
 1494SOL    HW2 5382   5.522   2.676   6.017
 1495SOL     OW 5383   6.004   3.723   4.325
 1495SOL    HW1 5384   6.074   3.714   4.396
 1495SOL    HW2 5385   5.923   3.765   4.365
 1496SOL     OW 5386   6.801   6.047   6.922
 1496SOL    HW1 5387   6.843   6.009   7.004
 1496SOL    HW2 5388   6.745   5.976   6.877
 1497SOL     OW 5389   5.505   2.836   2.693
 1497SOL    HW1 5390   5.475   2.930   2.710
 1497SOL    HW2 5391   5.511   2.820   2.594
 1498SOL     OW 5392   3.100   4.641   0.976
 1498SOL    HW1 5393   3.044   4.631   1.059
 1498SOL    HW2 5394   3.041   4.663   0.899
 1499SOL     OW 5395   6.770   3.780   5.812
 1499SOL    HW1 5396   6.836   3.714   5.775
 1499SOL    HW2 5397   6.677   3.748   5.793
 1500SOL     OW 5398   0.669   5.788   0.541
 1500SOL    HW1 5399   0.740   5.838   0.492
 1500SOL    HW2 5400   0.707   5.702   0.575
 1501SOL     OW 5401   5.502   1.107   6.060
 1501SOL    HW1 5402   5.513   1.047   6.139
 1501SOL    HW2 5403   5.559   1.075   5.984
 1502SOL     OW 5404   0.021   0.825   6.606
 1502SOL    HW1 5405   7.007   0.732   6.600
 1502SOL    HW2 5406   7.012   0.878   6.527
 1503SOL     OW 5407   0.535   4.203   1.944
 1503SOL    HW1 5408   0.478   4.176   2.022
 1503SOL    HW2 5409   0.631   4.188   1.968
 1504SOL     OW 5410   0.646   0.264   3.298
 1504SOL    HW1 5411   0.595   0.198   3.353
 1504SOL    HW2 5412   0.662   0.226   3.207
 1505SOL     OW 5413   6.053   6.556   4.864
 1505SOL    HW1 5414   6.004   6.471   4.884
 1505SOL    HW2 5415   6.107   6.544   4.780
 1506SOL     OW 5416   1.602   1.158   1.101
 1506SOL    HW1 5417   1.538   1.141   1.176
 1506SOL    HW2 5418   1.692   1.178   1.139
 1507SOL     OW 5419   1.210   2.009   4.513
 1507SOL    HW1 5420   1.278   1.963   4.456
 1507SOL    HW2 5421   1.125   2.018   4.462
 1508SOL     OW 5422   0.633   0.784   0.627
 1508SOL    HW1 5423   0.547   0.805   0.579
 1508SOL    HW2 5424   0.658   0.861   0.685
 1509SOL     OW 5425   4.694   1.305   5.074
 1509SOL    HW1 5426   4.705   1.403   5.056
 1509SOL    HW2 5427   4.765   1.274   5.137
 1510SOL     OW 5428   3.107   0.326   3.617
 1510SOL    HW1 5429   3.138   0.269   3.541
 1510SOL    HW2 5430   3.170   0.317   3.694
 1511SOL     OW 5431   3.853   3.623   3.952
 1511SOL    HW1 5432   3.812   3.590   3.867
 1511SOL    HW2 5433   3.810   3.709   3.979
 1512SOL     OW 5434   6.220   5.719   1.595
 1512SOL    HW1 5435   6.170   5.767   1.522
 1512SOL    HW2 5436   6.155   5.665   1.650
 1513SOL     OW 5437   3.184   6.824   5.782
 1513SOL    HW1 5438   3.282   6.812   5.797
 1513SOL    HW2 5439   3.142   6.736   5.764
 1514SOL     OW 5440   3.008   2.408   5.790
 1514SOL    HW1 5441   3.025   2.329   5.849
 1514SOL    HW2 5442   2.910   2.426   5.785
 1515SOL     OW 5443   6.246   2.130   2.249
 1515SOL    HW1 5444   6.334   2.087   2.272
 1515SOL    HW2 5445   6.259   2.194   2.173
 1516SOL     OW 5446   6.399   6.321   4.718
 1516SOL    HW1 5447   6.377   6.270   4.634
 1516SOL    HW2 5448   6.330   6.391   4.734
 1517SOL     OW 5449   3.623   6.275   3.457
 1517SOL    HW1 5450   3.665   6.365   3.458
 1517SOL    HW2 5451   3.603   6.246   3.551
 1518SOL     OW 5452   6.934   2.497   0.586
 1518SOL    HW1 5453   6.865   2.566   0.565
 1518SOL    HW2 5454   7.006   2.500   0.517
 1519SOL     OW 5455   0.333   4.039   0.516
 1519SOL    HW1 5456   0.352   4.135   0.495
 1519SOL    HW2 5457   0.387   4.011   0.596
 1520SOL     OW 5458   0.850   5.372   1.557
 1520SOL    HW1 5459   0.751   5.370   1.541
 1520SOL    HW2 5460   0.897   5.379   1.469
 1521SOL     OW 5461   2.178   4.678   6.280
 1521SOL    HW1 5462   2.166   4.773   6.251
 1521SOL    HW2 5463   2.091   4.630   6.276
 1522SOL     OW 5464   4.950   5.956   4.661
 1522SOL    HW1 5465   4.999   5.910   4.587
 1522SOL    HW2 5466   4.894   5.889   4.710
 1523SOL     OW 5467   3.927   6.482   0.061
 1523SOL    HW1 5468   3.916   6.416   7.009
 1523SOL    HW2 5469   4.024   6.495   0.082
 1524SOL     OW 5470   2.136   2.271   2.634
 1524SOL    HW1 5471   2.045   2.244   2.603
 1524SOL    HW2 5472   2.205   2.236   2.571
 1525SOL     OW 5473   6.222   2.578   0.904
 1525SOL    HW1 5474   6.317   2.557   0.926
 1525SOL    HW2 5475   6.164   2.557   0.983
 1526SOL     OW 5476   0.508   1.726   0.220
 1526SOL    HW1 5477   0.521   1.808   0.163
 1526SOL    HW2 5478   0.486   1.754   0.313
 1527SOL     OW 5479   3.495   1.541   4.452
 1527SOL    HW1 5480   3.504   1.628   4.402
 1527SOL    HW2 5481   3.411   1.495   4.424
 1528SOL     OW 5482   5.085   3.553   0.981
 1528SOL    HW1 5483   5.142   3.633   0.999
 1528SOL    HW2 5484   5.025   3.536   1.059
 1529SOL     OW 5485   4.967   0.928   6.352
 1529SOL    HW1 5486   4.871   0.930   6.379
 1529SOL    HW2 5487   5.004   0.836   6.369
 1530SOL     OW 5488   2.931   0.068   1.275
 1530SOL    HW1 5489   2.857   0.082   1.340
 1530SOL    HW2 5490   2.927   0.139   1.204
 1531SOL     OW 5491   3.680   0.342   4.070
 1531SOL    HW1 5492   3.638   0.252   4.067
 1531SOL    HW2 5493   3.660   0.385   4.158
 1532SOL     OW 5494   3.326   5.090   6.147
 1532SOL    HW1 5495   3.370   5.005   6.120
 1532SOL    HW2 5496   3.370   5.167   6.101
 1533SOL     OW 5497   5.344   5.400   1.037
 1533SOL    HW1 5498   5.421   5.425   1.096
 1533SOL    HW2 5499   5.258   5.424   1.082
 1534SOL     OW 5500   3.923   5.662   6.991
 1534SOL    HW1 5501   3.844   5.672   6.932
 1534SOL    HW2 5502   3.912   5.580   0.026
 1535SOL     OW 5503   6.667   6.402   4.512
 1535SOL    HW1 5504   6.654   6.432   4.418
 1535SOL    HW2 5505   6.609   6.322   4.530
 1536SOL     OW 5506   4.063   4.136   0.119
 1536SOL    HW1 5507   4.121   4.213   0.144
 1536SOL    HW2 5508   3.968   4.167   0.110
 1537SOL     OW 5509   3.284   4.897   3.700
 1537SOL    HW1 5510   3.349   4.930   3.631
 1537SOL    HW2 5511   3.333   4.877   3.785
 1538SOL     OW 5512   3.268   1.856   0.466
 1538SOL    HW1 5513   3.235   1.765   0.439
 1538SOL    HW2 5514   3.252   1.869   0.564
 1539SOL     OW 5515   5.109   3.413   1.624
 1539SOL    HW1 5516   5.109   3.313   1.633
 1539SOL    HW2 5517   5.075   3.439   1.534
 1540SOL     OW 5518   2.087   6.618   4.427
 1540SOL    HW1 5519   2.051   6.666   4.346
 1540SOL    HW2 5520   2.113   6.685   4.496
 1541SOL     OW 5521   3.365   2.900   4.625
 1541SOL    HW1 5522   3.323   2.934   4.710
 1541SOL    HW2 5523   3.459   2.871   4.643
 1542SOL     OW 5524   6.391   6.889   2.281
 1542SOL    HW1 5525   6.462   6.946   2.240
 1542SOL    HW2 5526   6.311   6.946   2.301
 1543SOL     OW 5527   3.235   5.486   6.190
 1543SOL    HW1 5528   3.250   5.472   6.092
 1543SOL    HW2 5529   3.312   5.535   6.229
 1544SOL     OW 5530   3.832   2.955   3.663
 1544SOL    HW1 5531   3.757   2.892   3.685
 1544SOL    HW2 5532   3.838   2.965   3.563
 1545SOL     OW 5533   6.312   0.447   1.735
 1545SOL    HW1 5534   6.369   0.451   1.654
 1545SOL    HW2 5535   6.334   0.523   1.796
 1546SOL     OW 5536   5.248   6.826   5.646
 1546SOL    HW1 5537   5.208   6.740   5.613
 1546SOL    HW2 5538   5.186   6.868   5.712
 1547SOL     OW 5539   1.428   3.954   0.354
 1547SOL    HW1 5540   1.509   4.013   0.353
 1547SOL    HW2 5541   1.362   3.988   0.288
 1548SOL     OW 5542   6.403   2.566   0.364
 1548SOL    HW1 5543   6.341   2.565   0.443
 1548SOL    HW2 5544   6.438   2.474   0.347
 1549SOL     OW 5545   3.983   1.460   4.607
 1549SOL    HW1 5546   3.885   1.442   4.600
 1549SOL    HW2 5547   4.032   1.374   4.616
 1550SOL     OW 5548   3.731   3.197   2.474
 1550SOL    HW1 5549   3.700   3.219   2.567
 1550SOL    HW2 5550   3.751   3.099   2.468
 1551SOL     OW 5551   0.993   5.373   6.773
 1551SOL    HW1 5552   1.025   5.279   6.770
 1551SOL    HW2 5553   0.923   5.382   6.844
 1552SOL     OW 5554   2.553   4.961   1.586
 1552SOL    HW1 5555   2.550   4.894   1.660
 1552SOL    HW2 5556   2.469   5.016   1.587
 1553SOL     OW 5557   0.112   1.650   5.871
 1553SOL    HW1 5558   0.063   1.594   5.805
 1553SOL    HW2 5559   0.209   1.625   5.872
 1554SOL     OW 5560   3.268   1.963   3.548
 1554SOL    HW1 5561   3.268   1.899   3.471
 1554SOL    HW2 5562   3.360   2.002   3.559
 1555SOL     OW 5563   5.946   2.398   6.235
 1555SOL    HW1 5564   6.010   2.473   6.222
 1555SOL    HW2 5565   5.874   2.426   6.298
 1556SOL     OW 5566   2.318   1.114   6.520
 1556SOL    HW1 5567   2.379   1.190   6.543
 1556SOL    HW2 5568   2.347   1.032   6.570
 1557SOL     OW 5569   1.730   3.375   6.141
 1557SOL    HW1 5570   1.767   3.468   6.152
 1557SOL    HW2 5571   1.761   3.337   6.054
 1558SOL     OW 5572   6.731   0.139   4.720
 1558SOL    HW1 5573   6.758   0.044   4.704
 1558SOL    HW2 5574   6.811   0.192   4.748
 1559SOL     OW 5575   0.503   2.750   6.262
 1559SOL    HW1 5576   0.407   2.729   6.282
 1559SOL    HW2 5577   0.562   2.694   6.319
 1560SOL     OW 5578   7.014   0.953   6.377
 1560SOL    HW1 5579   0.008   1.048   6.350
 1560SOL    HW2 5580   0.022   0.892   6.303
 1561SOL     OW 5581   4.903   6.122   2.250
 1561SOL    HW1 5582   4.836   6.191   2.224
 1561SOL    HW2 5583   4.861   6.057   2.313
 1562SOL     OW 5584   4.811   0.255   2.448
 1562SOL    HW1 5585   4.801   0.345   2.490
 1562SOL    HW2 5586   4.747   0.246   2.372
 1563SOL     OW 5587   3.228   1.533   6.095
 1563SOL    HW1 5588   3.283   1.455   6.066
 1563SOL    HW2 5589   3.279   1.618   6.078
 1564SOL     OW 5590   1.173   1.633   2.228
 1564SOL    HW1 5591   1.270   1.651   2.217
 1564SOL    HW2 5592   1.124   1.718   2.246
 1565SOL     OW 5593   4.912   3.700   2.424
 1565SOL    HW1 5594   4.912   3.716   2.325
 1565SOL    HW2 5595   4.883   3.606   2.443
 1566SOL     OW 5596   5.281   4.278   3.598
 1566SOL    HW1 5597   5.317   4.224   3.674
 1566SOL    HW2 5598   5.316   4.241   3.511
 1567SOL     OW 5599   5.981   5.646   6.027
 1567SOL    HW1 5600   6.035   5.727   6.002
 1567SOL    HW2 5601   5.956   5.652   6.124
 1568SOL     OW 5602   1.067   0.570   0.471
 1568SOL    HW1 5603   1.163   0.565   0.500
 1568SOL    HW2 5604   1.010   0.597   0.549
 1569SOL     OW 5605   3.928   6.771   4.610
 1569SOL    HW1 5606   4.012   6.716   4.607
 1569SOL    HW2 5607   3.857   6.721   4.660
 1570SOL     OW 5608   2.613   1.825   1.608
 1570SOL    HW1 5609   2.576   1.831   1.516
 1570SOL    HW2 5610   2.637   1.916   1.642
 1571SOL     OW 5611   5.799   3.199   1.727
 1571SOL    HW1 5612   5.788   3.159   1.636
 1571SOL    HW2 5613   5.877   3.260   1.728
 1572SOL     OW 5614   0.524   6.986   2.094
 1572SOL    HW1 5615   0.615   6.948   2.078
 1572SOL    HW2 5616   0.454   6.921   2.063
 1573SOL     OW 5617   5.091   6.949   1.478
 1573SOL    HW1 5618   5.037   6.968   1.560
 1573SOL    HW2 5619   5.087   6.851   1.457
 1574SOL     OW 5620   0.139   2.300   1.574
 1574SOL    HW1 5621   0.088   2.294   1.660
 1574SOL    HW2 5622   0.156   2.208   1.539
 1575SOL     OW 5623   1.597   2.646   0.661
 1575SOL    HW1 5624   1.522   2.580   0.667
 1575SOL    HW2 5625   1.674   2.605   0.613
 1576SOL     OW 5626   5.662   5.954   3.920
 1576SOL    HW1 5627   5.730   5.913   3.981
 1576SOL    HW2 5628   5.634   5.888   3.851
 1577SOL     OW 5629   2.644   0.542   5.582
 1577SOL    HW1 5630   2.708   0.490   5.639
 1577SOL    HW2 5631   2.640   0.636   5.615
 1578SOL     OW 5632   5.531   3.804   5.892
 1578SOL    HW1 5633   5.606   3.741   5.869
 1578SOL    HW2 5634   5.501   3.852   5.809
 1579SOL     OW 5635   0.373   1.576   3.636
 1579SOL    HW1 5636   0.401   1.672   3.640
 1579SOL    HW2 5637   0.371   1.537   3.728
 1580SOL     OW 5638   2.795   4.468   5.438
 1580SOL    HW1 5639   2.764   4.554   5.477
 1580SOL    HW2 5640   2.823   4.482   5.343
 1581SOL     OW 5641   6.647   3.568   4.504
 1581SOL    HW1 5642   6.611   3.525   4.421
 1581SOL    HW2 5643   6.581   3.634   4.539
 1582SOL     OW 5644   0.693   4.988   4.530
 1582SOL    HW1 5645   0.782   4.955   4.560
 1582SOL    HW2 5646   0.670   4.947   4.442
 1583SOL     OW 5647   2.331   2.776   3.656
 1583SOL    HW1 5648   2.327   2.843   3.583
 1583SOL    HW2 5649   2.247   2.780   3.710
 1584SOL     OW 5650   1.973   0.082   5.442
 1584SOL    HW1 5651   1.986   0.014   5.514
 1584SOL    HW2 5652   1.947   0.169   5.483
 1585SOL     OW 5653   5.470   1.540   3.678
 1585SOL    HW1 5654   5.529   1.460   3.666
 1585SOL    HW2 5655   5.518   1.622   3.646
 1586SOL     OW 5656   3.801   3.852   2.519
 1586SOL    HW1 5657   3.725   3.786   2.520
 1586SOL    HW2 5658   3.815   3.885   2.425
 1587SOL     OW 5659   3.501   6.981   6.921
 1587SOL    HW1 5660   3.522   6.976   6.824
 1587SOL    HW2 5661   3.574   0.010   6.968
 1588SOL     OW 5662   5.259   1.952   1.906
 1588SOL    HW1 5663   5.293   2.043   1.881
 1588SOL    HW2 5664   5.323   1.882   1.875
 1589SOL     OW 5665   5.942   4.817   4.372
 1589SOL    HW1 5666   5.926   4.808   4.470
 1589SOL    HW2 5667   6.029   4.866   4.356
 1590SOL     OW 5668   1.891   0.679   0.127
 1590SOL    HW1 5669   1.842   0.683   0.040
 1590SOL    HW2 5670   1.908   0.584   0.152
 1591SOL     OW 5671   1.249   4.536   2.412
 1591SOL    HW1 5672   1.233   4.574   2.503
 1591SOL    HW2 5673   1.175   4.562   2.351
 1592SOL     OW 5674   2.916   3.669   2.549
 1592SOL    HW1 5675   2.902   3.584   2.599
 1592SOL    HW2 5676   2.887   3.658   2.454
 1593SOL     OW 5677   0.980   6.035   4.394
 1593SOL    HW1 5678   1.037   5.993   4.324
 1593SOL    HW2 5679   1.034   6.052   4.476
 1594SOL     OW 5680   7.018   5.199   2.450
 1594SOL    HW1 5681   0.096   5.199   2.437
 1594SOL    HW2 5682   6.997   5.196   2.547
 1595SOL     OW 5683   6.977   4.605   6.917
 1595SOL    HW1 5684   6.957   4.508   6.903
 1595SOL    HW2 5685   6.924   4.660   6.853
 1596SOL     OW 5686   2.280   5.572   6.165
 1596SOL    HW1 5687   2.337   5.556   6.246
 1596SOL    HW2 5688   2.256   5.485   6.123
 1597SOL     OW 5689   2.483   6.161   1.579
 1597SOL    HW1 5690   2.512   6.086   1.638
 1597SOL    HW2 5691   2.527   6.153   1.490
 1598SOL     OW 5692   0.633   4.750   1.248
 1598SOL    HW1 5693   0.606   4.693   1.325
 1598SOL    HW2 5694   0.714   4.711   1.204
 1599SOL     OW 5695   3.665   4.884   0.133
 1599SOL    HW1 5696   3.737   4.949   0.109
 1599SOL    HW2 5697   3.578   4.934   0.141
 1600SOL     OW 5698   5.405   1.309   4.907
 1600SOL    HW1 5699   5.401   1.209   4.909
 1600SOL    HW2 5700   5.403   1.341   4.812
 1601SOL     OW 5701   1.045   4.850   5.237
 1601SOL    HW1 5702   0.999   4.762   5.237
 1601SOL    HW2 5703   1.141   4.838   5.209
 1602SOL     OW 5704   1.429   5.630   3.773
 1602SOL    HW1 5705   1.494   5.579   3.717
 1602SOL    HW2 5706   1.404   5.575   3.853
 1603SOL     OW 5707   0.247   6.369   2.428
 1603SOL    HW1 5708   0.318   6.417   2.376
 1603SOL    HW2 5709   0.288   6.326   2.508
 1604SOL     OW 5710   7.007   4.968   6.518
 1604SOL    HW1 5711   6.993   4.947   6.421
 1604SOL    HW2 5712   0.065   5.028   6.527
 1605SOL     OW 5713   6.526   6.309   2.673
 1605SOL    HW1 5714   6.585   6.286   2.595
 1605SOL    HW2 5715   6.455   6.239   2.683
 1606SOL     OW 5716   5.018   6.926   5.794
 1606SOL    HW1 5717   4.950   6.893   5.859
 1606SOL    HW2 5718   5.054   7.014   5.824
 1607SOL     OW 5719   4.804   2.471   0.722
 1607SOL    HW1 5720   4.759   2.553   0.686
 1607SOL    HW2 5721   4.758   2.390   0.687
 1608SOL     OW 5722   2.174   0.018   0.957
 1608SOL    HW1 5723   2.256   7.015   0.905
 1608SOL    HW2 5724   2.139   6.959   1.004
 1609SOL     OW 5725   4.742   1.962   6.047
 1609SOL    HW1 5726   4.790   1.875   6.046
 1609SOL    HW2 5727   4.682   1.969   5.967
 1610SOL     OW 5728   6.303   6.163   4.373
 1610SOL    HW1 5729   6.321   6.262   4.372
 1610SOL    HW2 5730   6.205   6.147   4.376
 1611SOL     OW 5731   3.973   3.635   1.804
 1611SOL    HW1 5732   4.016   3.634   1.714
 1611SOL    HW2 5733   4.023   3.697   1.864
 1612SOL     OW 5734   2.310   1.329   4.779
 1612SOL    HW1 5735   2.319   1.235   4.746
 1612SOL    HW2 5736   2.292   1.329   4.877
 1613SOL     OW 5737   2.367   5.739   0.775
 1613SOL    HW1 5738   2.365   5.658   0.717
 1613SOL    HW2 5739   2.398   5.714   0.867
 1614SOL     OW 5740   6.401   2.361   6.961
 1614SOL    HW1 5741   6.361   2.428   0.002
 1614SOL    HW2 5742   6.370   2.379   6.868
 1615SOL     OW 5743   6.912   4.763   6.698
 1615SOL    HW1 5744   6.962   4.821   6.634
 1615SOL    HW2 5745   6.815   4.761   6.673
 1616SOL     OW 5746   3.340   1.916   5.835
 1616SOL    HW1 5747   3.331   2.012   5.860
 1616SOL    HW2 5748   3.250   1.877   5.818
 1617SOL     OW 5749   5.254   0.725   3.288
 1617SOL    HW1 5750   5.232   0.795   3.355
 1617SOL    HW2 5751   5.305   0.766   3.212
 1618SOL     OW 5752   5.973   3.207   1.124
 1618SOL    HW1 5753   6.041   3.135   1.137
 1618SOL    HW2 5754   5.934   3.233   1.213
 1619SOL     OW 5755   1.681   3.375   4.606
 1619SOL    HW1 5756   1.780   3.363   4.609
 1619SOL    HW2 5757   1.659   3.464   4.566
 1620SOL     OW 5758   2.989   5.434   1.733
 1620SOL    HW1 5759   2.892   5.410   1.735
 1620SOL    HW2 5760   3.005   5.506   1.666
 1621SOL     OW 5761   1.155   0.547   0.764
 1621SOL    HW1 5762   1.202   0.496   0.692
 1621SOL    HW2 5763   1.193   0.522   0.853
 1622SOL     OW 5764   2.008   1.635   4.153
 1622SOL    HW1 5765   1.977   1.721   4.194
 1622SOL    HW2 5766   1.976   1.559   4.210
 1623SOL     OW 5767   2.403   1.987   5.884
 1623SOL    HW1 5768   2.452   1.912   5.840
 1623SOL    HW2 5769   2.427   2.073   5.841
 1624SOL     OW 5770   3.009   1.579   0.359
 1624SOL    HW1 5771   2.960   1.664   0.379
 1624SOL    HW2 5772   3.108   1.597   0.361
 1625SOL     OW 5773   0.879   5.194   2.032
 1625SOL    HW1 5774   0.966   5.152   2.058
 1625SOL    HW2 5775   0.886   5.231   1.939
 1626SOL     OW 5776   1.934   3.058   6.585
 1626SOL    HW1 5777   1.885   3.129   6.635
 1626SOL    HW2 5778   2.007   3.100   6.531
 1627SOL     OW 5779   6.117   2.870   3.745
 1627SOL    HW1 5780   6.173   2.939   3.792
 1627SOL    HW2 5781   6.046   2.916   3.691
 1628SOL     OW 5782   3.437   4.441   0.489
 1628SOL    HW1 5783   3.485   4.415   0.573
 1628SOL    HW2 5784   3.481   4.399   0.410
 1629SOL     OW 5785   3.737   1.897   4.183
 1629SOL    HW1 5786   3.701   1.960   4.114
 1629SOL    HW2 5787   3.769   1.813   4.139
 1630SOL     OW 5788   0.857   4.465   5.305
 1630SOL    HW1 5789   0.824   4.482   5.398
 1630SOL    HW2 5790   0.810   4.384   5.268
 1631SOL     OW 5791   0.015   6.820   5.605
 1631SOL    HW1 5792   6.976   6.740   5.606
 1631SOL    HW2 5793   0.092   6.804   5.667
 1632SOL     OW 5794   6.688   0.285   1.017
 1632SOL    HW1 5795   6.726   0.305   0.927
 1632SOL    HW2 5796   6.630   0.361   1.047
 1633SOL     OW 5797   6.257   2.141   4.046
 1633SOL    HW1 5798   6.286   2.047   4.058
 1633SOL    HW2 5799   6.327   2.203   4.081
 1634SOL     OW 5800   2.890   0.317   6.628
 1634SOL    HW1 5801   2.907   0.258   6.707
 1634SOL    HW2 5802   2.880   0.412   6.659
 1635SOL     OW 5803   0.050   6.017   5.130
 1635SOL    HW1 5804   0.110   6.088   5.168
 1635SOL    HW2 5805   0.021   6.044   5.038
 1636SOL     OW 5806   2.197   6.271   1.960
 1636SOL    HW1 5807   2.179   6.329   2.040
 1636SOL    HW2 5808   2.159   6.179   1.976
 1637SOL     OW 5809   6.668   3.244   1.866
 1637SOL    HW1 5810   6.661   3.162   1.808
 1637SOL    HW2 5811   6.750   3.237   1.923
 1638SOL     OW 5812   0.025   3.335   4.273
 1638SOL    HW1 5813   6.993   3.416   4.251
 1638SOL    HW2 5814   0.076   3.350   4.357
 1639SOL     OW 5815   4.872   5.569   2.723
 1639SOL    HW1 5816   4.810   5.648   2.725
 1639SOL    HW2 5817   4.846   5.508   2.648
 1640SOL     OW 5818   6.351   0.426   0.851
 1640SOL    HW1 5819   6.434   0.375   0.826
 1640SOL    HW2 5820   6.376   0.519   0.876
 1641SOL     OW 5821   5.149   3.091   5.249
 1641SOL    HW1 5822   5.196   3.091   5.160
 1641SOL    HW2 5823   5.116   2.998   5.269
 1642SOL     OW 5824   6.774   2.291   0.736
 1642SOL    HW1 5825   6.840   2.358   0.702
 1642SOL    HW2 5826   6.806   2.199   0.717
 1643SOL     OW 5827   3.836   6.601   4.945
 1643SOL    HW1 5828   3.869   6.693   4.963
 1643SOL    HW2 5829   3.851   6.543   5.025
 1644SOL     OW 5830   2.892   1.133   1.305
 1644SOL    HW1 5831   2.912   1.165   1.397
 1644SOL    HW2 5832   2.882   1.212   1.244
 1645SOL     OW 5833   2.921   6.697   6.732
 1645SOL    HW1 5834   3.016   6.674   6.708
 1645SOL    HW2 5835   2.867   6.703   6.648
 1646SOL     OW 5836   1.372   4.293   0.744
 1646SOL    HW1 5837   1.296   4.346   0.706
 1646SOL    HW2 5838   1.345   4.197   0.753
 1647SOL     OW 5839   5.794   3.018   3.895
 1647SOL    HW1 5840   5.724   3.072   3.941
 1647SOL    HW2 5841   5.879   3.071   3.890
 1648SOL     OW 5842   4.657   0.203   2.223
 1648SOL    HW1 5843   4.739   0.245   2.186
 1648SOL    HW2 5844   4.622   0.134   2.160
 1649SOL     OW 5845   3.368   1.190   2.947
 1649SOL    HW1 5846   3.271   1.174   2.933
 1649SOL    HW2 5847   3.404   1.245   2.871
 1650SOL     OW 5848   2.624   6.976   3.902
 1650SOL    HW1 5849   2.570   0.037   3.921
 1650SOL    HW2 5850   2.671   6.946   3.985
 1651SOL     OW 5851   0.897   0.429   0.323
 1651SOL    HW1 5852   0.932   0.336   0.329
 1651SOL    HW2 5853   0.972   0.494   0.335
 1652SOL     OW 5854   2.745   2.355   1.713
 1652SOL    HW1 5855   2.796   2.402   1.785
 1652SOL    HW2 5856   2.697   2.422   1.657
 1653SOL     OW 5857   0.883   5.576   0.935
 1653SOL    HW1 5858   0.961   5.516   0.949
 1653SOL    HW2 5859   0.901   5.638   0.859
 1654SOL     OW 5860   6.587   3.483   2.793
 1654SOL    HW1 5861   6.528   3.420   2.743
 1654SOL    HW2 5862   6.550   3.498   2.884
 1655SOL     OW 5863   4.814   4.104   6.425
 1655SOL    HW1 5864   4.774   4.185   6.468
 1655SOL    HW2 5865   4.893   4.131   6.370
 1656SOL     OW 5866   1.407   4.927   3.471
 1656SOL    HW1 5867   1.397   4.894   3.377
 1656SOL    HW2 5868   1.503   4.944   3.491
 1657SOL     OW 5869   1.225   0.691   5.111
 1657SOL    HW1 5870   1.137   0.668   5.153
 1657SOL    HW2 5871   1.221   0.783   5.072
 1658SOL     OW 5872   6.096   6.387   2.893
 1658SOL    HW1 5873   6.024   6.365   2.958
 1658SOL    HW2 5874   6.158   6.455   2.934
 1659SOL     OW 5875   3.591   2.591   6.260
 1659SOL    HW1 5876   3.555   2.559   6.347
 1659SOL    HW2 5877   3.641   2.677   6.274
 1660SOL     OW 5878   1.625   5.741   3.497
 1660SOL    HW1 5879   1.548   5.741   3.561
 1660SOL    HW2 5880   1.671   5.830   3.501
 1661SOL     OW 5881   3.458   1.148   2.348
 1661SOL    HW1 5882   3.483   1.176   2.255
 1661SOL    HW2 5883   3.424   1.054   2.347
 1662SOL     OW 5884   0.350   1.191   3.384
 1662SOL    HW1 5885   0.325   1.189   3.480
 1662SOL    HW2 5886   0.338   1.100   3.344
 1663SOL     OW 5887   3.237   0.171   2.581
 1663SOL    HW1 5888   3.179   0.102   2.537
 1663SOL    HW2 5889   3.307   0.202   2.516
 1664SOL     OW 5890   2.090   5.845   4.185
 1664SOL    HW1 5891   2.124   5.858   4.278
 1664SOL    HW2 5892   2.068   5.934   4.145
 1665SOL     OW 5893   0.127   0.932   3.057
 1665SOL    HW1 5894   0.188   0.870   3.007
 1665SOL    HW2 5895   0.042   0.945   3.005
 1666SOL     OW 5896   5.638   2.903   5.762
 1666SOL    HW1 5897   5.727   2.949   5.768
 1666SOL    HW2 5898   5.649   2.807   5.788
 1667SOL     OW 5899   6.402   6.692   6.044
 1667SOL    HW1 5900   6.353   6.646   5.970
 1667SOL    HW2 5901   6.430   6.784   6.013
 1668SOL     OW 5902   3.938   0.347   4.881
 1668SOL    HW1 5903   3.880   0.318   4.805
 1668SOL    HW2 5904   3.884   0.403   4.944
 1669SOL     OW 5905   5.593   7.018   6.085
 1669SOL    HW1 5906   5.664   0.040   6.140
 1669SOL    HW2 5907   5.606   6.919   6.088
 1670SOL     OW 5908   5.676   4.452   5.357
 1670SOL    HW1 5909   5.688   4.548   5.331
 1670SOL    HW2 5910   5.709   4.439   5.451
 1671SOL     OW 5911   4.615   3.177   0.262
 1671SOL    HW1 5912   4.669   3.258   0.236
 1671SOL    HW2 5913   4.518   3.201   0.263
 1672SOL     OW 5914   1.730   5.184   2.125
 1672SOL    HW1 5915   1.664   5.254   2.098
 1672SOL    HW2 5916   1.808   5.186   2.063
 1673SOL     OW 5917   6.792   3.432   3.880
 1673SOL    HW1 5918   6.787   3.380   3.795
 1673SOL    HW2 5919   6.801   3.529   3.859
 1674SOL     OW 5920   1.101   4.101   0.250
 1674SOL    HW1 5921   1.069   4.171   0.314
 1674SOL    HW2 5922   1.131   4.021   0.301
 1675SOL     OW 5923   4.539   1.653   6.622
 1675SOL    HW1 5924   4.530   1.721   6.549
 1675SOL    HW2 5925   4.621   1.673   6.676
 1676SOL     OW 5926   1.665   0.635   2.885
 1676SOL    HW1 5927   1.730   0.701   2.922
 1676SOL    HW2 5928   1.648   0.563   2.953
 1677SOL     OW 5929   5.721   1.878   5.576
 1677SOL    HW1 5930   5.667   1.875   5.492
 1677SOL    HW2 5931   5.710   1.791   5.624
 1678SOL     OW 5932   5.216   6.742   2.046
 1678SOL    HW1 5933   5.222   6.649   2.082
 1678SOL    HW2 5934   5.220   6.740   1.946
 1679SOL     OW 5935   0.733   3.268   6.614
 1679SOL    HW1 5936   0.664   3.339   6.627
 1679SOL    HW2 5937   0.720   3.225   6.524
 1680SOL     OW 5938   0.592   1.649   3.977
 1680SOL    HW1 5939   0.631   1.570   3.931
 1680SOL    HW2 5940   0.590   1.727   3.913
 1681SOL     OW 5941   6.427   5.569   0.942
 1681SOL    HW1 5942   6.467   5.611   1.023
 1681SOL    HW2 5943   6.457   5.620   0.860
 1682SOL     OW 5944   6.433   3.110   5.389
 1682SOL    HW1 5945   6.407   3.198   5.429
 1682SOL    HW2 5946   6.437   3.118   5.290
 1683SOL     OW 5947   4.667   6.660   1.688
 1683SOL    HW1 5948   4.639   6.723   1.615
 1683SOL    HW2 5949   4.766   6.664   1.699
 1684SOL     OW 5950   0.196   6.511   5.413
 1684SOL    HW1 5951   0.239   6.472   5.332
 1684SOL    HW2 5952   0.111   6.557   5.387
 1685SOL     OW 5953   1.237   1.241   0.504
 1685SOL    HW1 5954   1.326   1.195   0.500
 1685SOL    HW2 5955   1.225   1.297   0.422
 1686SOL     OW 5956   1.377   6.512   6.258
 1686SOL    HW1 5957   1.475   6.526   6.274
 1686SOL    HW2 5958   1.341   6.586   6.201
 1687SOL     OW 5959   1.838   5.670   2.396
 1687SOL    HW1 5960   1.927   5.713   2.404
 1687SOL    HW2 5961   1.846   5.586   2.341
 1688SOL     OW 5962   1.649   1.893   2.855
 1688SOL    HW1 5963   1.612   1.801   2.865
 1688SOL    HW2 5964   1.746   1.893   2.877
 1689SOL     OW 5965   2.369   1.388   2.244
 1689SOL    HW1 5966   2.397   1.484   2.250
 1689SOL    HW2 5967   2.314   1.365   2.324
 1690SOL     OW 5968   1.732   1.583   1.562
 1690SOL    HW1 5969   1.725   1.645   1.640
 1690SOL    HW2 5970   1.828   1.559   1.546
 1691SOL     OW 5971   4.839   3.982   2.837
 1691SOL    HW1 5972   4.831   3.891   2.798
 1691SOL    HW2 5973   4.797   4.049   2.776
 1692SOL     OW 5974   0.837   0.401   2.170
 1692SOL    HW1 5975   0.743   0.380   2.143
 1692SOL    HW2 5976   0.896   0.400   2.089
 1693SOL     OW 5977   2.901   2.242   3.510
 1693SOL    HW1 5978   2.976   2.224   3.574
 1693SOL    HW2 5979   2.837   2.307   3.551
 1694SOL     OW 5980   4.588   5.893   5.004
 1694SOL    HW1 5981   4.503   5.868   5.051
 1694SOL    HW2 5982   4.654   5.818   5.011
 1695SOL     OW 5983   3.005   2.364   5.363
 1695SOL    HW1 5984   3.000   2.462   5.380
 1695SOL    HW2 5985   3.077   2.346   5.295
 1696SOL     OW 5986   5.122   5.843   0.543
 1696SOL    HW1 5987   5.152   5.768   0.602
 1696SOL    HW2 5988   5.123   5.813   0.448
 1697SOL     OW 5989   1.662   0.997   1.380
 1697SOL    HW1 5990   1.574   1.043   1.369
 1697SOL    HW2 5991   1.704   1.027   1.466
 1698SOL     OW 5992   4.500   2.186   1.274
 1698SOL    HW1 5993   4.588   2.200   1.320
 1698SOL    HW2 5994   4.426   2.192   1.341
 1699SOL     OW 5995   2.533   3.459   1.146
 1699SOL    HW1 5996   2.473   3.388   1.183
 1699SOL    HW2 5997   2.482   3.514   1.080
 1700SOL     OW 5998   0.057   2.904   3.043
 1700SOL    HW1 5999   0.146   2.879   3.081
 1700SOL    HW2 6000   7.006   2.856   3.093
 1701SOL     OW 6001   6.209   3.384   3.757
 1701SOL    HW1 6002   6.171   3.395   3.848
 1701SOL    HW2 6003   6.296   3.334   3.763
 1702SOL     OW 6004   5.465   3.947   1.095
 1702SOL    HW1 6005   5.426   4.036   1.119
 1702SOL    HW2 6006   5.547   3.930   1.151
 1703SOL     OW 6007   2.145   3.943   0.514
 1703SOL    HW1 6008   2.192   3.884   0.579
 1703SOL    HW2 6009   2.169   3.915   0.421
 1704SOL     OW 6010   0.316   0.103   1.613
 1704SOL    HW1 6011   0.407   0.143   1.621
 1704SOL    HW2 6012   0.265   0.119   1.698
 1705SOL     OW 6013   4.483   3.010   1.623
 1705SOL    HW1 6014   4.431   2.926   1.631
 1705SOL    HW2 6015   4.525   3.032   1.711
 1706SOL     OW 6016   3.291   0.412   0.930
 1706SOL    HW1 6017   3.364   0.454   0.875
 1706SOL    HW2 6018   3.202   0.439   0.893
 1707SOL     OW 6019   5.623   2.217   3.691
 1707SOL    HW1 6020   5.689   2.236   3.763
 1707SOL    HW2 6021   5.641   2.277   3.613
 1708SOL     OW 6022   6.699   5.540   3.347
 1708SOL    HW1 6023   6.715   5.511   3.442
 1708SOL    HW2 6024   6.743   5.476   3.285
 1709SOL     OW 6025   3.346   6.258   2.527
 1709SOL    HW1 6026   3.408   6.335   2.513
 1709SOL    HW2 6027   3.305   6.264   2.618
 1710SOL     OW 6028   0.349   5.199   4.381
 1710SOL    HW1 6029   0.328   5.111   4.337
 1710SOL    HW2 6030   0.433   5.236   4.342
 1711SOL     OW 6031   1.519   4.543   5.088
 1711SOL    HW1 6032   1.444   4.484   5.118
 1711SOL    HW2 6033   1.520   4.548   4.988
 1712SOL     OW 6034   0.062   4.412   0.499
 1712SOL    HW1 6035   7.017   4.358   0.448
 1712SOL    HW2 6036   0.029   4.429   0.592
 1713SOL     OW 6037   1.570   2.759   1.474
 1713SOL    HW1 6038   1.470   2.758   1.475
 1713SOL    HW2 6039   1.604   2.850   1.495
 1714SOL     OW 6040   3.475   2.291   0.558
 1714SOL    HW1 6041   3.517   2.353   0.625
 1714SOL    HW2 6042   3.424   2.344   0.491
 1715SOL     OW 6043   0.140   3.263   2.661
 1715SOL    HW1 6044   0.044   3.251   2.637
 1715SOL    HW2 6045   0.157   3.220   2.750
 1716SOL     OW 6046   0.271   6.176   7.021
 1716SOL    HW1 6047   0.236   6.085   7.002
 1716SOL    HW2 6048   0.358   6.189   6.974
 1717SOL     OW 6049   2.798   0.422   6.920
 1717SOL    HW1 6050   2.777   0.484   6.844
 1717SOL    HW2 6051   2.810   0.329   6.884
 1718SOL     OW 6052   1.646   4.700   0.147
 1718SOL    HW1 6053   1.552   4.668   0.145
 1718SOL    HW2 6054   1.678   4.717   0.053
 1719SOL     OW 6055   2.100   3.432   1.526
 1719SOL    HW1 6056   2.164   3.378   1.582
 1719SOL    HW2 6057   2.102   3.398   1.432
 1720SOL     OW 6058   6.559   1.495   0.133
 1720SOL    HW1 6059   6.523   1.571   0.080
 1720SOL    HW2 6060   6.542   1.409   0.084
 1721SOL     OW 6061   1.818   6.410   3.497
 1721SOL    HW1 6062   1.902   6.429   3.447
 1721SOL    HW2 6063   1.740   6.449   3.449
 1722SOL     OW 6064   6.165   7.015   1.996
 1722SOL    HW1 6065   6.257   0.024   2.019
 1722SOL    HW2 6066   6.168   6.919   1.968
 1723SOL     OW 6067   6.927   1.856   2.391
 1723SOL    HW1 6068   6.951   1.849   2.488
 1723SOL    HW2 6069   6.831   1.831   2.379
 1724SOL     OW 6070   4.433   1.171   6.916
 1724SOL    HW1 6071   4.507   1.125   6.867
 1724SOL    HW2 6072   4.403   1.113   6.992
 1725SOL     OW 6073   3.613   4.440   1.161
 1725SOL    HW1 6074   3.622   4.462   1.258
 1725SOL    HW2 6075   3.523   4.470   1.128
 1726SOL     OW 6076   0.330   4.257   4.257
 1726SOL    HW1 6077   0.381   4.178   4.289
 1726SOL    HW2 6078   0.263   4.285   4.326
 1727SOL     OW 6079   4.042   3.631   5.238
 1727SOL    HW1 6080   4.096   3.708   5.206
 1727SOL    HW2 6081   4.063   3.614   5.335
 1728SOL     OW 6082   4.389   4.613   3.785
 1728SOL    HW1 6083   4.300   4.578   3.814
 1728SOL    HW2 6084   4.403   4.705   3.823
 1729SOL     OW 6085   1.304   3.515   2.515
 1729SOL    HW1 6086   1.395   3.556   2.507
 1729SOL    HW2 6087   1.285   3.461   2.433
 1730SOL     OW 6088   6.625   2.539   4.897
 1730SOL    HW1 6089   6.546   2.509   4.843
 1730SOL    HW2 6090   6.593   2.584   4.981
 1731SOL     OW 6091   1.981   5.117   0.529
 1731SOL    HW1 6092   2.062   5.146   0.580
 1731SOL    HW2 6093   1.912   5.189   0.532
 1732SOL     OW 6094   1.265   4.370   7.002
 1732SOL    HW1 6095   1.258   4.273   6.981
 1732SOL    HW2 6096   1.192   4.420   6.955
 1733SOL     OW 6097   1.198   3.674   1.488
 1733SOL    HW1 6098   1.182   3.627   1.575
 1733SOL    HW2 6099   1.138   3.753   1.481
 1734SOL     OW 6100   3.906   2.760   1.128
 1734SOL    HW1 6101   3.827   2.710   1.093
 1734SOL    HW2 6102   3.905   2.854   1.093
 1735SOL     OW 6103   6.158   5.088   1.287
 1735SOL    HW1 6104   6.143   4.990   1.292
 1735SOL    HW2 6105   6.249   5.110   1.322
 1736SOL     OW 6106   3.612   2.904   6.889
 1736SOL    HW1 6107   3.522   2.900   6.845
 1736SOL    HW2 6108   3.660   2.818   6.873
 1737SOL     OW 6109   1.976   6.859   3.554
 1737SOL    HW1 6110   1.969   6.958   3.565
 1737SOL    HW2 6111   2.071   6.831   3.571
 1738SOL     OW 6112   2.112   2.933   2.387
 1738SOL    HW1 6113   2.118   3.029   2.413
 1738SOL    HW2 6114   2.141   2.876   2.463
 1739SOL     OW 6115   4.647   2.259   4.948
 1739SOL    HW1 6116   4.712   2.192   4.982
 1739SOL    HW2 6117   4.696   2.330   4.897
 1740SOL     OW 6118   0.055   0.719   6.179
 1740SOL    HW1 6119   0.154   0.735   6.184
 1740SOL    HW2 6120   0.013   0.792   6.126
 1741SOL     OW 6121   1.275   0.744   2.653
 1741SOL    HW1 6122   1.244   0.719   2.561
 1741SOL    HW2 6123   1.365   0.704   2.670
 1742SOL     OW 6124   6.081   0.482   4.690
 1742SOL    HW1 6125   6.070   0.416   4.764
 1742SOL    HW2 6126   6.050   0.441   4.604
 1743SOL     OW 6127   3.493   1.070   1.205
 1743SOL    HW1 6128   3.396   1.046   1.207
 1743SOL    HW2 6129   3.530   1.054   1.114
 1744SOL     OW 6130   2.691   0.941   1.738
 1744SOL    HW1 6131   2.667   0.903   1.827
 1744SOL    HW2 6132   2.633   0.899   1.667
 1745SOL     OW 6133   6.221   1.917   3.423
 1745SOL    HW1 6134   6.301   1.973   3.447
 1745SOL    HW2 6135   6.252   1.829   3.387
 1746SOL     OW 6136   2.915   0.642   5.980
 1746SOL    HW1 6137   2.991   0.703   6.005
 1746SOL    HW2 6138   2.829   0.683   6.010
 1747SOL     OW 6139   3.531   0.633   2.010
 1747SOL    HW1 6140   3.571   0.710   1.962
 1747SOL    HW2 6141   3.464   0.587   1.951
 1748SOL     OW 6142   5.924   1.844   3.712
 1748SOL    HW1 6143   5.857   1.892   3.656
 1748SOL    HW2 6144   5.984   1.790   3.653
 1749SOL     OW 6145   4.326   6.954   6.704
 1749SOL    HW1 6146   4.328   6.967   6.803
 1749SOL    HW2 6147   4.366   0.012   6.659
 1750SOL     OW 6148   4.933   1.637   2.721
 1750SOL    HW1 6149   4.872   1.712   2.747
 1750SOL    HW2 6150   4.898   1.591   2.639
 1751SOL     OW 6151   1.818   5.063   4.570
 1751SOL    HW1 6152   1.838   4.981   4.623
 1751SOL    HW2 6153   1.720   5.068   4.551
 1752SOL     OW 6154   6.642   1.550   1.015
 1752SOL    HW1 6155   6.660   1.453   0.998
 1752SOL    HW2 6156   6.608   1.594   0.932
 1753SOL     OW 6157   0.627   6.928   1.134
 1753SOL    HW1 6158   0.543   6.977   1.157
 1753SOL    HW2 6159   0.678   6.979   1.066
 1754SOL     OW 6160   3.764   3.226   0.979
 1754SOL    HW1 6161   3.725   3.282   1.051
 1754SOL    HW2 6162   3.813   3.148   1.019
 1755SOL     OW 6163   5.251   4.841   1.271
 1755SOL    HW1 6164   5.329   4.857   1.331
 1755SOL    HW2 6165   5.251   4.745   1.241
 1756SOL     OW 6166   6.384   5.302   3.975
 1756SOL    HW1 6167   6.397   5.206   3.951
 1756SOL    HW2 6168   6.296   5.313   4.023
 1757SOL     OW 6169   3.132   6.527   4.566
 1757SOL    HW1 6170   3.036   6.500   4.559
 1757SOL    HW2 6171   3.170   6.541   4.474
 1758SOL     OW 6172   2.549   0.525   3.218
 1758SOL    HW1 6173   2.580   0.615   3.189
 1758SOL    HW2 6174   2.571   0.457   3.148
 1759SOL     OW 6175   6.981   5.070   5.733
 1759SOL    HW1 6176   6.984   5.131   5.813
 1759SOL    HW2 6177   0.024   4.995   5.746
 1760SOL     OW 6178   6.207   1.105   1.605
 1760SOL    HW1 6179   6.213   1.011   1.571
 1760SOL    HW2 6180   6.240   1.108   1.700
 1761SOL     OW 6181   5.990   0.898   1.071
 1761SOL    HW1 6182   5.930   0.934   1.142
 1761SOL    HW2 6183   6.062   0.964   1.052
 1762SOL     OW 6184   6.141   1.842   6.213
 1762SOL    HW1 6185   6.077   1.913   6.242
 1762SOL    HW2 6186   6.232   1.882   6.200
 1763SOL     OW 6187   1.611   3.585   4.463
 1763SOL    HW1 6188   1.530   3.614   4.412
 1763SOL    HW2 6189   1.667   3.665   4.485
 1764SOL     OW 6190   1.003   3.227   3.073
 1764SOL    HW1 6191   0.936   3.210   3.001
 1764SOL    HW2 6192   0.972   3.184   3.158
 1765SOL     OW 6193   2.361   2.231   6.931
 1765SOL    HW1 6194   2.312   2.169   6.871
 1765SOL    HW2 6195   2.377   2.187   7.020
 1766SOL     OW 6196   5.773   3.067   5.062
 1766SOL    HW1 6197   5.732   3.053   4.971
 1766SOL    HW2 6198   5.735   3.149   5.103
 1767SOL     OW 6199   5.206   3.834   2.136
 1767SOL    HW1 6200   5.288   3.891   2.138
 1767SOL    HW2 6201   5.213   3.764   2.207
 1768SOL     OW 6202   4.561   6.358   3.473
 1768SOL    HW1 6203   4.508   6.410   3.406
 1768SOL    HW2 6204   4.498   6.309   3.533
 1769SOL     OW 6205   3.547   1.719   3.146
 1769SOL    HW1 6206   3.614   1.698   3.075
 1769SOL    HW2 6207   3.592   1.721   3.235
 1770SOL     OW 6208   2.610   5.844   5.586
 1770SOL    HW1 6209   2.545   5.903   5.538
 1770SOL    HW2 6210   2.624   5.879   5.679
 1771SOL     OW 6211   3.136   6.282   0.288
 1771SOL    HW1 6212   3.188   6.210   0.243
 1771SOL    HW2 6213   3.194   6.363   0.298
 1772SOL     OW 6214   3.350   6.667   3.196
 1772SOL    HW1 6215   3.274   6.706   3.248
 1772SOL    HW2 6216   3.339   6.568   3.189
 1773SOL     OW 6217   1.816   5.329   6.277
 1773SOL    HW1 6218   1.849   5.413   6.318
 1773SOL    HW2 6219   1.777   5.348   6.187
 1774SOL     OW 6220   4.331   5.650   1.541
 1774SOL    HW1 6221   4.416   5.663   1.591
 1774SOL    HW2 6222   4.319   5.724   1.475
 1775SOL     OW 6223   1.063   3.979   2.112
 1775SOL    HW1 6224   1.149   4.028   2.132
 1775SOL    HW2 6225   1.073   3.931   2.025
 1776SOL     OW 6226   4.168   6.228   3.985
 1776SOL    HW1 6227   4.129   6.320   3.975
 1776SOL    HW2 6228   4.096   6.160   3.971
 1777SOL     OW 6229   4.078   6.010   0.199
 1777SOL    HW1 6230   4.138   5.991   0.122
 1777SOL    HW2 6231   3.983   5.987   0.174
 1778SOL     OW 6232   4.354   3.167   6.285
 1778SOL    HW1 6233   4.295   3.142   6.362
 1778SOL    HW2 6234   4.389   3.084   6.241
 1779SOL     OW 6235   3.465   0.909   5.388
 1779SOL    HW1 6236   3.544   0.947   5.434
 1779SOL    HW2 6237   3.480   0.909   5.289
 1780SOL     OW 6238   3.535   3.347   6.084
 1780SOL    HW1 6239   3.587   3.428   6.056
 1780SOL    HW2 6240   3.495   3.363   6.174
 1781SOL     OW 6241   4.027   6.036   3.124
 1781SOL    HW1 6242   4.052   6.003   3.215
 1781SOL    HW2 6243   4.101   6.016   3.059
 1782SOL     OW 6244   3.186   1.014   3.241
 1782SOL    HW1 6245   3.177   0.978   3.148
 1782SOL    HW2 6246   3.273   0.985   3.280
 1783SOL     OW 6247   2.418   5.011   6.176
 1783SOL    HW1 6248   2.336   4.967   6.139
 1783SOL    HW2 6249   2.497   4.987   6.120
 1784SOL     OW 6250   3.455   0.024   5.913
 1784SOL    HW1 6251   3.478   0.112   5.955
 1784SOL    HW2 6252   3.401   0.039   5.830
 1785SOL     OW 6253   6.080   3.750   2.419
 1785SOL    HW1 6254   6.051   3.844   2.402
 1785SOL    HW2 6255   5.999   3.690   2.417
 1786SOL     OW 6256   2.312   2.466   0.188
 1786SOL    HW1 6257   2.230   2.408   0.196
 1786SOL    HW2 6258   2.285   2.562   0.190
 1787SOL     OW 6259   3.475   1.201   5.364
 1787SOL    HW1 6260   3.482   1.266   5.289
 1787SOL    HW2 6261   3.404   1.134   5.344
 1788SOL     OW 6262   1.480   4.992   6.088
 1788SOL    HW1 6263   1.384   5.016   6.078
 1788SOL    HW2 6264   1.491   4.925   6.162
 1789SOL     OW 6265   5.640   2.226   0.902
 1789SOL    HW1 6266   5.606   2.293   0.835
 1789SOL    HW2 6267   5.619   2.259   0.994
 1790SOL     OW 6268   4.088   6.633   3.422
 1790SOL    HW1 6269   4.056   6.542   3.398
 1790SOL    HW2 6270   4.079   6.646   3.521
 1791SOL     OW 6271   6.902   7.015   2.394
 1791SOL    HW1 6272   6.899   6.920   2.425
 1791SOL    HW2 6273   6.821   0.042   2.426
 1792SOL     OW 6274   0.441   3.967   5.140
 1792SOL    HW1 6275   0.416   3.973   5.044
 1792SOL    HW2 6276   0.441   4.058   5.180
 1793SOL     OW 6277   6.764   0.723   3.634
 1793SOL    HW1 6278   6.698   0.698   3.706
 1793SOL    HW2 6279   6.813   0.805   3.661
 1794SOL     OW 6280   5.191   5.851   6.041
 1794SOL    HW1 6281   5.093   5.860   6.024
 1794SOL    HW2 6282   5.240   5.922   5.991
 1795SOL     OW 6283   0.293   2.699   0.644
 1795SOL    HW1 6284   0.249   2.640   0.577
 1795SOL    HW2 6285   0.228   2.721   0.717
 1796SOL     OW 6286   2.480   1.159   6.146
 1796SOL    HW1 6287   2.524   1.072   6.167
 1796SOL    HW2 6288   2.392   1.164   6.194
 1797SOL     OW 6289   0.787   0.160   0.545
 1797SOL    HW1 6290   0.794   0.212   0.630
 1797SOL    HW2 6291   0.741   0.073   0.562
 1798SOL     OW 6292   4.418   2.456   4.031
 1798SOL    HW1 6293   4.448   2.545   3.998
 1798SOL    HW2 6294   4.480   2.385   3.998
 1799SOL     OW 6295   0.177   2.634   4.600
 1799SOL    HW1 6296   0.112   2.676   4.663
 1799SOL    HW2 6297   0.263   2.616   4.649
 1800SOL     OW 6298   4.057   4.271   1.394
 1800SOL    HW1 6299   4.064   4.371   1.386
 1800SOL    HW2 6300   4.076   4.243   1.488
 1801SOL     OW 6301   6.941   0.805   2.243
 1801SOL    HW1 6302   0.009   0.790   2.286
 1801SOL    HW2 6303   6.948   0.786   2.145
 1802SOL     OW 6304   6.206   5.880   3.898
 1802SOL    HW1 6305   6.177   5.785   3.911
 1802SOL    HW2 6306   6.221   5.897   3.800
 1803SOL     OW 6307   0.373   5.164   6.914
 1803SOL    HW1 6308   0.430   5.083   6.901
 1803SOL    HW2 6309   0.308   5.148   6.989
 1804SOL     OW 6310   2.767   4.211   5.487
 1804SOL    HW1 6311   2.770   4.309   5.471
 1804SOL    HW2 6312   2.706   4.167   5.422
 1805SOL     OW 6313   5.126   3.628   6.508
 1805SOL    HW1 6314   5.074   3.698   6.556
 1805SOL    HW2 6315   5.091   3.537   6.534
 1806SOL     OW 6316   0.473   0.449   0.937
 1806SOL    HW1 6317   0.551   0.490   0.890
 1806SOL    HW2 6318   0.498   0.429   1.032
 1807SOL     OW 6319   6.193   1.977   4.549
 1807SOL    HW1 6320   6.273   1.925   4.521
 1807SOL    HW2 6321   6.123   1.972   4.478
 1808SOL     OW 6322   0.095   5.262   4.797
 1808SOL    HW1 6323   0.149   5.207   4.733
 1808SOL    HW2 6324   0.149   5.340   4.829
 1809SOL     OW 6325   2.736   1.835   5.922
 1809SOL    HW1 6326   2.798   1.756   5.923
 1809SOL    HW2 6327   2.645   1.806   5.892
 1810SOL     OW 6328   3.480   0.080   3.438
 1810SOL    HW1 6329   3.524   0.170   3.448
 1810SOL    HW2 6330   3.382   0.090   3.453
 1811SOL     OW 6331   5.925   6.072   3.434
 1811SOL    HW1 6332   6.024   6.068   3.423
 1811SOL    HW2 6333   5.882   6.089   3.346
 1812SOL     OW 6334   4.302   5.866   5.063
 1812SOL    HW1 6335   4.289   5.781   5.011
 1812SOL    HW2 6336   4.261   5.942   5.013
 1813SOL     OW 6337   5.510   3.947   0.524
 1813SOL    HW1 6338   5.543   3.857   0.494
 1813SOL    HW2 6339   5.515   3.953   0.623
 1814SOL     OW 6340   4.535   0.006   2.083
 1814SOL    HW1 6341   4.590   6.981   2.014
 1814SOL    HW2 6342   4.467   6.965   2.120
 1815SOL     OW 6343   0.198   1.558   2.888
 1815SOL    HW1 6344   0.286   1.604   2.883
 1815SOL    HW2 6345   0.202   1.487   2.958
 1816SOL     OW 6346   2.066   2.872   1.063
 1816SOL    HW1 6347   2.164   2.858   1.047
 1816SOL    HW2 6348   2.027   2.788   1.100
 1817SOL     OW 6349   1.888   6.639   2.668
 1817SOL    HW1 6350   1.978   6.639   2.625
 1817SOL    HW2 6351   1.894   6.688   2.755
 1818SOL     OW 6352   1.675   0.253   3.160
 1818SOL    HW1 6353   1.715   0.174   3.113
 1818SOL    HW2 6354   1.743   0.326   3.166
 1819SOL     OW 6355   1.325   4.063   1.297
 1819SOL    HW1 6356   1.400   4.127   1.318
 1819SOL    HW2 6357   1.270   4.100   1.223
 1820SOL     OW 6358   4.410   1.295   2.318
 1820SOL    HW1 6359   4.503   1.331   2.322
 1820SOL    HW2 6360   4.362   1.334   2.240
 1821SOL     OW 6361   1.706   1.427   2.752
 1821SOL    HW1 6362   1.626   1.367   2.752
 1821SOL    HW2 6363   1.677   1.520   2.776
 1822SOL     OW 6364   3.439   2.583   1.733
 1822SOL    HW1 6365   3.378   2.507   1.751
 1822SOL    HW2 6366   3.421   2.657   1.798
 1823SOL     OW 6367   4.035   6.393   2.499
 1823SOL    HW1 6368   4.110   6.378   2.564
 1823SOL    HW2 6369   4.063   6.458   2.430
 1824SOL     OW 6370   4.107   2.408   1.421
 1824SOL    HW1 6371   4.055   2.490   1.402
 1824SOL    HW2 6372   4.183   2.401   1.356
 1825SOL     OW 6373   1.160   0.673   1.184
 1825SOL    HW1 6374   1.172   0.697   1.281
 1825SOL    HW2 6375   1.166   0.756   1.129
 1826SOL     OW 6376   3.214   1.097   1.218
 1826SOL    HW1 6377   3.133   1.061   1.171
 1826SOL    HW2 6378   3.245   1.181   1.172
 1827SOL     OW 6379   6.998   5.683   1.645
 1827SOL    HW1 6380   6.898   5.680   1.643
 1827SOL    HW2 6381   0.007   5.743   1.718
 1828SOL     OW 6382   0.998   2.926   0.128
 1828SOL    HW1 6383   0.931   2.905   0.199
 1828SOL    HW2 6384   0.951   2.966   0.049
 1829SOL     OW 6385   4.978   6.126   2.836
 1829SOL    HW1 6386   4.893   6.170   2.864
 1829SOL    HW2 6387   5.054   6.191   2.846
 1830SOL     OW 6388   4.539   6.773   3.809
 1830SOL    HW1 6389   4.614   6.736   3.754
 1830SOL    HW2 6390   4.525   6.715   3.889
 1831SOL     OW 6391   5.786   6.340   2.326
 1831SOL    HW1 6392   5.795   6.248   2.364
 1831SOL    HW2 6393   5.692   6.357   2.298
 1832SOL     OW 6394   4.433   2.599   1.365
 1832SOL    HW1 6395   4.482   2.649   1.293
 1832SOL    HW2 6396   4.350   2.559   1.328
 1833SOL     OW 6397   4.946   0.738   4.694
 1833SOL    HW1 6398   4.940   0.639   4.700
 1833SOL    HW2 6399   4.996   0.763   4.611
 1834SOL     OW 6400   3.308   3.520   0.952
 1834SOL    HW1 6401   3.301   3.452   0.878
 1834SOL    HW2 6402   3.217   3.538   0.988
 1835SOL     OW 6403   1.871   5.267   1.055
 1835SOL    HW1 6404   1.848   5.171   1.040
 1835SOL    HW2 6405   1.958   5.273   1.105
 1836SOL     OW 6406   0.150   0.891   0.879
 1836SOL    HW1 6407   0.056   0.886   0.844
 1836SOL    HW2 6408   0.196   0.803   0.866
 1837SOL     OW 6409   1.024   2.143   4.227
 1837SOL    HW1 6410   1.115   2.174   4.254
 1837SOL    HW2 6411   0.961   2.221   4.227
 1838SOL     OW 6412   0.240   2.691   4.102
 1838SOL    HW1 6413   0.209   2.784   4.122
 1838SOL    HW2 6414   0.233   2.635   4.185
 1839SOL     OW 6415   6.504   3.282   4.705
 1839SOL    HW1 6416   6.507   3.238   4.616
 1839SOL    HW2 6417   6.416   3.264   4.749
 1840SOL     OW 6418   2.471   5.746   0.424
 1840SOL    HW1 6419   2.477   5.838   0.385
 1840SOL    HW2 6420   2.382   5.734   0.467
 1841SOL     OW 6421   2.107   3.449   4.045
 1841SOL    HW1 6422   2.123   3.542   4.011
 1841SOL    HW2 6423   2.055   3.452   4.129
 1842SOL     OW 6424   0.450   5.159   0.594
 1842SOL    HW1 6425   0.508   5.238   0.613
 1842SOL    HW2 6426   0.408   5.127   0.679
 1843SOL     OW 6427   2.257   1.617   5.739
 1843SOL    HW1 6428   2.247   1.692   5.674
 1843SOL    HW2 6429   2.197   1.542   5.712
 1844SOL     OW 6430   3.914   2.155   4.651
 1844SOL    HW1 6431   3.987   2.224   4.651
 1844SOL    HW2 6432   3.892   2.129   4.558
 1845SOL     OW 6433   3.686   0.320   6.776
 1845SOL    HW1 6434   3.619   0.384   6.814
 1845SOL    HW2 6435   3.657   0.293   6.684
 1846SOL     OW 6436   3.908   2.192   6.796
 1846SOL    HW1 6437   3.986   2.136   6.765
 1846SOL    HW2 6438   3.848   2.136   6.853
 1847SOL     OW 6439   0.733   0.004   0.844
 1847SOL    HW1 6440   0.710   0.101   0.842
 1847SOL    HW2 6441   0.832   7.014   0.836
 1848SOL     OW 6442   3.099   6.360   2.341
 1848SOL    HW1 6443   3.138   6.436   2.289
 1848SOL    HW2 6444   3.172   6.298   2.370
 1849SOL     OW 6445   3.740   1.278   0.247
 1849SOL    HW1 6446   3.824   1.241   0.207
 1849SOL    HW2 6447   3.673   1.204   0.257
 1850SOL     OW 6448   6.121   2.280   3.066
 1850SOL    HW1 6449   6.064   2.252   2.989
 1850SOL    HW2 6450   6.066   2.279   3.150
 1851SOL     OW 6451   0.527   1.446   2.379
 1851SOL    HW1 6452   0.437   1.469   2.415
 1851SOL    HW2 6453   0.518   1.375   2.309
 1852SOL     OW 6454   3.879   3.372   0.335
 1852SOL    HW1 6455   3.795   3.320   0.349
 1852SOL    HW2 6456   3.951   3.311   0.302
 1853SOL     OW 6457   0.814   4.092   1.256
 1853SOL    HW1 6458   0.822   4.033   1.175
 1853SOL    HW2 6459   0.789   4.037   1.335
 1854SOL     OW 6460   2.935   5.723   4.615
 1854SOL    HW1 6461   2.976   5.719   4.706
 1854SOL    HW2 6462   3.006   5.706   4.546
 1855SOL     OW 6463   5.000   5.534   0.539
 1855SOL    HW1 6464   4.949   5.522   0.624
 1855SOL    HW2 6465   4.944   5.504   0.462
 1856SOL     OW 6466   5.581   2.909   5.262
 1856SOL    HW1 6467   5.664   2.880   5.215
 1856SOL    HW2 6468   5.572   3.008   5.255
 1857SOL     OW 6469   3.737   0.772   4.716
 1857SOL    HW1 6470   3.786   0.790   4.801
 1857SOL    HW2 6471   3.790   0.808   4.639
 1858SOL     OW 6472   5.287   3.061   3.791
 1858SOL    HW1 6473   5.306   2.983   3.731
 1858SOL    HW2 6474   5.220   3.121   3.747
 1859SOL     OW 6475   4.410   2.007   3.823
 1859SOL    HW1 6476   4.485   2.071   3.807
 1859SOL    HW2 6477   4.345   2.046   3.889
 1860SOL     OW 6478   6.509   0.827   4.041
 1860SOL    HW1 6479   6.422   0.785   4.069
 1860SOL    HW2 6480   6.490   0.906   3.982
 1861SOL     OW 6481   4.922   6.471   2.832
 1861SOL    HW1 6482   4.951   6.567   2.837
 1861SOL    HW2 6483   4.906   6.445   2.737
 1862SOL     OW 6484   1.921   1.112   6.899
 1862SOL    HW1 6485   1.840   1.070   6.940
 1862SOL    HW2 6486   2.003   1.081   6.948
 1863SOL     OW 6487   2.741   2.725   1.374
 1863SOL    HW1 6488   2.709   2.794   1.309
 1863SOL    HW2 6489   2.830   2.751   1.410
 1864SOL     OW 6490   0.591   6.414   4.127
 1864SOL    HW1 6491   0.599   6.481   4.201
 1864SOL    HW2 6492   0.494   6.389   4.114
 1865SOL     OW 6493   3.801   1.681   5.646
 1865SOL    HW1 6494   3.705   1.707   5.661
 1865SOL    HW2 6495   3.815   1.660   5.549
 1866SOL     OW 6496   4.630   4.491   2.161
 1866SOL    HW1 6497   4.597   4.404   2.126
 1866SOL    HW2 6498   4.720   4.478   2.202
 1867SOL     OW 6499   0.301   4.300   6.833
 1867SOL    HW1 6500   0.367   4.275   6.904
 1867SOL    HW2 6501   0.325   4.390   6.796
 1868SOL     OW 6502   5.607   4.869   6.258
 1868SOL    HW1 6503   5.584   4.875   6.161
 1868SOL    HW2 6504   5.525   4.850   6.312
 1869SOL     OW 6505   6.407   1.167   5.242
 1869SOL    HW1 6506   6.469   1.245   5.230
 1869SOL    HW2 6507   6.313   1.199   5.240
 1870SOL     OW 6508   1.666   4.728   5.245
 1870SOL    HW1 6509   1.611   4.658   5.200
 1870SOL    HW2 6510   1.732   4.765   5.180
 1871SOL     OW 6511   2.301   0.439   0.395
 1871SOL    HW1 6512   2.399   0.420   0.399
 1871SOL    HW2 6513   2.249   0.353   0.403
 1872SOL     OW 6514   2.704   4.591   0.459
 1872SOL    HW1 6515   2.670   4.657   0.526
 1872SOL    HW2 6516   2.766   4.526   0.504
 1873SOL     OW 6517   3.956   1.359   5.769
 1873SOL    HW1 6518   4.049   1.345   5.734
 1873SOL    HW2 6519   3.951   1.450   5.810
 1874SOL     OW 6520   1.865   1.596   2.163
 1874SOL    HW1 6521   1.953   1.562   2.196
 1874SOL    HW2 6522   1.794   1.576   2.231
 1875SOL     OW 6523   0.337   6.787   6.142
 1875SOL    HW1 6524   0.306   6.825   6.229
 1875SOL    HW2 6525   0.380   6.859   6.088
 1876SOL     OW 6526   2.570   6.954   4.267
 1876SOL    HW1 6527   2.491   6.894   4.261
 1876SOL    HW2 6528   2.593   6.971   4.363
 1877SOL     OW 6529   1.015   0.560   4.058
 1877SOL    HW1 6530   0.917   0.541   4.069
 1877SOL    HW2 6531   1.055   0.578   4.148
 1878SOL     OW 6532   0.149   1.974   4.176
 1878SOL    HW1 6533   0.119   1.912   4.248
 1878SOL    HW2 6534   0.209   2.044   4.215
 1879SOL     OW 6535   1.262   3.492   4.999
 1879SOL    HW1 6536   1.200   3.481   5.076
 1879SOL    HW2 6537   1.317   3.408   4.988
 1880SOL     OW 6538   6.687   1.751   4.727
 1880SOL    HW1 6539   6.786   1.743   4.741
 1880SOL    HW2 6540   6.665   1.844   4.699
 1881SOL     OW 6541   6.654   1.884   0.670
 1881SOL    HW1 6542   6.673   1.982   0.671
 1881SOL    HW2 6543   6.712   1.839   0.603
 1882SOL     OW 6544   0.936   3.713   6.237
 1882SOL    HW1 6545   1.006   3.753   6.296
 1882SOL    HW2 6546   0.925   3.770   6.156
 1883SOL     OW 6547   6.541   2.088   2.388
 1883SOL    HW1 6548   6.600   2.116   2.312
 1883SOL    HW2 6549   6.590   2.024   2.447
 1884SOL     OW 6550   0.484   2.028   1.573
 1884SOL    HW1 6551   0.449   1.954   1.630
 1884SOL    HW2 6552   0.428   2.109   1.586
 1885SOL     OW 6553   1.776   1.569   5.649
 1885SOL    HW1 6554   1.793   1.588   5.552
 1885SOL    HW2 6555   1.752   1.473   5.661
 1886SOL     OW 6556   1.745   0.329   2.782
 1886SOL    HW1 6557   1.761   0.389   2.860
 1886SOL    HW2 6558   1.648   0.333   2.757
 1887SOL     OW 6559   1.327   6.022   5.984
 1887SOL    HW1 6560   1.296   6.045   6.076
 1887SOL    HW2 6561   1.344   5.923   5.979
 1888SOL     OW 6562   3.229   2.185   0.655
 1888SOL    HW1 6563   3.311   2.217   0.607
 1888SOL    HW2 6564   3.227   2.085   0.654
 1889SOL     OW 6565   1.027   3.457   3.470
 1889SOL    HW1 6566   1.029   3.441   3.568
 1889SOL    HW2 6567   0.953   3.520   3.447
 1890SOL     OW 6568   0.880   5.959   3.434
 1890SOL    HW1 6569   0.844   5.867   3.446
 1890SOL    HW2 6570   0.978   5.960   3.454
 1891SOL     OW 6571   3.909   3.217   2.089
 1891SOL    HW1 6572   4.008   3.227   2.078
 1891SOL    HW2 6573   3.885   3.229   2.185
 1892SOL     OW 6574   0.108   0.061   2.025
 1892SOL    HW1 6575   0.189   0.119   2.014
 1892SOL    HW2 6576   0.134   6.987   2.015
 1893SOL     OW 6577   3.682   3.253   3.015
 1893SOL    HW1 6578   3.608   3.321   3.021
 1893SOL    HW2 6579   3.757   3.280   3.074
 1894SOL     OW 6580   3.385   3.584   4.304
 1894SOL    HW1 6581   3.317   3.513   4.324
 1894SOL    HW2 6582   3.343   3.656   4.248
 1895SOL     OW 6583   4.509   0.445   0.699
 1895SOL    HW1 6584   4.599   0.443   0.742
 1895SOL    HW2 6585   4.505   0.522   0.635
 1896SOL     OW 6586   5.476   1.625   0.990
 1896SOL    HW1 6587   5.492   1.597   0.895
 1896SOL    HW2 6588   5.378   1.640   1.004
 1897SOL     OW 6589   2.131   4.646   3.022
 1897SOL    HW1 6590   2.220   4.682   2.994
 1897SOL    HW2 6591   2.121   4.552   2.989
 1898SOL     OW 6592   1.478   5.161   3.029
 1898SOL    HW1 6593   1.456   5.207   2.943
 1898SOL    HW2 6594   1.398   5.164   3.090
 1899SOL     OW 6595   0.032   0.117   1.705
 1899SOL    HW1 6596   7.007   0.201   1.676
 1899SOL    HW2 6597   7.004   0.076   1.782
 1900SOL     OW 6598   3.000   0.415   0.075
 1900SOL    HW1 6599   3.085   0.437   0.027
 1900SOL    HW2 6600   2.922   0.442   0.019
 1901SOL     OW 6601   2.762   3.535   1.273
 1901SOL    HW1 6602   2.828   3.492   1.212
 1901SOL    HW2 6603   2.677   3.553   1.224
 1902SOL     OW 6604   2.168   7.009   4.374
 1902SOL    HW1 6605   2.208   7.016   4.283
 1902SOL    HW2 6606   2.080   0.033   4.376
 1903SOL     OW 6607   0.662   2.580   3.902
 1903SOL    HW1 6608   0.648   2.500   3.843
 1903SOL    HW2 6609   0.679   2.550   3.996
 1904SOL     OW 6610   6.007   5.651   2.780
 1904SOL    HW1 6611   5.950   5.614   2.853
 1904SOL    HW2 6612   6.054   5.733   2.813
 1905SOL     OW 6613   0.715   0.868   3.795
 1905SOL    HW1 6614   0.659   0.866   3.878
 1905SOL    HW2 6615   0.742   0.775   3.771
 1906SOL     OW 6616   2.519   0.331   6.197
 1906SOL    HW1 6617   2.602   0.384   6.180
 1906SOL    HW2 6618   2.444   0.393   6.218
 1907SOL     OW 6619   5.638   2.957   7.000
 1907SOL    HW1 6620   5.549   2.937   0.021
 1907SOL    HW2 6621   5.653   2.894   6.924
 1908SOL     OW 6622   3.911   0.162   0.327
 1908SOL    HW1 6623   3.889   0.212   0.411
 1908SOL    HW2 6624   3.902   0.064   0.343
 1909SOL     OW 6625   0.114   3.958   4.925
 1909SOL    HW1 6626   0.055   4.026   4.969
 1909SOL    HW2 6627   0.095   3.868   4.963
 1910SOL     OW 6628   6.192   5.855   6.006
 1910SOL    HW1 6629   6.202   5.880   5.910
 1910SOL    HW2 6630   6.269   5.799   6.035
 1911SOL     OW 6631   0.035   4.976   4.213
 1911SOL    HW1 6632   0.028   4.962   4.114
 1911SOL    HW2 6633   0.131   4.987   4.239
 1912SOL     OW 6634   2.788   4.885   2.753
 1912SOL    HW1 6635   2.843   4.911   2.673
 1912SOL    HW2 6636   2.760   4.967   2.803
 1913SOL     OW 6637   2.557   5.037   4.969
 1913SOL    HW1 6638   2.560   5.111   5.035
 1913SOL    HW2 6639   2.584   4.951   5.013
 1914SOL     OW 6640   2.583   4.734   5.942
 1914SOL    HW1 6641   2.678   4.701   5.944
 1914SOL    HW2 6642   2.533   4.697   6.020
 1915SOL     OW 6643   5.049   2.649   6.238
 1915SOL    HW1 6644   5.028   2.551   6.241
 1915SOL    HW2 6645   5.143   2.664   6.270
 1916SOL     OW 6646   4.080   0.028   1.386
 1916SOL    HW1 6647   4.135   0.082   1.449
 1916SOL    HW2 6648   4.133   0.007   1.304
 1917SOL     OW 6649   2.501   4.262   1.240
 1917SOL    HW1 6650   2.453   4.185   1.198
 1917SOL    HW2 6651   2.495   4.255   1.340
 1918SOL     OW 6652   0.405   1.411   5.044
 1918SOL    HW1 6653   0.450   1.497   5.068
 1918SOL    HW2 6654   0.315   1.429   5.005
 1919SOL     OW 6655   1.266   2.467   1.613
 1919SOL    HW1 6656   1.217   2.380   1.600
 1919SOL    HW2 6657   1.350   2.466   1.560
 1920SOL     OW 6658   5.204   2.465   1.555
 1920SOL    HW1 6659   5.134   2.500   1.618
 1920SOL    HW2 6660   5.286   2.522   1.562
 1921SOL     OW 6661   1.542   2.750   6.959
 1921SOL    HW1 6662   1.491   2.836   6.950
 1921SOL    HW2 6663   1.613   2.747   6.889
 1922SOL     OW 6664   3.283   3.436   2.095
 1922SOL    HW1 6665   3.183   3.430   2.094
 1922SOL    HW2 6666   3.312   3.515   2.041
 1923SOL     OW 6667   4.622   0.517   5.657
 1923SOL    HW1 6668   4.655   0.453   5.588
 1923SOL    HW2 6669   4.662   0.607   5.640
 1924SOL     OW 6670   4.673   6.900   1.042
 1924SOL    HW1 6671   4.600   6.966   1.030
 1924SOL    HW2 6672   4.706   6.903   1.136
 1925SOL     OW 6673   1.130   4.425   0.635
 1925SOL    HW1 6674   1.173   4.503   0.589
 1925SOL    HW2 6675   1.050   4.458   0.687
 1926SOL     OW 6676   3.877   0.395   1.656
 1926SOL    HW1 6677   3.833   0.435   1.575
 1926SOL    HW2 6678   3.816   0.405   1.735
 1927SOL     OW 6679   2.065   4.964   1.653
 1927SOL    HW1 6680   2.124   4.951   1.573
 1927SOL    HW2 6681   2.109   5.027   1.716
 1928SOL     OW 6682   4.633   4.272   3.492
 1928SOL    HW1 6683   4.683   4.353   3.522
 1928SOL    HW2 6684   4.600   4.286   3.398
 1929SOL     OW 6685   3.313   0.572   2.862
 1929SOL    HW1 6686   3.236   0.557   2.800
 1929SOL    HW2 6687   3.332   0.670   2.867
 1930SOL     OW 6688   4.822   3.233   6.749
 1930SOL    HW1 6689   4.919   3.221   6.771
 1930SOL    HW2 6690   4.790   3.155   6.695
 1931SOL     OW 6691   0.976   1.095   5.586
 1931SOL    HW1 6692   1.028   1.009   5.586
 1931SOL    HW2 6693   0.930   1.106   5.498
 1932SOL     OW 6694   4.695   2.073   2.932
 1932SOL    HW1 6695   4.712   2.171   2.936
 1932SOL    HW2 6696   4.603   2.055   2.899
 1933SOL     OW 6697   0.684   1.470   0.726
 1933SOL    HW1 6698   0.741   1.448   0.647
 1933SOL    HW2 6699   0.741   1.514   0.796
 1934SOL     OW 6700   6.999   0.220   5.565
 1934SOL    HW1 6701   7.001   0.189   5.470
 1934SOL    HW2 6702   0.066   0.201   5.609
 1935SOL     OW 6703   6.167   4.674   3.732
 1935SOL    HW1 6704   6.139   4.739   3.802
 1935SOL    HW2 6705   6.155   4.714   3.641
 1936SOL     OW 6706   4.953   3.238   4.722
 1936SOL    HW1 6707   4.910   3.320   4.683
 1936SOL    HW2 6708   5.051   3.254   4.732
 1937SOL     OW 6709   5.233   4.712   6.734
 1937SOL    HW1 6710   5.203   4.783   6.670
 1937SOL    HW2 6711   5.277   4.755   6.813
 1938SOL     OW 6712   1.273   2.652   6.590
 1938SOL    HW1 6713   1.288   2.571   6.534
 1938SOL    HW2 6714   1.308   2.636   6.682
 1939SOL     OW 6715   1.158   6.512   4.874
 1939SOL    HW1 6716   1.137   6.607   4.851
 1939SOL    HW2 6717   1.076   6.469   4.913
 1940SOL     OW 6718   6.550   4.684   1.794
 1940SOL    HW1 6719   6.593   4.594   1.799
 1940SOL    HW2 6720   6.554   4.718   1.701
 1941SOL     OW 6721   0.888   3.080   4.114
 1941SOL    HW1 6722   0.931   3.023   4.184
 1941SOL    HW2 6723   0.839   3.022   4.049
 1942SOL     OW 6724   5.755   3.856   2.273
 1942SOL    HW1 6725   5.812   3.790   2.224
 1942SOL    HW2 6726   5.699   3.907   2.207
 1943SOL     OW 6727   0.991   1.275   2.253
 1943SOL    HW1 6728   1.000   1.222   2.169
 1943SOL    HW2 6729   0.973   1.371   2.230
 1944SOL     OW 6730   6.941   2.746   1.354
 1944SOL    HW1 6731   6.927   2.660   1.305
 1944SOL    HW2 6732   0.007   2.786   1.329
 1945SOL     OW 6733   4.446   7.008   1.446
 1945SOL    HW1 6734   4.364   0.025   1.487
 1945SOL    HW2 6735   4.522   0.050   1.458
 1946SOL     OW 6736   6.226   6.075   1.483
 1946SOL    HW1 6737   6.244   6.126   1.567
 1946SOL    HW2 6738   6.127   6.068   1.469
 1947SOL     OW 6739   5.581   4.546   3.280
 1947SOL    HW1 6740   5.490   4.520   3.249
 1947SOL    HW2 6741   5.595   4.644   3.267
 1948SOL     OW 6742   4.860   3.260   2.946
 1948SOL    HW1 6743   4.928   3.214   3.003
 1948SOL    HW2 6744   4.896   3.348   2.916
 1949SOL     OW 6745   3.603   5.087   6.585
 1949SOL    HW1 6746   3.590   4.991   6.608
 1949SOL    HW2 6747   3.550   5.109   6.503
 1950SOL     OW 6748   3.670   4.022   4.329
 1950SOL    HW1 6749   3.703   4.080   4.404
 1950SOL    HW2 6750   3.737   3.950   4.312
 1951SOL     OW 6751   6.703   4.503   5.563
 1951SOL    HW1 6752   6.737   4.476   5.473
 1951SOL    HW2 6753   6.767   4.567   5.605
 1952SOL     OW 6754   5.399   4.327   6.971
 1952SOL    HW1 6755   5.495   4.316   7.000
 1952SOL    HW2 6756   5.395   4.334   6.872
 1953SOL     OW 6757   0.624   1.635   6.465
 1953SOL    HW1 6758   0.634   1.587   6.378
 1953SOL    HW2 6759   0.592   1.571   6.535
 1954SOL     OW 6760   3.810   0.152   1.330
 1954SOL    HW1 6761   3.898   0.124   1.370
 1954SOL    HW2 6762   3.735   0.116   1.385
 1955SOL     OW 6763   0.747   1.321   2.018
 1955SOL    HW1 6764   0.823   1.327   2.083
 1955SOL    HW2 6765   0.730   1.412   1.979
 1956SOL     OW 6766   5.819   0.729   2.047
 1956SOL    HW1 6767   5.846   0.650   2.101
 1956SOL    HW2 6768   5.763   0.790   2.103
 1957SOL     OW 6769   5.625   2.231   4.159
 1957SOL    HW1 6770   5.549   2.188   4.111
 1957SOL    HW2 6771   5.626   2.200   4.254
 1958SOL     OW 6772   4.630   1.653   1.210
 1958SOL    HW1 6773   4.554   1.710   1.241
 1958SOL    HW2 6774   4.679   1.700   1.137
 1959SOL     OW 6775   0.463   0.015   4.341
 1959SOL    HW1 6776   0.486   7.012   4.436
 1959SOL    HW2 6777   0.459   6.953   4.286
 1960SOL     OW 6778   5.672   3.934   3.603
 1960SOL    HW1 6779   5.632   3.931   3.511
 1960SOL    HW2 6780   5.602   3.909   3.670
 1961SOL     OW 6781   6.817   3.905   4.745
 1961SOL    HW1 6782   6.747   3.919   4.675
 1961SOL    HW2 6783   6.867   3.990   4.759
 1962SOL     OW 6784   0.814   0.383   2.792
 1962SOL    HW1 6785   0.869   0.442   2.735
 1962SOL    HW2 6786   0.798   0.296   2.745
 1963SOL     OW 6787   0.502   1.984   2.285
 1963SOL    HW1 6788   0.472   2.035   2.365
 1963SOL    HW2 6789   0.454   2.017   2.204
 1964SOL     OW 6790   5.449   4.562   1.682
 1964SOL    HW1 6791   5.521   4.526   1.623
 1964SOL    HW2 6792   5.424   4.493   1.751
 1965SOL     OW 6793   0.591   4.539   3.904
 1965SOL    HW1 6794   0.689   4.559   3.909
 1965SOL    HW2 6795   0.558   4.561   3.812
 1966SOL     OW 6796   1.826   4.976   0.193
 1966SOL    HW1 6797   1.752   5.010   0.251
 1966SOL    HW2 6798   1.870   4.899   0.237
 1967SOL     OW 6799   5.502   3.127   3.379
 1967SOL    HW1 6800   5.578   3.119   3.444
 1967SOL    HW2 6801   5.522   3.200   3.313
 1968SOL     OW 6802   2.364   1.612   5.398
 1968SOL    HW1 6803   2.304   1.678   5.444
 1968SOL    HW2 6804   2.314   1.528   5.380
 1969SOL     OW 6805   3.131   6.374   0.647
 1969SOL    HW1 6806   3.197   6.299   0.647
 1969SOL    HW2 6807   3.116   6.404   0.741
 1970SOL     OW 6808   6.370   5.647   5.008
 1970SOL    HW1 6809   6.277   5.678   4.990
 1970SOL    HW2 6810   6.434   5.692   4.945
 1971SOL     OW 6811   1.101   6.508   5.438
 1971SOL    HW1 6812   1.034   6.452   5.390
 1971SOL    HW2 6813   1.154   6.450   5.501
 1972SOL     OW 6814   5.787   2.368   2.391
 1972SOL    HW1 6815   5.763   2.464   2.406
 1972SOL    HW2 6816   5.873   2.347   2.437
 1973SOL     OW 6817   1.841   4.538   0.298
 1973SOL    HW1 6818   1.812   4.602   0.227
 1973SOL    HW2 6819   1.882   4.589   0.374
 1974SOL     OW 6820   3.635   6.128   4.480
 1974SOL    HW1 6821   3.670   6.099   4.391
 1974SOL    HW2 6822   3.551   6.181   4.468
 1975SOL     OW 6823   1.328   2.820   3.003
 1975SOL    HW1 6824   1.314   2.721   3.003
 1975SOL    HW2 6825   1.368   2.847   2.915
 1976SOL     OW 6826   0.069   0.140   6.084
 1976SOL    HW1 6827   0.065   0.182   6.175
 1976SOL    HW2 6828   0.033   0.047   6.089
 1977SOL     OW 6829   1.725   4.494   5.804
 1977SOL    HW1 6830   1.813   4.449   5.820
 1977SOL    HW2 6831   1.702   4.488   5.707
 1978SOL     OW 6832   2.582   6.732   2.011
 1978SOL    HW1 6833   2.652   6.704   2.077
 1978SOL    HW2 6834   2.600   6.689   1.923
 1979SOL     OW 6835   6.849   5.087   6.734
 1979SOL    HW1 6836   6.878   5.073   6.829
 1979SOL    HW2 6837   6.916   5.046   6.672
 1980SOL     OW 6838   3.214   1.345   1.385
 1980SOL    HW1 6839   3.191   1.253   1.352
 1980SOL    HW2 6840   3.131   1.392   1.413
 1981SOL     OW 6841   4.401   2.221   3.133
 1981SOL    HW1 6842   4.366   2.269   3.214
 1981SOL    HW2 6843   4.495   2.193   3.150
 1982SOL     OW 6844   6.889   2.721   4.452
 1982SOL    HW1 6845   6.972   2.681   4.414
 1982SOL    HW2 6846   6.910   2.768   4.537
 1983SOL     OW 6847   0.395   0.109   1.138
 1983SOL    HW1 6848   0.407   0.074   1.232
 1983SOL    HW2 6849   0.306   0.153   1.130
 1984SOL     OW 6850   5.707   3.244   5.456
 1984SOL    HW1 6851   5.608   3.250   5.465
 1984SOL    HW2 6852   5.738   3.156   5.492
 1985SOL     OW 6853   6.299   3.954   1.891
 1985SOL    HW1 6854   6.222   3.897   1.864
 1985SOL    HW2 6855   6.342   3.915   1.973
 1986SOL     OW 6856   3.220   2.060   1.282
 1986SOL    HW1 6857   3.194   1.964   1.270
 1986SOL    HW2 6858   3.249   2.074   1.377
 1987SOL     OW 6859   2.287   0.334   2.576
 1987SOL    HW1 6860   2.238   0.284   2.505
 1987SOL    HW2 6861   2.220   0.380   2.636
 1988SOL     OW 6862   0.237   1.757   1.260
 1988SOL    HW1 6863   0.144   1.787   1.277
 1988SOL    HW2 6864   0.279   1.726   1.346
 1989SOL     OW 6865   3.158   4.930   4.838
 1989SOL    HW1 6866   3.145   5.029   4.834
 1989SOL    HW2 6867   3.154   4.901   4.934
 1990SOL     OW 6868   4.237   0.067   0.710
 1990SOL    HW1 6869   4.177   7.010   0.693
 1990SOL    HW2 6870   4.251   0.118   0.624
 1991SOL     OW 6871   3.081   5.303   0.216
 1991SOL    HW1 6872   3.178   5.308   0.190
 1991SOL    HW2 6873   3.037   5.391   0.198
 1992SOL     OW 6874   0.820   5.762   1.272
 1992SOL    HW1 6875   0.908   5.715   1.265
 1992SOL    HW2 6876   0.805   5.817   1.190
 1993SOL     OW 6877   2.152   3.355   4.397
 1993SOL    HW1 6878   2.152   3.453   4.412
 1993SOL    HW2 6879   2.246   3.322   4.392
 1994SOL     OW 6880   3.185   3.506   0.586
 1994SOL    HW1 6881   3.244   3.453   0.525
 1994SOL    HW2 6882   3.090   3.475   0.576
 1995SOL     OW 6883   5.590   2.510   4.845
 1995SOL    HW1 6884   5.498   2.485   4.816
 1995SOL    HW2 6885   5.657   2.469   4.783
 1996SOL     OW 6886   3.884   1.796   0.646
 1996SOL    HW1 6887   3.899   1.853   0.565
 1996SOL    HW2 6888   3.827   1.846   0.712
 1997SOL     OW 6889   4.069   0.881   3.593
 1997SOL    HW1 6890   4.140   0.933   3.544
 1997SOL    HW2 6891   4.095   0.872   3.689
 1998SOL     OW 6892   1.773   3.417   1.352
 1998SOL    HW1 6893   1.747   3.478   1.277
 1998SOL    HW2 6894   1.872   3.404   1.351
 1999SOL     OW 6895   1.367   6.598   5.086
 1999SOL    HW1 6896   1.347   6.512   5.133
 1999SOL    HW2 6897   1.296   6.616   5.018
 2000SOL     OW 6898   3.505   4.560   5.930
 2000SOL    HW1 6899   3.420   4.563   5.878
 2000SOL    HW2 6900   3.486   4.526   6.022
 2001SOL     OW 6901   2.416   1.579   6.464
 2001SOL    HW1 6902   2.404   1.675   6.490
 2001SOL    HW2 6903   2.494   1.572   6.401
 2002SOL     OW 6904   0.214   4.842   1.085
 2002SOL    HW1 6905   0.248   4.925   1.129
 2002SOL    HW2 6906   0.130   4.812   1.131
 2003SOL     OW 6907   6.840   5.477   2.300
 2003SOL    HW1 6908   6.889   5.563   2.312
 2003SOL    HW2 6909   6.744   5.489   2.327
 2004SOL     OW 6910   3.703   0.365   3.186
 2004SOL    HW1 6911   3.802   0.371   3.182
 2004SOL    HW2 6912   3.677   0.278   3.229
 2005SOL     OW 6913   1.492   6.156   1.185
 2005SOL    HW1 6914   1.398   6.125   1.166
 2005SOL    HW2 6915   1.543   6.081   1.227
 2006SOL     OW 6916   5.572   6.968   2.587
 2006SOL    HW1 6917   5.481   6.960   2.629
 2006SOL    HW2 6918   5.617   6.879   2.590
 2007SOL     OW 6919   5.854   4.837   0.431
 2007SOL    HW1 6920   5.855   4.869   0.526
 2007SOL    HW2 6921   5.775   4.875   0.383
 2008SOL     OW 6922   2.106   3.623   3.651
 2008SOL    HW1 6923   2.103   3.532   3.692
 2008SOL    HW2 6924   2.049   3.624   3.569
 2009SOL     OW 6925   6.265   6.726   1.833
 2009SOL    HW1 6926   6.275   6.641   1.780
 2009SOL    HW2 6927   6.212   6.708   1.916
 2010SOL     OW 6928   1.443   1.918   1.568
 2010SOL    HW1 6929   1.346   1.895   1.556
 2010SOL    HW2 6930   1.495   1.885   1.489
 2011SOL     OW 6931   0.535   6.468   5.904
 2011SOL    HW1 6932   0.588   6.385   5.889
 2011SOL    HW2 6933   0.595   6.548   5.896
 2012SOL     OW 6934   1.461   3.164   2.136
 2012SOL    HW1 6935   1.439   3.098   2.064
 2012SOL    HW2 6936   1.436   3.126   2.225
 2013SOL     OW 6937   0.119   3.139   2.904
 2013SOL    HW1 6938   0.054   3.209   2.930
 2013SOL    HW2 6939   0.087   3.050   2.936
 2014SOL     OW 6940   3.262   0.767   4.195
 2014SOL    HW1 6941   3.167   0.740   4.212
 2014SOL    HW2 6942   3.284   0.750   4.099
 2015SOL     OW 6943   4.488   1.131   1.285
 2015SOL    HW1 6944   4.564   1.073   1.256
 2015SOL    HW2 6945   4.524   1.212   1.331
 2016SOL     OW 6946   1.840   0.285   5.545
 2016SOL    HW1 6947   1.797   0.317   5.630
 2016SOL    HW2 6948   1.844   0.361   5.480
 2017SOL     OW 6949   3.465   6.473   2.785
 2017SOL    HW1 6950   3.497   6.488   2.691
 2017SOL    HW2 6951   3.389   6.535   2.804
 2018SOL     OW 6952   0.913   1.028   3.415
 2018SOL    HW1 6953   0.890   1.089   3.491
 2018SOL    HW2 6954   0.829   0.987   3.379
 2019SOL     OW 6955   6.001   5.137   6.594
 2019SOL    HW1 6956   6.017   5.054   6.647
 2019SOL    HW2 6957   5.924   5.122   6.532
 2020SOL     OW 6958   2.369   6.062   6.166
 2020SOL    HW1 6959   2.369   6.102   6.258
 2020SOL    HW2 6960   2.370   6.136   6.098
 2021SOL     OW 6961   6.710   5.666   3.985
 2021SOL    HW1 6962   6.731   5.757   4.021
 2021SOL    HW2 6963   6.624   5.670   3.933
 2022SOL     OW 6964   2.170   3.828   5.134
 2022SOL    HW1 6965   2.240   3.899   5.145
 2022SOL    HW2 6966   2.101   3.838   5.205
 2023SOL     OW 6967   0.297   6.879   0.107
 2023SOL    HW1 6968   0.305   6.875   0.007
 2023SOL    HW2 6969   0.385   6.908   0.145
 2024SOL     OW 6970   0.603   5.847   4.498
 2024SOL    HW1 6971   0.621   5.921   4.434
 2024SOL    HW2 6972   0.534   5.786   4.459
 2025SOL     OW 6973   2.181   0.427   4.762
 2025SOL    HW1 6974   2.262   0.414   4.820
 2025SOL    HW2 6975   2.103   0.380   4.802
 2026SOL     OW 6976   6.289   0.799   5.904
 2026SOL    HW1 6977   6.273   0.703   5.929
 2026SOL    HW2 6978   6.243   0.819   5.818
 2027SOL     OW 6979   0.437   6.289   2.883
 2027SOL    HW1 6980   0.486   6.212   2.923
 2027SOL    HW2 6981   0.436   6.365   2.947
 2028SOL     OW 6982   4.083   5.281   3.841
 2028SOL    HW1 6983   4.053   5.189   3.813
 2028SOL    HW2 6984   4.048   5.349   3.778
 2029SOL     OW 6985   5.708   2.535   6.325
 2029SOL    HW1 6986   5.724   2.620   6.374
 2029SOL    HW2 6987   5.640   2.550   6.253
 2030SOL     OW 6988   2.698   6.276   2.954
 2030SOL    HW1 6989   2.642   6.356   2.976
 2030SOL    HW2 6990   2.771   6.302   2.891
 2031SOL     OW 6991   6.894   5.567   3.815
 2031SOL    HW1 6992   6.974   5.522   3.856
 2031SOL    HW2 6993   6.835   5.602   3.888
 2032SOL     OW 6994   2.917   2.108   5.449
 2032SOL    HW1 6995   2.913   2.208   5.438
 2032SOL    HW2 6996   2.854   2.066   5.383
 2033SOL     OW 6997   1.783   2.151   0.518
 2033SOL    HW1 6998   1.724   2.194   0.449
 2033SOL    HW2 6999   1.837   2.079   0.475
 2034SOL     OW 7000   6.895   4.665   5.656
 2034SOL    HW1 7001   6.964   4.715   5.605
 2034SOL    HW2 7002   6.869   4.718   5.737
 2035SOL     OW 7003   5.646   0.462   2.243
 2035SOL    HW1 7004   5.661   0.411   2.327
 2035SOL    HW2 7005   5.734   0.489   2.203
 2036SOL     OW 7006   1.398   4.284   1.500
 2036SOL    HW1 7007   1.343   4.219   1.554
 2036SOL    HW2 7008   1.492   4.281   1.532
 2037SOL     OW 7009   0.148   3.321   6.865
 2037SOL    HW1 7010   0.224   3.267   6.828
 2037SOL    HW2 7011   0.138   3.405   6.812
 2038SOL     OW 7012   1.791   1.585   6.893
 2038SOL    HW1 7013   1.854   1.507   6.891
 2038SOL    HW2 7014   1.710   1.561   6.948
 2039SOL     OW 7015   6.573   5.938   2.555
 2039SOL    HW1 7016   6.485   5.973   2.585
 2039SOL    HW2 7017   6.617   6.006   2.496
 2040SOL     OW 7018   1.953   2.827   0.244
 2040SOL    HW1 7019   1.930   2.729   0.240
 2040SOL    HW2 7020   1.875   2.880   0.213
 2041SOL     OW 7021   2.030   0.305   6.271
 2041SOL    HW1 7022   1.948   0.308   6.329
 2041SOL    HW2 7023   2.037   0.391   6.220
 2042SOL     OW 7024   5.245   1.450   5.448
 2042SOL    HW1 7025   5.336   1.491   5.455
 2042SOL    HW2 7026   5.235   1.406   5.359
 2043SOL     OW 7027   6.575   4.123   0.993
 2043SOL    HW1 7028   6.613   4.076   0.913
 2043SOL    HW2 7029   6.603   4.075   1.076
 2044SOL     OW 7030   4.406   0.630   0.489
 2044SOL    HW1 7031   4.358   0.544   0.477
 2044SOL    HW2 7032   4.393   0.687   0.408
 2045SOL     OW 7033   1.998   6.511   6.520
 2045SOL    HW1 7034   2.012   6.573   6.597
 2045SOL    HW2 7035   1.922   6.449   6.540
 2046SOL     OW 7036   0.875   2.400   5.150
 2046SOL    HW1 7037   0.850   2.308   5.120
 2046SOL    HW2 7038   0.964   2.424   5.110
 2047SOL     OW 7039   6.819   0.430   0.633
 2047SOL    HW1 7040   6.730   0.476   0.638
 2047SOL    HW2 7041   6.883   0.487   0.581
 2048SOL     OW 7042   0.887   2.003   4.486
 2048SOL    HW1 7043   0.845   1.958   4.407
 2048SOL    HW2 7044   0.846   1.967   4.570
 2049SOL     OW 7045   4.985   2.025   4.932
 2049SOL    HW1 7046   4.967   2.114   4.890
 2049SOL    HW2 7047   5.074   1.992   4.903
 2050SOL     OW 7048   0.812   1.139   3.913
 2050SOL    HW1 7049   0.808   1.055   3.859
 2050SOL    HW2 7050   0.744   1.134   3.986
 2051SOL     OW 7051   3.229   5.910   0.636
 2051SOL    HW1 7052   3.262   5.833   0.582
 2051SOL    HW2 7053   3.129   5.911   0.636
 2052SOL     OW 7054   1.729   4.046   6.376
 2052SOL    HW1 7055   1.738   4.109   6.299
 2052SOL    HW2 7056   1.730   4.098   6.462
 2053SOL     OW 7057   1.290   5.189   3.988
 2053SOL    HW1 7058   1.343   5.129   4.048
 2053SOL    HW2 7059   1.257   5.137   3.910
 2054SOL     OW 7060   3.444   3.353   3.776
 2054SOL    HW1 7061   3.530   3.324   3.734
 2054SOL    HW2 7062   3.463   3.401   3.862
 2055SOL     OW 7063   2.784   2.125   5.896
 2055SOL    HW1 7064   2.785   2.027   5.912
 2055SOL    HW2 7065   2.878   2.160   5.893
 2056SOL     OW 7066   3.968   4.786   1.098
 2056SOL    HW1 7067   4.023   4.838   1.033
 2056SOL    HW2 7068   3.875   4.778   1.064
 2057SOL     OW 7069   6.047   2.245   4.436
 2057SOL    HW1 7070   5.975   2.270   4.371
 2057SOL    HW2 7071   6.099   2.168   4.399
 2058SOL     OW 7072   0.353   5.653   2.948
 2058SOL    HW1 7073   0.358   5.751   2.967
 2058SOL    HW2 7074   0.266   5.632   2.903
 2059SOL     OW 7075   1.819   0.331   6.440
 2059SOL    HW1 7076   1.774   0.410   6.399
 2059SOL    HW2 7077   1.751   0.259   6.457
 2060SOL     OW 7078   1.189   3.402   6.717
 2060SOL    HW1 7079   1.138   3.325   6.679
 2060SOL    HW2 7080   1.241   3.371   6.797
 2061SOL     OW 7081   1.916   2.256   2.444
 2061SOL    HW1 7082   1.948   2.238   2.351
 2061SOL    HW2 7083   1.899   2.353   2.455
 2062SOL     OW 7084   6.920   4.978   4.676
 2062SOL    HW1 7085   6.903   5.072   4.645
 2062SOL    HW2 7086   6.879   4.965   4.766
 2063SOL     OW 7087   0.711   0.841   4.557
 2063SOL    HW1 7088   0.680   0.849   4.651
 2063SOL    HW2 7089   0.758   0.925   4.530
 2064SOL     OW 7090   0.811   3.092   3.612
 2064SOL    HW1 7091   0.829   3.014   3.670
 2064SOL    HW2 7092   0.712   3.104   3.600
 2065SOL     OW 7093   4.323   3.053   5.691
 2065SOL    HW1 7094   4.383   2.997   5.748
 2065SOL    HW2 7095   4.328   3.021   5.596
 2066SOL     OW 7096   6.581   3.569   5.022
 2066SOL    HW1 7097   6.503   3.559   5.085
 2066SOL    HW2 7098   6.621   3.480   5.004
 2067SOL     OW 7099   6.353   5.281   1.006
 2067SOL    HW1 7100   6.256   5.307   1.004
 2067SOL    HW2 7101   6.409   5.361   1.023
 2068SOL     OW 7102   3.700   0.519   4.870
 2068SOL    HW1 7103   3.727   0.547   4.962
 2068SOL    HW2 7104   3.726   0.589   4.804
 2069SOL     OW 7105   0.027   2.580   3.948
 2069SOL    HW1 7106   0.110   2.588   4.003
 2069SOL    HW2 7107   0.027   2.493   3.899
 2070SOL     OW 7108   0.857   4.643   0.842
 2070SOL    HW1 7109   0.892   4.557   0.877
 2070SOL    HW2 7110   0.888   4.655   0.747
 2071SOL     OW 7111   6.973   1.525   5.674
 2071SOL    HW1 7112   6.902   1.463   5.710
 2071SOL    HW2 7113   6.946   1.557   5.583
 2072SOL     OW 7114   4.182   4.140   5.731
 2072SOL    HW1 7115   4.100   4.122   5.676
 2072SOL    HW2 7116   4.255   4.173   5.671
 2073SOL     OW 7117   3.032   5.813   6.933
 2073SOL    HW1 7118   3.018   5.882   6.862
 2073SOL    HW2 7119   3.105   5.844   6.995
 2074SOL     OW 7120   0.931   4.031   5.564
 2074SOL    HW1 7121   0.917   3.935   5.589
 2074SOL    HW2 7122   0.904   4.090   5.640
 2075SOL     OW 7123   6.430   1.503   1.536
 2075SOL    HW1 7124   6.382   1.586   1.505
 2075SOL    HW2 7125   6.380   1.463   1.613
 2076SOL     OW 7126   5.744   6.909   4.642
 2076SOL    HW1 7127   5.815   6.925   4.711
 2076SOL    HW2 7128   5.697   6.995   4.621
 2077SOL     OW 7129   6.649   4.386   0.429
 2077SOL    HW1 7130   6.647   4.348   0.521
 2077SOL    HW2 7131   6.646   4.486   0.434
 2078SOL     OW 7132   0.566   3.049   5.954
 2078SOL    HW1 7133   0.605   3.006   6.035
 2078SOL    HW2 7134   0.553   3.146   5.970
 2079SOL     OW 7135   4.932   2.085   2.722
 2079SOL    HW1 7136   4.977   2.035   2.648
 2079SOL    HW2 7137   4.880   2.020   2.779
 2080SOL     OW 7138   2.432   3.099   5.853
 2080SOL    HW1 7139   2.524   3.098   5.891
 2080SOL    HW2 7140   2.397   3.005   5.847
 2081SOL     OW 7141   5.989   6.839   3.120
 2081SOL    HW1 7142   5.929   6.876   3.049
 2081SOL    HW2 7143   6.083   6.865   3.100
 2082SOL     OW 7144   6.777   6.021   3.573
 2082SOL    HW1 7145   6.710   6.038   3.645
 2082SOL    HW2 7146   6.869   6.043   3.607
 2083SOL     OW 7147   0.634   6.328   3.883
 2083SOL    HW1 7148   0.613   6.410   3.831
 2083SOL    HW2 7149   0.636   6.349   3.981
 2084SOL     OW 7150   6.673   1.887   1.706
 2084SOL    HW1 7151   6.613   1.814   1.675
 2084SOL    HW2 7152   6.668   1.894   1.806
 2085SOL     OW 7153   5.062   5.416   0.868
 2085SOL    HW1 7154   5.142   5.472   0.848
 2085SOL    HW2 7155   4.980   5.462   0.834
 2086SOL     OW 7156   4.499   0.477   6.819
 2086SOL    HW1 7157   4.583   0.525   6.841
 2086SOL    HW2 7158   4.422   0.523   6.863
 2087SOL     OW 7159   4.239   2.285   6.519
 2087SOL    HW1 7160   4.287   2.362   6.478
 2087SOL    HW2 7161   4.260   2.201   6.468
 2088SOL     OW 7162   0.737   5.631   5.695
 2088SOL    HW1 7163   0.815   5.604   5.639
 2088SOL    HW2 7164   0.684   5.701   5.647
 2089SOL     OW 7165   2.974   3.712   6.977
 2089SOL    HW1 7166   2.978   3.775   0.033
 2089SOL    HW2 7167   2.883   3.670   6.973
 2090SOL     OW 7168   4.656   3.038   5.268
 2090SOL    HW1 7169   4.677   3.135   5.285
 2090SOL    HW2 7170   4.585   3.008   5.332
 2091SOL     OW 7171   5.446   5.866   1.893
 2091SOL    HW1 7172   5.443   5.881   1.991
 2091SOL    HW2 7173   5.512   5.928   1.851
 2092SOL     OW 7174   4.693   3.640   1.712
 2092SOL    HW1 7175   4.623   3.694   1.665
 2092SOL    HW2 7176   4.709   3.555   1.660
 2093SOL     OW 7177   3.747   1.063   2.677
 2093SOL    HW1 7178   3.672   1.129   2.667
 2093SOL    HW2 7179   3.832   1.112   2.695
 2094SOL     OW 7180   5.293   2.041   6.550
 2094SOL    HW1 7181   5.304   1.986   6.467
 2094SOL    HW2 7182   5.360   2.011   6.618
 2095SOL     OW 7183   5.177   0.220   3.012
 2095SOL    HW1 7184   5.182   0.278   3.093
 2095SOL    HW2 7185   5.087   0.227   2.970
 2096SOL     OW 7186   4.900   6.823   2.288
 2096SOL    HW1 7187   4.835   6.884   2.333
 2096SOL    HW2 7188   4.925   6.860   2.199
 2097SOL     OW 7189   0.647   5.529   6.263
 2097SOL    HW1 7190   0.584   5.460   6.228
 2097SOL    HW2 7191   0.626   5.548   6.359
 2098SOL     OW 7192   3.026   5.962   3.461
 2098SOL    HW1 7193   3.026   5.871   3.419
 2098SOL    HW2 7194   3.035   6.031   3.389
 2099SOL     OW 7195   4.522   1.154   6.548
 2099SOL    HW1 7196   4.597   1.163   6.614
 2099SOL    HW2 7197   4.445   1.209   6.578
 2100SOL     OW 7198   5.399   0.206   1.244
 2100SOL    HW1 7199   5.466   0.246   1.308
 2100SOL    HW2 7200   5.362   0.122   1.283
 2101SOL     OW 7201   6.978   6.492   1.895
 2101SOL    HW1 7202   0.027   6.432   1.855
 2101SOL    HW2 7203   6.984   6.583   1.852
 2102SOL     OW 7204   3.693   2.886   0.505
 2102SOL    HW1 7205   3.755   2.958   0.536
 2102SOL    HW2 7206   3.625   2.868   0.577
 2103SOL     OW 7207   2.922   5.595   0.483
 2103SOL    HW1 7208   2.949   5.669   0.544
 2103SOL    HW2 7209   2.908   5.631   0.391
 2104SOL     OW 7210   1.312   4.430   3.333
 2104SOL    HW1 7211   1.410   4.416   3.315
 2104SOL    HW2 7212   1.295   4.420   3.431
 2105SOL     OW 7213   6.494   4.362   5.655
 2105SOL    HW1 7214   6.536   4.277   5.687
 2105SOL    HW2 7215   6.565   4.428   5.630
 2106SOL     OW 7216   4.526   3.787   1.564
 2106SOL    HW1 7217   4.445   3.744   1.604
 2106SOL    HW2 7218   4.499   3.868   1.512
 2107SOL     OW 7219   4.839   4.529   5.696
 2107SOL    HW1 7220   4.815   4.554   5.790
 2107SOL    HW2 7221   4.853   4.613   5.643
 2108SOL     OW 7222   5.803   0.001   5.575
 2108SOL    HW1 7223   5.761   0.024   5.663
 2108SOL    HW2 7224   5.732   6.994   5.510
 2109SOL     OW 7225   2.950   6.446   3.447
 2109SOL    HW1 7226   2.982   6.365   3.497
 2109SOL    HW2 7227   2.898   6.418   3.367
 2110SOL     OW 7228   3.896   0.447   6.934
 2110SOL    HW1 7229   3.815   0.443   6.874
 2110SOL    HW2 7230   3.912   0.357   6.974
 2111SOL     OW 7231   1.188   2.463   5.706
 2111SOL    HW1 7232   1.201   2.524   5.628
 2111SOL    HW2 7233   1.273   2.456   5.758
 2112SOL     OW 7234   0.447   0.676   6.717
 2112SOL    HW1 7235   0.452   0.576   6.709
 2112SOL    HW2 7236   0.406   0.700   6.805
 2113SOL     OW 7237   0.944   0.573   4.697
 2113SOL    HW1 7238   0.882   0.621   4.760
 2113SOL    HW2 7239   0.892   0.504   4.646
 2114SOL     OW 7240   1.429   1.700   5.905
 2114SOL    HW1 7241   1.409   1.788   5.949
 2114SOL    HW2 7242   1.522   1.671   5.929
 2115SOL     OW 7243   0.037   5.691   3.123
 2115SOL    HW1 7244   0.076   5.649   3.204
 2115SOL    HW2 7245   6.980   5.748   3.150
 2116SOL     OW 7246   0.996   2.007   0.214
 2116SOL    HW1 7247   1.069   2.051   0.266
 2116SOL    HW2 7248   0.941   2.077   0.167
 2117SOL     OW 7249   5.838   1.580   2.623
 2117SOL    HW1 7250   5.798   1.652   2.680
 2117SOL    HW2 7251   5.805   1.491   2.654
 2118SOL     OW 7252   6.035   2.723   2.178
 2118SOL    HW1 7253   6.118   2.683   2.215
 2118SOL    HW2 7254   5.966   2.652   2.165
 2119SOL     OW 7255   2.664   1.260   6.974
 2119SOL    HW1 7256   2.715   1.185   6.931
 2119SOL    HW2 7257   2.575   1.226   7.006
 2120SOL     OW 7258   5.415   1.278   0.666
 2120SOL    HW1 7259   5.395   1.226   0.583
 2120SOL    HW2 7260   5.331   1.286   0.721
 2121SOL     OW 7261   1.058   0.596   6.906
 2121SOL    HW1 7262   1.016   0.547   6.830
 2121SOL    HW2 7263   1.064   0.536   6.986
 2122SOL     OW 7264   6.040   0.892   4.303
 2122SOL    HW1 7265   6.040   0.904   4.204
 2122SOL    HW2 7266   6.055   0.981   4.347
 2123SOL     OW 7267   1.457   6.013   2.791
 2123SOL    HW1 7268   1.538   5.963   2.822
 2123SOL    HW2 7269   1.484   6.080   2.722
 2124SOL     OW 7270   3.944   3.633   5.969
 2124SOL    HW1 7271   3.940   3.534   5.955
 2124SOL    HW2 7272   4.025   3.669   5.924
 2125SOL     OW 7273   1.662   5.476   3.960
 2125SOL    HW1 7274   1.617   5.415   4.025
 2125SOL    HW2 7275   1.625   5.568   3.970
 2126SOL     OW 7276   3.045   4.810   0.109
 2126SOL    HW1 7277   3.125   4.765   0.071
 2126SOL    HW2 7278   2.964   4.786   0.055
 2127SOL     OW 7279   0.451   2.247   3.940
 2127SOL    HW1 7280   0.523   2.222   4.005
 2127SOL    HW2 7281   0.377   2.293   3.988
 2128SOL     OW 7282   5.218   2.758   1.717
 2128SOL    HW1 7283   5.272   2.727   1.638
 2128SOL    HW2 7284   5.136   2.702   1.725
 2129SOL     OW 7285   4.964   4.772   3.983
 2129SOL    HW1 7286   4.977   4.829   3.901
 2129SOL    HW2 7287   4.940   4.679   3.955
 2130SOL     OW 7288   2.508   0.270   2.753
 2130SOL    HW1 7289   2.438   0.307   2.693
 2130SOL    HW2 7290   2.476   0.185   2.794
 2131SOL     OW 7291   5.358   1.041   4.926
 2131SOL    HW1 7292   5.330   0.994   4.842
 2131SOL    HW2 7293   5.428   0.986   4.972
 2132SOL     OW 7294   3.112   2.751   0.394
 2132SOL    HW1 7295   3.109   2.851   0.393
 2132SOL    HW2 7296   3.172   2.720   0.467
 2133SOL     OW 7297   2.968   2.152   2.261
 2133SOL    HW1 7298   2.953   2.233   2.205
 2133SOL    HW2 7299   3.066   2.142   2.281
 2134SOL     OW 7300   1.594   6.674   4.540
 2134SOL    HW1 7301   1.524   6.700   4.607
 2134SOL    HW2 7302   1.624   6.580   4.559
 2135SOL     OW 7303   1.511   1.172   4.121
 2135SOL    HW1 7304   1.433   1.171   4.183
 2135SOL    HW2 7305   1.493   1.114   4.043
 2136SOL     OW 7306   0.320   4.364   3.322
 2136SOL    HW1 7307   0.378   4.387   3.244
 2136SOL    HW2 7308   0.224   4.359   3.292
 2137SOL     OW 7309   0.976   0.582   5.169
 2137SOL    HW1 7310   0.958   0.491   5.133
 2137SOL    HW2 7311   0.891   0.635   5.168
 2138SOL     OW 7312   1.189   2.445   0.070
 2138SOL    HW1 7313   1.237   2.520   0.115
 2138SOL    HW2 7314   1.205   2.359   0.119
 2139SOL     OW 7315   2.596   0.993   5.631
 2139SOL    HW1 7316   2.630   0.945   5.550
 2139SOL    HW2 7317   2.522   1.054   5.605
 2140SOL     OW 7318   2.184   5.744   3.060
 2140SOL    HW1 7319   2.199   5.799   2.979
 2140SOL    HW2 7320   2.103   5.777   3.109
 2141SOL     OW 7321   5.423   1.851   0.423
 2141SOL    HW1 7322   5.381   1.932   0.465
 2141SOL    HW2 7323   5.520   1.847   0.448
 2142SOL     OW 7324   2.516   1.783   3.227
 2142SOL    HW1 7325   2.525   1.876   3.262
 2142SOL    HW2 7326   2.502   1.786   3.129
 2143SOL     OW 7327   3.511   6.993   0.434
 2143SOL    HW1 7328   3.427   6.948   0.405
 2143SOL    HW2 7329   3.500   0.071   0.429
 2144SOL     OW 7330   6.678   0.909   3.223
 2144SOL    HW1 7331   6.711   0.845   3.155
 2144SOL    HW2 7332   6.677   1.002   3.185
 2145SOL     OW 7333   3.751   5.700   3.033
 2145SOL    HW1 7334   3.777   5.796   3.026
 2145SOL    HW2 7335   3.810   5.645   2.974
 2146SOL     OW 7336   3.571   2.916   1.972
 2146SOL    HW1 7337   3.579   2.899   1.873
 2146SOL    HW2 7338   3.652   2.881   2.018
 2147SOL     OW 7339   1.155   0.877   5.564
 2147SOL    HW1 7340   1.172   0.953   5.502
 2147SOL    HW2 7341   1.227   0.874   5.634
 2148SOL     OW 7342   5.180   2.934   3.074
 2148SOL    HW1 7343   5.209   2.958   3.166
 2148SOL    HW2 7344   5.230   2.853   3.043
 2149SOL     OW 7345   3.531   0.624   3.135
 2149SOL    HW1 7346   3.555   0.531   3.161
 2149SOL    HW2 7347   3.538   0.635   3.036
 2150SOL     OW 7348   3.646   2.068   2.901
 2150SOL    HW1 7349   3.715   2.037   2.967
 2150SOL    HW2 7350   3.581   1.994   2.884
 2151SOL     OW 7351   3.760   2.969   5.706
 2151SOL    HW1 7352   3.753   3.052   5.761
 2151SOL    HW2 7353   3.691   2.903   5.737
 2152SOL     OW 7354   6.724   5.620   1.685
 2152SOL    HW1 7355   6.650   5.686   1.677
 2152SOL    HW2 7356   6.693   5.530   1.654
 2153SOL     OW 7357   5.025   2.468   3.214
 2153SOL    HW1 7358   5.122   2.457   3.233
 2153SOL    HW2 7359   4.990   2.386   3.169
 2154SOL     OW 7360   4.174   6.641   5.091
 2154SOL    HW1 7361   4.188   6.602   5.182
 2154SOL    HW2 7362   4.103   6.711   5.095
 2155SOL     OW 7363   0.215   3.974   0.249
 2155SOL    HW1 7364   0.198   3.986   0.347
 2155SOL    HW2 7365   0.148   4.027   0.197
 2156SOL     OW 7366   1.259   0.777   1.422
 2156SOL    HW1 7367   1.357   0.754   1.428
 2156SOL    HW2 7368   1.249   0.871   1.390
 2157SOL     OW 7369   0.790   1.450   4.902
 2157SOL    HW1 7370   0.813   1.420   4.809
 2157SOL    HW2 7371   0.874   1.464   4.954
 2158SOL     OW 7372   4.094   6.121   1.846
 2158SOL    HW1 7373   4.063   6.126   1.940
 2158SOL    HW2 7374   4.140   6.033   1.830
 2159SOL     OW 7375   2.134   6.163   4.538
 2159SOL    HW1 7376   2.193   6.114   4.474
 2159SOL    HW2 7377   2.074   6.099   4.585
 2160SOL     OW 7378   3.050   3.808   0.970
 2160SOL    HW1 7379   3.084   3.889   1.017
 2160SOL    HW2 7380   3.036   3.828   0.873
 2161SOL     OW 7381   5.451   2.643   3.339
 2161SOL    HW1 7382   5.527   2.667   3.400
 2161SOL    HW2 7383   5.436   2.544   3.341
 2162SOL     OW 7384   0.896   1.366   6.960
 2162SOL    HW1 7385   0.852   1.390   0.025
 2162SOL    HW2 7386   0.987   1.407   6.955
 2163SOL     OW 7387   1.780   2.166   0.797
 2163SOL    HW1 7388   1.777   2.266   0.802
 2163SOL    HW2 7389   1.785   2.138   0.701
 2164SOL     OW 7390   1.227   0.076   1.259
 2164SOL    HW1 7391   1.316   0.111   1.231
 2164SOL    HW2 7392   1.171   0.151   1.295
 2165SOL     OW 7393   2.759   6.290   1.575
 2165SOL    HW1 7394   2.685   6.276   1.640
 2165SOL    HW2 7395   2.723   6.287   1.482
 2166SOL     OW 7396   6.973   2.025   6.356
 2166SOL    HW1 7397   6.958   2.089   6.431
 2166SOL    HW2 7398   0.049   2.011   6.343
 2167SOL     OW 7399   2.826   0.336   2.379
 2167SOL    HW1 7400   2.802   0.308   2.473
 2167SOL    HW2 7401   2.750   0.315   2.318
 2168SOL     OW 7402   6.056   5.421   4.452
 2168SOL    HW1 7403   6.108   5.505   4.466
 2168SOL    HW2 7404   5.959   5.442   4.445
 2169SOL     OW 7405   4.868   1.837   5.686
 2169SOL    HW1 7406   4.779   1.871   5.714
 2169SOL    HW2 7407   4.883   1.857   5.589
 2170SOL     OW 7408   4.732   4.926   4.098
 2170SOL    HW1 7409   4.808   4.885   4.047
 2170SOL    HW2 7410   4.766   4.963   4.184
 2171SOL     OW 7411   0.201   2.600   0.019
 2171SOL    HW1 7412   0.283   2.629   0.068
 2171SOL    HW2 7413   0.168   2.513   0.057
 2172SOL     OW 7414   2.592   0.964   0.972
 2172SOL    HW1 7415   2.614   0.993   1.065
 2172SOL    HW2 7416   2.627   0.872   0.957
 2173SOL     OW 7417   6.012   1.559   5.471
 2173SOL    HW1 7418   6.098   1.594   5.509
 2173SOL    HW2 7419   6.012   1.574   5.372
 2174SOL     OW 7420   0.681   5.959   4.906
 2174SOL    HW1 7421   0.688   5.914   4.995
 2174SOL    HW2 7422   0.645   6.051   4.918
 2175SOL     OW 7423   2.546   6.548   5.189
 2175SOL    HW1 7424   2.599   6.593   5.262
 2175SOL    HW2 7425   2.464   6.506   5.228
 2176SOL     OW 7426   1.268   2.089   2.500
 2176SOL    HW1 7427   1.191   2.152   2.492
 2176SOL    HW2 7428   1.309   2.097   2.591
 2177SOL     OW 7429   6.946   1.633   1.437
 2177SOL    HW1 7430   6.876   1.587   1.490
 2177SOL    HW2 7431   7.007   1.565   1.396
 2178SOL     OW 7432   0.692   5.093   0.034
 2178SOL    HW1 7433   0.664   5.067   6.963
 2178SOL    HW2 7434   0.786   5.063   0.050
 2179SOL     OW 7435   1.229   4.787   4.049
 2179SOL    HW1 7436   1.293   4.864   4.052
 2179SOL    HW2 7437   1.148   4.813   3.997
 2180SOL     OW 7438   3.541   2.854   2.559
 2180SOL    HW1 7439   3.488   2.862   2.474
 2180SOL    HW2 7440   3.481   2.870   2.637
 2181SOL     OW 7441   5.013   5.334   5.923
 2181SOL    HW1 7442   5.084   5.278   5.964
 2181SOL    HW2 7443   5.039   5.431   5.930
 2182SOL     OW 7444   6.491   2.850   6.764
 2182SOL    HW1 7445   6.564   2.811   6.707
 2182SOL    HW2 7446   6.442   2.920   6.713
 2183SOL     OW 7447   2.884   3.260   0.852
 2183SOL    HW1 7448   2.951   3.195   0.815
 2183SOL    HW2 7449   2.793   3.221   0.845
 2184SOL     OW 7450   3.596   2.961   6.031
 2184SOL    HW1 7451   3.596   2.883   5.968
 2184SOL    HW2 7452   3.678   3.016   6.017
 2185SOL     OW 7453   2.156   1.266   1.285
 2185SOL    HW1 7454   2.098   1.313   1.219
 2185SOL    HW2 7455   2.129   1.169   1.291
 2186SOL     OW 7456   0.671   5.807   2.986
 2186SOL    HW1 7457   0.650   5.857   2.902
 2186SOL    HW2 7458   0.677   5.709   2.965
 2187SOL     OW 7459   7.012   1.272   6.825
 2187SOL    HW1 7460   0.012   1.283   6.922
 2187SOL    HW2 7461   0.049   1.202   6.786
 2188SOL     OW 7462   5.544   0.565   2.603
 2188SOL    HW1 7463   5.561   0.496   2.673
 2188SOL    HW2 7464   5.510   0.520   2.520
 2189SOL     OW 7465   2.265   0.364   6.564
 2189SOL    HW1 7466   2.239   0.271   6.589
 2189SOL    HW2 7467   2.188   0.426   6.579
 2190SOL     OW 7468   4.820   1.818   1.739
 2190SOL    HW1 7469   4.903   1.842   1.789
 2190SOL    HW2 7470   4.763   1.758   1.796
 2191SOL     OW 7471   3.159   2.277   0.244
 2191SOL    HW1 7472   3.163   2.275   0.144
 2191SOL    HW2 7473   3.151   2.184   0.279
 2192SOL     OW 7474   4.484   6.157   5.045
 2192SOL    HW1 7475   4.517   6.073   5.000
 2192SOL    HW2 7476   4.446   6.219   4.976
 2193SOL     OW 7477   0.469   4.763   5.964
 2193SOL    HW1 7478   0.561   4.747   5.930
 2193SOL    HW2 7479   0.432   4.846   5.924
 2194SOL     OW 7480   2.518   0.229   1.504
 2194SOL    HW1 7481   2.600   0.259   1.552
 2194SOL    HW2 7482   2.437   0.265   1.551
 2195SOL     OW 7483   1.337   4.115   2.507
 2195SOL    HW1 7484   1.269   4.166   2.559
 2195SOL    HW2 7485   1.425   4.164   2.511
 2196SOL     OW 7486   3.657   2.862   6.289
 2196SOL    HW1 7487   3.629   2.890   6.381
 2196SOL    HW2 7488   3.609   2.918   6.221
 2197SOL     OW 7489   4.430   4.874   0.492
 2197SOL    HW1 7490   4.437   4.949   0.557
 2197SOL    HW2 7491   4.430   4.911   0.399
 2198SOL     OW 7492   6.111   4.391   0.511
 2198SOL    HW1 7493   6.087   4.299   0.542
 2198SOL    HW2 7494   6.036   4.428   0.456
 2199SOL     OW 7495   4.382   0.737   1.505
 2199SOL    HW1 7496   4.390   0.637   1.509
 2199SOL    HW2 7497   4.323   0.763   1.428
 2200SOL     OW 7498   2.957   0.723   4.924
 2200SOL    HW1 7499   2.995   0.634   4.899
 2200SOL    HW2 7500   3.004   0.795   4.873
 2201SOL     OW 7501   4.996   4.091   2.122
 2201SOL    HW1 7502   4.908   4.088   2.170
 2201SOL    HW2 7503   4.979   4.100   2.024
 2202SOL     OW 7504   4.644   5.851   3.503
 2202SOL    HW1 7505   4.652   5.859   3.404
 2202SOL    HW2 7506   4.674   5.761   3.532
 2203SOL     OW 7507   3.632   1.600   3.412
 2203SOL    HW1 7508   3.727   1.573   3.394
 2203SOL    HW2 7509   3.570   1.529   3.381
 2204SOL     OW 7510   2.854   2.903   0.960
 2204SOL    HW1 7511   2.938   2.865   0.921
 2204SOL    HW2 7512   2.789   2.829   0.977
 2205SOL     OW 7513   2.342   0.535   6.992
 2205SOL    HW1 7514   2.244   0.515   6.986
 2205SOL    HW2 7515   2.390   0.454   0.004
 2206SOL     OW 7516   2.073   3.040   6.858
 2206SOL    HW1 7517   2.115   2.952   6.879
 2206SOL    HW2 7518   2.020   3.033   6.773
 2207SOL     OW 7519   0.820   4.340   4.932
 2207SOL    HW1 7520   0.902   4.340   4.874
 2207SOL    HW2 7521   0.832   4.275   5.008
 2208SOL     OW 7522   0.322   4.128   1.762
 2208SOL    HW1 7523   0.360   4.162   1.676
 2208SOL    HW2 7524   0.394   4.129   1.832
 2209SOL     OW 7525   1.245   5.679   0.917
 2209SOL    HW1 7526   1.301   5.747   0.963
 2209SOL    HW2 7527   1.232   5.705   0.821
 2210SOL     OW 7528   0.772   6.085   4.020
 2210SOL    HW1 7529   0.856   6.135   4.040
 2210SOL    HW2 7530   0.745   6.101   3.925
 2211SOL     OW 7531   6.353   1.613   5.917
 2211SOL    HW1 7532   6.417   1.658   5.980
 2211SOL    HW2 7533   6.402   1.585   5.834
 2212SOL     OW 7534   1.459   0.023   6.339
 2212SOL    HW1 7535   1.542   6.994   6.314
 2212SOL    HW2 7536   1.425   7.012   6.426
 2213SOL     OW 7537   3.662   0.986   3.408
 2213SOL    HW1 7538   3.563   0.980   3.419
 2213SOL    HW2 7539   3.686   0.971   3.312
 2214SOL     OW 7540   4.046   0.444   5.174
 2214SOL    HW1 7541   4.028   0.465   5.271
 2214SOL    HW2 7542   4.068   0.347   5.165
 2215SOL     OW 7543   5.882   2.879   5.211
 2215SOL    HW1 7544   5.965   2.917   5.250
 2215SOL    HW2 7545   5.839   2.946   5.150
 2216SOL     OW 7546   2.282   0.201   1.902
 2216SOL    HW1 7547   2.264   0.124   1.964
 2216SOL    HW2 7548   2.282   0.286   1.954
 2217SOL     OW 7549   4.654   0.993   1.096
 2217SOL    HW1 7550   4.741   0.945   1.109
 2217SOL    HW2 7551   4.584   0.928   1.066
 2218SOL     OW 7552   1.357   5.923   1.347
 2218SOL    HW1 7553   1.296   5.994   1.313
 2218SOL    HW2 7554   1.409   5.958   1.425
 2219SOL     OW 7555   1.180   3.085   2.633
 2219SOL    HW1 7556   1.204   3.144   2.711
 2219SOL    HW2 7557   1.134   3.003   2.667
 2220SOL     OW 7558   0.526   0.014   0.150
 2220SOL    HW1 7559   0.526   0.066   0.064
 2220SOL    HW2 7560   0.609   0.036   0.202
 2221SOL     OW 7561   0.369   1.918   0.435
 2221SOL    HW1 7562   0.330   1.963   0.354
 2221SOL    HW2 7563   0.303   1.851   0.470
 2222SOL     OW 7564   5.791   6.420   2.754
 2222SOL    HW1 7565   5.879   6.446   2.714
 2222SOL    HW2 7566   5.756   6.339   2.708
 2223SOL     OW 7567   5.779   5.166   1.736
 2223SOL    HW1 7568   5.813   5.138   1.646
 2223SOL    HW2 7569   5.679   5.174   1.733
 2224SOL     OW 7570   1.186   5.132   1.474
 2224SOL    HW1 7571   1.256   5.202   1.489
 2224SOL    HW2 7572   1.182   5.110   1.376
 2225SOL     OW 7573   6.918   4.958   1.372
 2225SOL    HW1 7574   6.882   4.895   1.304
 2225SOL    HW2 7575   6.960   4.907   1.446
 2226SOL     OW 7576   4.308   3.682   1.698
 2226SOL    HW1 7577   4.335   3.619   1.770
 2226SOL    HW2 7578   4.281   3.770   1.738
 2227SOL     OW 7579   1.007   3.477   3.746
 2227SOL    HW1 7580   1.068   3.468   3.824
 2227SOL    HW2 7581   0.925   3.422   3.761
 2228SOL     OW 7582   2.226   5.067   5.513
 2228SOL    HW1 7583   2.139   5.105   5.545
 2228SOL    HW2 7584   2.302   5.113   5.560
 2229SOL     OW 7585   4.854   0.799   2.699
 2229SOL    HW1 7586   4.803   0.821   2.783
 2229SOL    HW2 7587   4.815   0.717   2.657
 2230SOL     OW 7588   1.563   5.577   0.175
 2230SOL    HW1 7589   1.541   5.635   0.096
 2230SOL    HW2 7590   1.504   5.602   0.252
 2231SOL     OW 7591   2.840   6.283   1.251
 2231SOL    HW1 7592   2.933   6.309   1.276
 2231SOL    HW2 7593   2.810   6.338   1.173
 2232SOL     OW 7594   6.490   3.004   2.818
 2232SOL    HW1 7595   6.439   3.042   2.740
 2232SOL    HW2 7596   6.524   2.913   2.794
 2233SOL     OW 7597   3.645   1.712   0.147
 2233SOL    HW1 7598   3.576   1.781   0.171
 2233SOL    HW2 7599   3.643   1.638   0.214
 2234SOL     OW 7600   2.871   2.112   0.738
 2234SOL    HW1 7601   2.773   2.131   0.728
 2234SOL    HW2 7602   2.918   2.131   0.652
 2235SOL     OW 7603   1.566   0.459   1.248
 2235SOL    HW1 7604   1.658   0.435   1.219
 2235SOL    HW2 7605   1.546   0.553   1.221
 2236SOL     OW 7606   6.616   3.885   6.788
 2236SOL    HW1 7607   6.656   3.976   6.778
 2236SOL    HW2 7608   6.517   3.891   6.783
 2237SOL     OW 7609   6.805   2.336   4.481
 2237SOL    HW1 7610   6.815   2.398   4.559
 2237SOL    HW2 7611   6.712   2.299   4.479
 2238SOL     OW 7612   0.698   5.906   1.929
 2238SOL    HW1 7613   0.741   5.978   1.874
 2238SOL    HW2 7614   0.602   5.898   1.903
 2239SOL     OW 7615   4.912   5.149   3.084
 2239SOL    HW1 7616   4.905   5.224   3.018
 2239SOL    HW2 7617   4.998   5.101   3.071
 2240SOL     OW 7618   5.567   4.378   2.388
 2240SOL    HW1 7619   5.550   4.451   2.455
 2240SOL    HW2 7620   5.524   4.293   2.420
 2241SOL     OW 7621   0.751   0.586   2.454
 2241SOL    HW1 7622   0.694   0.516   2.411
 2241SOL    HW2 7623   0.719   0.677   2.425
 2242SOL     OW 7624   4.807   2.869   2.794
 2242SOL    HW1 7625   4.797   2.770   2.786
 2242SOL    HW2 7626   4.803   2.910   2.703
 2243SOL     OW 7627   2.835   5.861   5.281
 2243SOL    HW1 7628   2.800   5.823   5.195
 2243SOL    HW2 7629   2.863   5.956   5.266
 2244SOL     OW 7630   2.377   0.980   4.948
 2244SOL    HW1 7631   2.284   1.007   4.921
 2244SOL    HW2 7632   2.394   0.886   4.920
 2245SOL     OW 7633   0.420   1.844   1.764
 2245SOL    HW1 7634   0.343   1.870   1.822
 2245SOL    HW2 7635   0.505   1.852   1.816
 2246SOL     OW 7636   0.987   3.834   4.420
 2246SOL    HW1 7637   1.001   3.754   4.477
 2246SOL    HW2 7638   1.063   3.898   4.433
 2247SOL     OW 7639   1.834   1.881   6.017
 2247SOL    HW1 7640   1.846   1.967   6.067
 2247SOL    HW2 7641   1.918   1.858   5.968
 2248SOL     OW 7642   5.128   4.358   5.282
 2248SOL    HW1 7643   5.206   4.412   5.313
 2248SOL    HW2 7644   5.071   4.334   5.361
 2249SOL     OW 7645   4.535   5.750   4.781
 2249SOL    HW1 7646   4.544   5.811   4.860
 2249SOL    HW2 7647   4.473   5.674   4.804
 2250SOL     OW 7648   5.604   5.520   0.157
 2250SOL    HW1 7649   5.514   5.544   0.120
 2250SOL    HW2 7650   5.641   5.442   0.107
 2251SOL     OW 7651   6.937   0.962   0.057
 2251SOL    HW1 7652   6.909   0.965   0.153
 2251SOL    HW2 7653   6.862   0.993   7.021
 2252SOL     OW 7654   3.238   1.311   5.569
 2252SOL    HW1 7655   3.315   1.374   5.578
 2252SOL    HW2 7656   3.167   1.337   5.634
 2253SOL     OW 7657   1.791   2.794   5.737
 2253SOL    HW1 7658   1.834   2.884   5.726
 2253SOL    HW2 7659   1.862   2.724   5.741
 2254SOL     OW 7660   1.772   3.635   6.195
 2254SOL    HW1 7661   1.844   3.684   6.146
 2254SOL    HW2 7662   1.728   3.697   6.260
 2255SOL     OW 7663   5.829   2.226   1.391
 2255SOL    HW1 7664   5.903   2.284   1.356
 2255SOL    HW2 7665   5.810   2.153   1.325
 2256SOL     OW 7666   3.971   5.103   2.144
 2256SOL    HW1 7667   3.887   5.072   2.100
 2256SOL    HW2 7668   4.019   5.025   2.184
 2257SOL     OW 7669   1.782   3.777   3.616
 2257SOL    HW1 7670   1.698   3.792   3.564
 2257SOL    HW2 7671   1.767   3.709   3.687
 2258SOL     OW 7672   2.017   5.744   4.810
 2258SOL    HW1 7673   1.938   5.724   4.868
 2258SOL    HW2 7674   2.018   5.682   4.732
 2259SOL     OW 7675   5.845   3.433   6.494
 2259SOL    HW1 7676   5.781   3.404   6.423
 2259SOL    HW2 7677   5.887   3.353   6.537
 2260SOL     OW 7678   5.217   4.926   0.763
 2260SOL    HW1 7679   5.226   4.829   0.741
 2260SOL    HW2 7680   5.185   4.935   0.858
 2261SOL     OW 7681   4.140   6.602   5.985
 2261SOL    HW1 7682   4.135   6.701   5.993
 2261SOL    HW2 7683   4.201   6.565   6.056
 2262SOL     OW 7684   4.077   1.477   2.894
 2262SOL    HW1 7685   4.151   1.544   2.884
 2262SOL    HW2 7686   4.016   1.506   2.968
 2263SOL     OW 7687   6.971   4.338   6.955
 2263SOL    HW1 7688   7.018   4.269   6.900
 2263SOL    HW2 7689   6.875   4.312   6.964
 2264SOL     OW 7690   4.041   3.150   3.685
 2264SOL    HW1 7691   4.122   3.092   3.695
 2264SOL    HW2 7692   4.004   3.171   3.775
 2265SOL     OW 7693   6.639   0.469   2.405
 2265SOL    HW1 7694   6.617   0.523   2.325
 2265SOL    HW2 7695   6.573   0.489   2.478
 2266SOL     OW 7696   5.968   0.104   0.894
 2266SOL    HW1 7697   6.045   0.160   0.860
 2266SOL    HW2 7698   6.001   0.041   0.963
 2267SOL     OW 7699   5.293   1.550   5.873
 2267SOL    HW1 7700   5.358   1.476   5.886
 2267SOL    HW2 7701   5.269   1.557   5.776
 2268SOL     OW 7702   6.622   5.379   0.814
 2268SOL    HW1 7703   6.656   5.419   0.729
 2268SOL    HW2 7704   6.530   5.413   0.833
 2269SOL     OW 7705   6.896   5.239   4.957
 2269SOL    HW1 7706   6.984   5.232   4.910
 2269SOL    HW2 7707   6.865   5.334   4.956
 2270SOL     OW 7708   4.219   3.075   1.599
 2270SOL    HW1 7709   4.317   3.056   1.599
 2270SOL    HW2 7710   4.198   3.141   1.671
 2271SOL     OW 7711   6.167   4.237   2.879
 2271SOL    HW1 7712   6.224   4.198   2.806
 2271SOL    HW2 7713   6.225   4.263   2.956
 2272SOL     OW 7714   4.474   1.863   6.116
 2272SOL    HW1 7715   4.394   1.923   6.110
 2272SOL    HW2 7716   4.489   1.818   6.028
 2273SOL     OW 7717   1.090   1.594   3.545
 2273SOL    HW1 7718   1.046   1.614   3.632
 2273SOL    HW2 7719   1.183   1.631   3.545
 2274SOL     OW 7720   1.257   3.300   3.180
 2274SOL    HW1 7721   1.260   3.301   3.280
 2274SOL    HW2 7722   1.163   3.282   3.151
 2275SOL     OW 7723   5.027   0.038   3.812
 2275SOL    HW1 7724   5.058   0.128   3.843
 2275SOL    HW2 7725   4.935   0.020   3.848
 2276SOL     OW 7726   4.177   5.197   1.776
 2276SOL    HW1 7727   4.220   5.210   1.865
 2276SOL    HW2 7728   4.178   5.283   1.725
 2277SOL     OW 7729   3.190   3.757   0.489
 2277SOL    HW1 7730   3.197   3.666   0.530
 2277SOL    HW2 7731   3.275   3.778   0.440
 2278SOL     OW 7732   5.386   0.016   1.017
 2278SOL    HW1 7733   5.385   0.105   1.062
 2278SOL    HW2 7734   5.304   0.008   0.959
 2279SOL     OW 7735   4.737   4.226   4.580
 2279SOL    HW1 7736   4.724   4.272   4.668
 2279SOL    HW2 7737   4.797   4.147   4.592
 2280SOL     OW 7738   5.016   6.700   6.072
 2280SOL    HW1 7739   4.939   6.755   6.041
 2280SOL    HW2 7740   5.086   6.759   6.112
 2281SOL     OW 7741   2.672   3.117   0.970
 2281SOL    HW1 7742   2.673   3.159   1.060
 2281SOL    HW2 7743   2.736   3.040   0.968
 2282SOL     OW 7744   3.953   5.579   2.922
 2282SOL    HW1 7745   3.912   5.610   2.836
 2282SOL    HW2 7746   4.050   5.559   2.906
 2283SOL     OW 7747   6.872   3.838   2.656
 2283SOL    HW1 7748   6.964   3.844   2.618
 2283SOL    HW2 7749   6.809   3.804   2.586
 2284SOL     OW 7750   2.388   2.523   2.344
 2284SOL    HW1 7751   2.352   2.600   2.291
 2284SOL    HW2 7752   2.475   2.493   2.305
 2285SOL     OW 7753   2.026   4.078   0.221
 2285SOL    HW1 7754   2.071   3.989   0.228
 2285SOL    HW2 7755   2.092   4.147   0.193
 2286SOL     OW 7756   5.911   6.755   4.491
 2286SOL    HW1 7757   5.837   6.786   4.551
 2286SOL    HW2 7758   5.911   6.810   4.407
 2287SOL     OW 7759   2.110   3.065   1.843
 2287SOL    HW1 7760   2.163   2.985   1.814
 2287SOL    HW2 7761   2.095   3.060   1.942
 2288SOL     OW 7762   0.888   6.472   4.524
 2288SOL    HW1 7763   0.895   6.412   4.445
 2288SOL    HW2 7764   0.851   6.421   4.602
 2289SOL     OW 7765   4.452   2.460   0.878
 2289SOL    HW1 7766   4.368   2.408   0.859
 2289SOL    HW2 7767   4.491   2.431   0.965
 2290SOL     OW 7768   3.481   3.149   2.686
 2290SOL    HW1 7769   3.411   3.084   2.659
 2290SOL    HW2 7770   3.555   3.101   2.734
 2291SOL     OW 7771   1.301   2.232   0.218
 2291SOL    HW1 7772   1.238   2.224   0.295
 2291SOL    HW2 7773   1.316   2.142   0.177
 2292SOL     OW 7774   4.729   1.841   2.813
 2292SOL    HW1 7775   4.714   1.920   2.874
 2292SOL    HW2 7776   4.670   1.849   2.733
 2293SOL     OW 7777   6.899   1.432   0.060
 2293SOL    HW1 7778   6.999   1.424   0.053
 2293SOL    HW2 7779   6.865   1.370   0.130
 2294SOL     OW 7780   6.934   1.691   5.470
 2294SOL    HW1 7781   6.853   1.728   5.515
 2294SOL    HW2 7782   7.015   1.740   5.502
 2295SOL     OW 7783   5.511   6.245   1.338
 2295SOL    HW1 7784   5.452   6.220   1.261
 2295SOL    HW2 7785   5.605   6.220   1.317
 2296SOL     OW 7786   3.996   5.414   4.056
 2296SOL    HW1 7787   4.016   5.353   3.979
 2296SOL    HW2 7788   4.052   5.389   4.135
 2297SOL     OW 7789   4.277   4.040   5.338
 2297SOL    HW1 7790   4.199   4.095   5.309
 2297SOL    HW2 7791   4.360   4.096   5.336
 2298SOL     OW 7792   3.644   3.459   4.936
 2298SOL    HW1 7793   3.703   3.425   5.009
 2298SOL    HW2 7794   3.701   3.488   4.859
 2299SOL     OW 7795   6.204   3.307   4.700
 2299SOL    HW1 7796   6.128   3.371   4.709
 2299SOL    HW2 7797   6.187   3.245   4.622
 2300SOL     OW 7798   4.717   6.311   2.206
 2300SOL    HW1 7799   4.721   6.410   2.192
 2300SOL    HW2 7800   4.624   6.285   2.231
 2301SOL     OW 7801   3.793   3.313   4.401
 2301SOL    HW1 7802   3.836   3.350   4.319
 2301SOL    HW2 7803   3.859   3.257   4.451
 2302SOL     OW 7804   5.868   3.005   0.123
 2302SOL    HW1 7805   5.783   2.984   0.074
 2302SOL    HW2 7806   5.846   3.046   0.211
 2303SOL     OW 7807   3.786   2.012   6.985
 2303SOL    HW1 7808   3.811   1.967   6.900
 2303SOL    HW2 7809   3.830   1.966   0.041
 2304SOL     OW 7810   5.603   5.791   2.441
 2304SOL    HW1 7811   5.663   5.777   2.520
 2304SOL    HW2 7812   5.521   5.839   2.471
 2305SOL     OW 7813   2.459   0.604   4.631
 2305SOL    HW1 7814   2.431   0.622   4.725
 2305SOL    HW2 7815   2.559   0.611   4.625
 2306SOL     OW 7816   1.044   4.992   4.359
 2306SOL    HW1 7817   1.030   4.893   4.348
 2306SOL    HW2 7818   0.955   5.036   4.372
 2307SOL     OW 7819   6.538   3.305   6.057
 2307SOL    HW1 7820   6.525   3.370   6.132
 2307SOL    HW2 7821   6.635   3.285   6.046
 2308SOL     OW 7822   1.694   5.637   1.998
 2308SOL    HW1 7823   1.743   5.720   2.023
 2308SOL    HW2 7824   1.697   5.624   1.899
 2309SOL     OW 7825   2.093   6.665   5.388
 2309SOL    HW1 7826   2.128   6.673   5.481
 2309SOL    HW2 7827   2.027   6.590   5.383
 2310SOL     OW 7828   4.616   6.778   1.443
 2310SOL    HW1 7829   4.590   6.874   1.440
 2310SOL    HW2 7830   4.698   6.764   1.388
 2311SOL     OW 7831   3.322   5.165   1.449
 2311SOL    HW1 7832   3.314   5.130   1.356
 2311SOL    HW2 7833   3.340   5.089   1.512
 2312SOL     OW 7834   3.182   5.073   2.575
 2312SOL    HW1 7835   3.207   5.098   2.482
 2312SOL    HW2 7836   3.136   5.150   2.620
 2313SOL     OW 7837   5.053   5.762   1.469
 2313SOL    HW1 7838   5.037   5.799   1.561
 2313SOL    HW2 7839   5.147   5.732   1.461
 2314SOL     OW 7840   1.547   4.924   4.584
 2314SOL    HW1 7841   1.595   4.900   4.669
 2314SOL    HW2 7842   1.453   4.951   4.605
 2315SOL     OW 7843   4.643   2.601   6.776
 2315SOL    HW1 7844   4.690   2.689   6.786
 2315SOL    HW2 7845   4.643   2.574   6.680
 2316SOL     OW 7846   5.162   4.093   2.333
 2316SOL    HW1 7847   5.259   4.114   2.321
 2316SOL    HW2 7848   5.118   4.084   2.244
 2317SOL     OW 7849   0.308   5.037   3.774
 2317SOL    HW1 7850   0.291   5.122   3.824
 2317SOL    HW2 7851   0.338   4.966   3.838
 2318SOL     OW 7852   0.484   1.051   4.282
 2318SOL    HW1 7853   0.474   1.069   4.380
 2318SOL    HW2 7854   0.519   0.958   4.269
 2319SOL     OW 7855   0.793   4.303   3.328
 2319SOL    HW1 7856   0.889   4.279   3.313
 2319SOL    HW2 7857   0.739   4.277   3.247
 2320SOL     OW 7858   6.298   4.621   4.852
 2320SOL    HW1 7859   6.295   4.721   4.855
 2320SOL    HW2 7860   6.267   4.589   4.762
 2321SOL     OW 7861   2.468   5.497   5.050
 2321SOL    HW1 7862   2.559   5.503   5.010
 2321SOL    HW2 7863   2.417   5.422   5.007
 2322SOL     OW 7864   2.480   0.887   6.257
 2322SOL    HW1 7865   2.415   0.815   6.233
 2322SOL    HW2 7866   2.557   0.885   6.193
 2323SOL     OW 7867   5.218   4.590   1.510
 2323SOL    HW1 7868   5.171   4.674   1.535
 2323SOL    HW2 7869   5.298   4.578   1.569
 2324SOL     OW 7870   0.033   4.639   3.597
 2324SOL    HW1 7871   6.992   4.700   3.645
 2324SOL    HW2 7872   7.008   4.554   3.575
 2325SOL     OW 7873   6.904   2.800   0.706
 2325SOL    HW1 7874   6.830   2.768   0.766
 2325SOL    HW2 7875   6.891   2.897   0.684
 2326SOL     OW 7876   2.005   4.856   6.765
 2326SOL    HW1 7877   1.993   4.875   6.668
 2326SOL    HW2 7878   2.097   4.821   6.782
 2327SOL     OW 7879   5.719   2.044   4.617
 2327SOL    HW1 7880   5.795   2.087   4.666
 2327SOL    HW2 7881   5.707   1.950   4.648
 2328SOL     OW 7882   5.982   6.728   3.487
 2328SOL    HW1 7883   6.005   6.680   3.403
 2328SOL    HW2 7884   5.924   6.670   3.544
 2329SOL     OW 7885   6.689   6.187   3.853
 2329SOL    HW1 7886   6.674   6.225   3.944
 2329SOL    HW2 7887   6.605   6.141   3.822
 2330SOL     OW 7888   6.970   3.787   1.801
 2330SOL    HW1 7889   7.007   3.737   1.879
 2330SOL    HW2 7890   0.010   3.777   1.723
 2331SOL     OW 7891   0.676   4.336   5.805
 2331SOL    HW1 7892   0.772   4.339   5.776
 2331SOL    HW2 7893   0.620   4.302   5.729
 2332SOL     OW 7894   5.977   2.293   4.921
 2332SOL    HW1 7895   6.008   2.378   4.962
 2332SOL    HW2 7896   5.886   2.270   4.956
 2333SOL     OW 7897   1.598   4.480   3.784
 2333SOL    HW1 7898   1.536   4.480   3.706
 2333SOL    HW2 7899   1.552   4.518   3.864
 2334SOL     OW 7900   2.567   0.350   1.126
 2334SOL    HW1 7901   2.548   0.263   1.173
 2334SOL    HW2 7902   2.534   0.344   1.032
 2335SOL     OW 7903   4.730   6.091   4.412
 2335SOL    HW1 7904   4.684   6.105   4.325
 2335SOL    HW2 7905   4.706   6.165   4.475
 2336SOL     OW 7906   4.962   2.140   5.665
 2336SOL    HW1 7907   5.022   2.076   5.712
 2336SOL    HW2 7908   4.892   2.173   5.729
 2337SOL     OW 7909   5.807   0.314   3.011
 2337SOL    HW1 7910   5.864   0.258   2.951
 2337SOL    HW2 7911   5.731   0.260   3.045
 2338SOL     OW 7912   1.605   6.483   6.050
 2338SOL    HW1 7913   1.526   6.425   6.028
 2338SOL    HW2 7914   1.622   6.480   6.148
 2339SOL     OW 7915   3.938   4.531   6.744
 2339SOL    HW1 7916   4.023   4.517   6.795
 2339SOL    HW2 7917   3.936   4.625   6.709
 2340SOL     OW 7918   4.096   4.759   3.878
 2340SOL    HW1 7919   4.059   4.788   3.790
 2340SOL    HW2 7920   4.029   4.777   3.950
 2341SOL     OW 7921   6.260   5.403   0.306
 2341SOL    HW1 7922   6.293   5.319   0.349
 2341SOL    HW2 7923   6.324   5.477   0.325
 2342SOL     OW 7924   6.038   0.274   4.869
 2342SOL    HW1 7925   6.099   0.209   4.824
 2342SOL    HW2 7926   6.075   0.299   4.958
 2343SOL     OW 7927   1.308   6.723   0.417
 2343SOL    HW1 7928   1.249   6.696   0.493
 2343SOL    HW2 7929   1.251   6.759   0.343
 2344SOL     OW 7930   2.514   1.032   2.625
 2344SOL    HW1 7931   2.549   1.125   2.637
 2344SOL    HW2 7932   2.492   1.017   2.529
 2345SOL     OW 7933   2.125   1.171   3.551
 2345SOL    HW1 7934   2.189   1.248   3.541
 2345SOL    HW2 7935   2.094   1.167   3.646
 2346SOL     OW 7936   4.722   3.413   6.114
 2346SOL    HW1 7937   4.712   3.512   6.129
 2346SOL    HW2 7938   4.804   3.381   6.161
 2347SOL     OW 7939   1.008   3.441   1.265
 2347SOL    HW1 7940   0.993   3.400   1.355
 2347SOL    HW2 7941   1.003   3.541   1.273
 2348SOL     OW 7942   2.697   5.858   1.369
 2348SOL    HW1 7943   2.751   5.832   1.449
 2348SOL    HW2 7944   2.611   5.806   1.369
 2349SOL     OW 7945   4.735   5.549   5.880
 2349SOL    HW1 7946   4.722   5.634   5.829
 2349SOL    HW2 7947   4.775   5.570   5.969
 2350SOL     OW 7948   2.806   6.256   5.550
 2350SOL    HW1 7949   2.825   6.159   5.567
 2350SOL    HW2 7950   2.886   6.298   5.507
 2351SOL     OW 7951   1.934   5.597   3.618
 2351SOL    HW1 7952   1.956   5.694   3.611
 2351SOL    HW2 7953   1.946   5.566   3.712
 2352SOL     OW 7954   6.741   3.510   2.127
 2352SOL    HW1 7955   6.652   3.505   2.173
 2352SOL    HW2 7956   6.727   3.525   2.029
 2353SOL     OW 7957   2.835   3.715   5.951
 2353SOL    HW1 7958   2.833   3.815   5.955
 2353SOL    HW2 7959   2.893   3.686   5.875
 2354SOL     OW 7960   3.848   2.968   1.393
 2354SOL    HW1 7961   3.877   2.996   1.484
 2354SOL    HW2 7962   3.816   2.874   1.395
 2355SOL     OW 7963   0.019   0.103   0.911
 2355SOL    HW1 7964   0.074   0.123   0.992
 2355SOL    HW2 7965   0.049   0.017   0.871
 2356SOL     OW 7966   2.860   4.779   3.387
 2356SOL    HW1 7967   2.930   4.783   3.315
 2356SOL    HW2 7968   2.906   4.772   3.476
 2357SOL     OW 7969   6.080   4.831   1.257
 2357SOL    HW1 7970   6.135   4.791   1.183
 2357SOL    HW2 7971   6.002   4.880   1.217
 2358SOL     OW 7972   3.669   1.551   6.012
 2358SOL    HW1 7973   3.649   1.521   6.106
 2358SOL    HW2 7974   3.625   1.490   5.947
 2359SOL     OW 7975   1.933   1.220   5.821
 2359SOL    HW1 7976   1.892   1.139   5.862
 2359SOL    HW2 7977   1.870   1.258   5.753
 2360SOL     OW 7978   4.152   4.194   0.640
 2360SOL    HW1 7979   4.061   4.171   0.607
 2360SOL    HW2 7980   4.151   4.205   0.739
 2361SOL     OW 7981   4.355   6.034   1.624
 2361SOL    HW1 7982   4.323   6.119   1.667
 2361SOL    HW2 7983   4.320   6.029   1.531
 2362SOL     OW 7984   4.499   5.335   3.348
 2362SOL    HW1 7985   4.499   5.433   3.333
 2362SOL    HW2 7986   4.548   5.289   3.274
 2363SOL     OW 7987   2.541   4.245   0.816
 2363SOL    HW1 7988   2.549   4.317   0.885
 2363SOL    HW2 7989   2.445   4.218   0.807
 2364SOL     OW 7990   3.841   1.485   2.344
 2364SOL    HW1 7991   3.875   1.440   2.261
 2364SOL    HW2 7992   3.745   1.461   2.358
 2365SOL     OW 7993   4.876   3.417   3.387
 2365SOL    HW1 7994   4.863   3.325   3.352
 2365SOL    HW2 7995   4.888   3.480   3.310
 2366SOL     OW 7996   2.643   4.813   5.076
 2366SOL    HW1 7997   2.628   4.785   5.171
 2366SOL    HW2 7998   2.728   4.771   5.043
 2367SOL     OW 7999   5.832   4.434   6.376
 2367SOL    HW1 8000   5.781   4.442   6.461
 2367SOL    HW2 8001   5.924   4.471   6.387
 2368SOL     OW 8002   5.526   6.545   4.640
 2368SOL    HW1 8003   5.560   6.456   4.609
 2368SOL    HW2 8004   5.583   6.579   4.715
 2369SOL     OW 8005   3.072   1.810   4.400
 2369SOL    HW1 8006   2.998   1.875   4.383
 2369SOL    HW2 8007   3.069   1.780   4.495
 2370SOL     OW 8008   5.851   2.888   2.077
 2370SOL    HW1 8009   5.918   2.831   2.125
 2370SOL    HW2 8010   5.886   2.911   1.987
 2371SOL     OW 8011   0.464   6.506   3.238
 2371SOL    HW1 8012   0.513   6.507   3.151
 2371SOL    HW2 8013   0.507   6.439   3.299
 2372SOL     OW 8014   6.136   0.150   6.239
 2372SOL    HW1 8015   6.108   0.055   6.224
 2372SOL    HW2 8016   6.235   0.158   6.227
 2373SOL     OW 8017   5.782   5.245   0.164
 2373SOL    HW1 8018   5.833   5.224   0.248
 2373SOL    HW2 8019   5.737   5.161   0.132
 2374SOL     OW 8020   6.703   6.352   2.218
 2374SOL    HW1 8021   6.666   6.364   2.126
 2374SOL    HW2 8022   6.777   6.418   2.233
 2375SOL     OW 8023   1.216   0.595   4.336
 2375SOL    HW1 8024   1.200   0.618   4.431
 2375SOL    HW2 8025   1.224   0.679   4.282
 2376SOL     OW 8026   5.542   1.779   3.531
 2376SOL    HW1 8027   5.617   1.844   3.544
 2376SOL    HW2 8028   5.573   1.704   3.473
 2377SOL     OW 8029   4.398   4.664   5.794
 2377SOL    HW1 8030   4.435   4.754   5.768
 2377SOL    HW2 8031   4.313   4.678   5.845
 2378SOL     OW 8032   6.704   0.859   0.553
 2378SOL    HW1 8033   6.694   0.958   0.545
 2378SOL    HW2 8034   6.695   0.817   0.462
 2379SOL     OW 8035   6.517   4.798   1.432
 2379SOL    HW1 8036   6.489   4.705   1.455
 2379SOL    HW2 8037   6.612   4.798   1.400
 2380SOL     OW 8038   4.714   5.677   5.171
 2380SOL    HW1 8039   4.806   5.715   5.185
 2380SOL    HW2 8040   4.648   5.733   5.220
 2381SOL     OW 8041   2.206   4.826   5.005
 2381SOL    HW1 8042   2.143   4.807   5.081
 2381SOL    HW2 8043   2.172   4.904   4.953
 2382SOL     OW 8044   0.493   6.315   2.602
 2382SOL    HW1 8045   0.462   6.292   2.695
 2382SOL    HW2 8046   0.582   6.360   2.607
 2383SOL     OW 8047   5.443   5.650   5.638
 2383SOL    HW1 8048   5.348   5.627   5.660
 2383SOL    HW2 8049   5.502   5.573   5.661
 2384SOL     OW 8050   0.681   1.547   1.873
 2384SOL    HW1 8051   0.678   1.608   1.795
 2384SOL    HW2 8052   0.589   1.513   1.893
 2385SOL     OW 8053   0.269   1.338   0.778
 2385SOL    HW1 8054   0.245   1.354   0.874
 2385SOL    HW2 8055   0.186   1.335   0.723
 2386SOL     OW 8056   5.468   5.669   3.341
 2386SOL    HW1 8057   5.443   5.758   3.379
 2386SOL    HW2 8058   5.401   5.643   3.272
 2387SOL     OW 8059   1.910   1.626   3.886
 2387SOL    HW1 8060   1.840   1.695   3.866
 2387SOL    HW2 8061   1.915   1.612   3.985
 2388SOL     OW 8062   6.025   2.061   5.224
 2388SOL    HW1 8063   6.044   2.061   5.322
 2388SOL    HW2 8064   6.098   2.110   5.176
 2389SOL     OW 8065   4.841   4.513   4.302
 2389SOL    HW1 8066   4.904   4.511   4.379
 2389SOL    HW2 8067   4.762   4.456   4.322
 2390SOL     OW 8068   4.497   3.557   5.774
 2390SOL    HW1 8069   4.478   3.466   5.736
 2390SOL    HW2 8070   4.457   3.564   5.865
 2391SOL     OW 8071   2.676   5.041   6.031
 2391SOL    HW1 8072   2.719   4.977   6.094
 2391SOL    HW2 8073   2.690   5.134   6.064
 2392SOL     OW 8074   4.073   4.939   5.578
 2392SOL    HW1 8075   3.996   5.002   5.565
 2392SOL    HW2 8076   4.088   4.887   5.495
 2393SOL     OW 8077   4.175   4.673   1.236
 2393SOL    HW1 8078   4.109   4.716   1.175
 2393SOL    HW2 8079   4.225   4.602   1.187
 2394SOL     OW 8080   0.762   2.458   3.549
 2394SOL    HW1 8081   0.691   2.406   3.598
 2394SOL    HW2 8082   0.815   2.395   3.492
 2395SOL     OW 8083   0.725   2.538   4.881
 2395SOL    HW1 8084   0.708   2.578   4.971
 2395SOL    HW2 8085   0.822   2.543   4.859
 2396SOL     OW 8086   0.122   0.039   5.177
 2396SOL    HW1 8087   0.133   6.982   5.116
 2396SOL    HW2 8088   0.071   0.012   5.258
 2397SOL     OW 8089   0.095   4.389   5.662
 2397SOL    HW1 8090   0.098   4.400   5.562
 2397SOL    HW2 8091   0.012   4.338   5.686
 2398SOL     OW 8092   3.760   6.556   4.015
 2398SOL    HW1 8093   3.773   6.460   4.041
 2398SOL    HW2 8094   3.663   6.580   4.022
 2399SOL     OW 8095   3.606   2.116   4.091
 2399SOL    HW1 8096   3.618   2.138   3.994
 2399SOL    HW2 8097   3.509   2.118   4.114
 2400SOL     OW 8098   1.022   4.136   0.926
 2400SOL    HW1 8099   1.083   4.103   0.854
 2400SOL    HW2 8100   1.077   4.173   1.001
 2401SOL     OW 8101   2.558   0.612   5.984
 2401SOL    HW1 8102   2.604   0.524   5.970
 2401SOL    HW2 8103   2.599   0.681   5.924
 2402SOL     OW 8104   1.429   4.362   1.955
 2402SOL    HW1 8105   1.457   4.400   1.867
 2402SOL    HW2 8106   1.510   4.331   2.006
 2403SOL     OW 8107   4.092   3.383   3.165
 2403SOL    HW1 8108   4.155   3.384   3.087
 2403SOL    HW2 8109   4.103   3.466   3.218
 2404SOL     OW 8110   6.287   0.772   1.160
 2404SOL    HW1 8111   6.273   0.870   1.152
 2404SOL    HW2 8112   6.201   0.724   1.144
 2405SOL     OW 8113   1.983   2.957   0.813
 2405SOL    HW1 8114   2.000   2.933   0.909
 2405SOL    HW2 8115   1.961   3.054   0.807
 2406SOL     OW 8116   3.191   5.993   4.731
 2406SOL    HW1 8117   3.134   5.912   4.746
 2406SOL    HW2 8118   3.133   6.069   4.702
 2407SOL     OW 8119   3.058   0.949   3.759
 2407SOL    HW1 8120   3.086   0.880   3.692
 2407SOL    HW2 8121   3.031   1.033   3.711
 2408SOL     OW 8122   3.235   6.135   4.232
 2408SOL    HW1 8123   3.329   6.101   4.235
 2408SOL    HW2 8124   3.173   6.061   4.260
 2409SOL     OW 8125   1.652   3.315   1.562
 2409SOL    HW1 8126   1.692   3.344   1.475
 2409SOL    HW2 8127   1.718   3.331   1.635
 2410SOL     OW 8128   1.023   3.506   5.158
 2410SOL    HW1 8129   1.002   3.409   5.169
 2410SOL    HW2 8130   0.943   3.553   5.120
 2411SOL     OW 8131   2.903   3.735   0.384
 2411SOL    HW1 8132   2.856   3.760   0.469
 2411SOL    HW2 8133   3.001   3.728   0.401
 2412SOL     OW 8134   3.473   1.923   6.652
 2412SOL    HW1 8135   3.427   1.852   6.705
 2412SOL    HW2 8136   3.508   1.993   6.714
 2413SOL     OW 8137   0.374   3.198   6.733
 2413SOL    HW1 8138   0.363   3.244   6.645
 2413SOL    HW2 8139   0.470   3.174   6.746
 2414SOL     OW 8140   6.569   2.354   5.188
 2414SOL    HW1 8141   6.524   2.286   5.246
 2414SOL    HW2 8142   6.626   2.308   5.120
 2415SOL     OW 8143   2.546   5.470   0.445
 2415SOL    HW1 8144   2.490   5.409   0.500
 2415SOL    HW2 8145   2.494   5.553   0.423
 2416SOL     OW 8146   6.654   3.864   1.848
 2416SOL    HW1 8147   6.727   3.811   1.804
 2416SOL    HW2 8148   6.580   3.802   1.876
 2417SOL     OW 8149   2.951   2.559   1.687
 2417SOL    HW1 8150   2.879   2.627   1.671
 2417SOL    HW2 8151   2.940   2.520   1.778
 2418SOL     OW 8152   4.607   4.269   6.461
 2418SOL    HW1 8153   4.594   4.225   6.549
 2418SOL    HW2 8154   4.522   4.263   6.408
 2419SOL     OW 8155   2.478   6.263   3.728
 2419SOL    HW1 8156   2.399   6.203   3.713
 2419SOL    HW2 8157   2.446   6.354   3.755
 2420SOL     OW 8158   1.572   3.938   2.750
 2420SOL    HW1 8159   1.656   3.887   2.766
 2420SOL    HW2 8160   1.577   3.983   2.660
 2421SOL     OW 8161   2.558   5.973   4.179
 2421SOL    HW1 8162   2.476   6.015   4.217
 2421SOL    HW2 8163   2.596   6.032   4.108
 2422SOL     OW 8164   4.880   6.456   0.631
 2422SOL    HW1 8165   4.970   6.467   0.672
 2422SOL    HW2 8166   4.890   6.430   0.535
 2423SOL     OW 8167   2.679   5.171   2.831
 2423SOL    HW1 8168   2.718   5.211   2.914
 2423SOL    HW2 8169   2.702   5.228   2.753
 2424SOL     OW 8170   5.567   0.460   6.114
 2424SOL    HW1 8171   5.658   0.500   6.106
 2424SOL    HW2 8172   5.566   0.393   6.189
 2425SOL     OW 8173   5.196   5.476   4.881
 2425SOL    HW1 8174   5.102   5.506   4.868
 2425SOL    HW2 8175   5.253   5.554   4.908
 2426SOL     OW 8176   2.251   3.920   6.037
 2426SOL    HW1 8177   2.255   3.839   6.095
 2426SOL    HW2 8178   2.254   3.893   5.941
 2427SOL     OW 8179   5.383   0.956   0.009
 2427SOL    HW1 8180   5.462   0.918   6.983
 2427SOL    HW2 8181   5.400   1.052   0.031
 2428SOL     OW 8182   0.695   0.546   2.977
 2428SOL    HW1 8183   0.768   0.567   3.042
 2428SOL    HW2 8184   0.729   0.482   2.908
 2429SOL     OW 8185   6.097   4.886   1.855
 2429SOL    HW1 8186   6.018   4.824   1.853
 2429SOL    HW2 8187   6.099   4.934   1.943
 2430SOL     OW 8188   6.250   1.563   0.158
 2430SOL    HW1 8189   6.209   1.635   0.214
 2430SOL    HW2 8190   6.262   1.596   0.065
 2431SOL     OW 8191   6.720   2.979   1.812
 2431SOL    HW1 8192   6.698   2.939   1.723
 2431SOL    HW2 8193   6.819   2.971   1.829
 2432SOL     OW 8194   3.151   5.050   2.090
 2432SOL    HW1 8195   3.239   5.043   2.042
 2432SOL    HW2 8196   3.096   4.969   2.070
 2433SOL     OW 8197   6.278   4.178   5.913
 2433SOL    HW1 8198   6.225   4.250   5.869
 2433SOL    HW2 8199   6.252   4.173   6.010
 2434SOL     OW 8200   4.859   1.168   2.678
 2434SOL    HW1 8201   4.901   1.085   2.642
 2434SOL    HW2 8202   4.879   1.177   2.775
 2435SOL     OW 8203   6.011   6.641   6.939
 2435SOL    HW1 8204   6.090   6.654   6.879
 2435SOL    HW2 8205   6.019   6.552   6.984
 2436SOL     OW 8206   1.876   1.890   2.252
 2436SOL    HW1 8207   1.866   1.815   2.187
 2436SOL    HW2 8208   1.959   1.942   2.232
 2437SOL     OW 8209   0.009   4.367   2.225
 2437SOL    HW1 8210   6.947   4.328   2.185
 2437SOL    HW2 8211   0.075   4.293   2.241
 2438SOL     OW 8212   3.109   1.198   5.102
 2438SOL    HW1 8213   3.168   1.264   5.147
 2438SOL    HW2 8214   3.161   1.116   5.080
 2439SOL     OW 8215   1.025   0.002   1.635
 2439SOL    HW1 8216   1.013   0.053   1.720
 2439SOL    HW2 8217   1.006   0.061   1.557
 2440SOL     OW 8218   5.589   0.923   5.062
 2440SOL    HW1 8219   5.531   0.842   5.056
 2440SOL    HW2 8220   5.661   0.908   5.130
 2441SOL     OW 8221   6.309   7.013   6.567
 2441SOL    HW1 8222   6.405   6.996   6.544
 2441SOL    HW2 8223   6.267   6.927   6.597
 2442SOL     OW 8224   4.954   3.199   1.983
 2442SOL    HW1 8225   4.922   3.290   2.010
 2442SOL    HW2 8226   4.885   3.131   2.008
 2443SOL     OW 8227   0.479   2.419   1.655
 2443SOL    HW1 8228   0.410   2.465   1.711
 2443SOL    HW2 8229   0.440   2.397   1.566
 2444SOL     OW 8230   3.866   6.177   1.713
 2444SOL    HW1 8231   3.812   6.093   1.722
 2444SOL    HW2 8232   3.952   6.167   1.763
 2445SOL     OW 8233   0.142   2.329   0.891
 2445SOL    HW1 8234   0.123   2.231   0.902
 2445SOL    HW2 8235   0.103   2.379   0.968
 2446SOL     OW 8236   1.907   4.816   1.378
 2446SOL    HW1 8237   1.915   4.727   1.333
 2446SOL    HW2 8238   1.888   4.803   1.475
 2447SOL     OW 8239   2.730   0.059   0.008
 2447SOL    HW1 8240   2.795   7.006   7.014
 2447SOL    HW2 8241   2.768   0.124   0.074
 2448SOL     OW 8242   6.610   1.538   4.583
 2448SOL    HW1 8243   6.657   1.612   4.632
 2448SOL    HW2 8244   6.582   1.571   4.493
 2449SOL     OW 8245   1.660   4.307   1.633
 2449SOL    HW1 8246   1.583   4.347   1.683
 2449SOL    HW2 8247   1.746   4.337   1.674
 2450SOL     OW 8248   1.921   6.682   6.096
 2450SOL    HW1 8249   1.918   6.589   6.131
 2450SOL    HW2 8250   2.016   6.709   6.081
 2451SOL     OW 8251   1.096   0.021   5.208
 2451SOL    HW1 8252   1.070   0.094   5.272
 2451SOL    HW2 8253   1.167   0.055   5.146
 2452SOL     OW 8254   2.885   1.408   3.814
 2452SOL    HW1 8255   2.938   1.325   3.793
 2452SOL    HW2 8256   2.938   1.466   3.876
 2453SOL     OW 8257   1.019   1.707   6.447
 2453SOL    HW1 8258   1.102   1.668   6.407
 2453SOL    HW2 8259   1.025   1.701   6.547
 2454SOL     OW 8260   3.258   5.345   1.126
 2454SOL    HW1 8261   3.352   5.317   1.106
 2454SOL    HW2 8262   3.233   5.314   1.217
 2455SOL     OW 8263   3.467   2.296   0.937
 2455SOL    HW1 8264   3.400   2.368   0.918
 2455SOL    HW2 8265   3.482   2.289   1.035
 2456SOL     OW 8266   1.257   4.209   6.153
 2456SOL    HW1 8267   1.336   4.259   6.186
 2456SOL    HW2 8268   1.259   4.116   6.191
 2457SOL     OW 8269   5.239   2.344   5.423
 2457SOL    HW1 8270   5.309   2.385   5.365
 2457SOL    HW2 8271   5.254   2.245   5.429
 2458SOL     OW 8272   1.691   0.408   1.522
 2458SOL    HW1 8273   1.788   0.385   1.516
 2458SOL    HW2 8274   1.652   0.416   1.429
 2459SOL     OW 8275   2.978   6.035   1.481
 2459SOL    HW1 8276   3.036   5.968   1.528
 2459SOL    HW2 8277   2.916   6.077   1.546
 2460SOL     OW 8278   1.448   1.328   5.344
 2460SOL    HW1 8279   1.532   1.279   5.323
 2460SOL    HW2 8280   1.463   1.426   5.333
 2461SOL     OW 8281   4.207   1.163   3.863
 2461SOL    HW1 8282   4.163   1.150   3.952
 2461SOL    HW2 8283   4.152   1.225   3.807
 2462SOL     OW 8284   7.000   4.208   0.836
 2462SOL    HW1 8285   6.924   4.268   0.860
 2462SOL    HW2 8286   0.064   4.259   0.846
 2463SOL     OW 8287   6.729   1.040   6.932
 2463SOL    HW1 8288   6.694   0.974   6.865
 2463SOL    HW2 8289   6.672   1.122   6.931
 2464SOL     OW 8290   0.135   2.099   3.342
 2464SOL    HW1 8291   0.105   2.190   3.369
 2464SOL    HW2 8292   0.124   2.036   3.419
 2465SOL     OW 8293   0.780   4.573   5.544
 2465SOL    HW1 8294   0.843   4.527   5.606
 2465SOL    HW2 8295   0.734   4.647   5.593
 2466SOL     OW 8296   0.626   2.656   1.714
 2466SOL    HW1 8297   0.572   2.576   1.687
 2466SOL    HW2 8298   0.684   2.686   1.638
 2467SOL     OW 8299   4.947   1.392   6.120
 2467SOL    HW1 8300   4.953   1.463   6.050
 2467SOL    HW2 8301   5.034   1.344   6.126
 2468SOL     OW 8302   3.311   6.319   5.491
 2468SOL    HW1 8303   3.264   6.319   5.580
 2468SOL    HW2 8304   3.326   6.225   5.462
 2469SOL     OW 8305   3.357   2.712   5.698
 2469SOL    HW1 8306   3.286   2.661   5.649
 2469SOL    HW2 8307   3.378   2.796   5.648
 2470SOL     OW 8308   2.903   4.594   6.509
 2470SOL    HW1 8309   2.934   4.520   6.569
 2470SOL    HW2 8310   2.914   4.566   6.414
 2471SOL     OW 8311   4.329   5.872   1.362
 2471SOL    HW1 8312   4.412   5.928   1.368
 2471SOL    HW2 8313   4.278   5.898   1.280
 2472SOL     OW 8314   4.837   1.690   4.238
 2472SOL    HW1 8315   4.836   1.592   4.217
 2472SOL    HW2 8316   4.930   1.720   4.254
 2473SOL     OW 8317   0.543   4.058   4.821
 2473SOL    HW1 8318   0.631   4.052   4.774
 2473SOL    HW2 8319   0.523   4.154   4.842
 2474SOL     OW 8320   1.474   5.587   1.603
 2474SOL    HW1 8321   1.432   5.529   1.672
 2474SOL    HW2 8322   1.553   5.634   1.642
 2475SOL     OW 8323   4.932   0.195   0.884
 2475SOL    HW1 8324   4.984   0.265   0.934
 2475SOL    HW2 8325   4.995   0.131   0.842
 2476SOL     OW 8326   5.913   0.367   0.324
 2476SOL    HW1 8327   5.888   0.415   0.241
 2476SOL    HW2 8328   5.994   0.311   0.308
 2477SOL     OW 8329   4.140   0.134   3.100
 2477SOL    HW1 8330   4.222   0.186   3.076
 2477SOL    HW2 8331   4.166   0.042   3.129
 2478SOL     OW 8332   4.729   0.790   3.227
 2478SOL    HW1 8333   4.632   0.779   3.203
 2478SOL    HW2 8334   4.786   0.766   3.149
 2479SOL     OW 8335   0.709   4.084   0.431
 2479SOL    HW1 8336   0.759   4.020   0.490
 2479SOL    HW2 8337   0.721   4.177   0.466
 2480SOL     OW 8338   3.184   2.494   1.450
 2480SOL    HW1 8339   3.149   2.585   1.471
 2480SOL    HW2 8340   3.259   2.472   1.512
 2481SOL     OW 8341   3.012   0.593   0.789
 2481SOL    HW1 8342   3.036   0.690   0.786
 2481SOL    HW2 8343   3.046   0.548   0.706
 2482SOL     OW 8344   5.281   3.393   6.890
 2482SOL    HW1 8345   5.284   3.482   6.845
 2482SOL    HW2 8346   5.319   3.400   6.982
 2483SOL     OW 8347   0.856   2.108   0.976
 2483SOL    HW1 8348   0.838   2.052   0.895
 2483SOL    HW2 8349   0.909   2.188   0.949
 2484SOL     OW 8350   5.011   1.806   1.917
 2484SOL    HW1 8351   5.101   1.848   1.911
 2484SOL    HW2 8352   5.021   1.710   1.943
 2485SOL     OW 8353   4.854   2.549   5.895
 2485SOL    HW1 8354   4.934   2.608   5.884
 2485SOL    HW2 8355   4.849   2.516   5.989
 2486SOL     OW 8356   0.488   3.783   4.850
 2486SOL    HW1 8357   0.448   3.763   4.939
 2486SOL    HW2 8358   0.503   3.881   4.841
 2487SOL     OW 8359   4.413   6.181   7.012
 2487SOL    HW1 8360   4.363   6.202   0.074
 2487SOL    HW2 8361   4.510   6.172   0.010
 2488SOL     OW 8362   6.815   4.299   1.379
 2488SOL    HW1 8363   6.811   4.293   1.279
 2488SOL    HW2 8364   6.888   4.361   1.406
 2489SOL     OW 8365   0.555   6.192   4.296
 2489SOL    HW1 8366   0.567   6.239   4.209
 2489SOL    HW2 8367   0.634   6.133   4.313
 2490SOL     OW 8368   2.964   5.893   2.454
 2490SOL    HW1 8369   2.945   5.796   2.468
 2490SOL    HW2 8370   2.983   5.937   2.542
 2491SOL     OW 8371   4.229   4.609   1.677
 2491SOL    HW1 8372   4.303   4.542   1.678
 2491SOL    HW2 8373   4.261   4.695   1.717
 2492SOL     OW 8374   6.104   3.816   0.682
 2492SOL    HW1 8375   6.016   3.791   0.722
 2492SOL    HW2 8376   6.092   3.832   0.584
 2493SOL     OW 8377   0.435   6.521   1.570
 2493SOL    HW1 8378   0.479   6.474   1.646
 2493SOL    HW2 8379   0.443   6.466   1.487
 2494SOL     OW 8380   5.820   2.173   1.694
 2494SOL    HW1 8381   5.799   2.219   1.607
 2494SOL    HW2 8382   5.862   2.238   1.757
 2495SOL     OW 8383   6.319   5.823   3.331
 2495SOL    HW1 8384   6.276   5.743   3.372
 2495SOL    HW2 8385   6.412   5.800   3.302
 2496SOL     OW 8386   6.333   4.870   6.937
 2496SOL    HW1 8387   6.239   4.838   6.924
 2496SOL    HW2 8388   6.383   4.860   6.851
 2497SOL     OW 8389   0.438   6.514   2.271
 2497SOL    HW1 8390   0.411   6.545   2.180
 2497SOL    HW2 8391   0.536   6.529   2.284
 2498SOL     OW 8392   2.193   3.141   5.695
 2498SOL    HW1 8393   2.261   3.093   5.751
 2498SOL    HW2 8394   2.212   3.239   5.698
 2499SOL     OW 8395   6.284   3.409   1.410
 2499SOL    HW1 8396   6.291   3.443   1.504
 2499SOL    HW2 8397   6.190   3.379   1.392
 2500SOL     OW 8398   3.511   3.852   6.539
 2500SOL    HW1 8399   3.429   3.865   6.595
 2500SOL    HW2 8400   3.491   3.878   6.444
 2501SOL     OW 8401   5.836   5.765   0.391
 2501SOL    HW1 8402   5.851   5.788   0.295
 2501SOL    HW2 8403   5.818   5.667   0.401
 2502SOL     OW 8404   2.466   5.633   4.462
 2502SOL    HW1 8405   2.501   5.573   4.391
 2502SOL    HW2 8406   2.504   5.608   4.550
 2503SOL     OW 8407   2.833   6.883   5.392
 2503SOL    HW1 8408   2.825   6.919   5.299
 2503SOL    HW2 8409   2.742   6.854   5.424
 2504SOL     OW 8410   2.990   5.574   2.800
 2504SOL    HW1 8411   2.989   5.533   2.891
 2504SOL    HW2 8412   3.079   5.559   2.757
 2505SOL     OW 8413   0.781   5.690   2.162
 2505SOL    HW1 8414   0.827   5.605   2.137
 2505SOL    HW2 8415   0.800   5.760   2.093
 2506SOL     OW 8416   6.110   4.511   6.376
 2506SOL    HW1 8417   6.095   4.572   6.454
 2506SOL    HW2 8418   6.208   4.496   6.364
 2507SOL     OW 8419   6.878   3.240   0.404
 2507SOL    HW1 8420   6.887   3.247   0.304
 2507SOL    HW2 8421   6.866   3.331   0.443
 2508SOL     OW 8422   3.171   2.063   5.202
 2508SOL    HW1 8423   3.169   2.101   5.295
 2508SOL    HW2 8424   3.168   2.137   5.135
 2509SOL     OW 8425   6.467   3.701   6.481
 2509SOL    HW1 8426   6.372   3.727   6.497
 2509SOL    HW2 8427   6.514   3.774   6.431
 2510SOL     OW 8428   3.565   3.645   2.020
 2510SOL    HW1 8429   3.606   3.734   2.002
 2510SOL    HW2 8430   3.465   3.654   2.020
 2511SOL     OW 8431   2.182   0.674   5.090
 2511SOL    HW1 8432   2.180   0.586   5.138
 2511SOL    HW2 8433   2.118   0.737   5.134
 2512SOL     OW 8434   3.551   4.277   5.117
 2512SOL    HW1 8435   3.563   4.248   5.022
 2512SOL    HW2 8436   3.471   4.232   5.156
 2513SOL     OW 8437   2.086   6.806   5.796
 2513SOL    HW1 8438   2.181   6.780   5.814
 2513SOL    HW2 8439   2.037   6.729   5.756
 2514SOL     OW 8440   1.048   3.115   3.856
 2514SOL    HW1 8441   0.982   3.058   3.806
 2514SOL    HW2 8442   1.001   3.162   3.931
 2515SOL     OW 8443   1.937   0.625   1.255
 2515SOL    HW1 8444   1.967   0.627   1.351
 2515SOL    HW2 8445   1.983   0.698   1.204
 2516SOL     OW 8446   4.823   1.367   3.922
 2516SOL    HW1 8447   4.899   1.405   3.869
 2516SOL    HW2 8448   4.815   1.269   3.902
 2517SOL     OW 8449   0.743   1.006   4.945
 2517SOL    HW1 8450   0.663   1.066   4.942
 2517SOL    HW2 8451   0.818   1.052   4.993
 2518SOL     OW 8452   2.501   5.135   1.202
 2518SOL    HW1 8453   2.456   5.190   1.272
 2518SOL    HW2 8454   2.587   5.179   1.176
 2519SOL     OW 8455   2.593   1.394   1.341
 2519SOL    HW1 8456   2.640   1.325   1.397
 2519SOL    HW2 8457   2.655   1.426   1.270
 2520SOL     OW 8458   3.321   2.527   0.936
 2520SOL    HW1 8459   3.245   2.491   0.882
 2520SOL    HW2 8460   3.285   2.581   1.012
 2521SOL     OW 8461   4.078   1.566   4.970
 2521SOL    HW1 8462   4.049   1.549   5.064
 2521SOL    HW2 8463   4.116   1.483   4.930
 2522SOL     OW 8464   1.190   1.489   5.623
 2522SOL    HW1 8465   1.248   1.565   5.593
 2522SOL    HW2 8466   1.226   1.450   5.707
 2523SOL     OW 8467   2.083   4.519   0.827
 2523SOL    HW1 8468   2.083   4.600   0.769
 2523SOL    HW2 8469   2.147   4.451   0.790
 2524SOL     OW 8470   1.363   6.887   4.390
 2524SOL    HW1 8471   1.329   6.845   4.306
 2524SOL    HW2 8472   1.463   6.883   4.391
 2525SOL     OW 8473   1.142   2.971   4.659
 2525SOL    HW1 8474   1.141   3.064   4.698
 2525SOL    HW2 8475   1.230   2.927   4.679
 2526SOL     OW 8476   1.641   5.273   6.735
 2526SOL    HW1 8477   1.559   5.306   6.781
 2526SOL    HW2 8478   1.660   5.179   6.763
 2527SOL     OW 8479   5.298   5.728   5.297
 2527SOL    HW1 8480   5.245   5.701   5.377
 2527SOL    HW2 8481   5.249   5.800   5.248
 2528SOL     OW 8482   5.090   4.631   5.196
 2528SOL    HW1 8483   5.184   4.654   5.222
 2528SOL    HW2 8484   5.074   4.533   5.208
 2529SOL     OW 8485   0.894   0.237   6.357
 2529SOL    HW1 8486   0.797   0.241   6.331
 2529SOL    HW2 8487   0.920   0.142   6.375
 2530SOL     OW 8488   2.963   6.045   5.964
 2530SOL    HW1 8489   3.059   6.026   5.946
 2530SOL    HW2 8490   2.956   6.121   6.029
 2531SOL     OW 8491   5.793   6.018   5.432
 2531SOL    HW1 8492   5.709   5.985   5.474
 2531SOL    HW2 8493   5.773   6.097   5.374
 2532SOL     OW 8494   1.111   6.086   1.467
 2532SOL    HW1 8495   1.085   6.076   1.371
 2532SOL    HW2 8496   1.031   6.114   1.521
 2533SOL     OW 8497   5.004   0.680   3.184
 2533SOL    HW1 8498   5.102   0.686   3.204
 2533SOL    HW2 8499   4.958   0.632   3.259
 2534SOL     OW 8500   4.616   1.574   1.808
 2534SOL    HW1 8501   4.575   1.586   1.898
 2534SOL    HW2 8502   4.575   1.638   1.744
 2535SOL     OW 8503   3.685   2.691   6.643
 2535SOL    HW1 8504   3.783   2.712   6.641
 2535SOL    HW2 8505   3.659   2.662   6.735
 2536SOL     OW 8506   1.520   0.695   6.929
 2536SOL    HW1 8507   1.579   0.690   6.848
 2536SOL    HW2 8508   1.435   0.742   6.905
 2537SOL     OW 8509   3.478   0.834   6.449
 2537SOL    HW1 8510   3.464   0.746   6.495
 2537SOL    HW2 8511   3.494   0.819   6.352
 2538SOL     OW 8512   6.904   3.714   3.609
 2538SOL    HW1 8513   6.912   3.642   3.541
 2538SOL    HW2 8514   6.936   3.801   3.570
 2539SOL     OW 8515   5.911   0.918   3.690
 2539SOL    HW1 8516   5.847   0.957   3.624
 2539SOL    HW2 8517   5.986   0.874   3.642
 2540SOL     OW 8518   3.892   2.025   3.046
 2540SOL    HW1 8519   3.983   2.011   3.005
 2540SOL    HW2 8520   3.900   2.088   3.123
 2541SOL     OW 8521   2.806   0.066   4.842
 2541SOL    HW1 8522   2.813   0.133   4.768
 2541SOL    HW2 8523   2.894   0.060   4.889
 2542SOL     OW 8524   1.938   3.950   6.562
 2542SOL    HW1 8525   1.880   3.920   6.486
 2542SOL    HW2 8526   2.002   4.019   6.530
 2543SOL     OW 8527   0.950   1.411   4.100
 2543SOL    HW1 8528   1.021   1.384   4.035
 2543SOL    HW2 8529   0.916   1.502   4.076
 2544SOL     OW 8530   1.254   5.204   0.906
 2544SOL    HW1 8531   1.215   5.136   0.844
 2544SOL    HW2 8532   1.353   5.194   0.910
 2545SOL     OW 8533   1.792   0.177   2.552
 2545SOL    HW1 8534   1.775   0.230   2.635
 2545SOL    HW2 8535   1.848   0.231   2.489
 2546SOL     OW 8536   5.932   1.934   0.409
 2546SOL    HW1 8537   5.903   1.868   0.479
 2546SOL    HW2 8538   5.982   2.009   0.452
 2547SOL     OW 8539   6.952   3.699   6.926
 2547SOL    HW1 8540   6.901   3.685   6.842
 2547SOL    HW2 8541   6.949   3.615   6.982
 2548SOL     OW 8542   0.456   6.534   4.571
 2548SOL    HW1 8543   0.470   6.448   4.522
 2548SOL    HW2 8544   0.527   6.599   4.545
 2549SOL     OW 8545   0.524   0.307   1.668
 2549SOL    HW1 8546   0.434   0.351   1.659
 2549SOL    HW2 8547   0.562   0.290   1.577
 2550SOL     OW 8548   6.157   6.829   0.519
 2550SOL    HW1 8549   6.194   6.921   0.506
 2550SOL    HW2 8550   6.117   6.821   0.610
 2551SOL     OW 8551   2.571   4.571   6.522
 2551SOL    HW1 8552   2.666   4.548   6.505
 2551SOL    HW2 8553   2.549   4.659   6.480
 2552SOL     OW 8554   2.517   4.498   4.463
 2552SOL    HW1 8555   2.499   4.461   4.373
 2552SOL    HW2 8556   2.487   4.434   4.533
 2553SOL     OW 8557   3.916   3.696   6.249
 2553SOL    HW1 8558   4.006   3.741   6.254
 2553SOL    HW2 8559   3.899   3.667   6.155
 2554SOL     OW 8560   2.590   2.105   0.654
 2554SOL    HW1 8561   2.580   2.071   0.748
 2554SOL    HW2 8562   2.500   2.121   0.614
 2555SOL     OW 8563   5.054   2.845   4.470
 2555SOL    HW1 8564   5.078   2.898   4.389
 2555SOL    HW2 8565   4.959   2.863   4.495
 2556SOL     OW 8566   3.642   6.049   0.631
 2556SOL    HW1 8567   3.729   6.090   0.657
 2556SOL    HW2 8568   3.578   6.054   0.708
 2557SOL     OW 8569   2.158   3.587   6.666
 2557SOL    HW1 8570   2.173   3.516   6.598
 2557SOL    HW2 8571   2.113   3.547   6.746
 2558SOL     OW 8572   5.249   1.214   5.616
 2558SOL    HW1 8573   5.343   1.183   5.625
 2558SOL    HW2 8574   5.247   1.297   5.559
 2559SOL     OW 8575   0.773   4.208   6.013
 2559SOL    HW1 8576   0.751   4.246   6.103
 2559SOL    HW2 8577   0.726   4.261   5.942
 2560SOL     OW 8578   6.300   2.220   6.250
 2560SOL    HW1 8579   6.344   2.135   6.221
 2560SOL    HW2 8580   6.202   2.206   6.260
 2561SOL     OW 8581   3.325   5.002   4.618
 2561SOL    HW1 8582   3.399   5.055   4.660
 2561SOL    HW2 8583   3.270   4.959   4.690
 2562SOL     OW 8584   2.300   4.159   0.743
 2562SOL    HW1 8585   2.356   4.129   0.665
 2562SOL    HW2 8586   2.227   4.093   0.758
 2563SOL     OW 8587   3.112   0.870   0.027
 2563SOL    HW1 8588   3.162   0.945   0.069
 2563SOL    HW2 8589   3.022   0.860   0.071
 2564SOL     OW 8590   1.761   5.402   0.815
 2564SOL    HW1 8591   1.708   5.487   0.822
 2564SOL    HW2 8592   1.796   5.377   0.905
 2565SOL     OW 8593   1.117   0.942   1.101
 2565SOL    HW1 8594   1.038   0.924   1.042
 2565SOL    HW2 8595   1.171   1.018   1.063
 2566SOL     OW 8596   2.623   6.564   0.562
 2566SOL    HW1 8597   2.616   6.586   0.659
 2566SOL    HW2 8598   2.577   6.477   0.544
 2567SOL     OW 8599   1.446   6.972   0.391
 2567SOL    HW1 8600   1.420   6.883   0.428
 2567SOL    HW2 8601   1.364   0.007   0.382
 2568SOL     OW 8602   4.441   2.211   7.002
 2568SOL    HW1 8603   4.518   2.260   6.962
 2568SOL    HW2 8604   4.373   2.191   6.931
 2569SOL     OW 8605   3.940   1.185   3.626
 2569SOL    HW1 8606   3.942   1.088   3.651
 2569SOL    HW2 8607   3.848   1.221   3.641
 2570SOL     OW 8608   5.529   0.946   5.375
 2570SOL    HW1 8609   5.513   0.882   5.300
 2570SOL    HW2 8610   5.442   0.969   5.419
 2571SOL     OW 8611   1.201   5.101   4.578
 2571SOL    HW1 8612   1.285   5.148   4.605
 2571SOL    HW2 8613   1.181   5.120   4.482
 2572SOL     OW 8614   2.463   4.730   2.978
 2572SOL    HW1 8615   2.560   4.720   2.957
 2572SOL    HW2 8616   2.427   4.812   2.933
 2573SOL     OW 8617   0.588   1.462   1.163
 2573SOL    HW1 8618   0.650   1.388   1.186
 2573SOL    HW2 8619   0.579   1.468   1.063
 2574SOL     OW 8620   5.834   2.866   0.838
 2574SOL    HW1 8621   5.821   2.895   0.743
 2574SOL    HW2 8622   5.931   2.871   0.862
 2575SOL     OW 8623   6.063   5.863   0.170
 2575SOL    HW1 8624   6.063   5.885   0.268
 2575SOL    HW2 8625   6.107   5.936   0.119
 2576SOL     OW 8626   4.673   6.694   4.060
 2576SOL    HW1 8627   4.735   6.645   3.999
 2576SOL    HW2 8628   4.710   6.786   4.078
 2577SOL     OW 8629   2.998   4.787   2.265
 2577SOL    HW1 8630   3.064   4.712   2.269
 2577SOL    HW2 8631   2.975   4.815   2.359
 2578SOL     OW 8632   3.665   1.405   4.301
 2578SOL    HW1 8633   3.720   1.468   4.246
 2578SOL    HW2 8634   3.603   1.458   4.359
 2579SOL     OW 8635   0.753   6.513   3.489
 2579SOL    HW1 8636   0.766   6.592   3.430
 2579SOL    HW2 8637   0.836   6.495   3.541
 2580SOL     OW 8638   3.042   4.179   0.265
 2580SOL    HW1 8639   3.077   4.244   0.197
 2580SOL    HW2 8640   2.955   4.212   0.301
 2581SOL     OW 8641   2.674   6.522   5.618
 2581SOL    HW1 8642   2.678   6.428   5.652
 2581SOL    HW2 8643   2.579   6.550   5.606
 2582SOL     OW 8644   6.523   3.825   1.266
 2582SOL    HW1 8645   6.446   3.778   1.309
 2582SOL    HW2 8646   6.533   3.794   1.172
 2583SOL     OW 8647   6.781   6.596   1.008
 2583SOL    HW1 8648   6.752   6.667   0.943
 2583SOL    HW2 8649   6.781   6.507   0.961
 2584SOL     OW 8650   4.230   4.946   5.791
 2584SOL    HW1 8651   4.322   4.925   5.758
 2584SOL    HW2 8652   4.165   4.940   5.716
 2585SOL     OW 8653   3.467   5.154   6.372
 2585SOL    HW1 8654   3.468   5.254   6.374
 2585SOL    HW2 8655   3.410   5.122   6.296
 2586SOL     OW 8656   2.248   0.825   5.780
 2586SOL    HW1 8657   2.232   0.855   5.686
 2586SOL    HW2 8658   2.324   0.876   5.819
 2587SOL     OW 8659   0.194   0.709   2.656
 2587SOL    HW1 8660   0.204   0.808   2.649
 2587SOL    HW2 8661   0.174   0.671   2.565
 2588SOL     OW 8662   4.488   1.799   5.517
 2588SOL    HW1 8663   4.420   1.856   5.564
 2588SOL    HW2 8664   4.566   1.856   5.489
 2589SOL     OW 8665   1.195   6.440   0.037
 2589SOL    HW1 8666   1.135   6.463   6.983
 2589SOL    HW2 8667   1.264   6.512   0.049
 2590SOL     OW 8668   2.372   4.652   0.231
 2590SOL    HW1 8669   2.404   4.560   0.257
 2590SOL    HW2 8670   2.429   4.721   0.276
 2591SOL     OW 8671   6.119   5.601   3.963
 2591SOL    HW1 8672   6.128   5.603   4.063
 2591SOL    HW2 8673   6.053   5.531   3.937
 2592SOL     OW 8674   2.270   4.108   6.831
 2592SOL    HW1 8675   2.227   4.115   6.741
 2592SOL    HW2 8676   2.303   4.015   6.845
 2593SOL     OW 8677   3.216   5.659   0.823
 2593SOL    HW1 8678   3.258   5.602   0.752
 2593SOL    HW2 8679   3.248   5.753   0.813
 2594SOL     OW 8680   2.031   4.108   5.398
 2594SOL    HW1 8681   2.076   4.175   5.339
 2594SOL    HW2 8682   2.003   4.152   5.483
 2595SOL     OW 8683   1.495   1.517   4.519
 2595SOL    HW1 8684   1.542   1.556   4.598
 2595SOL    HW2 8685   1.525   1.564   4.436
 2596SOL     OW 8686   1.741   2.736   1.244
 2596SOL    HW1 8687   1.667   2.722   1.309
 2596SOL    HW2 8688   1.730   2.825   1.199
 2597SOL     OW 8689   0.779   5.951   6.238
 2597SOL    HW1 8690   0.722   5.944   6.320
 2597SOL    HW2 8691   0.793   5.859   6.200
 2598SOL     OW 8692   6.234   1.595   2.089
 2598SOL    HW1 8693   6.142   1.616   2.122
 2598SOL    HW2 8694   6.301   1.621   2.160
 2599SOL     OW 8695   3.112   6.795   1.593
 2599SOL    HW1 8696   3.209   6.819   1.593
 2599SOL    HW2 8697   3.065   6.846   1.521
 2600SOL     OW 8698   6.763   4.199   4.381
 2600SOL    HW1 8699   6.697   4.133   4.345
 2600SOL    HW2 8700   6.831   4.220   4.311
 2601SOL     OW 8701   0.763   1.938   2.414
 2601SOL    HW1 8702   0.692   1.972   2.352
 2601SOL    HW2 8703   0.728   1.940   2.508
 2602SOL     OW 8704   1.876   4.829   4.711
 2602SOL    HW1 8705   1.944   4.769   4.668
 2602SOL    HW2 8706   1.885   4.824   4.810
 2603SOL     OW 8707   3.103   1.104   2.494
 2603SOL    HW1 8708   3.024   1.068   2.543
 2603SOL    HW2 8709   3.187   1.077   2.541
 2604SOL     OW 8710   5.650   1.760   2.181
 2604SOL    HW1 8711   5.712   1.775   2.258
 2604SOL    HW2 8712   5.569   1.710   2.212
 2605SOL     OW 8713   1.102   3.945   1.790
 2605SOL    HW1 8714   1.060   3.866   1.744
 2605SOL    HW2 8715   1.199   3.926   1.806
 2606SOL     OW 8716   4.655   4.393   1.203
 2606SOL    HW1 8717   4.752   4.403   1.229
 2606SOL    HW2 8718   4.602   4.465   1.248
 2607SOL     OW 8719   1.705   2.135   1.277
 2607SOL    HW1 8720   1.802   2.149   1.298
 2607SOL    HW2 8721   1.683   2.038   1.283
 2608SOL     OW 8722   2.900   6.090   6.480
 2608SOL    HW1 8723   2.880   5.992   6.481
 2608SOL    HW2 8724   2.814   6.142   6.484
 2609SOL     OW 8725   0.720   0.592   1.227
 2609SOL    HW1 8726   0.759   0.619   1.315
 2609SOL    HW2 8727   0.697   0.673   1.174
 2610SOL     OW 8728   0.946   5.031   4.657
 2610SOL    HW1 8729   1.045   5.037   4.641
 2610SOL    HW2 8730   0.929   4.971   4.735
 2611SOL     OW 8731   4.919   6.605   6.776
 2611SOL    HW1 8732   4.976   6.523   6.782
 2611SOL    HW2 8733   4.896   6.637   6.868
 2612SOL     OW 8734   5.233   0.460   4.959
 2612SOL    HW1 8735   5.237   0.396   5.036
 2612SOL    HW2 8736   5.229   0.409   4.873
 2613SOL     OW 8737   0.878   5.826   6.559
 2613SOL    HW1 8738   0.800   5.852   6.501
 2613SOL    HW2 8739   0.892   5.727   6.553
 2614SOL     OW 8740   6.834   0.434   6.431
 2614SOL    HW1 8741   6.751   0.392   6.466
 2614SOL    HW2 8742   6.900   0.445   6.505
 2615SOL     OW 8743   1.265   4.044   0.787
 2615SOL    HW1 8744   1.304   3.978   0.723
 2615SOL    HW2 8745   1.286   4.016   0.880
 2616SOL     OW 8746   1.765   0.521   5.389
 2616SOL    HW1 8747   1.688   0.460   5.370
 2616SOL    HW2 8748   1.818   0.536   5.305
 2617SOL     OW 8749   5.430   0.538   0.191
 2617SOL    HW1 8750   5.438   0.637   0.184
 2617SOL    HW2 8751   5.467   0.508   0.279
 2618SOL     OW 8752   1.899   6.295   6.090
 2618SOL    HW1 8753   1.973   6.311   6.156
 2618SOL    HW2 8754   1.934   6.301   5.997
 2619SOL     OW 8755   4.304   1.685   2.117
 2619SOL    HW1 8756   4.287   1.736   2.033
 2619SOL    HW2 8757   4.279   1.589   2.103
 2620SOL     OW 8758   0.338   6.271   2.086
 2620SOL    HW1 8759   0.371   6.247   2.177
 2620SOL    HW2 8760   0.387   6.352   2.054
 2621SOL     OW 8761   1.202   6.172   2.890
 2621SOL    HW1 8762   1.118   6.120   2.907
 2621SOL    HW2 8763   1.273   6.109   2.859
 2622SOL     OW 8764   3.153   3.552   6.558
 2622SOL    HW1 8765   3.210   3.510   6.486
 2622SOL    HW2 8766   3.060   3.564   6.524
 2623SOL     OW 8767   1.112   0.186   4.152
 2623SOL    HW1 8768   1.064   0.144   4.074
 2623SOL    HW2 8769   1.054   0.181   4.233
 2624SOL     OW 8770   0.469   2.385   4.484
 2624SOL    HW1 8771   0.546   2.385   4.421
 2624SOL    HW2 8772   0.503   2.386   4.578
 2625SOL     OW 8773   2.079   5.367   5.539
 2625SOL    HW1 8774   2.135   5.394   5.618
 2625SOL    HW2 8775   2.020   5.290   5.566
 2626SOL     OW 8776   6.305   5.375   5.979
 2626SOL    HW1 8777   6.270   5.334   6.064
 2626SOL    HW2 8778   6.228   5.396   5.919
 2627SOL     OW 8779   1.009   0.012   5.995
 2627SOL    HW1 8780   0.991   6.981   6.078
 2627SOL    HW2 8781   1.058   6.977   5.929
 2628SOL     OW 8782   1.544   4.004   2.214
 2628SOL    HW1 8783   1.534   3.904   2.212
 2628SOL    HW2 8784   1.454   4.047   2.216
 2629SOL     OW 8785   4.031   3.860   3.484
 2629SOL    HW1 8786   3.970   3.930   3.446
 2629SOL    HW2 8787   4.055   3.883   3.578
 2630SOL     OW 8788   3.534   0.877   3.982
 2630SOL    HW1 8789   3.461   0.821   3.943
 2630SOL    HW2 8790   3.589   0.821   4.044
 2631SOL     OW 8791   5.908   0.700   0.057
 2631SOL    HW1 8792   5.839   0.711   0.128
 2631SOL    HW2 8793   5.960   0.785   0.048
 2632SOL     OW 8794   5.467   4.764   2.137
 2632SOL    HW1 8795   5.523   4.846   2.152
 2632SOL    HW2 8796   5.408   4.779   2.058
 2633SOL     OW 8797   6.927   3.018   5.784
 2633SOL    HW1 8798   0.002   2.994   5.794
 2633SOL    HW2 8799   6.904   3.026   5.687
 2634SOL     OW 8800   6.293   0.478   5.503
 2634SOL    HW1 8801   6.379   0.531   5.506
 2634SOL    HW2 8802   6.253   0.486   5.412
 2635SOL     OW 8803   5.865   5.350   3.560
 2635SOL    HW1 8804   5.937   5.300   3.608
 2635SOL    HW2 8805   5.898   5.441   3.536
 2636SOL     OW 8806   4.249   6.722   6.563
 2636SOL    HW1 8807   4.268   6.803   6.617
 2636SOL    HW2 8808   4.297   6.729   6.475
 2637SOL     OW 8809   1.942   1.361   3.324
 2637SOL    HW1 8810   2.031   1.338   3.284
 2637SOL    HW2 8811   1.874   1.373   3.251
 2638SOL     OW 8812   0.969   6.995   4.504
 2638SOL    HW1 8813   1.060   0.009   4.480
 2638SOL    HW2 8814   0.973   6.896   4.511
 2639SOL     OW 8815   4.184   4.966   4.829
 2639SOL    HW1 8816   4.194   5.012   4.740
 2639SOL    HW2 8817   4.252   4.893   4.837
 2640SOL     OW 8818   1.313   6.763   4.637
 2640SOL    HW1 8819   1.322   6.809   4.548
 2640SOL    HW2 8820   1.257   6.681   4.626
 2641SOL     OW 8821   5.478   1.944   6.719
 2641SOL    HW1 8822   5.442   1.966   6.809
 2641SOL    HW2 8823   5.534   1.861   6.724
 2642SOL     OW 8824   6.933   1.328   4.119
 2642SOL    HW1 8825   6.872   1.265   4.071
 2642SOL    HW2 8826   6.909   1.331   4.216
 2643SOL     OW 8827   1.229   4.027   3.706
 2643SOL    HW1 8828   1.161   3.975   3.758
 2643SOL    HW2 8829   1.298   3.964   3.669
 2644SOL     OW 8830   5.246   5.236   4.930
 2644SOL    HW1 8831   5.235   5.336   4.929
 2644SOL    HW2 8832   5.158   5.193   4.915
 2645SOL     OW 8833   5.298   5.091   3.153
 2645SOL    HW1 8834   5.278   5.103   3.250
 2645SOL    HW2 8835   5.270   5.000   3.124
 2646SOL     OW 8836   6.863   3.553   5.542
 2646SOL    HW1 8837   6.955   3.586   5.562
 2646SOL    HW2 8838   6.868   3.482   5.472
 2647SOL     OW 8839   4.998   6.906   2.055
 2647SOL    HW1 8840   4.997   6.956   1.968
 2647SOL    HW2 8841   5.081   6.851   2.061
 2648SOL     OW 8842   0.636   0.061   4.917
 2648SOL    HW1 8843   0.536   0.065   4.923
 2648SOL    HW2 8844   0.664   0.067   4.821
 2649SOL     OW 8845   5.031   2.457   1.945
 2649SOL    HW1 8846   5.003   2.543   1.903
 2649SOL    HW2 8847   5.046   2.388   1.873
 2650SOL     OW 8848   3.949   6.169   4.718
 2650SOL    HW1 8849   3.881   6.229   4.677
 2650SOL    HW2 8850   3.904   6.102   4.777
 2651SOL     OW 8851   3.977   2.044   5.013
 2651SOL    HW1 8852   4.017   2.009   4.928
 2651SOL    HW2 8853   4.020   2.131   5.037
 2652SOL     OW 8854   5.295   4.411   5.680
 2652SOL    HW1 8855   5.359   4.348   5.723
 2652SOL    HW2 8856   5.277   4.488   5.741
 2653SOL     OW 8857   2.752   6.437   0.046
 2653SOL    HW1 8858   2.835   6.449   0.101
 2653SOL    HW2 8859   2.772   6.461   6.972
 2654SOL     OW 8860   5.958   0.753   0.619
 2654SOL    HW1 8861   5.898   0.809   0.676
 2654SOL    HW2 8862   5.903   0.705   0.551
 2655SOL     OW 8863   5.070   5.607   3.008
 2655SOL    HW1 8864   5.052   5.675   2.937
 2655SOL    HW2 8865   4.990   5.600   3.069
 2656SOL     OW 8866   3.547   5.546   3.871
 2656SOL    HW1 8867   3.484   5.498   3.810
 2656SOL    HW2 8868   3.545   5.502   3.961
 2657SOL     OW 8869   1.448   3.397   0.196
 2657SOL    HW1 8870   1.413   3.412   0.289
 2657SOL    HW2 8871   1.548   3.399   0.198
 2658SOL     OW 8872   4.095   4.819   6.727
 2658SOL    HW1 8873   4.189   4.833   6.697
 2658SOL    HW2 8874   4.034   4.826   6.648
 2659SOL     OW 8875   6.649   2.694   4.614
 2659SOL    HW1 8876   6.744   2.663   4.608
 2659SOL    HW2 8877   6.635   2.770   4.551
 2660SOL     OW 8878   0.326   2.402   1.977
 2660SOL    HW1 8879   0.378   2.317   1.975
 2660SOL    HW2 8880   0.282   2.417   1.888
 2661SOL     OW 8881   1.872   1.674   0.917
 2661SOL    HW1 8882   1.806   1.602   0.898
 2661SOL    HW2 8883   1.876   1.737   0.839
 2662SOL     OW 8884   3.099   0.796   2.499
 2662SOL    HW1 8885   3.057   0.718   2.452
 2662SOL    HW2 8886   3.197   0.798   2.478
 2663SOL     OW 8887   4.326   6.526   0.429
 2663SOL    HW1 8888   4.283   6.558   0.513
 2663SOL    HW2 8889   4.262   6.465   0.381
 2664SOL     OW 8890   4.139   2.682   5.856
 2664SOL    HW1 8891   4.091   2.625   5.790
 2664SOL    HW2 8892   4.149   2.775   5.820
 2665SOL     OW 8893   1.958   3.830   5.492
 2665SOL    HW1 8894   1.915   3.777   5.419
 2665SOL    HW2 8895   1.968   3.925   5.462
 2666SOL     OW 8896   2.112   3.933   2.162
 2666SOL    HW1 8897   2.180   4.004   2.142
 2666SOL    HW2 8898   2.153   3.843   2.150
 2667SOL     OW 8899   6.507   3.729   4.169
 2667SOL    HW1 8900   6.554   3.786   4.236
 2667SOL    HW2 8901   6.408   3.734   4.184
 2668SOL     OW 8902   6.471   1.425   4.147
 2668SOL    HW1 8903   6.509   1.371   4.221
 2668SOL    HW2 8904   6.448   1.365   4.070
 2669SOL     OW 8905   2.627   0.965   0.309
 2669SOL    HW1 8906   2.591   0.932   0.397
 2669SOL    HW2 8907   2.551   0.992   0.250
 2670SOL     OW 8908   0.517   0.497   6.371
 2670SOL    HW1 8909   0.501   0.426   6.302
 2670SOL    HW2 8910   0.518   0.455   6.462
 2671SOL     OW 8911   3.972   5.262   5.939
 2671SOL    HW1 8912   4.017   5.282   6.027
 2671SOL    HW2 8913   3.956   5.163   5.933
 2672SOL     OW 8914   3.809   1.085   1.774
 2672SOL    HW1 8915   3.852   1.015   1.830
 2672SOL    HW2 8916   3.877   1.122   1.710
 2673SOL     OW 8917   4.380   0.720   2.255
 2673SOL    HW1 8918   4.403   0.779   2.178
 2673SOL    HW2 8919   4.453   0.726   2.324
 2674SOL     OW 8920   0.629   4.646   2.332
 2674SOL    HW1 8921   0.688   4.591   2.391
 2674SOL    HW2 8922   0.681   4.722   2.294
 2675SOL     OW 8923   5.501   0.534   4.518
 2675SOL    HW1 8924   5.471   0.608   4.578
 2675SOL    HW2 8925   5.533   0.573   4.431
 2676SOL     OW 8926   3.600   4.143   3.362
 2676SOL    HW1 8927   3.510   4.137   3.406
 2676SOL    HW2 8928   3.590   4.136   3.263
 2677SOL     OW 8929   2.203   4.980   1.417
 2677SOL    HW1 8930   2.253   5.067   1.423
 2677SOL    HW2 8931   2.147   4.979   1.335
 2678SOL     OW 8932   5.610   1.889   2.626
 2678SOL    HW1 8933   5.570   1.966   2.576
 2678SOL    HW2 8934   5.558   1.806   2.607
 2679SOL     OW 8935   2.089   4.549   3.775
 2679SOL    HW1 8936   2.070   4.627   3.715
 2679SOL    HW2 8937   2.031   4.472   3.749
 2680SOL     OW 8938   0.453   2.225   6.968
 2680SOL    HW1 8939   0.508   2.256   0.023
 2680SOL    HW2 8940   0.510   2.168   6.907
 2681SOL     OW 8941   1.694   2.473   5.029
 2681SOL    HW1 8942   1.725   2.553   5.079
 2681SOL    HW2 8943   1.766   2.442   4.966
 2682SOL     OW 8944   4.260   3.973   1.710
 2682SOL    HW1 8945   4.257   4.009   1.617
 2682SOL    HW2 8946   4.168   3.970   1.748
 2683SOL     OW 8947   2.400   4.332   2.392
 2683SOL    HW1 8948   2.321   4.392   2.399
 2683SOL    HW2 8949   2.378   4.243   2.432
 2684SOL     OW 8950   5.839   6.721   2.858
 2684SOL    HW1 8951   5.787   6.775   2.791
 2684SOL    HW2 8952   5.798   6.630   2.866
 2685SOL     OW 8953   0.957   6.114   5.198
 2685SOL    HW1 8954   1.024   6.100   5.272
 2685SOL    HW2 8955   0.874   6.153   5.237
 2686SOL     OW 8956   1.195   1.590   4.544
 2686SOL    HW1 8957   1.162   1.645   4.468
 2686SOL    HW2 8958   1.268   1.529   4.513
 2687SOL     OW 8959   3.568   1.341   1.656
 2687SOL    HW1 8960   3.642   1.408   1.657
 2687SOL    HW2 8961   3.564   1.297   1.567
 2688SOL     OW 8962   3.424   3.472   5.870
 2688SOL    HW1 8963   3.500   3.527   5.835
 2688SOL    HW2 8964   3.456   3.416   5.947
 2689SOL     OW 8965   0.970   3.556   2.644
 2689SOL    HW1 8966   0.976   3.581   2.547
 2689SOL    HW2 8967   1.036   3.610   2.696
 2690SOL     OW 8968   3.563   1.783   6.246
 2690SOL    HW1 8969   3.574   1.684   6.247
 2690SOL    HW2 8970   3.510   1.810   6.166
 2691SOL     OW 8971   0.312   4.754   3.923
 2691SOL    HW1 8972   0.339   4.695   3.999
 2691SOL    HW2 8973   0.302   4.699   3.840
 2692SOL     OW 8974   3.114   5.837   3.152
 2692SOL    HW1 8975   3.141   5.755   3.202
 2692SOL    HW2 8976   3.068   5.811   3.068
 2693SOL     OW 8977   1.445   5.341   3.412
 2693SOL    HW1 8978   1.523   5.382   3.364
 2693SOL    HW2 8979   1.479   5.284   3.487
 2694SOL     OW 8980   3.653   6.995   3.873
 2694SOL    HW1 8981   3.610   0.007   3.957
 2694SOL    HW2 8982   3.728   6.933   3.897
 2695SOL     OW 8983   6.960   5.102   3.398
 2695SOL    HW1 8984   0.021   5.067   3.442
 2695SOL    HW2 8985   6.954   5.066   3.305
 2696SOL     OW 8986   5.049   4.324   6.804
 2696SOL    HW1 8987   5.089   4.251   6.859
 2696SOL    HW2 8988   4.985   4.377   6.860
 2697SOL     OW 8989   4.238   2.320   0.761
 2697SOL    HW1 8990   4.291   2.351   0.682
 2697SOL    HW2 8991   4.214   2.224   0.750
 2698SOL     OW 8992   1.708   3.967   5.892
 2698SOL    HW1 8993   1.765   3.893   5.855
 2698SOL    HW2 8994   1.614   3.956   5.860
 2699SOL     OW 8995   3.626   6.036   2.183
 2699SOL    HW1 8996   3.592   6.027   2.089
 2699SOL    HW2 8997   3.566   6.096   2.235
 2700SOL     OW 8998   3.072   2.161   1.691
 2700SOL    HW1 8999   3.017   2.128   1.768
 2700SOL    HW2 9000   3.011   2.199   1.621
 2701SOL     OW 9001   5.240   3.207   4.709
 2701SOL    HW1 9002   5.328   3.186   4.751
 2701SOL    HW2 9003   5.234   3.164   4.619
 2702SOL     OW 9004   2.439   1.585   5.118
 2702SOL    HW1 9005   2.518   1.525   5.115
 2702SOL    HW2 9006   2.427   1.621   5.210
 2703SOL     OW 9007   1.372   6.935   1.999
 2703SOL    HW1 9008   1.373   6.955   1.902
 2703SOL    HW2 9009   1.375   7.021   2.051
 2704SOL     OW 9010   5.544   0.174   4.296
 2704SOL    HW1 9011   5.576   0.080   4.303
 2704SOL    HW2 9012   5.603   0.225   4.233
 2705SOL     OW 9013   6.731   6.769   5.148
 2705SOL    HW1 9014   6.818   6.811   5.170
 2705SOL    HW2 9015   6.659   6.839   5.145
 2706SOL     OW 9016   6.661   3.571   3.497
 2706SOL    HW1 9017   6.692   3.631   3.571
 2706SOL    HW2 9018   6.707   3.597   3.412
 2707SOL     OW 9019   3.979   0.344   3.216
 2707SOL    HW1 9020   4.039   0.424   3.210
 2707SOL    HW2 9021   4.030   0.263   3.189
 2708SOL     OW 9022   5.845   3.042   0.582
 2708SOL    HW1 9023   5.747   3.060   0.580
 2708SOL    HW2 9024   5.894   3.127   0.596
 2709SOL     OW 9025   4.441   0.800   4.275
 2709SOL    HW1 9026   4.454   0.860   4.354
 2709SOL    HW2 9027   4.529   0.768   4.242
 2710SOL     OW 9028   1.286   2.615   4.082
 2710SOL    HW1 9029   1.337   2.662   4.011
 2710SOL    HW2 9030   1.188   2.632   4.070
 2711SOL     OW 9031   3.517   1.951   2.493
 2711SOL    HW1 9032   3.533   1.856   2.516
 2711SOL    HW2 9033   3.495   1.959   2.396
 2712SOL     OW 9034   4.120   5.580   2.079
 2712SOL    HW1 9035   4.130   5.484   2.104
 2712SOL    HW2 9036   4.172   5.599   1.996
 2713SOL     OW 9037   3.594   4.821   6.290
 2713SOL    HW1 9038   3.566   4.831   6.385
 2713SOL    HW2 9039   3.514   4.817   6.231
 2714SOL     OW 9040   2.621   4.515   6.789
 2714SOL    HW1 9041   2.584   4.585   6.850
 2714SOL    HW2 9042   2.603   4.541   6.694
 2715SOL     OW 9043   4.272   0.959   0.726
 2715SOL    HW1 9044   4.324   0.936   0.808
 2715SOL    HW2 9045   4.179   0.923   0.734
 2716SOL     OW 9046   3.970   2.191   2.740
 2716SOL    HW1 9047   3.885   2.151   2.775
 2716SOL    HW2 9048   4.022   2.232   2.815
 2717SOL     OW 9049   0.538   1.086   2.908
 2717SOL    HW1 9050   0.593   1.003   2.918
 2717SOL    HW2 9051   0.506   1.116   2.997
 2718SOL     OW 9052   0.096   6.837   5.980
 2718SOL    HW1 9053   0.126   6.876   5.892
 2718SOL    HW2 9054   0.173   6.790   6.022
 2719SOL     OW 9055   2.114   3.571   2.450
 2719SOL    HW1 9056   2.021   3.577   2.488
 2719SOL    HW2 9057   2.164   3.499   2.497
 2720SOL     OW 9058   1.708   6.485   5.794
 2720SOL    HW1 9059   1.648   6.438   5.729
 2720SOL    HW2 9060   1.673   6.472   5.887
 2721SOL     OW 9061   3.432   5.479   1.774
 2721SOL    HW1 9062   3.471   5.390   1.753
 2721SOL    HW2 9063   3.346   5.467   1.823
 2722SOL     OW 9064   4.753   5.362   6.773
 2722SOL    HW1 9065   4.794   5.416   6.846
 2722SOL    HW2 9066   4.780   5.399   6.685
 2723SOL     OW 9067   3.229   6.720   0.627
 2723SOL    HW1 9068   3.256   6.694   0.720
 2723SOL    HW2 9069   3.201   6.816   0.626
 2724SOL     OW 9070   1.403   5.855   1.082
 2724SOL    HW1 9071   1.429   5.942   1.040
 2724SOL    HW2 9072   1.357   5.872   1.169
 2725SOL     OW 9073   5.265   3.750   5.366
 2725SOL    HW1 9074   5.193   3.814   5.340
 2725SOL    HW2 9075   5.327   3.735   5.289
 2726SOL     OW 9076   0.266   1.017   2.045
 2726SOL    HW1 9077   0.189   0.988   1.988
 2726SOL    HW2 9078   0.349   1.022   1.990
 2727SOL     OW 9079   1.732   4.091   4.852
 2727SOL    HW1 9080   1.798   4.111   4.924
 2727SOL    HW2 9081   1.655   4.041   4.891
 2728SOL     OW 9082   5.591   5.806   5.997
 2728SOL    HW1 9083   5.503   5.796   6.043
 2728SOL    HW2 9084   5.665   5.803   6.065
 2729SOL     OW 9085   5.379   5.735   6.193
 2729SOL    HW1 9086   5.372   5.769   6.287
 2729SOL    HW2 9087   5.304   5.773   6.138
 2730SOL     OW 9088   1.343   5.632   2.205
 2730SOL    HW1 9089   1.373   5.552   2.258
 2730SOL    HW2 9090   1.271   5.679   2.254
 2731SOL     OW 9091   3.432   3.506   3.996
 2731SOL    HW1 9092   3.395   3.595   3.966
 2731SOL    HW2 9093   3.366   3.462   4.057
 2732SOL     OW 9094   5.590   1.396   2.021
 2732SOL    HW1 9095   5.629   1.478   1.978
 2732SOL    HW2 9096   5.653   1.320   2.009
 2733SOL     OW 9097   1.001   0.295   6.039
 2733SOL    HW1 9098   1.025   0.198   6.033
 2733SOL    HW2 9099   0.902   0.304   6.051
 2734SOL     OW 9100   3.409   5.792   1.792
 2734SOL    HW1 9101   3.448   5.713   1.745
 2734SOL    HW2 9102   3.336   5.762   1.854
 2735SOL     OW 9103   0.479   1.284   1.714
 2735SOL    HW1 9104   0.537   1.324   1.643
 2735SOL    HW2 9105   0.393   1.253   1.672
 2736SOL     OW 9106   4.837   5.199   3.679
 2736SOL    HW1 9107   4.859   5.255   3.599
 2736SOL    HW2 9108   4.788   5.117   3.649
 2737SOL     OW 9109   2.523   2.426   6.778
 2737SOL    HW1 9110   2.448   2.371   6.814
 2737SOL    HW2 9111   2.579   2.461   6.854
 2738SOL     OW 9112   5.674   6.946   1.725
 2738SOL    HW1 9113   5.677   6.978   1.819
 2738SOL    HW2 9114   5.724   7.010   1.666
 2739SOL     OW 9115   1.113   5.347   2.261
 2739SOL    HW1 9116   1.173   5.268   2.248
 2739SOL    HW2 9117   1.167   5.430   2.273
 2740SOL     OW 9118   6.679   6.374   3.611
 2740SOL    HW1 9119   6.734   6.302   3.654
 2740SOL    HW2 9120   6.649   6.343   3.521
 2741SOL     OW 9121   1.314   1.785   4.736
 2741SOL    HW1 9122   1.309   1.706   4.674
 2741SOL    HW2 9123   1.244   1.852   4.710
 2742SOL     OW 9124   3.537   5.214   1.990
 2742SOL    HW1 9125   3.579   5.274   1.922
 2742SOL    HW2 9126   3.478   5.147   1.944
 2743SOL     OW 9127   5.810   4.375   2.665
 2743SOL    HW1 9128   5.742   4.428   2.612
 2743SOL    HW2 9129   5.845   4.432   2.739
 2744SOL     OW 9130   3.829   3.973   3.357
 2744SOL    HW1 9131   3.770   3.892   3.365
 2744SOL    HW2 9132   3.771   4.055   3.352
 2745SOL     OW 9133   6.801   0.361   5.954
 2745SOL    HW1 9134   6.837   0.268   5.953
 2745SOL    HW2 9135   6.834   0.408   6.036
 2746SOL     OW 9136   1.679   0.729   3.944
 2746SOL    HW1 9137   1.638   0.710   3.856
 2746SOL    HW2 9138   1.611   0.771   4.005
 2747SOL     OW 9139   3.605   5.782   0.588
 2747SOL    HW1 9140   3.507   5.771   0.574
 2747SOL    HW2 9141   3.627   5.879   0.599
 2748SOL     OW 9142   4.404   6.897   1.787
 2748SOL    HW1 9143   4.455   6.859   1.711
 2748SOL    HW2 9144   4.385   6.825   1.854
 2749SOL     OW 9145   1.714   3.450   0.216
 2749SOL    HW1 9146   1.758   3.523   0.267
 2749SOL    HW2 9147   1.754   3.362   0.243
 2750SOL     OW 9148   2.441   5.511   2.264
 2750SOL    HW1 9149   2.351   5.513   2.218
 2750SOL    HW2 9150   2.430   5.475   2.356
 2751SOL     OW 9151   0.491   3.303   0.902
 2751SOL    HW1 9152   0.562   3.328   0.836
 2751SOL    HW2 9153   0.427   3.379   0.911
 2752SOL     OW 9154   3.553   4.815   6.597
 2752SOL    HW1 9155   3.580   4.720   6.618
 2752SOL    HW2 9156   3.453   4.821   6.595
 2753SOL     OW 9157   6.071   5.613   5.215
 2753SOL    HW1 9158   5.982   5.628   5.173
 2753SOL    HW2 9159   6.102   5.697   5.259
 2754SOL     OW 9160   0.966   6.987   6.363
 2754SOL    HW1 9161   0.931   6.933   6.286
 2754SOL    HW2 9162   1.022   6.929   6.422
 2755SOL     OW 9163   2.959   6.605   2.869
 2755SOL    HW1 9164   3.056   6.600   2.848
 2755SOL    HW2 9165   2.946   6.620   2.967
 2756SOL     OW 9166   5.076   6.271   0.091
 2756SOL    HW1 9167   5.049   6.186   0.046
 2756SOL    HW2 9168   5.154   6.254   0.151
 2757SOL     OW 9169   0.776   4.827   1.545
 2757SOL    HW1 9170   0.813   4.916   1.517
 2757SOL    HW2 9171   0.687   4.840   1.587
 2758SOL     OW 9172   4.928   0.345   5.467
 2758SOL    HW1 9173   5.003   0.384   5.413
 2758SOL    HW2 9174   4.925   0.390   5.556
 2759SOL     OW 9175   5.673   6.313   4.539
 2759SOL    HW1 9176   5.750   6.369   4.508
 2759SOL    HW2 9177   5.691   6.217   4.518
 2760SOL     OW 9178   2.497   4.925   2.530
 2760SOL    HW1 9179   2.477   4.827   2.533
 2760SOL    HW2 9180   2.475   4.965   2.619
 2761SOL     OW 9181   2.190   5.322   2.648
 2761SOL    HW1 9182   2.192   5.411   2.695
 2761SOL    HW2 9183   2.143   5.255   2.706
 2762SOL     OW 9184   0.953   6.910   5.538
 2762SOL    HW1 9185   0.910   6.992   5.500
 2762SOL    HW2 9186   0.886   6.835   5.541
 2763SOL     OW 9187   5.132   1.757   3.697
 2763SOL    HW1 9188   5.131   1.742   3.598
 2763SOL    HW2 9189   5.226   1.776   3.727
 2764SOL     OW 9190   5.661   0.973   1.595
 2764SOL    HW1 9191   5.621   0.937   1.511
 2764SOL    HW2 9192   5.752   0.933   1.608
 2765SOL     OW 9193   5.914   1.344   2.165
 2765SOL    HW1 9194   5.872   1.258   2.135
 2765SOL    HW2 9195   5.984   1.324   2.234
 2766SOL     OW 9196   6.304   1.378   1.713
 2766SOL    HW1 9197   6.262   1.365   1.803
 2766SOL    HW2 9198   6.274   1.305   1.652
 2767SOL     OW 9199   5.597   3.860   6.458
 2767SOL    HW1 9200   5.523   3.795   6.442
 2767SOL    HW2 9201   5.600   3.884   6.555
 2768SOL     OW 9202   4.675   1.111   6.810
 2768SOL    HW1 9203   4.720   1.178   6.869
 2768SOL    HW2 9204   4.742   1.044   6.777
 2769SOL     OW 9205   0.171   4.761   1.803
 2769SOL    HW1 9206   0.204   4.810   1.884
 2769SOL    HW2 9207   0.143   4.669   1.829
 2770SOL     OW 9208   1.142   5.044   1.721
 2770SOL    HW1 9209   1.170   5.069   1.628
 2770SOL    HW2 9210   1.044   5.022   1.721
 2771SOL     OW 9211   5.853   1.584   1.254
 2771SOL    HW1 9212   5.896   1.604   1.342
 2771SOL    HW2 9213   5.754   1.584   1.265
 2772SOL     OW 9214   3.607   2.576   6.902
 2772SOL    HW1 9215   3.559   2.511   6.842
 2772SOL    HW2 9216   3.603   2.542   6.996
 2773SOL     OW 9217   3.774   4.318   6.815
 2773SOL    HW1 9218   3.781   4.243   6.749
 2773SOL    HW2 9219   3.836   4.391   6.789
 2774SOL     OW 9220   5.332   3.211   1.971
 2774SOL    HW1 9221   5.425   3.175   1.967
 2774SOL    HW2 9222   5.267   3.135   1.970
 2775SOL     OW 9223   0.301   5.807   1.566
 2775SOL    HW1 9224   0.280   5.739   1.496
 2775SOL    HW2 9225   0.223   5.869   1.577
 2776SOL     OW 9226   3.111   6.484   6.471
 2776SOL    HW1 9227   3.067   6.402   6.433
 2776SOL    HW2 9228   3.085   6.564   6.416
 2777SOL     OW 9229   3.291   1.560   2.603
 2777SOL    HW1 9230   3.215   1.603   2.552
 2777SOL    HW2 9231   3.302   1.466   2.571
 2778SOL     OW 9232   2.094   2.093   6.026
 2778SOL    HW1 9233   2.101   2.096   6.126
 2778SOL    HW2 9234   2.176   2.135   5.986
 2779SOL     OW 9235   5.192   0.297   6.667
 2779SOL    HW1 9236   5.196   0.243   6.752
 2779SOL    HW2 9237   5.121   0.260   6.607
 2780SOL     OW 9238   5.192   5.201   6.185
 2780SOL    HW1 9239   5.202   5.298   6.208
 2780SOL    HW2 9240   5.269   5.172   6.128
 2781SOL     OW 9241   5.546   4.589   1.256
 2781SOL    HW1 9242   5.453   4.605   1.226
 2781SOL    HW2 9243   5.546   4.524   1.332
 2782SOL     OW 9244   2.978   2.871   6.366
 2782SOL    HW1 9245   2.972   2.970   6.356
 2782SOL    HW2 9246   3.044   2.834   6.300
 2783SOL     OW 9247   0.028   4.848   5.469
 2783SOL    HW1 9248   7.011   4.940   5.474
 2783SOL    HW2 9249   6.996   4.794   5.404
 2784SOL     OW 9250   1.733   2.293   1.564
 2784SOL    HW1 9251   1.790   2.273   1.484
 2784SOL    HW2 9252   1.686   2.210   1.592
 2785SOL     OW 9253   6.574   0.493   0.484
 2785SOL    HW1 9254   6.522   0.413   0.453
 2785SOL    HW2 9255   6.510   0.564   0.513
 2786SOL     OW 9256   3.762   6.270   0.888
 2786SOL    HW1 9257   3.692   6.287   0.957
 2786SOL    HW2 9258   3.848   6.314   0.916
 2787SOL     OW 9259   2.320   2.852   5.847
 2787SOL    HW1 9260   2.348   2.831   5.753
 2787SOL    HW2 9261   2.328   2.770   5.903
 2788SOL     OW 9262   2.549   4.415   1.023
 2788SOL    HW1 9263   2.585   4.496   1.069
 2788SOL    HW2 9264   2.537   4.342   1.090
 2789SOL     OW 9265   0.872   1.813   4.291
 2789SOL    HW1 9266   0.862   1.850   4.199
 2789SOL    HW2 9267   0.965   1.777   4.303
 2790SOL     OW 9268   3.568   5.044   2.958
 2790SOL    HW1 9269   3.480   5.088   2.939
 2790SOL    HW2 9270   3.612   5.090   3.035
 2791SOL     OW 9271   1.404   3.481   4.684
 2791SOL    HW1 9272   1.464   3.446   4.756
 2791SOL    HW2 9273   1.452   3.480   4.596
 2792SOL     OW 9274   0.413   0.978   4.944
 2792SOL    HW1 9275   0.424   0.935   5.034
 2792SOL    HW2 9276   0.453   1.069   4.946
 2793SOL     OW 9277   5.186   1.724   2.692
 2793SOL    HW1 9278   5.104   1.671   2.713
 2793SOL    HW2 9279   5.161   1.801   2.633
 2794SOL     OW 9280   0.092   0.964   0.475
 2794SOL    HW1 9281   0.165   0.907   0.512
 2794SOL    HW2 9282   0.021   0.978   0.544
 2795SOL     OW 9283   3.159   3.965   1.468
 2795SOL    HW1 9284   3.258   3.975   1.468
 2795SOL    HW2 9285   3.133   3.884   1.414
 2796SOL     OW 9286   5.712   4.220   3.000
 2796SOL    HW1 9287   5.703   4.183   2.908
 2796SOL    HW2 9288   5.696   4.319   2.998
 2797SOL     OW 9289   4.861   5.443   4.998
 2797SOL    HW1 9290   4.765   5.427   5.022
 2797SOL    HW2 9291   4.896   5.520   5.052
 2798SOL     OW 9292   0.883   3.150   3.332
 2798SOL    HW1 9293   0.881   3.132   3.430
 2798SOL    HW2 9294   0.834   3.235   3.313
 2799SOL     OW 9295   6.640   4.935   6.298
 2799SOL    HW1 9296   6.733   4.909   6.325
 2799SOL    HW2 9297   6.620   4.895   6.208
 2800SOL     OW 9298   2.885   4.893   6.491
 2800SOL    HW1 9299   2.785   4.892   6.492
 2800SOL    HW2 9300   2.920   4.802   6.511
 2801SOL     OW 9301   5.004   5.459   2.327
 2801SOL    HW1 9302   5.008   5.558   2.324
 2801SOL    HW2 9303   4.951   5.430   2.407
 2802SOL     OW 9304   4.170   1.701   5.906
 2802SOL    HW1 9305   4.108   1.740   5.839
 2802SOL    HW2 9306   4.143   1.729   5.998
 2803SOL     OW 9307   2.692   6.725   5.979
 2803SOL    HW1 9308   2.613   6.670   5.952
 2803SOL    HW2 9309   2.676   6.820   5.956
 2804SOL     OW 9310   6.515   4.774   3.455
 2804SOL    HW1 9311   6.529   4.684   3.413
 2804SOL    HW2 9312   6.589   4.793   3.519
 2805SOL     OW 9313   5.119   3.041   0.950
 2805SOL    HW1 9314   5.140   3.138   0.946
 2805SOL    HW2 9315   5.032   3.028   0.997
 2806SOL     OW 9316   6.524   5.334   2.907
 2806SOL    HW1 9317   6.567   5.422   2.929
 2806SOL    HW2 9318   6.595   5.265   2.894
 2807SOL     OW 9319   3.809   4.879   3.486
 2807SOL    HW1 9320   3.871   4.935   3.431
 2807SOL    HW2 9321   3.716   4.887   3.449
 2808SOL     OW 9322   5.384   1.433   3.940
 2808SOL    HW1 9323   5.465   1.374   3.935
 2808SOL    HW2 9324   5.393   1.508   3.875
 2809SOL     OW 9325   6.008   2.588   0.740
 2809SOL    HW1 9326   6.086   2.626   0.789
 2809SOL    HW2 9327   5.979   2.652   0.668
 2810SOL     OW 9328   2.655   0.316   5.194
 2810SOL    HW1 9329   2.608   0.229   5.182
 2810SOL    HW2 9330   2.593   0.383   5.235
 2811SOL     OW 9331   0.447   1.213   3.119
 2811SOL    HW1 9332   0.409   1.204   3.211
 2811SOL    HW2 9333   0.487   1.304   3.107
 2812SOL     OW 9334   4.886   3.737   2.726
 2812SOL    HW1 9335   4.923   3.661   2.780
 2812SOL    HW2 9336   4.913   3.726   2.630
 2813SOL     OW 9337   5.638   6.748   6.110
 2813SOL    HW1 9338   5.723   6.744   6.056
 2813SOL    HW2 9339   5.649   6.693   6.192
 2814SOL     OW 9340   4.137   3.988   5.956
 2814SOL    HW1 9341   4.124   3.893   5.928
 2814SOL    HW2 9342   4.131   4.048   5.876
 2815SOL     OW 9343   6.888   1.166   4.825
 2815SOL    HW1 9344   6.855   1.233   4.759
 2815SOL    HW2 9345   6.950   1.102   4.778
 2816SOL     OW 9346   6.072   0.281   3.946
 2816SOL    HW1 9347   6.166   0.310   3.964
 2816SOL    HW2 9348   6.024   0.268   4.032
 2817SOL     OW 9349   1.799   1.126   1.591
 2817SOL    HW1 9350   1.885   1.167   1.619
 2817SOL    HW2 9351   1.731   1.136   1.664
 2818SOL     OW 9352   6.766   4.581   6.171
 2818SOL    HW1 9353   6.863   4.584   6.195
 2818SOL    HW2 9354   6.749   4.503   6.111
 2819SOL     OW 9355   0.312   3.116   0.114
 2819SOL    HW1 9356   0.338   3.056   0.038
 2819SOL    HW2 9357   0.338   3.210   0.092
 2820SOL     OW 9358   0.029   2.431   2.971
 2820SOL    HW1 9359   7.018   2.339   2.994
 2820SOL    HW2 9360   0.048   2.482   3.055
 2821SOL     OW 9361   1.818   4.802   5.027
 2821SOL    HW1 9362   1.850   4.880   5.081
 2821SOL    HW2 9363   1.872   4.721   5.050
 2822SOL     OW 9364   5.210   2.191   0.115
 2822SOL    HW1 9365   5.283   2.258   0.129
 2822SOL    HW2 9366   5.133   2.213   0.175
 2823SOL     OW 9367   2.233   6.793   2.381
 2823SOL    HW1 9368   2.227   6.888   2.413
 2823SOL    HW2 9369   2.181   6.733   2.441
 2824SOL     OW 9370   2.600   1.673   5.520
 2824SOL    HW1 9371   2.676   1.716   5.471
 2824SOL    HW2 9372   2.523   1.658   5.458
 2825SOL     OW 9373   6.784   6.469   1.261
 2825SOL    HW1 9374   6.774   6.540   1.331
 2825SOL    HW2 9375   6.765   6.507   1.171
 2826SOL     OW 9376   5.094   1.971   5.188
 2826SOL    HW1 9377   5.035   2.016   5.120
 2826SOL    HW2 9378   5.082   2.015   5.277
 2827SOL     OW 9379   5.992   1.141   5.212
 2827SOL    HW1 9380   6.006   1.042   5.226
 2827SOL    HW2 9381   6.038   1.191   5.285
 2828SOL     OW 9382   4.156   0.529   5.823
 2828SOL    HW1 9383   4.253   0.511   5.834
 2828SOL    HW2 9384   4.142   0.593   5.748
 2829SOL     OW 9385   3.448   6.466   5.989
 2829SOL    HW1 9386   3.524   6.429   5.937
 2829SOL    HW2 9387   3.416   6.399   6.055
 2830SOL     OW 9388   4.607   3.405   6.564
 2830SOL    HW1 9389   4.700   3.398   6.600
 2830SOL    HW2 9390   4.568   3.314   6.554
 2831SOL     OW 9391   5.737   6.301   4.188
 2831SOL    HW1 9392   5.648   6.308   4.143
 2831SOL    HW2 9393   5.745   6.374   4.256
 2832SOL     OW 9394   0.290   1.195   1.555
 2832SOL    HW1 9395   0.198   1.157   1.548
 2832SOL    HW2 9396   0.323   1.222   1.465
 2833SOL     OW 9397   6.054   2.235   1.937
 2833SOL    HW1 9398   6.000   2.155   1.964
 2833SOL    HW2 9399   5.993   2.305   1.900
 2834SOL     OW 9400   3.577   1.761   5.798
 2834SOL    HW1 9401   3.493   1.812   5.814
 2834SOL    HW2 9402   3.590   1.693   5.871
 2835SOL     OW 9403   0.526   6.651   2.542
 2835SOL    HW1 9404   0.607   6.673   2.597
 2835SOL    HW2 9405   0.534   6.695   2.452
 2836SOL     OW 9406   0.101   6.764   1.915
 2836SOL    HW1 9407   0.124   6.738   1.821
 2836SOL    HW2 9408   0.002   6.766   1.925
 2837SOL     OW 9409   5.462   3.930   3.766
 2837SOL    HW1 9410   5.454   4.024   3.799
 2837SOL    HW2 9411   5.371   3.889   3.758
 2838SOL     OW 9412   2.593   4.747   1.824
 2838SOL    HW1 9413   2.539   4.812   1.876
 2838SOL    HW2 9414   2.649   4.692   1.886
 2839SOL     OW 9415   6.034   1.813   1.621
 2839SOL    HW1 9416   6.038   1.733   1.562
 2839SOL    HW2 9417   6.071   1.791   1.711
 2840SOL     OW 9418   6.902   1.557   5.222
 2840SOL    HW1 9419   6.896   1.634   5.286
 2840SOL    HW2 9420   6.991   1.559   5.176
 2841SOL     OW 9421   1.071   5.627   1.226
 2841SOL    HW1 9422   1.094   5.556   1.159
 2841SOL    HW2 9423   1.148   5.639   1.289
 2842SOL     OW 9424   6.731   3.324   3.608
 2842SOL    HW1 9425   6.683   3.395   3.557
 2842SOL    HW2 9426   6.825   3.318   3.575
 2843SOL     OW 9427   3.626   1.139   5.037
 2843SOL    HW1 9428   3.715   1.147   5.082
 2843SOL    HW2 9429   3.568   1.076   5.089
 2844SOL     OW 9430   1.341   4.144   6.883
 2844SOL    HW1 9431   1.326   4.148   6.784
 2844SOL    HW2 9432   1.406   4.071   6.904
 2845SOL     OW 9433   0.654   3.938   6.844
 2845SOL    HW1 9434   0.569   3.950   6.793
 2845SOL    HW2 9435   0.633   3.928   6.941
 2846SOL     OW 9436   4.932   1.287   6.661
 2846SOL    HW1 9437   4.939   1.196   6.622
 2846SOL    HW2 9438   4.920   1.280   6.760
 2847SOL     OW 9439   6.271   4.380   3.617
 2847SOL    HW1 9440   6.232   4.343   3.701
 2847SOL    HW2 9441   6.245   4.477   3.608
 2848SOL     OW 9442   0.767   5.105   4.932
 2848SOL    HW1 9443   0.680   5.127   4.887
 2848SOL    HW2 9444   0.755   5.026   4.991
 2849SOL     OW 9445   2.912   1.782   0.573
 2849SOL    HW1 9446   2.888   1.847   0.500
 2849SOL    HW2 9447   2.915   1.830   0.660
 2850SOL     OW 9448   3.629   0.177   1.014
 2850SOL    HW1 9449   3.703   0.114   1.036
 2850SOL    HW2 9450   3.554   0.165   1.079
 2851SOL     OW 9451   0.958   4.446   5.694
 2851SOL    HW1 9452   1.020   4.522   5.712
 2851SOL    HW2 9453   1.010   4.367   5.661
 2852SOL     OW 9454   6.579   3.427   6.547
 2852SOL    HW1 9455   6.602   3.402   6.640
 2852SOL    HW2 9456   6.536   3.518   6.546
 2853SOL     OW 9457   3.559   2.677   1.048
 2853SOL    HW1 9458   3.511   2.606   1.099
 2853SOL    HW2 9459   3.602   2.637   0.967
 2854SOL     OW 9460   2.571   0.444   4.349
 2854SOL    HW1 9461   2.519   0.528   4.358
 2854SOL    HW2 9462   2.508   0.366   4.341
 2855SOL     OW 9463   2.015   0.790   5.339
 2855SOL    HW1 9464   1.937   0.780   5.401
 2855SOL    HW2 9465   1.989   0.849   5.262
 2856SOL     OW 9466   2.502   2.760   5.226
 2856SOL    HW1 9467   2.412   2.727   5.255
 2856SOL    HW2 9468   2.504   2.860   5.230
 2857SOL     OW 9469   2.621   2.508   1.509
 2857SOL    HW1 9470   2.596   2.427   1.456
 2857SOL    HW2 9471   2.643   2.583   1.446
 2858SOL     OW 9472   6.217   2.965   2.613
 2858SOL    HW1 9473   6.201   2.867   2.627
 2858SOL    HW2 9474   6.149   3.001   2.550
 2859SOL     OW 9475   5.087   1.159   0.562
 2859SOL    HW1 9476   4.997   1.115   0.557
 2859SOL    HW2 9477   5.154   1.095   0.599
 2860SOL     OW 9478   3.871   1.989   1.727
 2860SOL    HW1 9479   3.781   1.969   1.686
 2860SOL    HW2 9480   3.941   1.936   1.680
 2861SOL     OW 9481   3.815   5.690   5.336
 2861SOL    HW1 9482   3.862   5.708   5.250
 2861SOL    HW2 9483   3.866   5.622   5.389
 2862SOL     OW 9484   5.164   1.220   3.813
 2862SOL    HW1 9485   5.201   1.296   3.866
 2862SOL    HW2 9486   5.179   1.236   3.716
 2863SOL     OW 9487   6.321   2.068   6.917
 2863SOL    HW1 9488   6.319   2.160   6.957
 2863SOL    HW2 9489   6.404   2.057   6.863
 2864SOL     OW 9490   4.099   0.530   1.556
 2864SOL    HW1 9491   4.007   0.491   1.551
 2864SOL    HW2 9492   4.128   0.535   1.652
 2865SOL     OW 9493   4.429   4.269   5.293
 2865SOL    HW1 9494   4.353   4.317   5.250
 2865SOL    HW2 9495   4.515   4.299   5.251
 2866SOL     OW 9496   0.047   5.618   6.498
 2866SOL    HW1 9497   0.074   5.713   6.480
 2866SOL    HW2 9498   6.976   5.616   6.534
 2867SOL     OW 9499   5.969   5.034   2.863
 2867SOL    HW1 9500   5.989   4.971   2.787
 2867SOL    HW2 9501   5.950   5.125   2.827
 2868SOL     OW 9502   1.358   4.318   5.109
 2868SOL    HW1 9503   1.278   4.287   5.159
 2868SOL    HW2 9504   1.439   4.269   5.142
 2869SOL     OW 9505   5.922   0.481   2.230
 2869SOL    HW1 9506   5.981   0.552   2.267
 2869SOL    HW2 9507   5.914   0.406   2.295
 2870SOL     OW 9508   6.448   2.280   3.388
 2870SOL    HW1 9509   6.394   2.300   3.470
 2870SOL    HW2 9510   6.457   2.363   3.333
 2871SOL     OW 9511   1.910   1.874   6.458
 2871SOL    HW1 9512   1.931   1.779   6.435
 2871SOL    HW2 9513   1.814   1.893   6.439
 2872SOL     OW 9514   2.740   0.562   4.148
 2872SOL    HW1 9515   2.681   0.517   4.215
 2872SOL    HW2 9516   2.773   0.494   4.082
 2873SOL     OW 9517   1.162   5.858   2.544
 2873SOL    HW1 9518   1.192   5.935   2.487
 2873SOL    HW2 9519   1.094   5.889   2.610
 2874SOL     OW 9520   5.446   4.123   2.461
 2874SOL    HW1 9521   5.471   4.027   2.449
 2874SOL    HW2 9522   5.384   4.132   2.539
 2875SOL     OW 9523   3.684   6.099   5.782
 2875SOL    HW1 9524   3.592   6.061   5.771
 2875SOL    HW2 9525   3.740   6.034   5.833
 2876SOL     OW 9526   0.754   0.993   1.395
 2876SOL    HW1 9527   0.733   0.934   1.317
 2876SOL    HW2 9528   0.716   0.953   1.478
 2877SOL     OW 9529   3.160   2.825   5.253
 2877SOL    HW1 9530   3.196   2.842   5.161
 2877SOL    HW2 9531   3.200   2.740   5.289
 2878SOL     OW 9532   2.530   4.630   4.890
 2878SOL    HW1 9533   2.578   4.686   4.958
 2878SOL    HW2 9534   2.571   4.644   4.800
 2879SOL     OW 9535   5.183   4.808   0.199
 2879SOL    HW1 9536   5.149   4.722   0.161
 2879SOL    HW2 9537   5.109   4.852   0.251
 2880SOL     OW 9538   0.846   6.114   1.206
 2880SOL    HW1 9539   0.871   6.035   1.150
 2880SOL    HW2 9540   0.855   6.197   1.150
 2881SOL     OW 9541   6.482   6.030   0.729
 2881SOL    HW1 9542   6.471   6.129   0.717
 2881SOL    HW2 9543   6.395   5.990   0.756
 2882SOL     OW 9544   6.904   3.185   1.998
 2882SOL    HW1 9545   6.963   3.250   1.950
 2882SOL    HW2 9546   6.955   3.144   2.073
 2883SOL     OW 9547   3.474   6.910   2.662
 2883SOL    HW1 9548   3.536   6.938   2.735
 2883SOL    HW2 9549   3.516   6.929   2.573
 2884SOL     OW 9550   0.773   6.264   3.009
 2884SOL    HW1 9551   0.808   6.218   3.090
 2884SOL    HW2 9552   0.846   6.269   2.940
 2885SOL     OW 9553   0.267   2.225   2.626
 2885SOL    HW1 9554   0.230   2.300   2.681
 2885SOL    HW2 9555   0.365   2.237   2.615
 2886SOL     OW 9556   1.775   2.121   6.817
 2886SOL    HW1 9557   1.823   2.038   6.848
 2886SOL    HW2 9558   1.728   2.102   6.731
 2887SOL     OW 9559   1.970   0.307   4.878
 2887SOL    HW1 9560   1.872   0.291   4.870
 2887SOL    HW2 9561   2.014   0.224   4.913
 2888SOL     OW 9562   6.535   4.611   6.870
 2888SOL    HW1 9563   6.500   4.634   6.960
 2888SOL    HW2 9564   6.474   4.546   6.825
 2889SOL     OW 9565   0.852   0.638   1.869
 2889SOL    HW1 9566   0.819   0.687   1.950
 2889SOL    HW2 9567   0.886   0.704   1.802
 2890SOL     OW 9568   3.757   0.516   1.447
 2890SOL    HW1 9569   3.746   0.609   1.480
 2890SOL    HW2 9570   3.817   0.516   1.367
 2891SOL     OW 9571   1.968   4.127   4.030
 2891SOL    HW1 9572   1.897   4.150   4.097
 2891SOL    HW2 9573   1.929   4.124   3.939
 2892SOL     OW 9574   3.988   4.190   6.534
 2892SOL    HW1 9575   3.912   4.138   6.575
 2892SOL    HW2 9576   3.955   4.280   6.505
 2893SOL     OW 9577   2.858   6.965   5.151
 2893SOL    HW1 9578   2.875   6.886   5.092
 2893SOL    HW2 9579   2.932   0.010   5.139
 2894SOL     OW 9580   3.000   3.342   0.282
 2894SOL    HW1 9581   3.001   3.312   0.187
 2894SOL    HW2 9582   2.910   3.378   0.306
 2895SOL     OW 9583   4.078   3.064   6.783
 2895SOL    HW1 9584   4.103   2.981   6.832
 2895SOL    HW2 9585   4.022   3.122   6.842
 2896SOL     OW 9586   2.472   5.327   6.858
 2896SOL    HW1 9587   2.533   5.332   6.937
 2896SOL    HW2 9588   2.386   5.283   6.885
 2897SOL     OW 9589   2.811   5.922   3.258
 2897SOL    HW1 9590   2.770   5.975   3.333
 2897SOL    HW2 9591   2.858   5.984   3.196
 2898SOL     OW 9592   4.844   5.306   2.153
 2898SOL    HW1 9593   4.915   5.371   2.180
 2898SOL    HW2 9594   4.762   5.322   2.207
 2899SOL     OW 9595   6.927   0.148   6.647
 2899SOL    HW1 9596   6.930   0.048   6.658
 2899SOL    HW2 9597   7.004   0.188   6.695
 2900SOL     OW 9598   1.243   5.208   5.872
 2900SOL    HW1 9599   1.324   5.256   5.841
 2900SOL    HW2 9600   1.161   5.261   5.848
 2901SOL     OW 9601   2.966   0.593   2.350
 2901SOL    HW1 9602   2.939   0.497   2.349
 2901SOL    HW2 9603   2.978   0.625   2.256
 2902SOL     OW 9604   5.433   6.474   1.056
 2902SOL    HW1 9605   5.416   6.529   0.975
 2902SOL    HW2 9606   5.440   6.377   1.030
 2903SOL     OW 9607   2.572   1.180   1.943
 2903SOL    HW1 9608   2.592   1.172   1.846
 2903SOL    HW2 9609   2.510   1.258   1.958
 2904SOL     OW 9610   2.144   3.334   5.164
 2904SOL    HW1 9611   2.044   3.322   5.161
 2904SOL    HW2 9612   2.186   3.272   5.098
 2905SOL     OW 9613   1.176   1.440   1.977
 2905SOL    HW1 9614   1.160   1.342   1.983
 2905SOL    HW2 9615   1.217   1.473   2.062
 2906SOL     OW 9616   5.560   5.266   2.218
 2906SOL    HW1 9617   5.587   5.334   2.286
 2906SOL    HW2 9618   5.573   5.304   2.126
 2907SOL     OW 9619   0.432   2.007   5.381
 2907SOL    HW1 9620   0.413   1.986   5.285
 2907SOL    HW2 9621   0.525   1.980   5.404
 2908SOL     OW 9622   4.556   6.369   4.441
 2908SOL    HW1 9623   4.489   6.303   4.474
 2908SOL    HW2 9624   4.535   6.392   4.346
 2909SOL     OW 9625   1.418   5.253   4.581
 2909SOL    HW1 9626   1.381   5.343   4.557
 2909SOL    HW2 9627   1.430   5.199   4.498
 2910SOL     OW 9628   3.946   6.334   4.979
 2910SOL    HW1 9629   3.976   6.277   5.055
 2910SOL    HW2 9630   3.846   6.338   4.978
 2911SOL     OW 9631   2.302   4.494   3.561
 2911SOL    HW1 9632   2.244   4.473   3.640
 2911SOL    HW2 9633   2.305   4.415   3.500
 2912SOL     OW 9634   3.068   6.008   0.115
 2912SOL    HW1 9635   3.021   5.999   0.203
 2912SOL    HW2 9636   3.002   5.994   0.041
 2913SOL     OW 9637   1.284   3.593   2.194
 2913SOL    HW1 9638   1.370   3.542   2.197
 2913SOL    HW2 9639   1.301   3.689   2.216
 2914SOL     OW 9640   5.645   4.553   5.890
 2914SOL    HW1 9641   5.660   4.629   5.826
 2914SOL    HW2 9642   5.733   4.515   5.917
 2915SOL     OW 9643   4.322   1.130   4.238
 2915SOL    HW1 9644   4.241   1.153   4.183
 2915SOL    HW2 9645   4.327   1.191   4.317
 2916SOL     OW 9646   6.154   4.871   5.181
 2916SOL    HW1 9647   6.162   4.966   5.152
 2916SOL    HW2 9648   6.175   4.864   5.279
 2917SOL     OW 9649   4.600   0.209   1.464
 2917SOL    HW1 9650   4.588   0.252   1.374
 2917SOL    HW2 9651   4.598   0.279   1.535
 2918SOL     OW 9652   0.612   4.055   3.322
 2918SOL    HW1 9653   0.704   4.094   3.322
 2918SOL    HW2 9654   0.602   3.992   3.245
 2919SOL     OW 9655   6.178   6.465   0.671
 2919SOL    HW1 9656   6.266   6.416   0.672
 2919SOL    HW2 9657   6.158   6.496   0.578
 2920SOL     OW 9658   4.073   2.136   2.512
 2920SOL    HW1 9659   4.044   2.186   2.594
 2920SOL    HW2 9660   3.995   2.124   2.451
 2921SOL     OW 9661   0.196   1.203   3.023
 2921SOL    HW1 9662   0.147   1.118   3.046
 2921SOL    HW2 9663   0.293   1.192   3.046
 2922SOL     OW 9664   4.830   0.082   5.540
 2922SOL    HW1 9665   4.872   0.169   5.511
 2922SOL    HW2 9666   4.901   0.013   5.553
 2923SOL     OW 9667   6.563   5.053   1.991
 2923SOL    HW1 9668   6.647   5.103   2.012
 2923SOL    HW2 9669   6.489   5.085   2.050
 2924SOL     OW 9670   0.581   1.025   5.631
 2924SOL    HW1 9671   0.662   1.015   5.689
 2924SOL    HW2 9672   0.545   1.118   5.639
 2925SOL     OW 9673   5.303   3.024   1.689
 2925SOL    HW1 9674   5.237   3.092   1.722
 2925SOL    HW2 9675   5.262   2.933   1.693
 2926SOL     OW 9676   6.940   1.802   4.727
 2926SOL    HW1 9677   6.950   1.901   4.732
 2926SOL    HW2 9678   6.979   1.769   4.641
 2927SOL     OW 9679   1.200   2.519   2.233
 2927SOL    HW1 9680   1.252   2.522   2.318
 2927SOL    HW2 9681   1.212   2.429   2.190
 2928SOL     OW 9682   6.745   0.337   6.986
 2928SOL    HW1 9683   6.662   0.327   0.020
 2928SOL    HW2 9684   6.728   0.300   6.895
 2929SOL     OW 9685   0.797   0.347   6.603
 2929SOL    HW1 9686   0.832   0.305   6.519
 2929SOL    HW2 9687   0.868   0.343   6.674
 2930SOL     OW 9688   5.260   0.732   4.848
 2930SOL    HW1 9689   5.208   0.814   4.825
 2930SOL    HW2 9690   5.199   0.653   4.848
 2931SOL     OW 9691   4.688   6.300   6.267
 2931SOL    HW1 9692   4.667   6.395   6.291
 2931SOL    HW2 9693   4.664   6.284   6.172
 2932SOL     OW 9694   1.116   3.982   1.456
 2932SOL    HW1 9695   1.070   4.058   1.503
 2932SOL    HW2 9696   1.199   4.015   1.412
 2933SOL     OW 9697   5.404   2.821   3.695
 2933SOL    HW1 9698   5.449   2.737   3.726
 2933SOL    HW2 9699   5.326   2.798   3.637
 2934SOL     OW 9700   3.247   0.234   0.099
 2934SOL    HW1 9701   3.230   0.168   0.026
 2934SOL    HW2 9702   3.162   0.253   0.148
 2935SOL     OW 9703   6.281   3.975   1.125
 2935SOL    HW1 9704   6.346   3.900   1.119
 2935SOL    HW2 9705   6.195   3.943   1.163
 2936SOL     OW 9706   4.930   5.693   0.160
 2936SOL    HW1 9707   4.850   5.742   0.194
 2936SOL    HW2 9708   4.925   5.686   0.060
 2937SOL     OW 9709   3.618   5.616   0.785
 2937SOL    HW1 9710   3.637   5.684   0.715
 2937SOL    HW2 9711   3.593   5.529   0.742
 2938SOL     OW 9712   4.902   5.729   5.505
 2938SOL    HW1 9713   4.896   5.789   5.425
 2938SOL    HW2 9714   4.823   5.742   5.563
 2939SOL     OW 9715   5.810   6.815   5.273
 2939SOL    HW1 9716   5.903   6.795   5.243
 2939SOL    HW2 9717   5.776   6.896   5.226
 2940SOL     OW 9718   5.657   0.179   5.316
 2940SOL    HW1 9719   5.747   0.210   5.287
 2940SOL    HW2 9720   5.607   0.256   5.357
 2941SOL     OW 9721   0.729   1.925   5.150
 2941SOL    HW1 9722   0.788   1.847   5.169
 2941SOL    HW2 9723   0.647   1.893   5.103
 2942SOL     OW 9724   3.506   0.513   2.321
 2942SOL    HW1 9725   3.493   0.550   2.229
 2942SOL    HW2 9726   3.442   0.556   2.384
 2943SOL     OW 9727   5.966   3.344   3.241
 2943SOL    HW1 9728   6.005   3.435   3.228
 2943SOL    HW2 9729   5.948   3.303   3.151
 2944SOL     OW 9730   3.701   5.014   4.865
 2944SOL    HW1 9731   3.642   5.006   4.945
 2944SOL    HW2 9732   3.657   4.972   4.786
 2945SOL     OW 9733   3.362   3.601   3.512
 2945SOL    HW1 9734   3.375   3.651   3.598
 2945SOL    HW2 9735   3.334   3.507   3.531
 2946SOL     OW 9736   6.610   5.734   5.783
 2946SOL    HW1 9737   6.630   5.827   5.813
 2946SOL    HW2 9738   6.568   5.736   5.692
 2947SOL     OW 9739   6.793   3.684   6.719
 2947SOL    HW1 9740   6.821   3.667   6.625
 2947SOL    HW2 9741   6.710   3.739   6.720
 2948SOL     OW 9742   6.098   3.991   4.995
 2948SOL    HW1 9743   5.998   3.988   4.990
 2948SOL    HW2 9744   6.133   4.066   4.939
 2949SOL     OW 9745   1.788   6.984   0.843
 2949SOL    HW1 9746   1.882   6.957   0.822
 2949SOL    HW2 9747   1.725   6.931   0.787
 2950SOL     OW 9748   6.231   3.628   4.217
 2950SOL    HW1 9749   6.145   3.675   4.241
 2950SOL    HW2 9750   6.253   3.562   4.289
 2951SOL     OW 9751   0.193   1.469   0.426
 2951SOL    HW1 9752   0.131   1.408   0.475
 2951SOL    HW2 9753   0.270   1.492   0.486
 2952SOL     OW 9754   1.236   4.381   2.968
 2952SOL    HW1 9755   1.249   4.430   3.054
 2952SOL    HW2 9756   1.210   4.286   2.987
 2953SOL     OW 9757   4.702   2.188   1.944
 2953SOL    HW1 9758   4.796   2.157   1.927
 2953SOL    HW2 9759   4.695   2.222   2.038
 2954SOL     OW 9760   6.990   6.594   2.811
 2954SOL    HW1 9761   7.017   6.574   2.717
 2954SOL    HW2 9762   0.002   6.684   2.838
 2955SOL     OW 9763   0.699   3.365   0.680
 2955SOL    HW1 9764   0.693   3.265   0.677
 2955SOL    HW2 9765   0.700   3.401   0.586
 2956SOL     OW 9766   0.469   5.182   3.146
 2956SOL    HW1 9767   0.509   5.264   3.187
 2956SOL    HW2 9768   0.535   5.108   3.148
 2957SOL     OW 9769   0.120   3.917   1.134
 2957SOL    HW1 9770   0.052   3.985   1.106
 2957SOL    HW2 9771   0.079   3.854   1.200
 2958SOL     OW 9772   1.616   4.426   5.568
 2958SOL    HW1 9773   1.516   4.427   5.571
 2958SOL    HW2 9774   1.649   4.510   5.526
 2959SOL     OW 9775   4.995   4.944   6.167
 2959SOL    HW1 9776   5.029   5.037   6.184
 2959SOL    HW2 9777   4.946   4.942   6.080
 2960SOL     OW 9778   2.841   2.286   6.994
 2960SOL    HW1 9779   2.838   2.335   0.059
 2960SOL    HW2 9780   2.781   2.206   6.999
 2961SOL     OW 9781   5.828   3.494   4.235
 2961SOL    HW1 9782   5.779   3.581   4.229
 2961SOL    HW2 9783   5.922   3.506   4.203
 2962SOL     OW 9784   4.276   0.875   3.357
 2962SOL    HW1 9785   4.340   0.945   3.390
 2962SOL    HW2 9786   4.227   0.910   3.277
 2963SOL     OW 9787   1.761   0.963   5.228
 2963SOL    HW1 9788   1.787   0.891   5.163
 2963SOL    HW2 9789   1.688   1.018   5.188
 2964SOL     OW 9790   1.935   6.359   1.845
 2964SOL    HW1 9791   1.878   6.422   1.898
 2964SOL    HW2 9792   2.024   6.350   1.890
 2965SOL     OW 9793   0.255   0.971   5.784
 2965SOL    HW1 9794   0.184   0.953   5.716
 2965SOL    HW2 9795   0.337   0.918   5.761
 2966SOL     OW 9796   5.258   4.670   3.972
 2966SOL    HW1 9797   5.260   4.663   4.072
 2966SOL    HW2 9798   5.173   4.630   3.938
 2967SOL     OW 9799   5.590   2.442   3.914
 2967SOL    HW1 9800   5.634   2.503   3.979
 2967SOL    HW2 9801   5.598   2.480   3.822
 2968SOL     OW 9802   0.679   3.995   4.104
 2968SOL    HW1 9803   0.580   3.979   4.109
 2968SOL    HW2 9804   0.702   4.080   4.151
 2969SOL     OW 9805   5.975   1.975   4.907
 2969SOL    HW1 9806   6.052   2.009   4.854
 2969SOL    HW2 9807   5.987   2.000   5.003
 2970SOL     OW 9808   0.890   4.479   6.184
 2970SOL    HW1 9809   0.917   4.561   6.235
 2970SOL    HW2 9810   0.860   4.408   6.249
 2971SOL     OW 9811   5.969   3.010   3.564
 2971SOL    HW1 9812   5.894   2.972   3.509
 2971SOL    HW2 9813   6.015   3.082   3.512
 2972SOL     OW 9814   6.184   3.646   6.149
 2972SOL    HW1 9815   6.123   3.617   6.222
 2972SOL    HW2 9816   6.257   3.704   6.187
 2973SOL     OW 9817   5.429   0.148   3.511
 2973SOL    HW1 9818   5.482   0.103   3.439
 2973SOL    HW2 9819   5.491   0.177   3.584
 2974SOL     OW 9820   6.775   4.645   2.792
 2974SOL    HW1 9821   6.689   4.679   2.829
 2974SOL    HW2 9822   6.811   4.712   2.726
 2975SOL     OW 9823   0.484   1.044   5.367
 2975SOL    HW1 9824   0.519   1.015   5.456
 2975SOL    HW2 9825   0.504   1.140   5.353
 2976SOL     OW 9826   4.249   1.248   2.564
 2976SOL    HW1 9827   4.238   1.348   2.565
 2976SOL    HW2 9828   4.322   1.224   2.500
 2977SOL     OW 9829   2.533   6.684   4.086
 2977SOL    HW1 9830   2.598   6.702   4.013
 2977SOL    HW2 9831   2.572   6.713   4.174
 2978SOL     OW 9832   4.806   5.179   0.285
 2978SOL    HW1 9833   4.903   5.154   0.281
 2978SOL    HW2 9834   4.760   5.123   0.354
 2979SOL     OW 9835   3.982   0.269   2.922
 2979SOL    HW1 9836   3.890   0.263   2.960
 2979SOL    HW2 9837   4.047   0.230   2.988
 2980SOL     OW 9838   1.065   6.338   4.318
 2980SOL    HW1 9839   1.159   6.321   4.348
 2980SOL    HW2 9840   1.066   6.402   4.242
 2981SOL     OW 9841   1.364   0.912   5.718
 2981SOL    HW1 9842   1.383   0.833   5.776
 2981SOL    HW2 9843   1.450   0.960   5.698
 2982SOL     OW 9844   4.400   5.943   2.537
 2982SOL    HW1 9845   4.437   5.899   2.455
 2982SOL    HW2 9846   4.475   5.965   2.599
 2983SOL     OW 9847   6.699   0.808   4.712
 2983SOL    HW1 9848   6.632   0.872   4.675
 2983SOL    HW2 9849   6.707   0.821   4.810
 2984SOL     OW 9850   6.143   5.130   1.740
 2984SOL    HW1 9851   6.239   5.158   1.735
 2984SOL    HW2 9852   6.137   5.037   1.776
 2985SOL     OW 9853   0.612   2.150   4.126
 2985SOL    HW1 9854   0.557   2.089   4.183
 2985SOL    HW2 9855   0.688   2.186   4.180
 2986SOL     OW 9856   1.524   3.610   4.947
 2986SOL    HW1 9857   1.430   3.587   4.974
 2986SOL    HW2 9858   1.542   3.706   4.967
 2987SOL     OW 9859   4.295   1.242   4.501
 2987SOL    HW1 9860   4.334   1.196   4.581
 2987SOL    HW2 9861   4.197   1.252   4.513
 2988SOL     OW 9862   0.917   0.618   1.520
 2988SOL    HW1 9863   0.827   0.652   1.548
 2988SOL    HW2 9864   0.906   0.529   1.476
 2989SOL     OW 9865   6.688   4.842   1.150
 2989SOL    HW1 9866   6.651   4.756   1.115
 2989SOL    HW2 9867   6.647   4.918   1.099
 2990SOL     OW 9868   3.273   1.316   2.484
 2990SOL    HW1 9869   3.197   1.274   2.532
 2990SOL    HW2 9870   3.325   1.246   2.434
 2991SOL     OW 9871   0.451   4.125   0.255
 2991SOL    HW1 9872   0.511   4.074   0.316
 2991SOL    HW2 9873   0.364   4.076   0.245
 2992SOL     OW 9874   3.431   5.654   6.451
 2992SOL    HW1 9875   3.369   5.673   6.527
 2992SOL    HW2 9876   3.426   5.728   6.384
 2993SOL     OW 9877   1.751   5.031   1.366
 2993SOL    HW1 9878   1.814   4.954   1.360
 2993SOL    HW2 9879   1.797   5.109   1.407
 2994SOL     OW 9880   4.808   0.422   0.370
 2994SOL    HW1 9881   4.902   0.447   0.346
 2994SOL    HW2 9882   4.744   0.470   0.310
 2995SOL     OW 9883   1.163   2.095   6.800
 2995SOL    HW1 9884   1.178   2.078   6.702
 2995SOL    HW2 9885   1.099   2.171   6.812
 2996SOL     OW 9886   3.651   4.911   5.481
 2996SOL    HW1 9887   3.611   4.820   5.496
 2996SOL    HW2 9888   3.717   4.906   5.406
 2997SOL     OW 9889   5.280   6.545   1.277
 2997SOL    HW1 9890   5.347   6.523   1.206
 2997SOL    HW2 9891   5.224   6.464   1.296
 2998SOL     OW 9892   5.436   6.204   3.971
 2998SOL    HW1 9893   5.361   6.143   3.997
 2998SOL    HW2 9894   5.520   6.151   3.960
 2999SOL     OW 9895   3.634   6.735   3.075
 2999SOL    HW1 9896   3.549   6.699   3.113
 2999SOL    HW2 9897   3.671   6.804   3.136
 3000SOL     OW 9898   1.177   3.148   6.062
 3000SOL    HW1 9899   1.175   3.185   5.969
 3000SOL    HW2 9900   1.262   3.175   6.107
 3001SOL     OW 9901   4.852   0.810   5.354
 3001SOL    HW1 9902   4.820   0.767   5.271
 3001SOL    HW2 9903   4.847   0.910   5.345
 3002SOL     OW 9904   4.579   0.002   5.589
 3002SOL    HW1 9905   4.660   0.038   5.542
 3002SOL    HW2 9906   4.520   0.077   5.617
 3003SOL     OW 9907   3.017   6.451   5.929
 3003SOL    HW1 9908   2.959   6.520   5.886
 3003SOL    HW2 9909   2.961   6.390   5.985
 3004SOL     OW 9910   6.209   3.555   3.532
 3004SOL    HW1 9911   6.247   3.646   3.519
 3004SOL    HW2 9912   6.201   3.535   3.629
 3005SOL     OW 9913   3.303   3.036   1.266
 3005SOL    HW1 9914   3.341   3.032   1.173
 3005SOL    HW2 9915   3.375   3.016   1.332
 3006SOL     OW 9916   5.440   1.304   1.120
 3006SOL    HW1 9917   5.467   1.374   1.055
 3006SOL    HW2 9918   5.522   1.258   1.155
 3007SOL     OW 9919   6.273   4.651   3.023
 3007SOL    HW1 9920   6.303   4.644   3.118
 3007SOL    HW2 9921   6.200   4.718   3.015
 3008SOL     OW 9922   3.366   6.524   6.322
 3008SOL    HW1 9923   3.310   6.510   6.404
 3008SOL    HW2 9924   3.313   6.578   6.256
 3009SOL     OW 9925   1.155   0.418   2.508
 3009SOL    HW1 9926   1.091   0.463   2.569
 3009SOL    HW2 9927   1.185   0.332   2.548
 3010SOL     OW 9928   3.338   5.693   2.843
 3010SOL    HW1 9929   3.293   5.632   2.778
 3010SOL    HW2 9930   3.408   5.642   2.894
 3011SOL     OW 9931   6.418   0.348   6.785
 3011SOL    HW1 9932   6.448   0.334   6.691
 3011SOL    HW2 9933   6.441   0.269   6.840
 3012SOL     OW 9934   0.122   3.752   3.329
 3012SOL    HW1 9935   0.081   3.823   3.385
 3012SOL    HW2 9936   0.089   3.662   3.360
 3013SOL     OW 9937   6.099   5.680   2.538
 3013SOL    HW1 9938   6.046   5.673   2.454
 3013SOL    HW2 9939   6.059   5.621   2.608
 3014SOL     OW 9940   5.121   1.696   4.259
 3014SOL    HW1 9941   5.162   1.641   4.332
 3014SOL    HW2 9942   5.142   1.655   4.170
 3015SOL     OW 9943   2.662   2.549   0.445
 3015SOL    HW1 9944   2.731   2.597   0.499
 3015SOL    HW2 9945   2.591   2.613   0.417
 3016SOL     OW 9946   3.734   6.495   3.580
 3016SOL    HW1 9947   3.809   6.443   3.619
 3016SOL    HW2 9948   3.690   6.549   3.653
 3017SOL     OW 9949   1.279   6.301   1.511
 3017SOL    HW1 9950   1.229   6.215   1.507
 3017SOL    HW2 9951   1.242   6.358   1.585
 3018SOL     OW 9952   4.103   6.697   6.882
 3018SOL    HW1 9953   4.087   6.692   6.980
 3018SOL    HW2 9954   4.172   6.768   6.863
 3019SOL     OW 9955   3.017   6.127   0.920
 3019SOL    HW1 9956   3.010   6.050   0.983
 3019SOL    HW2 9957   2.942   6.122   0.853
 3020SOL     OW 9958   2.982   3.351   1.655
 3020SOL    HW1 9959   3.007   3.279   1.592
 3020SOL    HW2 9960   3.060   3.411   1.671
 3021SOL     OW 9961   1.587   2.161   6.610
 3021SOL    HW1 9962   1.605   2.250   6.568
 3021SOL    HW2 9963   1.536   2.174   6.695
 3022SOL     OW 9964   4.381   6.119   2.905
 3022SOL    HW1 9965   4.381   6.206   2.955
 3022SOL    HW2 9966   4.288   6.094   2.881
 3023SOL     OW 9967   4.190   5.842   3.583
 3023SOL    HW1 9968   4.254   5.770   3.556
 3023SOL    HW2 9969   4.184   5.847   3.682
 3024SOL     OW 9970   3.334   1.484   0.136
 3024SOL    HW1 9971   3.346   1.406   0.198
 3024SOL    HW2 9972   3.237   1.495   0.116
 3025SOL     OW 9973   2.379   3.244   1.208
 3025SOL    HW1 9974   2.325   3.220   1.127
 3025SOL    HW2 9975   2.345   3.193   1.287
 3026SOL     OW 9976   1.528   3.337   1.136
 3026SOL    HW1 9977   1.620   3.318   1.100
 3026SOL    HW2 9978   1.521   3.300   1.229
 3027SOL     OW 9979   2.714   1.195   2.328
 3027SOL    HW1 9980   2.790   1.134   2.350
 3027SOL    HW2 9981   2.641   1.144   2.285
 3028SOL     OW 9982   1.237   5.372   6.196
 3028SOL    HW1 9983   1.278   5.368   6.287
 3028SOL    HW2 9984   1.242   5.282   6.153
 3029SOL     OW 9985   5.799   5.187   4.793
 3029SOL    HW1 9986   5.776   5.164   4.699
 3029SOL    HW2 9987   5.816   5.103   4.845
 3030SOL     OW 9988   1.237   1.102   5.403
 3030SOL    HW1 9989   1.304   1.176   5.396
 3030SOL    HW2 9990   1.183   1.098   5.319
 3031SOL     OW 9991   0.533   4.116   6.580
 3031SOL    HW1 9992   0.502   4.174   6.504
 3031SOL    HW2 9993   0.632   4.105   6.575
 3032SOL     OW 9994   5.112   0.572   6.681
 3032SOL    HW1 9995   5.012   0.566   6.683
 3032SOL    HW2 9996   5.151   0.482   6.697
 3033SOL     OW 9997   0.370   3.995   6.898
 3033SOL    HW1 9998   0.399   4.070   6.956
 3033SOL    HW2 9999   0.274   3.974   6.916
 3034SOL     OW10000   3.198   6.548   3.782
 3034SOL    HW110001   3.274   6.489   3.755
 3034SOL    HW210002   3.119   6.492   3.806
 3035SOL     OW10003   6.071   1.355   0.178
 3035SOL    HW110004   6.112   1.445   0.192
 3035SOL    HW210005   5.999   1.362   0.109
 3036SOL     OW10006   1.135   3.944   6.599
 3036SOL    HW110007   1.111   3.894   6.682
 3036SOL    HW210008   1.112   4.040   6.610
 3037SOL     OW10009   6.731   5.801   5.029
 3037SOL    HW110010   6.640   5.839   5.048
 3037SOL    HW210011   6.795   5.831   5.100
 3038SOL     OW10012   5.150   0.127   5.919
 3038SOL    HW110013   5.207   0.102   5.997
 3038SOL    HW210014   5.063   0.163   5.952
 3039SOL     OW10015   0.284   4.503   1.572
 3039SOL    HW110016   0.189   4.517   1.546
 3039SOL    HW210017   0.314   4.412   1.543
 3040SOL     OW10018   3.157   3.952   6.520
 3040SOL    HW110019   3.190   3.896   6.444
 3040SOL    HW210020   3.057   3.945   6.526
 3041SOL     OW10021   2.006   2.386   5.136
 3041SOL    HW110022   1.958   2.299   5.149
 3041SOL    HW210023   2.034   2.395   5.041
 3042SOL     OW10024   4.809   0.686   1.902
 3042SOL    HW110025   4.827   0.776   1.942
 3042SOL    HW210026   4.755   0.631   1.967
 3043SOL     OW10027   0.813   5.606   0.134
 3043SOL    HW110028   0.823   5.537   0.206
 3043SOL    HW210029   0.904   5.642   0.111
 3044SOL     OW10030   3.151   4.022   5.739
 3044SOL    HW110031   3.162   4.085   5.662
 3044SOL    HW210032   3.120   3.933   5.705
 3045SOL     OW10033   4.645   1.519   2.594
 3045SOL    HW110034   4.580   1.585   2.557
 3045SOL    HW210035   4.614   1.488   2.684
 3046SOL     OW10036   1.163   3.197   5.803
 3046SOL    HW110037   1.243   3.236   5.757
 3046SOL    HW210038   1.085   3.259   5.794
 3047SOL     OW10039   6.392   5.624   2.480
 3047SOL    HW110040   6.295   5.599   2.476
 3047SOL    HW210041   6.417   5.647   2.574
 3048SOL     OW10042   3.677   3.733   1.561
 3048SOL    HW110043   3.709   3.674   1.636
 3048SOL    HW210044   3.581   3.711   1.541
 3049SOL     OW10045   1.226   0.546   1.867
 3049SOL    HW110046   1.311   0.532   1.917
 3049SOL    HW210047   1.243   0.540   1.768
 3050SOL     OW10048   3.902   5.774   3.703
 3050SOL    HW110049   3.990   5.817   3.683
 3050SOL    HW210050   3.905   5.732   3.793
 3051SOL     OW10051   2.750   5.366   6.490
 3051SOL    HW110052   2.842   5.331   6.469
 3051SOL    HW210053   2.725   5.436   6.423
 3052SOL     OW10054   4.104   0.200   2.371
 3052SOL    HW110055   4.204   0.205   2.362
 3052SOL    HW210056   4.073   0.110   2.341
 3053SOL     OW10057   6.133   0.080   0.241
 3053SOL    HW110058   6.132   0.122   0.150
 3053SOL    HW210059   6.141   0.151   0.310
 3054SOL     OW10060   0.273   3.330   0.584
 3054SOL    HW110061   0.242   3.235   0.590
 3054SOL    HW210062   0.298   3.351   0.490
 3055SOL     OW10063   5.814   6.933   3.499
 3055SOL    HW110064   5.796   6.915   3.403
 3055SOL    HW210065   5.872   6.861   3.536
 3056SOL     OW10066   6.953   0.192   0.076
 3056SOL    HW110067   6.973   0.233   0.165
 3056SOL    HW210068   6.870   0.233   0.038
 3057SOL     OW10069   5.776   4.766   2.569
 3057SOL    HW110070   5.852   4.825   2.595
 3057SOL    HW210071   5.797   4.722   2.482
 3058SOL     OW10072   6.259   5.891   0.799
 3058SOL    HW110073   6.229   5.814   0.742
 3058SOL    HW210074   6.185   5.958   0.806
 3059SOL     OW10075   0.734   2.855   4.686
 3059SOL    HW110076   0.666   2.863   4.759
 3059SOL    HW210077   0.695   2.804   4.609
 3060SOL     OW10078   0.610   6.392   1.389
 3060SOL    HW110079   0.569   6.306   1.420
 3060SOL    HW210080   0.702   6.401   1.429
 3061SOL     OW10081   0.092   1.015   5.131
 3061SOL    HW110082   0.017   1.071   5.167
 3061SOL    HW210083   0.152   0.989   5.206
 3062SOL     OW10084   2.492   6.208   1.126
 3062SOL    HW110085   2.511   6.156   1.043
 3062SOL    HW210086   2.544   6.170   1.202
 3063SOL     OW10087   1.873   4.771   1.632
 3063SOL    HW110088   1.925   4.856   1.637
 3063SOL    HW210089   1.935   4.694   1.619
 3064SOL     OW10090   6.130   3.895   3.300
 3064SOL    HW110091   6.047   3.946   3.325
 3064SOL    HW210092   6.116   3.798   3.319
 3065SOL     OW10093   1.251   0.727   0.224
 3065SOL    HW110094   1.270   0.726   0.322
 3065SOL    HW210095   1.166   0.779   0.207
 3066SOL     OW10096   6.044   4.474   0.919
 3066SOL    HW110097   6.081   4.492   1.010
 3066SOL    HW210098   5.945   4.493   0.919
 3067SOL     OW10099   4.423   0.295   4.508
 3067SOL    HW110100   4.447   0.215   4.564
 3067SOL    HW210101   4.359   0.352   4.559
 3068SOL     OW10102   5.865   5.787   1.446
 3068SOL    HW110103   5.957   5.794   1.406
 3068SOL    HW210104   5.798   5.774   1.373
 3069SOL     OW10105   1.071   5.709   1.832
 3069SOL    HW110106   1.064   5.644   1.757
 3069SOL    HW210107   1.163   5.705   1.871
 3070SOL     OW10108   1.978   1.494   3.041
 3070SOL    HW110109   2.055   1.540   2.997
 3070SOL    HW210110   1.958   1.408   2.994
 3071SOL     OW10111   6.269   0.165   4.230
 3071SOL    HW110112   6.348   0.124   4.185
 3071SOL    HW210113   6.294   0.255   4.265
 3072SOL     OW10114   0.486   6.202   2.336
 3072SOL    HW110115   0.437   6.117   2.352
 3072SOL    HW210116   0.497   6.251   2.423
 3073SOL     OW10117   0.927   3.268   5.359
 3073SOL    HW110118   0.953   3.172   5.373
 3073SOL    HW210119   0.974   3.325   5.426
 3074SOL     OW10120   4.809   3.078   0.596
 3074SOL    HW110121   4.853   3.051   0.511
 3074SOL    HW210122   4.723   3.125   0.576
 3075SOL     OW10123   1.918   6.196   1.200
 3075SOL    HW110124   1.980   6.188   1.278
 3075SOL    HW210125   1.829   6.227   1.231
 3076SOL     OW10126   6.431   0.194   5.065
 3076SOL    HW110127   6.399   0.199   4.970
 3076SOL    HW210128   6.487   0.274   5.086
 3077SOL     OW10129   6.128   4.430   4.275
 3077SOL    HW110130   6.177   4.432   4.362
 3077SOL    HW210131   6.193   4.424   4.199
 3078SOL     OW10132   1.828   3.711   2.220
 3078SOL    HW110133   1.925   3.688   2.222
 3078SOL    HW210134   1.809   3.767   2.140
 3079SOL     OW10135   0.557   2.210   5.186
 3079SOL    HW110136   0.485   2.169   5.129
 3079SOL    HW210137   0.583   2.146   5.258
 3080SOL     OW10138   6.012   5.023   1.053
 3080SOL    HW110139   6.066   5.003   0.972
 3080SOL    HW210140   6.070   5.071   1.120
 3081SOL     OW10141   0.223   4.161   5.826
 3081SOL    HW110142   0.211   4.257   5.802
 3081SOL    HW210143   0.320   4.143   5.846
 3082SOL     OW10144   3.624   6.975   2.440
 3082SOL    HW110145   3.598   0.043   2.404
 3082SOL    HW210146   3.708   6.984   2.493
 3083SOL     OW10147   3.645   0.826   1.881
 3083SOL    HW110148   3.745   0.814   1.887
 3083SOL    HW210149   3.623   0.923   1.872
 3084SOL     OW10150   4.824   5.054   4.332
 3084SOL    HW110151   4.893   5.002   4.382
 3084SOL    HW210152   4.747   5.076   4.392
 3085SOL     OW10153   6.886   5.281   2.703
 3085SOL    HW110154   6.963   5.342   2.722
 3085SOL    HW210155   6.808   5.335   2.672
 3086SOL     OW10156   5.059   1.396   2.366
 3086SOL    HW110157   4.999   1.412   2.444
 3086SOL    HW210158   5.081   1.484   2.323
 3087SOL     OW10159   6.024   4.158   3.353
 3087SOL    HW110160   5.997   4.250   3.379
 3087SOL    HW210161   6.004   4.143   3.256
 3088SOL     OW10162   2.394   4.695   5.216
 3088SOL    HW110163   2.370   4.741   5.130
 3088SOL    HW210164   2.446   4.758   5.274
 3089SOL     OW10165   0.894   2.691   6.983
 3089SOL    HW110166   0.943   2.777   6.970
 3089SOL    HW210167   0.864   2.684   0.056
 3090SOL     OW10168   1.533   1.639   1.385
 3090SOL    HW110169   1.457   1.629   1.448
 3090SOL    HW210170   1.615   1.596   1.424
 3091SOL     OW10171   2.439   6.813   0.612
 3091SOL    HW110172   2.535   6.838   0.597
 3091SOL    HW210173   2.390   6.815   0.526
 3092SOL     OW10174   6.707   6.614   0.367
 3092SOL    HW110175   6.608   6.623   0.377
 3092SOL    HW210176   6.746   6.704   0.348
 3093SOL     OW10177   6.020   5.330   5.280
 3093SOL    HW110178   6.035   5.422   5.243
 3093SOL    HW210179   5.923   5.307   5.273
 3094SOL     OW10180   3.361   5.705   4.798
 3094SOL    HW110181   3.400   5.674   4.885
 3094SOL    HW210182   3.262   5.707   4.804
 3095SOL     OW10183   2.166   4.862   4.411
 3095SOL    HW110184   2.183   4.781   4.468
 3095SOL    HW210185   2.244   4.925   4.420
 3096SOL     OW10186   6.941   6.578   5.378
 3096SOL    HW110187   6.886   6.647   5.425
 3096SOL    HW210188   6.886   6.531   5.309
 3097SOL     OW10189   0.517   2.865   0.637
 3097SOL    HW110190   0.432   2.813   0.628
 3097SOL    HW210191   0.531   2.891   0.733
 3098SOL     OW10192   2.683   3.763   0.678
 3098SOL    HW110193   2.645   3.833   0.738
 3098SOL    HW210194   2.768   3.728   0.717
 3099SOL     OW10195   0.322   5.885   5.287
 3099SOL    HW110196   0.294   5.981   5.284
 3099SOL    HW210197   0.402   5.871   5.229
 3100SOL     OW10198   6.430   6.124   6.071
 3100SOL    HW110199   6.395   6.198   6.129
 3100SOL    HW210200   6.366   6.108   5.995
 3101SOL     OW10201   4.726   6.454   5.966
 3101SOL    HW110202   4.793   6.444   5.893
 3101SOL    HW210203   4.688   6.364   5.989
 3102SOL     OW10204   1.816   4.404   1.403
 3102SOL    HW110205   1.868   4.325   1.369
 3102SOL    HW210206   1.752   4.373   1.473
 3103SOL     OW10207   3.768   2.692   0.809
 3103SOL    HW110208   3.841   2.757   0.830
 3103SOL    HW210209   3.783   2.653   0.718
 3104SOL     OW10210   5.533   5.953   4.303
 3104SOL    HW110211   5.437   5.981   4.304
 3104SOL    HW210212   5.589   6.027   4.339
 3105SOL     OW10213   5.809   6.741   3.733
 3105SOL    HW110214   5.731   6.748   3.670
 3105SOL    HW210215   5.784   6.680   3.808
 3106SOL     OW10216   6.106   2.937   3.005
 3106SOL    HW110217   6.074   2.855   3.052
 3106SOL    HW210218   6.027   2.985   2.965
 3107SOL     OW10219   3.108   0.586   3.889
 3107SOL    HW110220   3.050   0.646   3.945
 3107SOL    HW210221   3.092   0.606   3.792
 3108SOL     OW10222   1.946   1.045   4.155
 3108SOL    HW110223   1.904   1.000   4.234
 3108SOL    HW210224   2.040   1.071   4.178
 3109SOL     OW10225   4.840   6.357   2.590
 3109SOL    HW110226   4.752   6.310   2.583
 3109SOL    HW210227   4.913   6.297   2.556
 3110SOL     OW10228   0.203   3.629   2.948
 3110SOL    HW110229   0.193   3.629   2.849
 3110SOL    HW210230   0.142   3.561   2.988
 3111SOL     OW10231   6.691   4.752   3.712
 3111SOL    HW110232   6.698   4.654   3.732
 3111SOL    HW210233   6.782   4.791   3.703
 3112SOL     OW10234   4.605   3.657   6.709
 3112SOL    HW110235   4.574   3.748   6.680
 3112SOL    HW210236   4.539   3.588   6.680
 3113SOL     OW10237   2.254   6.938   3.646
 3113SOL    HW110238   2.280   6.917   3.552
 3113SOL    HW210239   2.326   6.907   3.708
 3114SOL     OW10240   4.878   3.744   0.632
 3114SOL    HW110241   4.834   3.792   0.708
 3114SOL    HW210242   4.889   3.647   0.655
 3115SOL     OW10243   3.836   4.082   0.740
 3115SOL    HW110244   3.740   4.063   0.758
 3115SOL    HW210245   3.859   4.051   0.647
 3116SOL     OW10246   6.347   2.481   6.291
 3116SOL    HW110247   6.325   2.384   6.287
 3116SOL    HW210248   6.429   2.494   6.347
 3117SOL     OW10249   4.232   3.318   5.250
 3117SOL    HW110250   4.283   3.235   5.275
 3117SOL    HW210251   4.161   3.336   5.319
 3118SOL     OW10252   0.011   5.052   0.832
 3118SOL    HW110253   6.941   5.092   0.823
 3118SOL    HW210254   0.070   5.116   0.881
 3119SOL     OW10255   1.349   4.242   4.831
 3119SOL    HW110256   1.439   4.211   4.862
 3119SOL    HW210257   1.302   4.289   4.905
 3120SOL     OW10258   2.763   5.235   4.541
 3120SOL    HW110259   2.737   5.175   4.617
 3120SOL    HW210260   2.849   5.282   4.563
 3121SOL     OW10261   6.953   1.322   2.230
 3121SOL    HW110262   0.028   1.332   2.206
 3121SOL    HW210263   6.926   1.398   2.289
 3122SOL     OW10264   2.786   5.831   6.489
 3122SOL    HW110265   2.809   5.798   6.397
 3122SOL    HW210266   2.802   5.759   6.556
 3123SOL     OW10267   3.979   6.921   4.136
 3123SOL    HW110268   3.929   6.918   4.049
 3123SOL    HW210269   4.070   6.960   4.120
 3124SOL     OW10270   4.392   1.400   5.134
 3124SOL    HW110271   4.391   1.499   5.153
 3124SOL    HW210272   4.312   1.357   5.175
 3125SOL     OW10273   6.397   1.862   5.282
 3125SOL    HW110274   6.493   1.851   5.260
 3125SOL    HW210275   6.344   1.868   5.198
 3126SOL     OW10276   4.487   5.247   6.374
 3126SOL    HW110277   4.527   5.329   6.333
 3126SOL    HW210278   4.511   5.243   6.471
 3127SOL     OW10279   1.087   2.297   3.855
 3127SOL    HW110280   1.101   2.365   3.782
 3127SOL    HW210281   1.173   2.250   3.873
 3128SOL     OW10282   2.106   1.315   0.582
 3128SOL    HW110283   2.082   1.218   0.579
 3128SOL    HW210284   2.160   1.339   0.501
 3129SOL     OW10285   0.067   4.299   5.127
 3129SOL    HW110286   0.084   4.335   5.219
 3129SOL    HW210287   0.038   4.204   5.134
 3130SOL     OW10288   2.154   4.462   2.411
 3130SOL    HW110289   2.170   4.521   2.490
 3130SOL    HW210290   2.122   4.373   2.442
 3131SOL     OW10291   6.671   3.681   2.562
 3131SOL    HW110292   6.625   3.751   2.617
 3131SOL    HW210293   6.662   3.593   2.606
 3132SOL     OW10294   5.611   6.026   5.848
 3132SOL    HW110295   5.615   6.023   5.748
 3132SOL    HW210296   5.582   5.937   5.882
 3133SOL     OW10297   2.877   1.589   3.453
 3133SOL    HW110298   2.797   1.649   3.458
 3133SOL    HW210299   2.951   1.628   3.506
 3134SOL     OW10300   4.949   2.982   1.561
 3134SOL    HW110301   4.880   2.913   1.585
 3134SOL    HW210302   4.916   3.037   1.484
 3135SOL     OW10303   3.923   2.020   3.794
 3135SOL    HW110304   3.934   1.926   3.827
 3135SOL    HW210305   3.935   2.084   3.871
 3136SOL     OW10306   5.990   5.663   6.312
 3136SOL    HW110307   6.000   5.568   6.341
 3136SOL    HW210308   6.080   5.707   6.310
 3137SOL     OW10309   5.665   1.776   4.518
 3137SOL    HW110310   5.690   1.837   4.443
 3137SOL    HW210311   5.741   1.771   4.583
 3138SOL     OW10312   6.159   1.126   4.840
 3138SOL    HW110313   6.109   1.115   4.754
 3138SOL    HW210314   6.234   1.191   4.826
 3139SOL     OW10315   4.890   5.945   5.296
 3139SOL    HW110316   4.962   6.004   5.333
 3139SOL    HW210317   4.805   5.996   5.291
 3140SOL     OW10318   6.818   6.117   6.618
 3140SOL    HW110319   6.854   6.098   6.709
 3140SOL    HW210320   6.848   6.046   6.555
 3141SOL     OW10321   1.359   5.943   0.303
 3141SOL    HW110322   1.377   5.907   0.212
 3141SOL    HW210323   1.320   6.034   0.296
 3142SOL     OW10324   4.458   6.554   5.962
 3142SOL    HW110325   4.413   6.528   6.047
 3142SOL    HW210326   4.555   6.530   5.967
 3143SOL     OW10327   6.924   1.941   6.737
 3143SOL    HW110328   6.932   2.022   6.679
 3143SOL    HW210329   7.005   1.933   6.795
 3144SOL     OW10330   1.672   3.755   6.712
 3144SOL    HW110331   1.771   3.743   6.713
 3144SOL    HW210332   1.630   3.691   6.775
 3145SOL     OW10333   2.539   5.485   3.312
 3145SOL    HW110334   2.578   5.558   3.368
 3145SOL    HW210335   2.489   5.421   3.371
 3146SOL     OW10336   1.298   0.527   3.391
 3146SOL    HW110337   1.329   0.466   3.464
 3146SOL    HW210338   1.201   0.549   3.405
 3147SOL     OW10339   4.801   3.840   0.941
 3147SOL    HW110340   4.889   3.858   0.984
 3147SOL    HW210341   4.745   3.783   1.001
 3148SOL     OW10342   4.065   5.602   4.411
 3148SOL    HW110343   4.105   5.561   4.329
 3148SOL    HW210344   4.030   5.693   4.389
 3149SOL     OW10345   3.493   0.002   5.508
 3149SOL    HW110346   3.430   7.002   5.583
 3149SOL    HW210347   3.475   0.095   5.476
 3150SOL     OW10348   6.042   6.802   4.998
 3150SOL    HW110349   6.030   6.865   4.921
 3150SOL    HW210350   6.021   6.709   4.968
 3151SOL     OW10351   4.294   1.465   5.871
 3151SOL    HW110352   4.372   1.457   5.933
 3151SOL    HW210353   4.246   1.551   5.889
 3152SOL     OW10354   1.068   5.558   1.614
 3152SOL    HW110355   1.020   5.473   1.594
 3152SOL    HW210356   1.147   5.567   1.553
 3153SOL     OW10357   5.769   4.177   2.389
 3153SOL    HW110358   5.836   4.195   2.460
 3153SOL    HW210359   5.718   4.260   2.369
 3154SOL     OW10360   5.605   2.614   5.847
 3154SOL    HW110361   5.675   2.583   5.911
 3154SOL    HW210362   5.640   2.610   5.754
 3155SOL     OW10363   5.680   5.616   0.659
 3155SOL    HW110364   5.757   5.590   0.600
 3155SOL    HW210365   5.688   5.569   0.747
 3156SOL     OW10366   3.820   3.706   3.575
 3156SOL    HW110367   3.893   3.758   3.532
 3156SOL    HW210368   3.733   3.726   3.529
 3157SOL     OW10369   2.098   3.663   4.440
 3157SOL    HW110370   2.103   3.731   4.367
 3157SOL    HW210371   2.072   3.708   4.526
 3158SOL     OW10372   4.785   6.577   1.311
 3158SOL    HW110373   4.826   6.514   1.377
 3158SOL    HW210374   4.694   6.545   1.287
 3159SOL     OW10375   4.782   5.190   7.013
 3159SOL    HW110376   4.708   5.150   6.959
 3159SOL    HW210377   4.761   5.180   0.089
 3160SOL     OW10378   4.737   4.372   6.731
 3160SOL    HW110379   4.785   4.319   6.661
 3160SOL    HW210380   4.660   4.319   6.766
 3161SOL     OW10381   1.403   1.047   2.917
 3161SOL    HW110382   1.432   0.954   2.937
 3161SOL    HW210383   1.351   1.048   2.831
 3162SOL     OW10384   0.410   5.695   6.466
 3162SOL    HW110385   0.338   5.764   6.477
 3162SOL    HW210386   0.393   5.644   6.382
 3163SOL     OW10387   3.661   3.517   6.735
 3163SOL    HW110388   3.658   3.438   6.797
 3163SOL    HW210389   3.570   3.536   6.700
 3164SOL     OW10390   5.402   3.922   0.208
 3164SOL    HW110391   5.384   4.003   0.265
 3164SOL    HW210392   5.497   3.923   0.179
 3165SOL     OW10393   0.837   1.111   2.412
 3165SOL    HW110394   0.896   1.177   2.366
 3165SOL    HW210395   0.782   1.158   2.481
 3166SOL     OW10396   5.173   3.601   6.202
 3166SOL    HW110397   5.127   3.622   6.288
 3166SOL    HW210398   5.106   3.572   6.134
 3167SOL     OW10399   0.568   5.064   1.392
 3167SOL    HW110400   0.597   4.970   1.409
 3167SOL    HW210401   0.487   5.085   1.448
 3168SOL     OW10402   5.533   3.053   1.091
 3168SOL    HW110403   5.480   3.138   1.087
 3168SOL    HW210404   5.494   2.987   1.027
 3169SOL     OW10405   0.975   2.764   4.746
 3169SOL    HW110406   1.036   2.838   4.717
 3169SOL    HW210407   0.880   2.793   4.736
 3170SOL     OW10408   4.224   1.020   0.044
 3170SOL    HW110409   4.165   1.027   6.985
 3170SOL    HW210410   4.237   1.111   0.083
 3171SOL     OW10411   5.598   6.423   2.924
 3171SOL    HW110412   5.670   6.450   2.861
 3171SOL    HW210413   5.513   6.408   2.874
 3172SOL     OW10414   6.354   6.812   5.335
 3172SOL    HW110415   6.382   6.848   5.424
 3172SOL    HW210416   6.430   6.818   5.271
 3173SOL     OW10417   2.233   0.609   1.660
 3173SOL    HW110418   2.308   0.643   1.717
 3173SOL    HW210419   2.267   0.592   1.568
 3174SOL     OW10420   2.676   3.026   5.962
 3174SOL    HW110421   2.758   3.080   5.981
 3174SOL    HW210422   2.700   2.930   5.953
 3175SOL     OW10423   1.408   6.453   0.828
 3175SOL    HW110424   1.475   6.394   0.874
 3175SOL    HW210425   1.413   6.438   0.729
 3176SOL     OW10426   1.514   4.308   6.521
 3176SOL    HW110427   1.484   4.376   6.587
 3176SOL    HW210428   1.571   4.239   6.566
 3177SOL     OW10429   5.536   5.487   6.247
 3177SOL    HW110430   5.557   5.422   6.173
 3177SOL    HW210431   5.489   5.567   6.210
 3178SOL     OW10432   0.465   4.471   1.779
 3178SOL    HW110433   0.393   4.503   1.719
 3178SOL    HW210434   0.443   4.380   1.813
 3179SOL     OW10435   1.371   1.349   2.203
 3179SOL    HW110436   1.323   1.268   2.235
 3179SOL    HW210437   1.464   1.349   2.240
 3180SOL     OW10438   5.690   0.753   5.942
 3180SOL    HW110439   5.596   0.773   5.970
 3180SOL    HW210440   5.719   0.666   5.982
 3181SOL     OW10441   0.994   0.782   3.331
 3181SOL    HW110442   1.011   0.724   3.411
 3181SOL    HW210443   0.973   0.875   3.361
 3182SOL     OW10444   1.510   5.812   5.628
 3182SOL    HW110445   1.549   5.809   5.536
 3182SOL    HW210446   1.411   5.824   5.621
 3183SOL     OW10447   4.131   3.912   1.150
 3183SOL    HW110448   4.230   3.910   1.133
 3183SOL    HW210449   4.084   3.940   1.066
 3184SOL     OW10450   2.826   1.935   2.320
 3184SOL    HW110451   2.877   2.020   2.310
 3184SOL    HW210452   2.862   1.867   2.256
 3185SOL     OW10453   6.989   6.879   6.215
 3185SOL    HW110454   6.912   6.819   6.238
 3185SOL    HW210455   7.016   6.864   6.120
 3186SOL     OW10456   3.679   0.865   2.838
 3186SOL    HW110457   3.660   0.902   2.929
 3186SOL    HW210458   3.710   0.938   2.778
 3187SOL     OW10459   3.361   4.710   0.374
 3187SOL    HW110460   3.262   4.723   0.375
 3187SOL    HW210461   3.384   4.626   0.424
 3188SOL     OW10462   3.940   6.284   3.620
 3188SOL    HW110463   3.999   6.307   3.543
 3188SOL    HW210464   3.871   6.218   3.590
 3189SOL     OW10465   1.145   6.496   3.186
 3189SOL    HW110466   1.198   6.582   3.188
 3189SOL    HW210467   1.048   6.517   3.178
 3190SOL     OW10468   1.465   6.211   2.589
 3190SOL    HW110469   1.365   6.210   2.589
 3190SOL    HW210470   1.499   6.230   2.497
 3191SOL     OW10471   4.041   0.834   0.803
 3191SOL    HW110472   4.057   0.741   0.837
 3191SOL    HW210473   3.949   0.863   0.829
 3192SOL     OW10474   0.065   2.882   2.172
 3192SOL    HW110475   0.119   2.884   2.088
 3192SOL    HW210476   6.989   2.877   2.149
 3193SOL     OW10477   4.604   2.638   5.828
 3193SOL    HW110478   4.681   2.591   5.872
 3193SOL    HW210479   4.518   2.597   5.859
 3194SOL     OW10480   0.919   3.293   5.804
 3194SOL    HW110481   0.872   3.365   5.855
 3194SOL    HW210482   0.913   3.207   5.855
 3195SOL     OW10483   0.628   2.825   3.244
 3195SOL    HW110484   0.565   2.872   3.306
 3195SOL    HW210485   0.719   2.822   3.285
 3196SOL     OW10486   6.944   6.952   5.334
 3196SOL    HW110487   6.851   6.980   5.358
 3196SOL    HW210488   6.971   6.876   5.393
 3197SOL     OW10489   1.307   4.376   3.937
 3197SOL    HW110490   1.333   4.466   3.901
 3197SOL    HW210491   1.333   4.306   3.871
 3198SOL     OW10492   0.492   2.383   5.974
 3198SOL    HW110493   0.520   2.451   5.906
 3198SOL    HW210494   0.502   2.292   5.935
 3199SOL     OW10495   4.763   2.278   1.591
 3199SOL    HW110496   4.727   2.364   1.626
 3199SOL    HW210497   4.705   2.203   1.623
 3200SOL     OW10498   6.904   2.048   0.641
 3200SOL    HW110499   6.993   2.073   0.602
 3200SOL    HW210500   6.917   1.976   0.709
 3201SOL     OW10501   4.726   4.559   3.841
 3201SOL    HW110502   4.642   4.554   3.787
 3201SOL    HW210503   4.709   4.525   3.933
 3202SOL     OW10504   1.755   5.394   1.738
 3202SOL    HW110505   1.771   5.492   1.728
 3202SOL    HW210506   1.833   5.352   1.784
 3203SOL     OW10507   6.876   0.327   1.273
 3203SOL    HW110508   6.828   0.303   1.189
 3203SOL    HW210509   6.819   0.305   1.352
 3204SOL     OW10510   6.624   5.737   2.045
 3204SOL    HW110511   6.606   5.773   2.137
 3204SOL    HW210512   6.543   5.751   1.987
 3205SOL     OW10513   0.738   3.607   3.834
 3205SOL    HW110514   0.727   3.674   3.760
 3205SOL    HW210515   0.768   3.520   3.796
 3206SOL     OW10516   1.595   6.753   6.394
 3206SOL    HW110517   1.506   6.757   6.439
 3206SOL    HW210518   1.587   6.787   6.300
 3207SOL     OW10519   0.557   0.771   4.329
 3207SOL    HW110520   0.526   0.678   4.311
 3207SOL    HW210521   0.611   0.772   4.413
 3208SOL     OW10522   5.039   6.654   4.857
 3208SOL    HW110523   5.139   6.657   4.846
 3208SOL    HW210524   5.002   6.580   4.802
 3209SOL     OW10525   2.328   0.558   4.074
 3209SOL    HW110526   2.370   0.605   4.152
 3209SOL    HW210527   2.302   0.465   4.102
 3210SOL     OW10528   6.693   4.387   2.581
 3210SOL    HW110529   6.787   4.406   2.552
 3210SOL    HW210530   6.682   4.417   2.676
 3211SOL     OW10531   1.680   4.382   2.242
 3211SOL    HW110532   1.657   4.304   2.185
 3211SOL    HW210533   1.778   4.381   2.261
 3212SOL     OW10534   5.074   1.856   6.370
 3212SOL    HW110535   5.052   1.951   6.392
 3212SOL    HW210536   4.999   1.796   6.401
 3213SOL     OW10537   6.094   6.060   2.277
 3213SOL    HW110538   6.106   6.159   2.277
 3213SOL    HW210539   6.062   6.030   2.187
 3214SOL     OW10540   4.146   5.835   6.169
 3214SOL    HW110541   4.051   5.858   6.150
 3214SOL    HW210542   4.162   5.833   6.268
 3215SOL     OW10543   5.847   1.882   6.699
 3215SOL    HW110544   5.754   1.870   6.663
 3215SOL    HW210545   5.914   1.863   6.627
 3216SOL     OW10546   5.760   6.848   3.255
 3216SOL    HW110547   5.848   6.856   3.208
 3216SOL    HW210548   5.748   6.754   3.287
 3217SOL     OW10549   6.446   4.333   2.126
 3217SOL    HW110550   6.381   4.281   2.182
 3217SOL    HW210551   6.465   4.283   2.041
 3218SOL     OW10552   3.229   0.688   3.422
 3218SOL    HW110553   3.142   0.662   3.464
 3218SOL    HW210554   3.217   0.698   3.323
 3219SOL     OW10555   6.327   0.382   3.982
 3219SOL    HW110556   6.371   0.407   4.068
 3219SOL    HW210557   6.369   0.299   3.946
 3220SOL     OW10558   6.574   3.514   5.363
 3220SOL    HW110559   6.559   3.429   5.413
 3220SOL    HW210560   6.557   3.592   5.423
 3221SOL     OW10561   3.111   6.886   3.421
 3221SOL    HW110562   3.018   6.898   3.384
 3221SOL    HW210563   3.134   6.789   3.423
 3222SOL     OW10564   5.848   2.529   3.052
 3222SOL    HW110565   5.787   2.581   2.993
 3222SOL    HW210566   5.931   2.504   3.001
 3223SOL     OW10567   1.967   5.279   5.244
 3223SOL    HW110568   1.929   5.327   5.165
 3223SOL    HW210569   2.053   5.322   5.270
 3224SOL     OW10570   4.071   4.840   7.007
 3224SOL    HW110571   4.069   4.818   6.910
 3224SOL    HW210572   4.117   4.767   0.036
 3225SOL     OW10573   2.333   3.817   6.884
 3225SOL    HW110574   2.237   3.804   6.859
 3225SOL    HW210575   2.354   3.760   6.964
 3226SOL     OW10576   1.263   0.789   4.166
 3226SOL    HW110577   1.288   0.769   4.071
 3226SOL    HW210578   1.340   0.834   4.212
 3227SOL     OW10579   2.942   1.609   6.073
 3227SOL    HW110580   2.871   1.597   6.144
 3227SOL    HW210581   3.009   1.536   6.081
 3228SOL     OW10582   5.630   3.442   4.748
 3228SOL    HW110583   5.577   3.498   4.812
 3228SOL    HW210584   5.681   3.502   4.686
 3229SOL     OW10585   4.011   2.075   5.371
 3229SOL    HW110586   3.961   2.052   5.454
 3229SOL    HW210587   4.056   1.993   5.336
 3230SOL     OW10588   1.067   0.770   3.796
 3230SOL    HW110589   1.087   0.692   3.854
 3230SOL    HW210590   0.974   0.802   3.813
 3231SOL     OW10591   5.745   6.134   1.103
 3231SOL    HW110592   5.662   6.078   1.106
 3231SOL    HW210593   5.825   6.075   1.111
 3232SOL     OW10594   2.140   4.923   4.020
 3232SOL    HW110595   2.074   4.893   4.089
 3232SOL    HW210596   2.185   4.843   3.980
 3233SOL     OW10597   0.460   4.003   1.239
 3233SOL    HW110598   0.379   4.053   1.269
 3233SOL    HW210599   0.533   4.012   1.308
 3234SOL     OW10600   0.698   1.704   5.763
 3234SOL    HW110601   0.693   1.783   5.702
 3234SOL    HW210602   0.701   1.736   5.858
 3235SOL     OW10603   5.332   6.772   2.495
 3235SOL    HW110604   5.353   6.859   2.449
 3235SOL    HW210605   5.326   6.788   2.593
 3236SOL     OW10606   0.288   3.178   1.768
 3236SOL    HW110607   0.377   3.218   1.748
 3236SOL    HW210608   0.265   3.110   1.697
 3237SOL     OW10609   3.022   0.576   4.352
 3237SOL    HW110610   2.936   0.620   4.328
 3237SOL    HW210611   3.042   0.504   4.285
 3238SOL     OW10612   0.229   6.468   6.607
 3238SOL    HW110613   0.155   6.402   6.594
 3238SOL    HW210614   0.311   6.422   6.637
 3239SOL     OW10615   6.418   6.493   5.582
 3239SOL    HW110616   6.436   6.502   5.484
 3239SOL    HW210617   6.356   6.416   5.597
 3240SOL     OW10618   1.081   1.180   4.638
 3240SOL    HW110619   1.031   1.179   4.725
 3240SOL    HW210620   1.163   1.124   4.646
 3241SOL     OW10621   5.558   0.742   3.572
 3241SOL    HW110622   5.464   0.710   3.587
 3241SOL    HW210623   5.621   0.664   3.577
 3242SOL     OW10624   3.717   6.928   0.269
 3242SOL    HW110625   3.643   6.937   0.335
 3242SOL    HW210626   3.803   6.911   0.318
 3243SOL     OW10627   3.593   4.992   0.553
 3243SOL    HW110628   3.656   4.922   0.519
 3243SOL    HW210629   3.598   5.072   0.493
 3244SOL     OW10630   3.027   6.022   6.740
 3244SOL    HW110631   3.023   6.043   6.642
 3244SOL    HW210632   3.076   6.095   6.788
 3245SOL     OW10633   3.922   2.782   6.268
 3245SOL    HW110634   3.828   2.814   6.280
 3245SOL    HW210635   3.951   2.734   6.352
 3246SOL     OW10636   5.573   6.520   3.389
 3246SOL    HW110637   5.556   6.429   3.426
 3246SOL    HW210638   5.606   6.580   3.462
 3247SOL     OW10639   0.689   2.347   4.323
 3247SOL    HW110640   0.707   2.431   4.272
 3247SOL    HW210641   0.770   2.321   4.376
 3248SOL     OW10642   6.168   3.468   2.076
 3248SOL    HW110643   6.160   3.562   2.108
 3248SOL    HW210644   6.093   3.413   2.114
 3249SOL     OW10645   2.203   4.238   5.232
 3249SOL    HW110646   2.240   4.167   5.172
 3249SOL    HW210647   2.277   4.296   5.266
 3250SOL     OW10648   4.373   6.693   1.955
 3250SOL    HW110649   4.417   6.623   1.900
 3250SOL    HW210650   4.394   6.678   2.052
 3251SOL     OW10651   3.253   0.621   3.126
 3251SOL    HW110652   3.348   0.636   3.152
 3251SOL    HW210653   3.250   0.573   3.038
 3252SOL     OW10654   3.251   1.804   3.324
 3252SOL    HW110655   3.234   1.851   3.237
 3252SOL    HW210656   3.220   1.710   3.317
 3253SOL     OW10657   4.952   3.416   1.388
 3253SOL    HW110658   4.961   3.327   1.343
 3253SOL    HW210659   4.868   3.418   1.442
 3254SOL     OW10660   5.043   4.685   2.715
 3254SOL    HW110661   5.018   4.681   2.811
 3254SOL    HW210662   5.050   4.592   2.678
 3255SOL     OW10663   4.382   5.076   0.649
 3255SOL    HW110664   4.312   5.140   0.617
 3255SOL    HW210665   4.415   5.105   0.739
 3256SOL     OW10666   6.431   6.039   5.306
 3256SOL    HW110667   6.374   6.120   5.297
 3256SOL    HW210668   6.476   6.039   5.395
 3257SOL     OW10669   2.118   2.666   0.753
 3257SOL    HW110670   2.079   2.640   0.841
 3257SOL    HW210671   2.146   2.762   0.756
 3258SOL     OW10672   6.094   0.097   1.700
 3258SOL    HW110673   6.004   0.140   1.695
 3258SOL    HW210674   6.107   0.059   1.791
 3259SOL     OW10675   4.757   7.016   3.904
 3259SOL    HW110676   4.806   6.969   3.978
 3259SOL    HW210677   4.663   6.985   3.900
 3260SOL     OW10678   1.490   2.336   6.833
 3260SOL    HW110679   1.430   2.414   6.818
 3260SOL    HW210680   1.583   2.358   6.803
 3261SOL     OW10681   4.211   0.159   2.081
 3261SOL    HW110682   4.173   0.070   2.054
 3261SOL    HW210683   4.258   0.149   2.169
 3262SOL     OW10684   4.140   1.759   2.791
 3262SOL    HW110685   4.150   1.827   2.864
 3262SOL    HW210686   4.048   1.765   2.753
 3263SOL     OW10687   3.996   6.181   1.476
 3263SOL    HW110688   3.984   6.084   1.452
 3263SOL    HW210689   3.942   6.202   1.557
 3264SOL     OW10690   5.205   4.968   6.415
 3264SOL    HW110691   5.220   5.015   6.329
 3264SOL    HW210692   5.250   5.019   6.489
 3265SOL     OW10693   4.696   0.380   6.486
 3265SOL    HW110694   4.611   0.431   6.492
 3265SOL    HW210695   4.678   0.288   6.452
 3266SOL     OW10696   0.572   1.274   6.481
 3266SOL    HW110697   0.474   1.285   6.492
 3266SOL    HW210698   0.613   1.247   6.568
 3267SOL     OW10699   3.444   2.512   1.235
 3267SOL    HW110700   3.395   2.559   1.309
 3267SOL    HW210701   3.424   2.415   1.238
 3268SOL     OW10702   0.227   4.175   6.253
 3268SOL    HW110703   0.163   4.162   6.328
 3268SOL    HW210704   0.189   4.134   6.170
 3269SOL     OW10705   4.834   3.304   1.024
 3269SOL    HW110706   4.812   3.317   0.928
 3269SOL    HW210707   4.843   3.393   1.069
 3270SOL     OW10708   1.335   6.316   4.827
 3270SOL    HW110709   1.289   6.405   4.834
 3270SOL    HW210710   1.295   6.253   4.892
 3271SOL     OW10711   6.125   1.743   0.951
 3271SOL    HW110712   6.095   1.699   0.866
 3271SOL    HW210713   6.144   1.674   1.020
 3272SOL     OW10714   4.969   0.160   0.311
 3272SOL    HW110715   4.907   0.238   0.304
 3272SOL    HW210716   4.926   0.086   0.362
 3273SOL     OW10717   6.517   6.684   2.379
 3273SOL    HW110718   6.486   6.774   2.347
 3273SOL    HW210719   6.616   6.677   2.368
 3274SOL     OW10720   3.301   2.413   6.172
 3274SOL    HW110721   3.262   2.458   6.092
 3274SOL    HW210722   3.400   2.428   6.173
 3275SOL     OW10723   3.102   1.546   6.533
 3275SOL    HW110724   3.112   1.644   6.513
 3275SOL    HW210725   3.030   1.508   6.475
 3276SOL     OW10726   2.933   6.253   0.437
 3276SOL    HW110727   2.934   6.296   0.528
 3276SOL    HW210728   3.017   6.277   0.389
 3277SOL     OW10729   6.810   6.535   5.043
 3277SOL    HW110730   6.791   6.622   5.089
 3277SOL    HW210731   6.819   6.462   5.110
 3278SOL     OW10732   1.126   1.144   6.954
 3278SOL    HW110733   1.164   1.197   6.879
 3278SOL    HW210734   1.184   1.154   0.013
 3279SOL     OW10735   1.504   0.142   1.241
 3279SOL    HW110736   1.520   0.076   1.168
 3279SOL    HW210737   1.576   0.211   1.241
 3280SOL     OW10738   1.606   4.723   6.194
 3280SOL    HW110739   1.646   4.767   6.113
 3280SOL    HW210740   1.631   4.626   6.195
 3281SOL     OW10741   2.755   5.692   0.253
 3281SOL    HW110742   2.793   5.784   0.266
 3281SOL    HW210743   2.665   5.687   0.296
 3282SOL     OW10744   2.409   5.342   2.484
 3282SOL    HW110745   2.320   5.309   2.515
 3282SOL    HW210746   2.475   5.267   2.490
 3283SOL     OW10747   2.338   0.537   3.401
 3283SOL    HW110748   2.401   0.536   3.323
 3283SOL    HW210749   2.298   0.446   3.413
 3284SOL     OW10750   6.565   3.624   0.110
 3284SOL    HW110751   6.619   3.707   0.103
 3284SOL    HW210752   6.505   3.615   0.030
 3285SOL     OW10753   0.497   1.894   4.160
 3285SOL    HW110754   0.537   1.892   4.068
 3285SOL    HW210755   0.449   1.808   4.177
 3286SOL     OW10756   3.241   3.996   5.429
 3286SOL    HW110757   3.247   3.993   5.329
 3286SOL    HW210758   3.325   3.959   5.468
 3287SOL     OW10759   1.534   5.227   0.934
 3287SOL    HW110760   1.586   5.311   0.946
 3287SOL    HW210761   1.560   5.161   1.005
 3288SOL     OW10762   0.430   6.326   6.772
 3288SOL    HW110763   0.511   6.341   6.830
 3288SOL    HW210764   0.454   6.260   6.700
 3289SOL     OW10765   2.173   5.461   4.280
 3289SOL    HW110766   2.144   5.372   4.315
 3289SOL    HW210767   2.208   5.516   4.355
 3290SOL     OW10768   6.832   5.112   1.566
 3290SOL    HW110769   6.859   5.068   1.480
 3290SOL    HW210770   6.757   5.061   1.608
 3291SOL     OW10771   1.901   6.789   1.388
 3291SOL    HW110772   1.907   6.863   1.322
 3291SOL    HW210773   1.846   6.818   1.467
 3292SOL     OW10774   0.986   6.358   6.217
 3292SOL    HW110775   0.960   6.271   6.177
 3292SOL    HW210776   0.905   6.402   6.257
 3293SOL     OW10777   6.940   1.014   2.901
 3293SOL    HW110778   6.881   1.049   2.974
 3293SOL    HW210779   6.920   1.062   2.816
 3294SOL     OW10780   0.575   0.253   0.367
 3294SOL    HW110781   0.617   0.343   0.377
 3294SOL    HW210782   0.644   0.182   0.380
 3295SOL     OW10783   1.561   2.851   6.553
 3295SOL    HW110784   1.526   2.781   6.490
 3295SOL    HW210785   1.616   2.917   6.502
 3296SOL     OW10786   1.073   6.744   2.619
 3296SOL    HW110787   1.142   6.808   2.585
 3296SOL    HW210788   1.104   6.651   2.602
 3297SOL     OW10789   3.273   2.742   6.496
 3297SOL    HW110790   3.206   2.677   6.531
 3297SOL    HW210791   3.229   2.807   6.435
 3298SOL     OW10792   6.293   3.435   2.995
 3298SOL    HW110793   6.209   3.476   3.031
 3298SOL    HW210794   6.280   3.336   2.984
 3299SOL     OW10795   2.453   6.918   4.961
 3299SOL    HW110796   2.468   6.850   4.890
 3299SOL    HW210797   2.408   6.998   4.921
 3300SOL     OW10798   6.132   6.932   5.217
 3300SOL    HW110799   6.212   6.889   5.258
 3300SOL    HW210800   6.094   6.871   5.147
 3301SOL     OW10801   0.511   3.677   2.832
 3301SOL    HW110802   0.578   3.750   2.842
 3301SOL    HW210803   0.488   3.640   2.922
 3302SOL     OW10804   1.013   4.331   3.714
 3302SOL    HW110805   1.032   4.367   3.806
 3302SOL    HW210806   0.915   4.339   3.696
 3303SOL     OW10807   3.552   3.701   3.162
 3303SOL    HW110808   3.507   3.624   3.208
 3303SOL    HW210809   3.615   3.666   3.092
 3304SOL     OW10810   0.519   6.239   4.551
 3304SOL    HW110811   0.527   6.244   4.451
 3304SOL    HW210812   0.610   6.240   4.592
 3305SOL     OW10813   1.756   1.249   2.076
 3305SOL    HW110814   1.829   1.317   2.070
 3305SOL    HW210815   1.705   1.263   2.161
 3306SOL     OW10816   1.088   3.833   3.196
 3306SOL    HW110817   1.129   3.742   3.204
 3306SOL    HW210818   1.150   3.893   3.146
 3307SOL     OW10819   0.609   6.027   6.763
 3307SOL    HW110820   0.527   5.970   6.767
 3307SOL    HW210821   0.650   6.033   6.855
 3308SOL     OW10822   4.027   5.928   0.617
 3308SOL    HW110823   4.027   5.869   0.698
 3308SOL    HW210824   3.977   6.012   0.637
 3309SOL     OW10825   0.038   4.934   2.989
 3309SOL    HW110826   6.973   4.935   3.038
 3309SOL    HW210827   0.107   4.982   3.042
 3310SOL     OW10828   1.297   6.422   1.763
 3310SOL    HW110829   1.370   6.471   1.809
 3310SOL    HW210830   1.229   6.393   1.830
 3311SOL     OW10831   3.988   6.402   0.935
 3311SOL    HW110832   4.062   6.355   0.982
 3311SOL    HW210833   3.985   6.497   0.965
 3312SOL     OW10834   2.774   3.503   0.310
 3312SOL    HW110835   2.794   3.596   0.341
 3312SOL    HW210836   2.732   3.451   0.385
 3313SOL     OW10837   6.627   5.309   4.232
 3313SOL    HW110838   6.583   5.219   4.228
 3313SOL    HW210839   6.719   5.299   4.271
 3314SOL     OW10840   0.549   3.619   5.372
 3314SOL    HW110841   0.533   3.556   5.297
 3314SOL    HW210842   0.508   3.583   5.456
 3315SOL     OW10843   6.339   1.665   3.387
 3315SOL    HW110844   6.378   1.626   3.304
 3315SOL    HW210845   6.348   1.600   3.463
 3316SOL     OW10846   4.597   1.229   0.239
 3316SOL    HW110847   4.531   1.253   0.311
 3316SOL    HW210848   4.683   1.278   0.254
 3317SOL     OW10849   4.088   2.539   1.689
 3317SOL    HW110850   4.065   2.480   1.612
 3317SOL    HW210851   4.022   2.614   1.695
 3318SOL     OW10852   2.939   5.505   4.927
 3318SOL    HW110853   2.850   5.510   4.883
 3318SOL    HW210854   2.928   5.505   5.026
 3319SOL     OW10855   0.383   5.614   4.991
 3319SOL    HW110856   0.441   5.603   5.072
 3319SOL    HW210857   0.441   5.625   4.910
 3320SOL     OW10858   0.290   0.763   6.513
 3320SOL    HW110859   0.335   0.751   6.601
 3320SOL    HW210860   0.192   0.776   6.527
 3321SOL     OW10861   3.623   4.091   3.627
 3321SOL    HW110862   3.529   4.116   3.651
 3321SOL    HW210863   3.637   4.108   3.529
 3322SOL     OW10864   4.271   1.640   1.418
 3322SOL    HW110865   4.284   1.542   1.409
 3322SOL    HW210866   4.295   1.668   1.511
 3323SOL     OW10867   2.359   5.076   0.235
 3323SOL    HW110868   2.364   5.021   0.152
 3323SOL    HW210869   2.405   5.163   0.220
 3324SOL     OW10870   0.528   2.077   0.592
 3324SOL    HW110871   0.475   2.140   0.649
 3324SOL    HW210872   0.466   2.025   0.533
 3325SOL     OW10873   1.958   3.296   0.853
 3325SOL    HW110874   1.893   3.279   0.927
 3325SOL    HW210875   1.909   3.322   0.770
 3326SOL     OW10876   6.418   0.798   1.554
 3326SOL    HW110877   6.398   0.795   1.652
 3326SOL    HW210878   6.490   0.865   1.537
 3327SOL     OW10879   3.153   5.988   2.239
 3327SOL    HW110880   3.214   5.910   2.225
 3327SOL    HW210881   3.076   5.960   2.297
 3328SOL     OW10882   4.549   0.799   2.485
 3328SOL    HW110883   4.598   0.883   2.509
 3328SOL    HW210884   4.469   0.788   2.545
 3329SOL     OW10885   5.060   0.630   5.088
 3329SOL    HW110886   4.979   0.575   5.110
 3329SOL    HW210887   5.127   0.573   5.040
 3330SOL     OW10888   0.053   5.476   2.594
 3330SOL    HW110889   0.034   5.531   2.513
 3330SOL    HW210890   0.089   5.387   2.566
 3331SOL     OW10891   2.137   3.156   2.845
 3331SOL    HW110892   2.234   3.152   2.871
 3331SOL    HW210893   2.084   3.191   2.922
 3332SOL     OW10894   3.624   5.283   1.320
 3332SOL    HW110895   3.552   5.246   1.377
 3332SOL    HW210896   3.586   5.349   1.255
 3333SOL     OW10897   2.526   2.991   1.668
 3333SOL    HW110898   2.587   2.983   1.590
 3333SOL    HW210899   2.520   3.086   1.696
 3334SOL     OW10900   1.664   2.069   2.263
 3334SOL    HW110901   1.747   2.016   2.277
 3334SOL    HW210902   1.605   2.022   2.198
 3335SOL     OW10903   3.970   4.518   5.513
 3335SOL    HW110904   3.993   4.427   5.547
 3335SOL    HW210905   3.946   4.578   5.590
 3336SOL     OW10906   4.883   5.744   3.980
 3336SOL    HW110907   4.877   5.695   4.067
 3336SOL    HW210908   4.975   5.734   3.942
 3337SOL     OW10909   3.406   3.226   3.214
 3337SOL    HW110910   3.361   3.275   3.139
 3337SOL    HW210911   3.381   3.130   3.210
 3338SOL     OW10912   2.742   2.727   1.694
 3338SOL    HW110913   2.716   2.686   1.607
 3338SOL    HW210914   2.684   2.691   1.767
 3339SOL     OW10915   1.711   6.782   5.941
 3339SOL    HW110916   1.661   6.711   5.890
 3339SOL    HW210917   1.785   6.740   5.993
 3340SOL     OW10918   3.681   0.783   4.351
 3340SOL    HW110919   3.706   0.756   4.258
 3340SOL    HW210920   3.603   0.846   4.348
 3341SOL     OW10921   1.828   3.901   2.833
 3341SOL    HW110922   1.811   3.974   2.899
 3341SOL    HW210923   1.866   3.821   2.881
 3342SOL     OW10924   6.757   0.317   2.005
 3342SOL    HW110925   6.831   0.379   2.031
 3342SOL    HW210926   6.670   0.355   2.039
 3343SOL     OW10927   4.701   4.977   5.850
 3343SOL    HW110928   4.690   5.075   5.866
 3343SOL    HW210929   4.798   4.956   5.834
 3344SOL     OW10930   0.467   3.213   2.567
 3344SOL    HW110931   0.480   3.143   2.637
 3344SOL    HW210932   0.448   3.301   2.611
 3345SOL     OW10933   6.269   4.609   0.239
 3345SOL    HW110934   6.284   4.513   0.264
 3345SOL    HW210935   6.206   4.614   0.162
 3346SOL     OW10936   1.573   1.165   0.607
 3346SOL    HW110937   1.610   1.078   0.576
 3346SOL    HW210938   1.644   1.236   0.600
 3347SOL     OW10939   0.057   3.393   6.337
 3347SOL    HW110940   0.096   3.449   6.410
 3347SOL    HW210941   0.130   3.350   6.284
 3348SOL     OW10942   3.461   3.762   6.086
 3348SOL    HW110943   3.371   3.771   6.045
 3348SOL    HW210944   3.480   3.841   6.144
 3349SOL     OW10945   1.639   4.251   3.950
 3349SOL    HW110946   1.631   4.171   3.891
 3349SOL    HW210947   1.614   4.333   3.899
 3350SOL     OW10948   0.727   3.938   4.450
 3350SOL    HW110949   0.720   4.009   4.380
 3350SOL    HW210950   0.823   3.908   4.457
 3351SOL     OW10951   4.858   0.880   1.231
 3351SOL    HW110952   4.886   0.972   1.207
 3351SOL    HW210953   4.923   0.840   1.296
 3352SOL     OW10954   6.313   1.263   0.055
 3352SOL    HW110955   6.334   1.173   0.095
 3352SOL    HW210956   6.228   1.297   0.093
 3353SOL     OW10957   2.613   7.003   1.043
 3353SOL    HW110958   2.668   6.929   1.083
 3353SOL    HW210959   2.590   0.048   1.115
 3354SOL     OW10960   2.759   4.594   6.230
 3354SOL    HW110961   2.857   4.575   6.220
 3354SOL    HW210962   2.707   4.517   6.193
 3355SOL     OW10963   1.783   0.987   4.861
 3355SOL    HW110964   1.787   1.021   4.767
 3355SOL    HW210965   1.717   0.913   4.867
 3356SOL     OW10966   1.627   6.913   5.573
 3356SOL    HW110967   1.669   6.959   5.494
 3356SOL    HW210968   1.694   6.904   5.646
 3357SOL     OW10969   2.982   3.074   1.856
 3357SOL    HW110970   3.073   3.103   1.824
 3357SOL    HW210971   2.929   3.155   1.882
 3358SOL     OW10972   0.092   0.475   1.449
 3358SOL    HW110973   0.024   0.410   1.483
 3358SOL    HW210974   0.124   0.445   1.359
 3359SOL     OW10975   0.276   6.636   4.159
 3359SOL    HW110976   0.296   6.601   4.067
 3359SOL    HW210977   0.239   6.561   4.215
 3360SOL     OW10978   0.880   3.285   4.535
 3360SOL    HW110979   0.907   3.198   4.493
 3360SOL    HW210980   0.939   3.358   4.501
 3361SOL     OW10981   6.347   6.943   4.905
 3361SOL    HW110982   6.308   0.007   4.871
 3361SOL    HW210983   6.279   6.870   4.896
 3362SOL     OW10984   3.801   0.749   4.117
 3362SOL    HW110985   3.813   0.724   4.021
 3362SOL    HW210986   3.885   0.730   4.167
 3363SOL     OW10987   5.799   3.630   6.692
 3363SOL    HW110988   5.818   3.549   6.636
 3363SOL    HW210989   5.701   3.650   6.690
 3364SOL     OW10990   1.930   3.619   3.422
 3364SOL    HW110991   1.875   3.693   3.459
 3364SOL    HW210992   1.871   3.550   3.381
 3365SOL     OW10993   2.269   4.145   3.635
 3365SOL    HW110994   2.217   4.061   3.648
 3365SOL    HW210995   2.301   4.179   3.724
 3366SOL     OW10996   5.957   4.031   4.080
 3366SOL    HW110997   5.928   3.994   3.992
 3366SOL    HW210998   6.027   4.101   4.065
 3367SOL     OW10999   3.750   3.423   3.511
 3367SOL    HW111000   3.763   3.352   3.581
 3367SOL    HW211001   3.776   3.512   3.550
 3368SOL     OW11002   1.683   6.816   2.178
 3368SOL    HW111003   1.605   6.756   2.165
 3368SOL    HW211004   1.768   6.766   2.160
 3369SOL     OW11005   5.268   2.529   0.647
 3369SOL    HW111006   5.270   2.502   0.744
 3369SOL    HW211007   5.348   2.586   0.627
 3370SOL     OW11008   0.937   5.697   2.656
 3370SOL    HW111009   0.912   5.639   2.734
 3370SOL    HW211010   1.035   5.688   2.639
 3371SOL     OW11011   2.070   2.428   2.864
 3371SOL    HW111012   2.145   2.492   2.883
 3371SOL    HW211013   2.083   2.388   2.773
 3372SOL     OW11014   5.865   3.548   2.406
 3372SOL    HW111015   5.873   3.460   2.452
 3372SOL    HW211016   5.772   3.583   2.419
 3373SOL     OW11017   6.464   3.213   1.471
 3373SOL    HW111018   6.551   3.253   1.501
 3373SOL    HW211019   6.404   3.286   1.437
 3374SOL     OW11020   0.638   0.153   4.168
 3374SOL    HW111021   0.659   0.083   4.099
 3374SOL    HW211022   0.557   0.124   4.220
 3375SOL     OW11023   6.618   4.798   6.059
 3375SOL    HW111024   6.541   4.777   5.999
 3375SOL    HW211025   6.653   4.713   6.099
 3376SOL     OW11026   3.059   3.628   4.405
 3376SOL    HW111027   3.021   3.719   4.388
 3376SOL    HW211028   3.137   3.635   4.467
 3377SOL     OW11029   6.281   5.014   3.129
 3377SOL    HW111030   6.286   5.099   3.078
 3377SOL    HW211031   6.207   4.958   3.094
 3378SOL     OW11032   1.386   6.254   0.366
 3378SOL    HW111033   1.424   6.309   0.292
 3378SOL    HW211034   1.454   6.188   0.398
 3379SOL     OW11035   6.797   4.168   3.364
 3379SOL    HW111036   6.805   4.088   3.305
 3379SOL    HW211037   6.703   4.202   3.363
 3380SOL     OW11038   3.051   4.543   0.366
 3380SOL    HW111039   3.030   4.594   0.283
 3380SOL    HW211040   3.057   4.606   0.443
 3381SOL     OW11041   1.816   3.501   6.453
 3381SOL    HW111042   1.910   3.526   6.476
 3381SOL    HW211043   1.778   3.568   6.390
 3382SOL     OW11044   6.936   3.096   0.673
 3382SOL    HW111045   7.014   3.062   0.726
 3382SOL    HW211046   6.958   3.091   0.575
 3383SOL     OW11047   4.654   5.647   0.198
 3383SOL    HW111048   4.581   5.596   0.242
 3383SOL    HW211049   4.742   5.612   0.228
 3384SOL     OW11050   2.922   4.388   6.698
 3384SOL    HW111051   2.833   4.354   6.668
 3384SOL    HW211052   2.933   4.370   6.796
 3385SOL     OW11053   0.303   2.136   4.352
 3385SOL    HW111054   0.290   2.183   4.439
 3385SOL    HW211055   0.398   2.110   4.341
 3386SOL     OW11056   0.619   4.534   4.911
 3386SOL    HW111057   0.565   4.565   4.989
 3386SOL    HW211058   0.696   4.479   4.942
 3387SOL     OW11059   6.185   0.801   3.040
 3387SOL    HW111060   6.096   0.846   3.032
 3387SOL    HW211061   6.174   0.703   3.023
 3388SOL     OW11062   6.877   3.593   0.840
 3388SOL    HW111063   6.864   3.495   0.825
 3388SOL    HW211064   6.859   3.614   0.937
 3389SOL     OW11065   5.634   6.336   0.337
 3389SOL    HW111066   5.584   6.365   0.419
 3389SOL    HW211067   5.592   6.377   0.256
 3390SOL     OW11068   2.923   6.280   6.101
 3390SOL    HW111069   2.836   6.272   6.150
 3390SOL    HW211070   2.998   6.274   6.166
 3391SOL     OW11071   5.790   3.606   4.586
 3391SOL    HW111072   5.813   3.703   4.587
 3391SOL    HW211073   5.852   3.556   4.647
 3392SOL     OW11074   4.804   6.859   5.955
 3392SOL    HW111075   4.785   6.925   6.028
 3392SOL    HW211076   4.726   6.856   5.893
 3393SOL     OW11077   5.164   5.713   0.853
 3393SOL    HW111078   5.251   5.689   0.811
 3393SOL    HW211079   5.179   5.783   0.923
 3394SOL     OW11080   2.993   5.677   1.254
 3394SOL    HW111081   3.079   5.661   1.206
 3394SOL    HW211082   2.958   5.768   1.230
 3395SOL     OW11083   2.637   6.910   3.471
 3395SOL    HW111084   2.576   6.831   3.476
 3395SOL    HW211085   2.690   6.916   3.555
 3396SOL     OW11086   4.998   1.366   4.443
 3396SOL    HW111087   4.945   1.369   4.359
 3396SOL    HW211088   4.961   1.431   4.509
 3397SOL     OW11089   2.117   6.189   0.261
 3397SOL    HW111090   2.126   6.283   0.294
 3397SOL    HW211091   2.193   6.168   0.200
 3398SOL     OW11092   0.061   2.443   4.892
 3398SOL    HW111093   0.067   2.527   4.946
 3398SOL    HW211094   0.067   2.364   4.953
 3399SOL     OW11095   6.492   5.785   1.767
 3399SOL    HW111096   6.409   5.766   1.714
 3399SOL    HW211097   6.485   5.877   1.805
 3400SOL     OW11098   4.761   1.670   6.109
 3400SOL    HW111099   4.670   1.630   6.098
 3400SOL    HW211100   4.824   1.630   6.042
 3401SOL     OW11101   6.069   3.432   5.526
 3401SOL    HW111102   6.064   3.334   5.545
 3401SOL    HW211103   5.979   3.474   5.543
 3402SOL     OW11104   5.831   3.627   1.321
 3402SOL    HW111105   5.837   3.532   1.291
 3402SOL    HW211106   5.735   3.650   1.341
 3403SOL     OW11107   5.089   6.823   6.713
 3403SOL    HW111108   5.173   6.825   6.767
 3403SOL    HW211109   5.031   6.748   6.745
 3404SOL     OW11110   5.037   4.281   5.042
 3404SOL    HW111111   5.081   4.322   5.121
 3404SOL    HW211112   4.995   4.352   4.986
 3405SOL     OW11113   5.031   6.378   6.867
 3405SOL    HW111114   5.102   6.346   6.803
 3405SOL    HW211115   5.059   6.356   6.960
 3406SOL     OW11116   2.366   5.226   1.409
 3406SOL    HW111117   2.325   5.317   1.416
 3406SOL    HW211118   2.420   5.208   1.491
 3407SOL     OW11119   1.077   3.832   6.831
 3407SOL    HW111120   1.051   3.903   6.896
 3407SOL    HW211121   1.067   3.742   6.875
 3408SOL     OW11122   4.644   1.428   3.303
 3408SOL    HW111123   4.576   1.393   3.368
 3408SOL    HW211124   4.727   1.373   3.310
 3409SOL     OW11125   4.187   0.055   1.116
 3409SOL    HW111126   4.165   0.152   1.103
 3409SOL    HW211127   4.284   0.040   1.097
 3410SOL     OW11128   6.272   0.418   3.217
 3410SOL    HW111129   6.274   0.318   3.213
 3410SOL    HW211130   6.312   0.449   3.303
 3411SOL     OW11131   5.740   2.212   6.932
 3411SOL    HW111132   5.752   2.301   6.888
 3411SOL    HW211133   5.724   2.143   6.862
 3412SOL     OW11134   5.641   3.141   1.961
 3412SOL    HW111135   5.702   3.150   1.882
 3412SOL    HW211136   5.689   3.169   2.044
 3413SOL     OW11137   6.983   2.199   6.584
 3413SOL    HW111138   6.970   2.275   6.647
 3413SOL    HW211139   0.057   2.170   6.586
 3414SOL     OW11140   3.060   4.361   1.135
 3414SOL    HW111141   3.115   4.408   1.204
 3414SOL    HW211142   2.992   4.303   1.179
 3415SOL     OW11143   1.584   1.641   6.509
 3415SOL    HW111144   1.580   1.739   6.530
 3415SOL    HW211145   1.596   1.628   6.411
 3416SOL     OW11146   5.936   0.113   6.954
 3416SOL    HW111147   5.858   0.155   6.910
 3416SOL    HW211148   6.020   0.161   6.927
 3417SOL     OW11149   5.101   6.591   3.552
 3417SOL    HW111150   5.029   6.523   3.554
 3417SOL    HW211151   5.180   6.558   3.605
 3418SOL     OW11152   4.459   5.102   1.180
 3418SOL    HW111153   4.416   5.145   1.259
 3418SOL    HW211154   4.556   5.125   1.178
 3419SOL     OW11155   2.305   5.695   5.158
 3419SOL    HW111156   2.361   5.657   5.084
 3419SOL    HW211157   2.280   5.622   5.221
 3420SOL     OW11158   4.613   2.127   2.349
 3420SOL    HW111159   4.672   2.158   2.274
 3420SOL    HW211160   4.577   2.207   2.398
 3421SOL     OW11161   6.801   2.618   4.108
 3421SOL    HW111162   6.772   2.710   4.134
 3421SOL    HW211163   6.891   2.622   4.064
 3422SOL     OW11164   2.308   6.164   0.493
 3422SOL    HW111165   2.253   6.226   0.549
 3422SOL    HW211166   2.403   6.196   0.492
 3423SOL     OW11167   1.296   4.253   5.868
 3423SOL    HW111168   1.389   4.285   5.881
 3423SOL    HW211169   1.240   4.278   5.947
 3424SOL     OW11170   4.427   0.846   1.738
 3424SOL    HW111171   4.526   0.835   1.727
 3424SOL    HW211172   4.382   0.821   1.653
 3425SOL     OW11173   6.396   3.862   0.192
 3425SOL    HW111174   6.324   3.906   0.137
 3425SOL    HW211175   6.460   3.932   0.224
 3426SOL     OW11176   5.437   3.442   6.544
 3426SOL    HW111177   5.508   3.432   6.474
 3426SOL    HW211178   5.433   3.538   6.574
 3427SOL     OW11179   1.156   2.549   0.839
 3427SOL    HW111180   1.205   2.612   0.899
 3427SOL    HW211181   1.156   2.458   0.880
 3428SOL     OW11182   4.775   6.477   5.479
 3428SOL    HW111183   4.736   6.393   5.517
 3428SOL    HW211184   4.744   6.556   5.532
 3429SOL     OW11185   6.066   0.081   1.200
 3429SOL    HW111186   6.106   0.022   1.130
 3429SOL    HW211187   5.997   0.029   1.251
 3430SOL     OW11188   2.155   4.697   5.331
 3430SOL    HW111189   2.119   4.604   5.324
 3430SOL    HW211190   2.253   4.697   5.310
 3431SOL     OW11191   0.399   4.723   2.615
 3431SOL    HW111192   0.392   4.628   2.584
 3431SOL    HW211193   0.478   4.732   2.675
 3432SOL     OW11194   1.543   4.370   0.002
 3432SOL    HW111195   1.567   4.299   0.069
 3432SOL    HW211196   1.444   4.369   7.009
 3433SOL     OW11197   2.608   1.952   6.653
 3433SOL    HW111198   2.511   1.931   6.665
 3433SOL    HW211199   2.619   2.049   6.632
 3434SOL     OW11200   3.314   2.327   1.697
 3434SOL    HW111201   3.224   2.285   1.687
 3434SOL    HW211202   3.384   2.256   1.699
 3435SOL     OW11203   2.257   1.084   0.945
 3435SOL    HW111204   2.194   1.158   0.922
 3435SOL    HW211205   2.340   1.122   0.987
 3436SOL     OW11206   3.740   6.963   6.508
 3436SOL    HW111207   3.758   7.005   6.419
 3436SOL    HW211208   3.824   6.963   6.563
 3437SOL     OW11209   1.278   7.006   6.163
 3437SOL    HW111210   1.358   0.002   6.221
 3437SOL    HW211211   1.200   0.036   6.197
 3438SOL     OW11212   1.647   3.662   1.224
 3438SOL    HW111213   1.583   3.638   1.151
 3438SOL    HW211214   1.598   3.668   1.311
 3439SOL     OW11215   2.600   5.461   1.920
 3439SOL    HW111216   2.660   5.496   1.849
 3439SOL    HW211217   2.643   5.472   2.009
 3440SOL     OW11218   3.869   3.727   4.912
 3440SOL    HW111219   3.918   3.710   4.997
 3440SOL    HW211220   3.878   3.824   4.887
 3441SOL     OW11221   5.784   4.932   5.419
 3441SOL    HW111222   5.858   4.998   5.407
 3441SOL    HW211223   5.724   4.934   5.339
 3442SOL     OW11224   2.994   2.995   1.182
 3442SOL    HW111225   3.084   3.029   1.154
 3442SOL    HW211226   2.932   2.995   1.103
 3443SOL     OW11227   0.855   6.077   2.366
 3443SOL    HW111228   0.757   6.097   2.358
 3443SOL    HW211229   0.873   6.035   2.455
 3444SOL     OW11230   6.162   3.646   6.567
 3444SOL    HW111231   6.179   3.554   6.530
 3444SOL    HW211232   6.093   3.640   6.639
 3445SOL     OW11233   5.888   4.861   3.376
 3445SOL    HW111234   5.798   4.858   3.421
 3445SOL    HW211235   5.917   4.956   3.367
 3446SOL     OW11236   4.944   1.121   1.154
 3446SOL    HW111237   5.040   1.149   1.144
 3446SOL    HW211238   4.890   1.200   1.182
 3447SOL     OW11239   4.829   0.897   6.726
 3447SOL    HW111240   4.883   0.863   6.803
 3447SOL    HW211241   4.791   0.820   6.675
 3448SOL     OW11242   1.852   5.483   5.095
 3448SOL    HW111243   1.775   5.461   5.156
 3448SOL    HW211244   1.843   5.578   5.065
 3449SOL     OW11245   0.086   4.471   5.393
 3449SOL    HW111246   0.003   4.524   5.407
 3449SOL    HW211247   0.155   4.528   5.349
 3450SOL     OW11248   2.429   6.528   1.536
 3450SOL    HW111249   2.436   6.463   1.460
 3450SOL    HW211250   2.334   6.531   1.568
 3451SOL     OW11251   2.488   1.645   1.771
 3451SOL    HW111252   2.516   1.725   1.718
 3451SOL    HW211253   2.394   1.621   1.746
 3452SOL     OW11254   4.148   0.933   4.465
 3452SOL    HW111255   4.187   0.933   4.373
 3452SOL    HW211256   4.050   0.913   4.459
 3453SOL     OW11257   3.849   6.533   5.958
 3453SOL    HW111258   3.940   6.574   5.954
 3453SOL    HW211259   3.789   6.591   6.014
 3454SOL     OW11260   0.616   2.805   1.298
 3454SOL    HW111261   0.551   2.877   1.274
 3454SOL    HW211262   0.628   2.744   1.219
 3455SOL     OW11263   0.839   2.950   4.966
 3455SOL    HW111264   0.892   2.979   4.887
 3455SOL    HW211265   0.743   2.937   4.939
 3456SOL     OW11266   5.746   5.896   3.487
 3456SOL    HW111267   5.679   5.963   3.457
 3456SOL    HW211268   5.834   5.941   3.503
 3457SOL     OW11269   3.040   4.557   6.234
 3457SOL    HW111270   3.113   4.626   6.232
 3457SOL    HW211271   3.046   4.500   6.152
 3458SOL     OW11272   3.990   1.419   1.611
 3458SOL    HW111273   3.990   1.321   1.633
 3458SOL    HW211274   4.070   1.462   1.653
 3459SOL     OW11275   4.456   6.226   2.253
 3459SOL    HW111276   4.433   6.145   2.200
 3459SOL    HW211277   4.382   6.293   2.247
 3460SOL     OW11278   3.980   1.695   4.744
 3460SOL    HW111279   4.023   1.676   4.832
 3460SOL    HW211280   3.981   1.613   4.688
 3461SOL     OW11281   5.592   5.355   4.840
 3461SOL    HW111282   5.534   5.273   4.834
 3461SOL    HW211283   5.688   5.328   4.846
 3462SOL     OW11284   1.360   3.577   6.573
 3462SOL    HW111285   1.392   3.620   6.657
 3462SOL    HW211286   1.304   3.497   6.596
 3463SOL     OW11287   4.901   4.462   1.324
 3463SOL    HW111288   4.930   4.552   1.291
 3463SOL    HW211289   4.977   4.397   1.315
 3464SOL     OW11290   0.422   4.616   5.065
 3464SOL    HW111291   0.436   4.666   5.150
 3464SOL    HW211292   0.385   4.678   4.996
 3465SOL     OW11293   0.942   1.153   1.474
 3465SOL    HW111294   0.865   1.104   1.433
 3465SOL    HW211295   0.972   1.226   1.413
 3466SOL     OW11296   6.348   3.819   5.371
 3466SOL    HW111297   6.439   3.851   5.399
 3466SOL    HW211298   6.307   3.768   5.446
 3467SOL     OW11299   1.878   2.399   0.125
 3467SOL    HW111300   1.883   2.386   0.025
 3467SOL    HW211301   1.847   2.492   0.145
 3468SOL     OW11302   3.976   6.399   3.367
 3468SOL    HW111303   4.022   6.364   3.286
 3468SOL    HW211304   3.883   6.427   3.343
 3469SOL     OW11305   4.998   3.544   2.879
 3469SOL    HW111306   4.980   3.589   2.966
 3469SOL    HW211307   5.086   3.495   2.884
 3470SOL     OW11308   0.070   5.441   1.435
 3470SOL    HW111309   0.068   5.435   1.535
 3470SOL    HW211310   7.002   5.469   1.402
 3471SOL     OW11311   4.187   0.177   4.743
 3471SOL    HW111312   4.117   0.118   4.783
 3471SOL    HW211313   4.197   0.260   4.798
 3472SOL     OW11314   3.594   1.027   5.843
 3472SOL    HW111315   3.507   1.020   5.793
 3472SOL    HW211316   3.631   0.936   5.858
 3473SOL     OW11317   4.945   0.917   4.912
 3473SOL    HW111318   4.975   0.826   4.883
 3473SOL    HW211319   5.006   0.951   4.984
 3474SOL     OW11320   4.731   4.737   0.770
 3474SOL    HW111321   4.769   4.646   0.752
 3474SOL    HW211322   4.742   4.758   0.867
 3475SOL     OW11323   2.020   5.807   5.319
 3475SOL    HW111324   2.050   5.793   5.224
 3475SOL    HW211325   1.994   5.720   5.358
 3476SOL     OW11326   4.763   1.109   4.346
 3476SOL    HW111327   4.844   1.109   4.287
 3476SOL    HW211328   4.761   1.025   4.401
 3477SOL     OW11329   4.895   6.099   1.556
 3477SOL    HW111330   4.967   6.029   1.560
 3477SOL    HW211331   4.883   6.139   1.647
 3478SOL     OW11332   4.174   4.504   6.888
 3478SOL    HW111333   4.225   4.426   6.851
 3478SOL    HW211334   4.238   4.568   6.931
 3479SOL     OW11335   0.661   0.432   1.883
 3479SOL    HW111336   0.634   0.378   1.804
 3479SOL    HW211337   0.707   0.516   1.853
 3480SOL     OW11338   1.272   1.308   4.036
 3480SOL    HW111339   1.192   1.254   4.009
 3480SOL    HW211340   1.309   1.356   3.956
 3481SOL     OW11341   2.592   0.019   6.502
 3481SOL    HW111342   2.516   0.004   6.438
 3481SOL    HW211343   2.658   0.083   6.462
 3482SOL     OW11344   1.147   1.794   0.908
 3482SOL    HW111345   1.205   1.793   0.990
 3482SOL    HW211346   1.172   1.719   0.848
 3483SOL     OW11347   4.004   0.579   0.905
 3483SOL    HW111348   4.043   0.610   0.992
 3483SOL    HW211349   3.919   0.530   0.922
 3484SOL     OW11350   3.192   3.713   3.324
 3484SOL    HW111351   3.202   3.653   3.244
 3484SOL    HW211352   3.246   3.676   3.399
 3485SOL     OW11353   0.145   1.343   4.813
 3485SOL    HW111354   0.124   1.344   4.715
 3485SOL    HW211355   0.153   1.249   4.845
 3486SOL     OW11356   4.328   1.821   2.357
 3486SOL    HW111357   4.275   1.902   2.332
 3486SOL    HW211358   4.328   1.756   2.281
 3487SOL     OW11359   0.135   0.584   0.086
 3487SOL    HW111360   0.194   0.629   0.019
 3487SOL    HW211361   0.184   0.508   0.129
 3488SOL     OW11362   6.058   3.236   4.052
 3488SOL    HW111363   5.964   3.223   4.086
 3488SOL    HW211364   6.079   3.333   4.051
 3489SOL     OW11365   2.384   6.777   1.009
 3489SOL    HW111366   2.442   6.846   1.053
 3489SOL    HW211367   2.288   6.799   1.028
 3490SOL     OW11368   3.586   3.377   0.380
 3490SOL    HW111369   3.554   3.456   0.328
 3490SOL    HW211370   3.599   3.402   0.476
 3491SOL     OW11371   0.242   2.871   4.886
 3491SOL    HW111372   0.161   2.837   4.837
 3491SOL    HW211373   0.248   2.970   4.874
 3492SOL     OW11374   5.754   5.073   6.407
 3492SOL    HW111375   5.716   5.002   6.347
 3492SOL    HW211376   5.697   5.082   6.488
 3493SOL     OW11377   6.623   5.115   0.441
 3493SOL    HW111378   6.659   5.192   0.494
 3493SOL    HW211379   6.695   5.080   0.381
 3494SOL     OW11380   3.016   6.793   1.095
 3494SOL    HW111381   3.021   6.793   1.195
 3494SOL    HW211382   3.082   6.859   1.060
 3495SOL     OW11383   5.061   4.971   0.395
 3495SOL    HW111384   5.154   4.959   0.429
 3495SOL    HW211385   4.998   4.918   0.451
 3496SOL     OW11386   1.559   4.209   0.264
 3496SOL    HW111387   1.484   4.273   0.279
 3496SOL    HW211388   1.641   4.258   0.234
 3497SOL     OW11389   4.810   6.561   3.877
 3497SOL    HW111390   4.812   6.479   3.820
 3497SOL    HW211391   4.873   6.629   3.840
 3498SOL     OW11392   2.381   1.191   1.693
 3498SOL    HW111393   2.332   1.242   1.765
 3498SOL    HW211394   2.352   1.225   1.604
 3499SOL     OW11395   5.797   3.666   3.465
 3499SOL    HW111396   5.789   3.640   3.561
 3499SOL    HW211397   5.762   3.759   3.452
 3500SOL     OW11398   6.667   3.076   0.506
 3500SOL    HW111399   6.745   3.120   0.460
 3500SOL    HW211400   6.653   3.118   0.595
 3501SOL     OW11401   0.980   4.515   4.309
 3501SOL    HW111402   1.069   4.546   4.276
 3501SOL    HW211403   0.923   4.489   4.231
 3502SOL     OW11404   0.663   3.700   1.339
 3502SOL    HW111405   0.721   3.663   1.266
 3502SOL    HW211406   0.572   3.718   1.303
 3503SOL     OW11407   4.968   6.225   3.922
 3503SOL    HW111408   5.024   6.291   3.972
 3503SOL    HW211409   4.962   6.140   3.976
 3504SOL     OW11410   2.151   3.214   2.373
 3504SOL    HW111411   2.059   3.244   2.348
 3504SOL    HW211412   2.217   3.251   2.307
 3505SOL     OW11413   4.590   5.421   5.093
 3505SOL    HW111414   4.637   5.485   5.153
 3505SOL    HW211415   4.493   5.417   5.119
 3506SOL     OW11416   5.593   4.993   2.170
 3506SOL    HW111417   5.577   5.089   2.193
 3506SOL    HW211418   5.640   4.988   2.081
 3507SOL     OW11419   0.607   0.624   5.835
 3507SOL    HW111420   0.684   0.630   5.898
 3507SOL    HW211421   0.536   0.565   5.874
 3508SOL     OW11422   6.031   3.186   6.300
 3508SOL    HW111423   5.949   3.134   6.279
 3508SOL    HW211424   6.112   3.129   6.285
 3509SOL     OW11425   6.944   6.141   1.143
 3509SOL    HW111426   6.987   6.087   1.070
 3509SOL    HW211427   6.993   6.227   1.153
 3510SOL     OW11428   1.745   3.115   1.961
 3510SOL    HW111429   1.756   3.098   2.059
 3510SOL    HW211430   1.656   3.157   1.945
 3511SOL     OW11431   0.881   1.192   5.308
 3511SOL    HW111432   0.839   1.102   5.296
 3511SOL    HW211433   0.846   1.254   5.238
 3512SOL     OW11434   3.158   3.333   1.253
 3512SOL    HW111435   3.110   3.382   1.180
 3512SOL    HW211436   3.180   3.241   1.221
 3513SOL     OW11437   5.748   4.899   1.042
 3513SOL    HW111438   5.826   4.946   1.082
 3513SOL    HW211439   5.692   4.859   1.114
 3514SOL     OW11440   1.303   6.988   1.721
 3514SOL    HW111441   1.333   0.058   1.693
 3514SOL    HW211442   1.205   6.979   1.705
 3515SOL     OW11443   3.290   6.148   3.509
 3515SOL    HW111444   3.303   6.060   3.463
 3515SOL    HW211445   3.289   6.221   3.442
 3516SOL     OW11446   3.037   1.209   0.603
 3516SOL    HW111447   2.959   1.159   0.641
 3516SOL    HW211448   3.121   1.175   0.644
 3517SOL     OW11449   0.795   1.071   6.599
 3517SOL    HW111450   0.855   1.011   6.651
 3517SOL    HW211451   0.720   1.017   6.559
 3518SOL     OW11452   4.435   2.911   6.165
 3518SOL    HW111453   4.351   2.860   6.181
 3518SOL    HW211454   4.456   2.910   6.067
 3519SOL     OW11455   2.117   6.820   1.118
 3519SOL    HW111456   2.118   6.729   1.158
 3519SOL    HW211457   2.035   6.869   1.148
 3520SOL     OW11458   4.040   5.594   1.258
 3520SOL    HW111459   3.983   5.675   1.272
 3520SOL    HW211460   4.006   5.519   1.315
 3521SOL     OW11461   5.591   2.427   0.723
 3521SOL    HW111462   5.505   2.472   0.698
 3521SOL    HW211463   5.666   2.471   0.674
 3522SOL     OW11464   3.111   5.346   2.117
 3522SOL    HW111465   3.150   5.400   2.042
 3522SOL    HW211466   3.093   5.253   2.086
 3523SOL     OW11467   1.971   5.079   5.620
 3523SOL    HW111468   1.966   5.032   5.708
 3523SOL    HW211469   1.878   5.090   5.583
 3524SOL     OW11470   2.668   6.556   1.774
 3524SOL    HW111471   2.719   6.506   1.844
 3524SOL    HW211472   2.593   6.500   1.740
 3525SOL     OW11473   1.430   2.829   2.236
 3525SOL    HW111474   1.342   2.864   2.270
 3525SOL    HW211475   1.418   2.737   2.198
 3526SOL     OW11476   2.601   0.362   3.022
 3526SOL    HW111477   2.671   0.292   3.037
 3526SOL    HW211478   2.549   0.340   2.940
 3527SOL     OW11479   4.641   3.240   5.916
 3527SOL    HW111480   4.657   3.320   5.973
 3527SOL    HW211481   4.696   3.164   5.949
 3528SOL     OW11482   0.658   6.754   4.613
 3528SOL    HW111483   0.680   6.727   4.707
 3528SOL    HW211484   0.743   6.762   4.560
 3529SOL     OW11485   3.722   6.192   0.123
 3529SOL    HW111486   3.783   6.114   0.108
 3529SOL    HW211487   3.628   6.160   0.133
 3530SOL     OW11488   1.566   5.605   2.837
 3530SOL    HW111489   1.522   5.621   2.926
 3530SOL    HW211490   1.661   5.576   2.852
 3531SOL     OW11491   4.217   3.534   6.766
 3531SOL    HW111492   4.205   3.587   6.850
 3531SOL    HW211493   4.189   3.588   6.687
 3532SOL     OW11494   2.073   6.901   0.201
 3532SOL    HW111495   2.089   6.855   0.114
 3532SOL    HW211496   2.008   6.848   0.255
 3533SOL     OW11497   1.394   1.233   3.747
 3533SOL    HW111498   1.346   1.146   3.761
 3533SOL    HW211499   1.492   1.215   3.735
 3534SOL     OW11500   5.114   1.183   5.014
 3534SOL    HW111501   5.096   1.188   4.915
 3534SOL    HW211502   5.203   1.141   5.030
 3535SOL     OW11503   4.257   6.209   6.759
 3535SOL    HW111504   4.305   6.200   6.846
 3535SOL    HW211505   4.261   6.305   6.729
 3536SOL     OW11506   1.066   4.322   3.267
 3536SOL    HW111507   1.158   4.362   3.272
 3536SOL    HW211508   1.007   4.381   3.213
 3537SOL     OW11509   2.493   4.871   0.357
 3537SOL    HW111510   2.436   4.951   0.341
 3537SOL    HW211511   2.514   4.864   0.455
 3538SOL     OW11512   2.747   0.715   4.591
 3538SOL    HW111513   2.749   0.785   4.662
 3538SOL    HW211514   2.762   0.757   4.501
 3539SOL     OW11515   5.412   5.799   6.490
 3539SOL    HW111516   5.411   5.857   6.571
 3539SOL    HW211517   5.393   5.705   6.515
 3540SOL     OW11518   2.852   3.918   6.441
 3540SOL    HW111519   2.805   3.992   6.490
 3540SOL    HW211520   2.785   3.862   6.393
 3541SOL     OW11521   1.941   3.021   1.592
 3541SOL    HW111522   2.021   3.038   1.650
 3541SOL    HW211523   1.950   2.930   1.549
 3542SOL     OW11524   5.640   1.490   6.408
 3542SOL    HW111525   5.614   1.403   6.450
 3542SOL    HW211526   5.569   1.518   6.343
 3543SOL     OW11527   0.401   2.255   3.469
 3543SOL    HW111528   0.365   2.323   3.533
 3543SOL    HW211529   0.335   2.241   3.395
 3544SOL     OW11530   3.031   4.082   6.801
 3544SOL    HW111531   3.069   4.039   6.882
 3544SOL    HW211532   3.081   4.167   6.782
 3545SOL     OW11533   3.657   6.268   1.510
 3545SOL    HW111534   3.715   6.254   1.430
 3545SOL    HW211535   3.713   6.303   1.586
 3546SOL     OW11536   6.904   4.711   2.406
 3546SOL    HW111537   6.879   4.760   2.490
 3546SOL    HW211538   6.830   4.718   2.340
 3547SOL     OW11539   0.695   3.827   5.201
 3547SOL    HW111540   0.606   3.870   5.210
 3547SOL    HW211541   0.699   3.746   5.260
 3548SOL     OW11542   5.729   0.572   5.241
 3548SOL    HW111543   5.741   0.671   5.228
 3548SOL    HW211544   5.806   0.536   5.294
 3549SOL     OW11545   2.806   6.785   0.320
 3549SOL    HW111546   2.834   6.768   0.414
 3549SOL    HW211547   2.710   6.759   0.308
 3550SOL     OW11548   5.439   0.699   5.102
 3550SOL    HW111549   5.428   0.625   5.169
 3550SOL    HW211550   5.362   0.699   5.039
 3551SOL     OW11551   4.518   2.085   4.767
 3551SOL    HW111552   4.606   2.042   4.749
 3551SOL    HW211553   4.524   2.139   4.851
 3552SOL     OW11554   6.860   6.727   3.515
 3552SOL    HW111555   6.840   6.723   3.613
 3552SOL    HW211556   6.899   6.816   3.493
 3553SOL     OW11557   5.324   5.889   6.764
 3553SOL    HW111558   5.386   5.811   6.760
 3553SOL    HW211559   5.373   5.969   6.800
 3554SOL     OW11560   5.615   3.728   0.391
 3554SOL    HW111561   5.666   3.776   0.320
 3554SOL    HW211562   5.630   3.630   0.384
 3555SOL     OW11563   3.235   2.118   4.813
 3555SOL    HW111564   3.282   2.050   4.869
 3555SOL    HW211565   3.200   2.191   4.872
 3556SOL     OW11566   5.555   1.159   5.558
 3556SOL    HW111567   5.624   1.226   5.531
 3556SOL    HW211568   5.564   1.077   5.501
 3557SOL     OW11569   5.916   0.494   0.764
 3557SOL    HW111570   5.971   0.570   0.797
 3557SOL    HW211571   5.949   0.408   0.803
 3558SOL     OW11572   3.637   5.645   2.083
 3558SOL    HW111573   3.635   5.700   2.167
 3558SOL    HW211574   3.558   5.584   2.081
 3559SOL     OW11575   4.904   6.771   5.617
 3559SOL    HW111576   4.816   6.732   5.646
 3559SOL    HW211577   4.946   6.819   5.694
 3560SOL     OW11578   2.099   5.176   3.950
 3560SOL    HW111579   2.125   5.086   3.984
 3560SOL    HW211580   2.106   5.177   3.850
 3561SOL     OW11581   4.693   3.743   5.343
 3561SOL    HW111582   4.602   3.731   5.382
 3561SOL    HW211583   4.707   3.677   5.269
 3562SOL     OW11584   2.031   1.818   5.831
 3562SOL    HW111585   2.078   1.730   5.828
 3562SOL    HW211586   1.995   1.840   5.740
 3563SOL     OW11587   6.328   2.971   4.919
 3563SOL    HW111588   6.319   2.929   5.009
 3563SOL    HW211589   6.240   3.006   4.889
 3564SOL     OW11590   5.990   3.588   1.538
 3564SOL    HW111591   5.939   3.593   1.452
 3564SOL    HW211592   5.934   3.542   1.607
 3565SOL     OW11593   3.853   6.161   3.882
 3565SOL    HW111594   3.906   6.220   3.821
 3565SOL    HW211595   3.756   6.173   3.864
 3566SOL     OW11596   1.579   6.767   4.999
 3566SOL    HW111597   1.648   6.760   5.072
 3566SOL    HW211598   1.510   6.696   5.013
 3567SOL     OW11599   6.522   3.488   6.269
 3567SOL    HW111600   6.423   3.489   6.277
 3567SOL    HW211601   6.564   3.504   6.358
 3568SOL     OW11602   5.373   4.153   6.346
 3568SOL    HW111603   5.412   4.210   6.274
 3568SOL    HW211604   5.389   4.056   6.325
 3569SOL     OW11605   1.994   1.286   4.643
 3569SOL    HW111606   2.044   1.208   4.682
 3569SOL    HW211607   2.058   1.342   4.589
 3570SOL     OW11608   6.091   1.942   3.943
 3570SOL    HW111609   6.012   1.930   3.883
 3570SOL    HW211610   6.143   2.023   3.916
 3571SOL     OW11611   6.436   6.089   5.627
 3571SOL    HW111612   6.402   6.182   5.640
 3571SOL    HW211613   6.363   6.023   5.643
 3572SOL     OW11614   6.300   5.867   4.315
 3572SOL    HW111615   6.309   5.967   4.318
 3572SOL    HW211616   6.331   5.828   4.401
 3573SOL     OW11617   1.131   2.622   2.804
 3573SOL    HW111618   1.170   2.546   2.752
 3573SOL    HW211619   1.075   2.678   2.744
 3574SOL     OW11620   6.806   3.797   0.651
 3574SOL    HW111621   6.886   3.856   0.639
 3574SOL    HW211622   6.825   3.728   0.721
 3575SOL     OW11623   6.429   5.122   1.650
 3575SOL    HW111624   6.449   5.218   1.674
 3575SOL    HW211625   6.511   5.067   1.664
 3576SOL     OW11626   0.389   1.652   6.168
 3576SOL    HW111627   0.323   1.715   6.209
 3576SOL    HW211628   0.480   1.673   6.202
 3577SOL     OW11629   1.507   2.916   0.314
 3577SOL    HW111630   1.442   2.990   0.294
 3577SOL    HW211631   1.569   2.905   0.236
 3578SOL     OW11632   3.826   5.440   0.929
 3578SOL    HW111633   3.729   5.433   0.952
 3578SOL    HW211634   3.839   5.515   0.864
 3579SOL     OW11635   0.117   4.636   4.750
 3579SOL    HW111636   0.023   4.627   4.784
 3579SOL    HW211637   0.144   4.732   4.753
 3580SOL     OW11638   6.745   2.139   2.213
 3580SOL    HW111639   6.806   2.081   2.159
 3580SOL    HW211640   6.797   2.180   2.288
 3581SOL     OW11641   6.787   0.710   2.913
 3581SOL    HW111642   6.884   0.721   2.892
 3581SOL    HW211643   6.776   0.637   2.981
 3582SOL     OW11644   0.868   0.747   5.489
 3582SOL    HW111645   0.885   0.753   5.588
 3582SOL    HW211646   0.953   0.720   5.443
 3583SOL     OW11647   1.715   5.520   0.412
 3583SOL    HW111648   1.663   5.563   0.486
 3583SOL    HW211649   1.679   5.550   0.324
 3584SOL     OW11650   4.661   6.178   6.006
 3584SOL    HW111651   4.700   6.091   6.036
 3584SOL    HW211652   4.561   6.172   6.006
 3585SOL     OW11653   2.661   4.961   3.731
 3585SOL    HW111654   2.569   4.926   3.747
 3585SOL    HW211655   2.726   4.911   3.788
 3586SOL     OW11656   6.899   2.187   6.134
 3586SOL    HW111657   6.946   2.274   6.149
 3586SOL    HW211658   6.918   2.125   6.210
 3587SOL     OW11659   4.002   0.013   6.663
 3587SOL    HW111660   4.093   6.993   6.660
 3587SOL    HW211661   3.995   0.081   6.589
 3588SOL     OW11662   1.748   1.261   5.638
 3588SOL    HW111663   1.770   1.215   5.552
 3588SOL    HW211664   1.649   1.277   5.643
 3589SOL     OW11665   3.488   0.908   5.108
 3589SOL    HW111666   3.526   0.816   5.098
 3589SOL    HW211667   3.403   0.914   5.056
 3590SOL     OW11668   2.149   5.439   6.471
 3590SOL    HW111669   2.238   5.475   6.444
 3590SOL    HW211670   2.152   5.339   6.472
 3591SOL     OW11671   5.442   2.420   5.247
 3591SOL    HW111672   5.381   2.488   5.206
 3591SOL    HW211673   5.537   2.445   5.228
 3592SOL     OW11674   4.767   2.795   2.217
 3592SOL    HW111675   4.722   2.760   2.135
 3592SOL    HW211676   4.792   2.891   2.203
 3593SOL     OW11677   1.683   5.070   3.469
 3593SOL    HW111678   1.726   5.129   3.401
 3593SOL    HW211679   1.672   5.120   3.555
 3594SOL     OW11680   2.990   0.978   4.235
 3594SOL    HW111681   3.012   1.048   4.303
 3594SOL    HW211682   3.067   0.968   4.172
 3595SOL     OW11683   3.152   5.924   5.366
 3595SOL    HW111684   3.183   5.865   5.441
 3595SOL    HW211685   3.053   5.933   5.369
 3596SOL     OW11686   6.868   2.750   3.131
 3596SOL    HW111687   6.836   2.696   3.052
 3596SOL    HW211688   6.790   2.776   3.187
 3597SOL     OW11689   3.726   5.455   4.147
 3597SOL    HW111690   3.825   5.440   4.147
 3597SOL    HW211691   3.678   5.367   4.152
 3598SOL     OW11692   1.130   0.036   6.864
 3598SOL    HW111693   1.180   0.100   6.806
 3598SOL    HW211694   1.169   0.038   6.957
 3599SOL     OW11695   0.193   1.457   4.164
 3599SOL    HW111696   0.200   1.381   4.228
 3599SOL    HW211697   0.126   1.435   4.093
 3600SOL     OW11698   5.743   1.185   0.707
 3600SOL    HW111699   5.819   1.219   0.651
 3600SOL    HW211700   5.656   1.215   0.668
 3601SOL     OW11701   6.484   3.968   6.142
 3601SOL    HW111702   6.524   3.881   6.113
 3601SOL    HW211703   6.385   3.964   6.134
 3602SOL     OW11704   2.245   1.393   0.359
 3602SOL    HW111705   2.195   1.430   0.281
 3602SOL    HW211706   2.341   1.381   0.335
 3603SOL     OW11707   4.498   4.906   4.513
 3603SOL    HW111708   4.422   4.841   4.515
 3603SOL    HW211709   4.584   4.857   4.524
 3604SOL     OW11710   0.381   2.891   2.980
 3604SOL    HW111711   0.320   2.966   2.956
 3604SOL    HW211712   0.367   2.865   3.076
 3605SOL     OW11713   6.032   3.693   6.810
 3605SOL    HW111714   5.939   3.687   6.773
 3605SOL    HW211715   6.029   3.692   6.910
 3606SOL     OW11716   0.799   4.612   4.634
 3606SOL    HW111717   0.897   4.605   4.654
 3606SOL    HW211718   0.757   4.521   4.640
 3607SOL     OW11719   5.446   6.853   0.076
 3607SOL    HW111720   5.457   6.938   0.128
 3607SOL    HW211721   5.445   6.776   0.140
 3608SOL     OW11722   0.616   2.610   2.503
 3608SOL    HW111723   0.674   2.691   2.496
 3608SOL    HW211724   0.582   2.600   2.597
 3609SOL     OW11725   6.846   0.363   4.890
 3609SOL    HW111726   6.785   0.428   4.935
 3609SOL    HW211727   6.918   0.335   4.954
 3610SOL     OW11728   1.185   6.770   5.450
 3610SOL    HW111729   1.124   6.849   5.453
 3610SOL    HW211730   1.135   6.687   5.473
 3611SOL     OW11731   3.711   5.269   5.347
 3611SOL    HW111732   3.695   5.316   5.260
 3611SOL    HW211733   3.634   5.207   5.366
 3612SOL     OW11734   0.877   0.224   1.431
 3612SOL    HW111735   0.886   0.197   1.335
 3612SOL    HW211736   0.954   0.282   1.457
 3613SOL     OW11737   5.055   5.622   6.485
 3613SOL    HW111738   5.144   5.607   6.529
 3613SOL    HW211739   5.020   5.712   6.511
 3614SOL     OW11740   3.256   2.963   3.451
 3614SOL    HW111741   3.278   2.943   3.355
 3614SOL    HW211742   3.340   2.990   3.499
 3615SOL     OW11743   6.373   6.133   6.411
 3615SOL    HW111744   6.301   6.064   6.412
 3615SOL    HW211745   6.364   6.189   6.328
 3616SOL     OW11746   0.350   2.213   5.546
 3616SOL    HW111747   0.380   2.143   5.480
 3616SOL    HW211748   0.250   2.221   5.542
 3617SOL     OW11749   6.665   1.152   6.138
 3617SOL    HW111750   6.610   1.080   6.094
 3617SOL    HW211751   6.714   1.114   6.216
 3618SOL     OW11752   2.264   2.070   6.715
 3618SOL    HW111753   2.334   2.033   6.654
 3618SOL    HW211754   2.202   1.997   6.742
 3619SOL     OW11755   5.993   1.940   4.371
 3619SOL    HW111756   5.899   1.926   4.340
 3619SOL    HW211757   6.039   1.852   4.380
 3620SOL     OW11758   6.160   6.629   5.362
 3620SOL    HW111759   6.232   6.698   5.362
 3620SOL    HW211760   6.145   6.597   5.269
 3621SOL     OW11761   1.739   3.596   5.850
 3621SOL    HW111762   1.776   3.508   5.879
 3621SOL    HW211763   1.659   3.619   5.906
 3622SOL     OW11764   0.514   2.869   1.572
 3622SOL    HW111765   0.566   2.861   1.487
 3622SOL    HW211766   0.543   2.799   1.636
 3623SOL     OW11767   5.694   4.827   3.554
 3623SOL    HW111768   5.666   4.731   3.566
 3623SOL    HW211769   5.626   4.887   3.597
 3624SOL     OW11770   2.759   6.688   2.215
 3624SOL    HW111771   2.848   6.736   2.212
 3624SOL    HW211772   2.771   6.599   2.258
 3625SOL     OW11773   6.765   3.383   4.683
 3625SOL    HW111774   6.682   3.333   4.707
 3625SOL    HW211775   6.740   3.466   4.634
 3626SOL     OW11776   2.537   3.748   5.297
 3626SOL    HW111777   2.516   3.836   5.254
 3626SOL    HW211778   2.467   3.682   5.272
 3627SOL     OW11779   2.960   3.795   3.436
 3627SOL    HW111780   2.905   3.812   3.353
 3627SOL    HW211781   3.048   3.758   3.409
 3628SOL     OW11782   2.595   5.172   1.871
 3628SOL    HW111783   2.688   5.140   1.851
 3628SOL    HW211784   2.594   5.272   1.870
 3629SOL     OW11785   5.975   1.919   5.481
 3629SOL    HW111786   5.889   1.902   5.528
 3629SOL    HW211787   5.990   1.849   5.411
 3630SOL     OW11788   6.480   2.018   4.389
 3630SOL    HW111789   6.487   1.961   4.308
 3630SOL    HW211790   6.467   2.114   4.362
 3631SOL     OW11791   2.628   1.339   4.878
 3631SOL    HW111792   2.682   1.328   4.795
 3631SOL    HW211793   2.532   1.318   4.859
 3632SOL     OW11794   4.874   0.988   0.579
 3632SOL    HW111795   4.784   0.991   0.535
 3632SOL    HW211796   4.870   0.927   0.658
 3633SOL     OW11797   1.994   2.967   5.632
 3633SOL    HW111798   2.069   3.033   5.625
 3633SOL    HW211799   2.030   2.875   5.617
 3634SOL     OW11800   1.677   6.095   5.068
 3634SOL    HW111801   1.584   6.090   5.033
 3634SOL    HW211802   1.719   6.182   5.038
 3635SOL     OW11803   2.457   1.403   5.657
 3635SOL    HW111804   2.511   1.372   5.735
 3635SOL    HW211805   2.496   1.487   5.620
 3636SOL     OW11806   0.670   5.122   5.736
 3636SOL    HW111807   0.662   5.136   5.638
 3636SOL    HW211808   0.632   5.202   5.784
 3637SOL     OW11809   5.307   1.032   1.817
 3637SOL    HW111810   5.223   0.982   1.798
 3637SOL    HW211811   5.324   1.098   1.744
 3638SOL     OW11812   0.044   4.278   3.288
 3638SOL    HW111813   6.972   4.243   3.286
 3638SOL    HW211814   0.093   4.237   3.365
 3639SOL     OW11815   2.573   5.081   0.794
 3639SOL    HW111816   2.554   5.055   0.889
 3639SOL    HW211817   2.489   5.072   0.740
 3640SOL     OW11818   3.263   5.928   1.273
 3640SOL    HW111819   3.172   5.957   1.243
 3640SOL    HW211820   3.311   5.887   1.196
 3641SOL     OW11821   2.716   1.631   4.812
 3641SOL    HW111822   2.753   1.706   4.867
 3641SOL    HW211823   2.786   1.561   4.799
 3642SOL     OW11824   5.433   0.576   4.024
 3642SOL    HW111825   5.488   0.561   4.106
 3642SOL    HW211826   5.389   0.665   4.029
 3643SOL     OW11827   2.919   4.777   4.765
 3643SOL    HW111828   3.015   4.799   4.780
 3643SOL    HW211829   2.885   4.721   4.840
 3644SOL     OW11830   6.772   0.710   0.866
 3644SOL    HW111831   6.803   0.741   0.776
 3644SOL    HW211832   6.851   0.679   0.920
 3645SOL     OW11833   4.364   0.923   3.652
 3645SOL    HW111834   4.396   0.995   3.713
 3645SOL    HW211835   4.441   0.867   3.622
 3646SOL     OW11836   6.928   5.096   5.469
 3646SOL    HW111837   6.945   5.105   5.567
 3646SOL    HW211838   6.948   5.183   5.423
 3647SOL     OW11839   2.073   3.101   1.231
 3647SOL    HW111840   2.142   3.075   1.298
 3647SOL    HW211841   2.060   3.027   1.165
 3648SOL     OW11842   3.550   5.836   2.340
 3648SOL    HW111843   3.572   5.900   2.266
 3648SOL    HW211844   3.539   5.887   2.425
 3649SOL     OW11845   4.141   3.341   0.547
 3649SOL    HW111846   4.096   3.295   0.471
 3649SOL    HW211847   4.215   3.398   0.512
 3650SOL     OW11848   0.770   5.987   1.635
 3650SOL    HW111849   0.716   6.051   1.579
 3650SOL    HW211850   0.760   5.894   1.598
 3651SOL     OW11851   1.173   6.215   2.521
 3651SOL    HW111852   1.124   6.235   2.437
 3651SOL    HW211853   1.107   6.202   2.596
 3652SOL     OW11854   4.496   5.591   3.271
 3652SOL    HW111855   4.553   5.671   3.287
 3652SOL    HW211856   4.424   5.614   3.206
 3653SOL     OW11857   0.073   1.536   2.631
 3653SOL    HW111858   0.099   1.554   2.726
 3653SOL    HW211859   7.003   1.496   2.628
 3654SOL     OW11860   1.530   6.784   1.322
 3654SOL    HW111861   1.559   6.696   1.359
 3654SOL    HW211862   1.560   6.857   1.383
 3655SOL     OW11863   1.785   0.575   4.776
 3655SOL    HW111864   1.722   0.521   4.832
 3655SOL    HW211865   1.760   0.566   4.680
 3656SOL     OW11866   1.961   2.720   2.136
 3656SOL    HW111867   1.993   2.645   2.078
 3656SOL    HW211868   1.889   2.770   2.088
 3657SOL     OW11869   3.908   5.703   0.785
 3657SOL    HW111870   3.976   5.668   0.849
 3657SOL    HW211871   3.858   5.778   0.827
 3658SOL     OW11872   0.791   6.399   5.644
 3658SOL    HW111873   0.745   6.346   5.715
 3658SOL    HW211874   0.859   6.460   5.687
 3659SOL     OW11875   2.091   4.288   6.947
 3659SOL    HW111876   2.126   4.198   6.923
 3659SOL    HW211877   2.121   4.312   0.018
 3660SOL     OW11878   4.537   5.861   2.110
 3660SOL    HW111879   4.450   5.895   2.076
 3660SOL    HW211880   4.612   5.909   2.064
 3661SOL     OW11881   4.993   1.268   0.227
 3661SOL    HW111882   5.081   1.306   0.258
 3661SOL    HW211883   4.918   1.322   0.265
 3662SOL     OW11884   3.342   0.235   5.411
 3662SOL    HW111885   3.257   0.192   5.441
 3662SOL    HW211886   3.382   0.182   5.336
 3663SOL     OW11887   1.715   2.624   0.114
 3663SOL    HW111888   1.651   2.558   0.153
 3663SOL    HW211889   1.664   2.696   0.066
 3664SOL     OW11890   5.270   1.575   0.455
 3664SOL    HW111891   5.232   1.656   0.499
 3664SOL    HW211892   5.365   1.562   0.485
 3665SOL     OW11893   0.641   0.290   5.267
 3665SOL    HW111894   0.672   0.347   5.343
 3665SOL    HW211895   0.678   0.327   5.181
 3666SOL     OW11896   1.901   3.946   4.557
 3666SOL    HW111897   1.996   3.921   4.573
 3666SOL    HW211898   1.889   4.045   4.571
 3667SOL     OW11899   6.317   1.102   6.408
 3667SOL    HW111900   6.237   1.047   6.386
 3667SOL    HW211901   6.343   1.156   6.328
 3668SOL     OW11902   1.419   6.994   2.593
 3668SOL    HW111903   1.479   6.961   2.520
 3668SOL    HW211904   1.439   6.945   2.678
 3669SOL     OW11905   6.828   2.708   3.463
 3669SOL    HW111906   6.729   2.719   3.454
 3669SOL    HW211907   6.849   2.612   3.480
 3670SOL     OW11908   2.209   5.746   5.541
 3670SOL    HW111909   2.141   5.683   5.503
 3670SOL    HW211910   2.202   5.834   5.494
 3671SOL     OW11911   0.848   0.542   3.203
 3671SOL    HW111912   0.910   0.617   3.227
 3671SOL    HW211913   0.871   0.462   3.258
 3672SOL     OW11914   6.531   0.859   0.259
 3672SOL    HW111915   6.614   0.809   0.233
 3672SOL    HW211916   6.457   0.794   0.275
 3673SOL     OW11917   4.904   0.863   0.254
 3673SOL    HW111918   4.940   0.779   0.296
 3673SOL    HW211919   4.980   0.918   0.219
 3674SOL     OW11920   1.133   6.915   0.283
 3674SOL    HW111921   1.058   6.857   0.318
 3674SOL    HW211922   1.134   7.001   0.333
 3675SOL     OW11923   2.295   2.389   5.167
 3675SOL    HW111924   2.201   2.410   5.142
 3675SOL    HW211925   2.322   2.444   5.246
 3676SOL     OW11926   3.052   5.226   4.158
 3676SOL    HW111927   2.969   5.267   4.194
 3676SOL    HW211928   3.126   5.233   4.225
 3677SOL     OW11929   6.414   6.593   4.056
 3677SOL    HW111930   6.504   6.584   4.099
 3677SOL    HW211931   6.376   6.502   4.039
 3678SOL     OW11932   1.629   2.025   3.601
 3678SOL    HW111933   1.660   2.082   3.677
 3678SOL    HW211934   1.680   1.939   3.601
 3679SOL     OW11935   0.182   0.493   1.895
 3679SOL    HW111936   0.224   0.569   1.946
 3679SOL    HW211937   0.086   0.513   1.876
 3680SOL     OW11938   7.010   3.206   3.659
 3680SOL    HW111939   7.004   3.180   3.755
 3680SOL    HW211940   0.077   3.248   3.641
 3681SOL     OW11941   0.195   6.552   6.161
 3681SOL    HW111942   0.273   6.614   6.171
 3681SOL    HW211943   0.115   6.593   6.204
 3682SOL     OW11944   6.581   1.998   5.757
 3682SOL    HW111945   6.568   1.979   5.854
 3682SOL    HW211946   6.610   1.915   5.710
 3683SOL     OW11947   6.281   6.428   4.393
 3683SOL    HW111948   6.198   6.428   4.338
 3683SOL    HW211949   6.335   6.510   4.372
 3684SOL     OW11950   1.318   3.819   1.893
 3684SOL    HW111951   1.378   3.740   1.910
 3684SOL    HW211952   1.243   3.818   1.959
 3685SOL     OW11953   6.115   6.391   7.001
 3685SOL    HW111954   6.196   6.422   0.029
 3685SOL    HW211955   6.133   6.392   6.903
 3686SOL     OW11956   6.748   4.513   1.785
 3686SOL    HW111957   6.716   4.448   1.717
 3686SOL    HW211958   6.780   4.463   1.866
 3687SOL     OW11959   3.586   0.624   6.819
 3687SOL    HW111960   3.560   0.624   6.916
 3687SOL    HW211961   3.576   0.716   6.781
 3688SOL     OW11962   1.331   3.324   6.950
 3688SOL    HW111963   1.350   3.379   0.009
 3688SOL    HW211964   1.285   3.239   6.978
 3689SOL     OW11965   1.591   1.134   4.528
 3689SOL    HW111966   1.524   1.196   4.488
 3689SOL    HW211967   1.637   1.180   4.604
 3690SOL     OW11968   5.484   0.428   5.814
 3690SOL    HW111969   5.508   0.454   5.907
 3690SOL    HW211970   5.499   0.505   5.753
 3691SOL     OW11971   2.739   3.389   0.563
 3691SOL    HW111972   2.656   3.358   0.609
 3691SOL    HW211973   2.791   3.447   0.625
 3692SOL     OW11974   2.085   0.072   4.977
 3692SOL    HW111975   2.123   0.065   5.069
 3692SOL    HW211976   2.160   0.068   4.910
 3693SOL     OW11977   3.022   2.063   3.300
 3693SOL    HW111978   3.115   2.078   3.265
 3693SOL    HW211979   3.006   2.124   3.378
 3694SOL     OW11980   1.728   5.989   3.461
 3694SOL    HW111981   1.654   6.023   3.402
 3694SOL    HW211982   1.751   6.059   3.529
 3695SOL     OW11983   2.141   1.714   2.485
 3695SOL    HW111984   2.154   1.678   2.578
 3695SOL    HW211985   2.224   1.761   2.456
 3696SOL     OW11986   4.266   0.231   5.978
 3696SOL    HW111987   4.242   0.317   6.022
 3696SOL    HW211988   4.361   0.233   5.949
 3697SOL     OW11989   6.711   6.623   3.761
 3697SOL    HW111990   6.715   6.525   3.741
 3697SOL    HW211991   6.646   6.666   3.698
 3698SOL     OW11992   2.984   0.026   5.693
 3698SOL    HW111993   3.065   6.991   5.706
 3698SOL    HW211994   3.010   0.123   5.691
 3699SOL     OW11995   6.666   4.002   3.060
 3699SOL    HW111996   6.588   3.951   3.025
 3699SOL    HW211997   6.747   3.982   3.005
 3700SOL     OW11998   6.830   0.374   4.247
 3700SOL    HW111999   6.810   0.452   4.307
 3700SOL    HW212000   6.832   0.290   4.302
 3701SOL     OW12001   6.181   0.830   4.538
 3701SOL    HW112002   6.138   0.805   4.451
 3701SOL    HW212003   6.217   0.747   4.582
 3702SOL     OW12004   4.159   0.510   0.704
 3702SOL    HW112005   4.212   0.430   0.733
 3702SOL    HW212006   4.098   0.539   0.778
 3703SOL     OW12007   3.655   4.180   6.443
 3703SOL    HW112008   3.707   4.248   6.496
 3703SOL    HW212009   3.559   4.183   6.470
 3704SOL     OW12010   2.972   0.792   2.756
 3704SOL    HW112011   3.036   0.824   2.687
 3704SOL    HW212012   2.960   0.693   2.747
 3705SOL     OW12013   5.328   0.570   3.619
 3705SOL    HW112014   5.371   0.511   3.688
 3705SOL    HW212015   5.346   0.533   3.528
 3706SOL     OW12016   1.859   2.800   4.252
 3706SOL    HW112017   1.861   2.864   4.328
 3706SOL    HW212018   1.765   2.790   4.219
 3707SOL     OW12019   5.309   2.496   5.930
 3707SOL    HW112020   5.222   2.533   5.963
 3707SOL    HW212021   5.317   2.514   5.832
 3708SOL     OW12022   6.190   0.490   6.727
 3708SOL    HW112023   6.244   0.569   6.698
 3708SOL    HW212024   6.251   0.417   6.756
 3709SOL     OW12025   3.517   0.771   6.188
 3709SOL    HW112026   3.430   0.722   6.194
 3709SOL    HW212027   3.505   0.854   6.134
 3710SOL     OW12028   6.761   5.129   0.823
 3710SOL    HW112029   6.700   5.207   0.823
 3710SOL    HW212030   6.710   5.046   0.846
 3711SOL     OW12031   6.978   5.694   2.457
 3711SOL    HW112032   0.006   5.769   2.500
 3711SOL    HW212033   6.895   5.674   2.509
 3712SOL     OW12034   1.443   6.660   6.778
 3712SOL    HW112035   1.504   6.737   6.758
 3712SOL    HW212036   1.392   6.636   6.695
 3713SOL     OW12037   3.692   6.185   5.243
 3713SOL    HW112038   3.701   6.178   5.343
 3713SOL    HW212039   3.665   6.096   5.206
 3714SOL     OW12040   3.997   0.313   4.562
 3714SOL    HW112041   4.074   0.301   4.625
 3714SOL    HW212042   4.014   0.259   4.479
 3715SOL     OW12043   5.423   4.935   4.597
 3715SOL    HW112044   5.367   4.978   4.526
 3715SOL    HW212045   5.441   4.840   4.573
 3716SOL     OW12046   0.382   0.037   4.836
 3716SOL    HW112047   0.378   0.135   4.818
 3716SOL    HW212048   0.306   7.013   4.790
 3717SOL     OW12049   5.810   6.286   1.497
 3717SOL    HW112050   5.877   6.245   1.558
 3717SOL    HW212051   5.718   6.262   1.528
 3718SOL     OW12052   1.131   6.104   6.842
 3718SOL    HW112053   1.180   6.102   6.929
 3718SOL    HW212054   1.193   6.135   6.770
 3719SOL     OW12055   4.178   5.333   6.112
 3719SOL    HW112056   4.201   5.247   6.158
 3719SOL    HW212057   4.171   5.406   6.180
 3720SOL     OW12058   6.340   1.651   6.250
 3720SOL    HW112059   6.254   1.698   6.272
 3720SOL    HW212060   6.328   1.552   6.263
 3721SOL     OW12061   5.453   4.806   0.302
 3721SOL    HW112062   5.523   4.829   0.234
 3721SOL    HW212063   5.362   4.828   0.265
 3722SOL     OW12064   6.892   5.988   2.902
 3722SOL    HW112065   6.984   5.973   2.867
 3722SOL    HW212066   6.865   6.083   2.887
 3723SOL     OW12067   4.675   0.633   1.254
 3723SOL    HW112068   4.674   0.733   1.252
 3723SOL    HW212069   4.671   0.602   1.348
 3724SOL     OW12070   1.045   5.707   0.075
 3724SOL    HW112071   1.049   5.776   0.002
 3724SOL    HW212072   1.097   5.627   0.048
 3725SOL     OW12073   6.583   5.967   6.341
 3725SOL    HW112074   6.496   6.008   6.368
 3725SOL    HW212075   6.566   5.891   6.278
 3726SOL     OW12076   5.675   3.923   1.527
 3726SOL    HW112077   5.681   3.928   1.627
 3726SOL    HW212078   5.766   3.934   1.488
 3727SOL     OW12079   1.741   3.060   4.937
 3727SOL    HW112080   1.727   2.969   4.899
 3727SOL    HW212081   1.698   3.066   5.027
 3728SOL     OW12082   1.955   3.176   0.076
 3728SOL    HW112083   2.026   3.106   0.060
 3728SOL    HW212084   1.908   3.196   7.011
 3729SOL     OW12085   1.334   1.802   3.406
 3729SOL    HW112086   1.421   1.823   3.361
 3729SOL    HW212087   1.302   1.882   3.456
 3730SOL     OW12088   3.316   1.676   6.749
 3730SOL    HW112089   3.322   1.596   6.690
 3730SOL    HW212090   3.240   1.734   6.719
 3731SOL     OW12091   4.798   0.343   0.643
 3731SOL    HW112092   4.836   0.252   0.661
 3731SOL    HW212093   4.820   0.371   0.550
 3732SOL     OW12094   2.238   3.589   5.274
 3732SOL    HW112095   2.215   3.650   5.198
 3732SOL    HW212096   2.205   3.497   5.254
 3733SOL     OW12097   3.008   4.113   1.699
 3733SOL    HW112098   3.059   4.092   1.616
 3733SOL    HW212099   2.916   4.074   1.693
 3734SOL     OW12100   4.526   1.093   2.158
 3734SOL    HW112101   4.477   1.142   2.230
 3734SOL    HW212102   4.624   1.111   2.166
 3735SOL     OW12103   2.455   2.366   2.589
 3735SOL    HW112104   2.393   2.294   2.619
 3735SOL    HW212105   2.428   2.398   2.498
 3736SOL     OW12106   6.449   2.209   1.087
 3736SOL    HW112107   6.473   2.228   0.992
 3736SOL    HW212108   6.521   2.244   1.147
 3737SOL     OW12109   4.878   0.250   3.162
 3737SOL    HW112110   4.959   0.300   3.192
 3737SOL    HW212111   4.810   0.249   3.235
 3738SOL     OW12112   6.945   6.494   3.877
 3738SOL    HW112113   6.926   6.416   3.936
 3738SOL    HW212114   6.867   6.557   3.879
 3739SOL     OW12115   0.847   4.004   2.308
 3739SOL    HW112116   0.792   4.078   2.271
 3739SOL    HW212117   0.921   3.983   2.245
 3740SOL     OW12118   5.323   1.520   6.581
 3740SOL    HW112119   5.292   1.425   6.581
 3740SOL    HW212120   5.323   1.555   6.675
 3741SOL     OW12121   4.584   3.324   0.855
 3741SOL    HW112122   4.566   3.423   0.856
 3741SOL    HW212123   4.586   3.292   0.760
 3742SOL     OW12124   3.503   2.482   5.719
 3742SOL    HW112125   3.451   2.567   5.709
 3742SOL    HW212126   3.439   2.406   5.732
 3743SOL     OW12127   6.539   4.999   6.734
 3743SOL    HW112128   6.579   4.914   6.699
 3743SOL    HW212129   6.611   5.062   6.761
 3744SOL     OW12130   0.226   5.222   3.959
 3744SOL    HW112131   0.317   5.263   3.951
 3744SOL    HW212132   0.202   5.212   4.056
 3745SOL     OW12133   3.593   5.717   2.683
 3745SOL    HW112134   3.536   5.709   2.765
 3745SOL    HW212135   3.567   5.798   2.631
 3746SOL     OW12136   4.478   1.958   1.895
 3746SOL    HW112137   4.474   2.048   1.937
 3746SOL    HW212138   4.556   1.907   1.932
 3747SOL     OW12139   3.334   1.068   0.050
 3747SOL    HW112140   3.260   1.128   0.020
 3747SOL    HW212141   3.420   1.097   0.007
 3748SOL     OW12142   6.119   0.648   2.385
 3748SOL    HW112143   6.040   0.674   2.440
 3748SOL    HW212144   6.200   0.696   2.419
 3749SOL     OW12145   2.150   6.826   4.568
 3749SOL    HW112146   2.165   6.894   4.496
 3749SOL    HW212147   2.076   6.857   4.628
 3750SOL     OW12148   0.328   3.733   0.477
 3750SOL    HW112149   0.361   3.825   0.498
 3750SOL    HW212150   0.274   3.735   0.393
 3751SOL     OW12151   0.117   4.468   2.719
 3751SOL    HW112152   0.066   4.467   2.633
 3751SOL    HW212153   0.110   4.559   2.760
 3752SOL     OW12154   6.999   0.534   6.634
 3752SOL    HW112155   7.003   0.541   6.734
 3752SOL    HW212156   0.070   0.529   6.598
 3753SOL     OW12157   6.682   0.671   3.885
 3753SOL    HW112158   6.765   0.637   3.928
 3753SOL    HW212159   6.631   0.728   3.950
 3754SOL     OW12160   2.125   1.738   0.992
 3754SOL    HW112161   2.029   1.753   0.968
 3754SOL    HW212162   2.179   1.818   0.965
 3755SOL     OW12163   2.508   4.497   4.103
 3755SOL    HW112164   2.477   4.403   4.098
 3755SOL    HW212165   2.546   4.525   4.015
 3756SOL     OW12166   2.914   6.358   6.831
 3756SOL    HW112167   3.010   6.345   6.855
 3756SOL    HW212168   2.907   6.397   6.739
 3757SOL     OW12169   6.268   4.661   1.793
 3757SOL    HW112170   6.368   4.660   1.797
 3757SOL    HW212171   6.234   4.753   1.813
 3758SOL     OW12172   2.053   0.225   3.230
 3758SOL    HW112173   1.978   0.276   3.187
 3758SOL    HW212174   2.037   0.127   3.219
 3759SOL     OW12175   5.054   0.339   4.446
 3759SOL    HW112176   5.153   0.337   4.435
 3759SOL    HW212177   5.023   0.434   4.452
 3760SOL     OW12178   0.276   0.526   3.210
 3760SOL    HW112179   0.353   0.472   3.175
 3760SOL    HW212180   0.308   0.586   3.283
 3761SOL     OW12181   4.863   1.109   3.874
 3761SOL    HW112182   4.783   1.053   3.893
 3761SOL    HW212183   4.944   1.068   3.916
 3762SOL     OW12184   0.607   3.311   2.333
 3762SOL    HW112185   0.556   3.300   2.248
 3762SOL    HW212186   0.556   3.267   2.408
 3763SOL     OW12187   0.362   5.039   0.835
 3763SOL    HW112188   0.440   5.068   0.892
 3763SOL    HW212189   0.375   4.945   0.806
 3764SOL     OW12190   2.118   0.031   2.554
 3764SOL    HW112191   2.027   7.010   2.554
 3764SOL    HW212192   2.115   0.116   2.606
 3765SOL     OW12193   6.322   2.638   1.544
 3765SOL    HW112194   6.314   2.609   1.639
 3765SOL    HW212195   6.360   2.564   1.489
 3766SOL     OW12196   0.739   3.392   3.319
 3766SOL    HW112197   0.683   3.382   3.236
 3766SOL    HW212198   0.775   3.485   3.323
 3767SOL     OW12199   1.379   4.549   5.852
 3767SOL    HW112200   1.347   4.539   5.946
 3767SOL    HW212201   1.478   4.532   5.849
 3768SOL     OW12202   1.376   0.599   4.658
 3768SOL    HW112203   1.331   0.688   4.667
 3768SOL    HW212204   1.309   0.526   4.673
 3769SOL     OW12205   5.569   5.824   4.607
 3769SOL    HW112206   5.607   5.860   4.692
 3769SOL    HW212207   5.558   5.725   4.615
 3770SOL     OW12208   1.226   0.970   0.829
 3770SOL    HW112209   1.299   1.037   0.818
 3770SOL    HW212210   1.265   0.883   0.860
 3771SOL     OW12211   6.801   4.668   0.832
 3771SOL    HW112212   6.833   4.702   0.744
 3771SOL    HW212213   6.733   4.731   0.869
 3772SOL     OW12214   1.704   5.919   0.546
 3772SOL    HW112215   1.787   5.933   0.492
 3772SOL    HW212216   1.673   5.825   0.536
 3773SOL     OW12217   5.438   4.086   5.947
 3773SOL    HW112218   5.414   4.062   5.853
 3773SOL    HW212219   5.471   4.005   5.995
 3774SOL     OW12220   6.137   5.545   1.259
 3774SOL    HW112221   6.164   5.573   1.166
 3774SOL    HW212222   6.072   5.469   1.253
 3775SOL     OW12223   4.158   5.122   4.323
 3775SOL    HW112224   4.213   5.144   4.243
 3775SOL    HW212225   4.067   5.164   4.314
 3776SOL     OW12226   3.510   2.864   6.524
 3776SOL    HW112227   3.424   2.815   6.509
 3776SOL    HW212228   3.570   2.808   6.582
 3777SOL     OW12229   3.187   6.540   4.268
 3777SOL    HW112230   3.115   6.577   4.210
 3777SOL    HW212231   3.235   6.467   4.220
 3778SOL     OW12232   3.104   5.262   5.248
 3778SOL    HW112233   3.038   5.251   5.322
 3778SOL    HW212234   3.113   5.359   5.226
 3779SOL     OW12235   6.590   5.023   7.012
 3779SOL    HW112236   6.670   4.983   6.968
 3779SOL    HW212237   6.507   4.980   6.975
 3780SOL     OW12238   5.901   3.969   1.407
 3780SOL    HW112239   5.987   3.937   1.446
 3780SOL    HW212240   5.894   4.068   1.417
 3781SOL     OW12241   2.971   5.958   4.977
 3781SOL    HW112242   2.871   5.960   4.980
 3781SOL    HW212243   3.007   6.010   5.055
 3782SOL     OW12244   5.316   6.067   1.696
 3782SOL    HW112245   5.373   6.054   1.777
 3782SOL    HW212246   5.225   6.099   1.724
 3783SOL     OW12247   5.076   5.005   5.036
 3783SOL    HW112248   5.009   4.939   5.003
 3783SOL    HW212249   5.030   5.080   5.083
 3784SOL     OW12250   6.048   1.659   4.287
 3784SOL    HW112251   6.032   1.618   4.378
 3784SOL    HW212252   6.146   1.676   4.275
 3785SOL     OW12253   1.171   4.086   4.665
 3785SOL    HW112254   1.170   4.093   4.565
 3785SOL    HW212255   1.219   4.165   4.703
 3786SOL     OW12256   2.599   2.460   4.820
 3786SOL    HW112257   2.545   2.496   4.896
 3786SOL    HW212258   2.573   2.507   4.736
 3787SOL     OW12259   4.572   6.930   3.299
 3787SOL    HW112260   4.658   6.972   3.269
 3787SOL    HW212261   4.522   6.995   3.356
 3788SOL     OW12262   6.638   3.924   5.413
 3788SOL    HW112263   6.713   3.901   5.350
 3788SOL    HW212264   6.634   3.855   5.485
 3789SOL     OW12265   1.289   2.812   2.549
 3789SOL    HW112266   1.190   2.816   2.566
 3789SOL    HW212267   1.338   2.811   2.636
 3790SOL     OW12268   0.814   6.616   1.033
 3790SOL    HW112269   0.782   6.659   1.118
 3790SOL    HW212270   0.737   6.569   0.990
 3791SOL     OW12271   5.048   1.000   6.058
 3791SOL    HW112272   5.000   0.977   6.143
 3791SOL    HW212273   5.086   1.092   6.065
 3792SOL     OW12274   7.003   0.814   4.201
 3792SOL    HW112275   6.989   0.742   4.269
 3792SOL    HW212276   0.076   0.810   4.168
 3793SOL     OW12277   5.000   5.359   0.055
 3793SOL    HW112278   5.025   5.330   0.147
 3793SOL    HW212279   4.923   5.304   0.022
 3794SOL     OW12280   1.676   3.784   6.402
 3794SOL    HW112281   1.607   3.767   6.473
 3794SOL    HW212282   1.695   3.882   6.397
 3795SOL     OW12283   2.436   5.587   1.682
 3795SOL    HW112284   2.449   5.685   1.701
 3795SOL    HW212285   2.518   5.537   1.710
 3796SOL     OW12286   4.074   1.991   6.713
 3796SOL    HW112287   4.017   1.909   6.711
 3796SOL    HW212288   4.088   2.024   6.619
 3797SOL     OW12289   1.086   4.549   2.794
 3797SOL    HW112290   0.991   4.555   2.827
 3797SOL    HW212291   1.142   4.506   2.865
 3798SOL     OW12292   1.573   6.912   3.316
 3798SOL    HW112293   1.508   6.892   3.390
 3798SOL    HW212294   1.528   6.899   3.228
 3799SOL     OW12295   6.970   1.850   2.666
 3799SOL    HW112296   6.994   1.945   2.644
 3799SOL    HW212297   7.009   1.827   2.756
 3800SOL     OW12298   6.003   2.156   2.837
 3800SOL    HW112299   6.010   2.170   2.738
 3800SOL    HW212300   5.908   2.139   2.861
 3801SOL     OW12301   5.648   0.614   1.871
 3801SOL    HW112302   5.574   0.587   1.932
 3801SOL    HW212303   5.707   0.680   1.917
 3802SOL     OW12304   5.665   2.164   2.271
 3802SOL    HW112305   5.722   2.117   2.204
 3802SOL    HW212306   5.714   2.242   2.309
 3803SOL     OW12307   2.959   3.848   4.106
 3803SOL    HW112308   3.032   3.905   4.068
 3803SOL    HW212309   2.931   3.885   4.195
 3804SOL     OW12310   3.358   6.316   3.719
 3804SOL    HW112311   3.293   6.241   3.715
 3804SOL    HW212312   3.381   6.345   3.627
 3805SOL     OW12313   2.588   3.162   0.143
 3805SOL    HW112314   2.497   3.149   0.103
 3805SOL    HW212315   2.593   3.112   0.230
 3806SOL     OW12316   3.813   4.385   0.829
 3806SOL    HW112317   3.885   4.429   0.883
 3806SOL    HW212318   3.809   4.288   0.851
 3807SOL     OW12319   1.643   4.210   4.239
 3807SOL    HW112320   1.661   4.166   4.151
 3807SOL    HW212321   1.581   4.288   4.226
 3808SOL     OW12322   3.680   6.590   6.833
 3808SOL    HW112323   3.769   6.606   6.790
 3808SOL    HW212324   3.668   6.654   6.909
 3809SOL     OW12325   5.009   2.250   1.194
 3809SOL    HW112326   5.036   2.251   1.290
 3809SOL    HW212327   5.044   2.332   1.148
 3810SOL     OW12328   6.723   2.112   1.568
 3810SOL    HW112329   6.725   2.016   1.593
 3810SOL    HW212330   6.656   2.160   1.624
 3811SOL     OW12331   0.144   5.749   5.011
 3811SOL    HW112332   0.237   5.714   4.999
 3811SOL    HW212333   0.148   5.839   5.054
 3812SOL     OW12334   4.636   6.730   0.045
 3812SOL    HW112335   4.592   6.758   0.130
 3812SOL    HW212336   4.571   6.677   7.012
 3813SOL     OW12337   6.747   3.920   0.325
 3813SOL    HW112338   6.677   3.988   0.345
 3813SOL    HW212339   6.705   3.830   0.313
 3814SOL     OW12340   6.238   0.124   4.768
 3814SOL    HW112341   6.208   0.076   4.686
 3814SOL    HW212342   6.319   0.180   4.746
 3815SOL     OW12343   5.498   3.676   0.043
 3815SOL    HW112344   5.477   3.709   6.972
 3815SOL    HW212345   5.414   3.668   0.096
 3816SOL     OW12346   0.929   6.084   5.796
 3816SOL    HW112347   0.901   6.060   5.703
 3816SOL    HW212348   1.029   6.082   5.802
 3817SOL     OW12349   4.900   3.409   2.446
 3817SOL    HW112350   4.913   3.329   2.387
 3817SOL    HW212351   4.915   3.382   2.542
 3818SOL     OW12352   6.938   0.349   1.638
 3818SOL    HW112353   6.951   0.404   1.721
 3818SOL    HW212354   6.843   0.355   1.609
 3819SOL     OW12355   6.815   3.904   4.048
 3819SOL    HW112356   6.832   3.878   4.143
 3819SOL    HW212357   6.737   3.966   4.044
 3820SOL     OW12358   5.211   0.306   4.714
 3820SOL    HW112359   5.138   0.238   4.705
 3820SOL    HW212360   5.280   0.291   4.644
 3821SOL     OW12361   1.259   0.146   0.378
 3821SOL    HW112362   1.266   0.209   0.301
 3821SOL    HW212363   1.222   0.194   0.457
 3822SOL     OW12364   4.867   1.494   0.799
 3822SOL    HW112365   4.850   1.399   0.776
 3822SOL    HW212366   4.962   1.506   0.826
 3823SOL     OW12367   4.966   4.891   5.889
 3823SOL    HW112368   4.902   4.815   5.891
 3823SOL    HW212369   5.059   4.856   5.874
 3824SOL     OW12370   2.033   3.477   6.886
 3824SOL    HW112371   2.089   3.524   6.955
 3824SOL    HW212372   1.937   3.477   6.916
 3825SOL     OW12373   1.565   4.281   5.865
 3825SOL    HW112374   1.616   4.364   5.840
 3825SOL    HW212375   1.602   4.203   5.815
 3826SOL     OW12376   5.975   4.104   3.095
 3826SOL    HW112377   5.903   4.166   3.063
 3826SOL    HW212378   6.043   4.093   3.023
 3827SOL     OW12379   1.538   1.381   1.683
 3827SOL    HW112380   1.581   1.307   1.734
 3827SOL    HW212381   1.608   1.448   1.658
 3828SOL     OW12382   3.707   3.689   4.708
 3828SOL    HW112383   3.772   3.707   4.782
 3828SOL    HW212384   3.718   3.757   4.636
 3829SOL     OW12385   0.558   4.109   2.762
 3829SOL    HW112386   0.606   4.022   2.780
 3829SOL    HW212387   0.466   4.105   2.800
 3830SOL     OW12388   0.231   1.023   4.597
 3830SOL    HW112389   0.172   1.003   4.675
 3830SOL    HW212390   0.175   1.038   4.516
 3831SOL     OW12391   4.214   1.770   3.271
 3831SOL    HW112392   4.166   1.802   3.353
 3831SOL    HW212393   4.241   1.674   3.282
 3832SOL     OW12394   0.304   0.723   2.953
 3832SOL    HW112395   0.314   0.641   3.010
 3832SOL    HW212396   0.274   0.696   2.862
 3833SOL     OW12397   0.828   0.542   5.988
 3833SOL    HW112398   0.903   0.532   5.923
 3833SOL    HW212399   0.864   0.578   6.075
 3834SOL     OW12400   4.909   4.021   0.551
 3834SOL    HW112401   4.863   4.044   0.637
 3834SOL    HW212402   4.934   3.924   0.552
 3835SOL     OW12403   4.115   5.930   4.454
 3835SOL    HW112404   4.075   5.881   4.532
 3835SOL    HW212405   4.155   6.016   4.485
 3836SOL     OW12406   6.788   5.611   6.493
 3836SOL    HW112407   6.718   5.540   6.505
 3836SOL    HW212408   6.824   5.607   6.399
 3837SOL     OW12409   4.353   4.875   5.145
 3837SOL    HW112410   4.355   4.973   5.167
 3837SOL    HW212411   4.362   4.863   5.046
 3838SOL     OW12412   1.583   1.826   3.256
 3838SOL    HW112413   1.608   1.741   3.210
 3838SOL    HW212414   1.665   1.880   3.273
 3839SOL     OW12415   4.178   0.555   2.864
 3839SOL    HW112416   4.220   0.580   2.777
 3839SOL    HW212417   4.113   0.481   2.850
 3840SOL     OW12418   2.839   0.907   0.100
 3840SOL    HW112419   2.786   0.901   0.185
 3840SOL    HW212420   2.796   0.850   0.030
 3841SOL     OW12421   6.522   4.533   3.309
 3841SOL    HW112422   6.493   4.448   3.353
 3841SOL    HW212423   6.621   4.531   3.296
 3842SOL     OW12424   2.254   2.970   5.331
 3842SOL    HW112425   2.333   2.982   5.271
 3842SOL    HW212426   2.175   2.942   5.277
 3843SOL     OW12427   5.785   2.484   0.544
 3843SOL    HW112428   5.880   2.476   0.512
 3843SOL    HW212429   5.745   2.568   0.508
 3844SOL     OW12430   1.630   5.264   0.070
 3844SOL    HW112431   1.561   5.322   0.027
 3844SOL    HW212432   1.706   5.320   0.102
 3845SOL     OW12433   2.778   6.308   0.799
 3845SOL    HW112434   2.873   6.340   0.808
 3845SOL    HW212435   2.721   6.350   0.870
 3846SOL     OW12436   1.004   2.665   4.000
 3846SOL    HW112437   1.040   2.746   3.955
 3846SOL    HW212438   0.978   2.597   3.931
 3847SOL     OW12439   6.599   1.010   5.656
 3847SOL    HW112440   6.665   0.991   5.583
 3847SOL    HW212441   6.592   0.931   5.717
 3848SOL     OW12442   5.203   3.669   2.373
 3848SOL    HW112443   5.106   3.688   2.388
 3848SOL    HW212444   5.222   3.573   2.390
 3849SOL     OW12445   0.142   5.916   6.424
 3849SOL    HW112446   0.075   5.962   6.366
 3849SOL    HW212447   0.170   5.977   6.498
 3850SOL     OW12448   2.596   2.741   1.125
 3850SOL    HW112449   2.561   2.738   1.031
 3850SOL    HW212450   2.596   2.649   1.164
 3851SOL     OW12451   0.155   5.333   3.535
 3851SOL    HW112452   0.215   5.254   3.523
 3851SOL    HW212453   0.065   5.312   3.498
 3852SOL     OW12454   3.578   5.960   5.124
 3852SOL    HW112455   3.514   5.921   5.190
 3852SOL    HW212456   3.529   5.985   5.040
 3853SOL     OW12457   2.692   1.072   3.668
 3853SOL    HW112458   2.627   1.006   3.630
 3853SOL    HW212459   2.643   1.153   3.701
 3854SOL     OW12460   1.356   2.545   2.473
 3854SOL    HW112461   1.338   2.490   2.554
 3854SOL    HW212462   1.346   2.642   2.495
 3855SOL     OW12463   4.617   6.547   0.527
 3855SOL    HW112464   4.691   6.536   0.460
 3855SOL    HW212465   4.532   6.512   0.489
 3856SOL     OW12466   0.461   2.005   6.171
 3856SOL    HW112467   0.399   1.999   6.093
 3856SOL    HW212468   0.530   1.933   6.165
 3857SOL     OW12469   2.078   0.806   6.029
 3857SOL    HW112470   2.044   0.884   6.081
 3857SOL    HW212471   2.082   0.828   5.932
 3858SOL     OW12472   3.708   1.411   5.148
 3858SOL    HW112473   3.762   1.329   5.131
 3858SOL    HW212474   3.707   1.468   5.065
 3859SOL     OW12475   5.285   0.326   0.789
 3859SOL    HW112476   5.291   0.322   0.889
 3859SOL    HW212477   5.266   0.420   0.760
 3860SOL     OW12478   1.916   0.804   4.384
 3860SOL    HW112479   1.956   0.714   4.401
 3860SOL    HW212480   1.825   0.808   4.427
 3861SOL     OW12481   4.626   5.598   2.074
 3861SOL    HW112482   4.695   5.610   2.145
 3861SOL    HW212483   4.574   5.683   2.063
 3862SOL     OW12484   0.872   6.521   4.098
 3862SOL    HW112485   0.855   6.422   4.098
 3862SOL    HW212486   0.934   6.544   4.023
 3863SOL     OW12487   4.498   0.800   0.683
 3863SOL    HW112488   4.421   0.864   0.687
 3863SOL    HW212489   4.478   0.727   0.618
 3864SOL     OW12490   2.314   0.822   4.575
 3864SOL    HW112491   2.220   0.808   4.606
 3864SOL    HW212492   2.370   0.743   4.601
 3865SOL     OW12493   4.356   0.477   0.103
 3865SOL    HW112494   4.288   0.438   0.165
 3865SOL    HW212495   4.351   0.577   0.107
 3866SOL     OW12496   2.713   2.870   6.256
 3866SOL    HW112497   2.797   2.918   6.280
 3866SOL    HW212498   2.635   2.913   6.303
 3867SOL     OW12499   1.189   4.262   2.676
 3867SOL    HW112500   1.131   4.290   2.600
 3867SOL    HW212501   1.152   4.298   2.762
 3868SOL     OW12502   3.343   1.231   0.279
 3868SOL    HW112503   3.408   1.172   0.231
 3868SOL    HW212504   3.250   1.207   0.252
 3869SOL     OW12505   6.354   2.984   3.355
 3869SOL    HW112506   6.324   3.076   3.330
 3869SOL    HW212507   6.359   2.927   3.273
 3870SOL     OW12508   6.591   0.228   3.386
 3870SOL    HW112509   6.546   0.313   3.413
 3870SOL    HW212510   6.672   0.250   3.331
 3871SOL     OW12511   3.230   6.053   3.785
 3871SOL    HW112512   3.138   6.063   3.823
 3871SOL    HW212513   3.227   5.990   3.708
 3872SOL     OW12514   3.506   2.900   4.185
 3872SOL    HW112515   3.446   2.894   4.265
 3872SOL    HW212516   3.454   2.876   4.103
 3873SOL     OW12517   5.050   2.349   0.670
 3873SOL    HW112518   5.129   2.407   0.654
 3873SOL    HW212519   4.976   2.403   0.710
 3874SOL     OW12520   3.888   6.601   1.133
 3874SOL    HW112521   3.806   6.650   1.105
 3874SOL    HW212522   3.969   6.654   1.108
 3875SOL     OW12523   2.101   2.063   4.844
 3875SOL    HW112524   2.176   2.119   4.807
 3875SOL    HW212525   2.084   1.986   4.782
 3876SOL     OW12526   4.471   6.287   0.884
 3876SOL    HW112527   4.494   6.369   0.832
 3876SOL    HW212528   4.555   6.244   0.919
 3877SOL     OW12529   6.950   1.801   0.811
 3877SOL    HW112530   0.003   1.754   0.859
 3877SOL    HW212531   6.862   1.773   0.849
 3878SOL     OW12532   4.674   0.472   4.618
 3878SOL    HW112533   4.598   0.420   4.658
 3878SOL    HW212534   4.742   0.491   4.689
 3879SOL     OW12535   5.199   4.565   6.416
 3879SOL    HW112536   5.291   4.572   6.455
 3879SOL    HW212537   5.147   4.647   6.439
 3880SOL     OW12538   5.461   4.362   4.803
 3880SOL    HW112539   5.454   4.359   4.903
 3880SOL    HW212540   5.376   4.397   4.764
 3881SOL     OW12541   1.373   3.570   0.774
 3881SOL    HW112542   1.302   3.501   0.762
 3881SOL    HW212543   1.353   3.649   0.716
 3882SOL     OW12544   0.964   1.126   0.205
 3882SOL    HW112545   1.035   1.120   0.134
 3882SOL    HW212546   0.913   1.212   0.193
 3883SOL     OW12547   4.652   0.301   2.787
 3883SOL    HW112548   4.558   0.270   2.798
 3883SOL    HW212549   4.655   0.401   2.782
 3884SOL     OW12550   0.608   6.294   3.454
 3884SOL    HW112551   0.558   6.264   3.535
 3884SOL    HW212552   0.669   6.369   3.478
 3885SOL     OW12553   5.659   0.023   2.881
 3885SOL    HW112554   5.609   6.979   2.937
 3885SOL    HW212555   5.605   0.045   2.800
 3886SOL     OW12556   4.464   6.466   5.617
 3886SOL    HW112557   4.447   6.464   5.518
 3886SOL    HW212558   4.469   6.372   5.651
 3887SOL     OW12559   0.935   6.278   0.987
 3887SOL    HW112560   0.999   6.338   1.035
 3887SOL    HW212561   0.855   6.331   0.956
 3888SOL     OW12562   5.728   6.033   4.491
 3888SOL    HW112563   5.692   5.946   4.526
 3888SOL    HW212564   5.828   6.027   4.486
 3889SOL     OW12565   5.821   2.575   6.922
 3889SOL    HW112566   5.846   2.515   6.847
 3889SOL    HW212567   5.815   2.669   6.889
 3890SOL     OW12568   5.499   4.094   4.414
 3890SOL    HW112569   5.433   4.131   4.349
 3890SOL    HW212570   5.504   4.155   4.494
 3891SOL     OW12571   5.279   4.368   4.024
 3891SOL    HW112572   5.197   4.386   3.969
 3891SOL    HW212573   5.338   4.449   4.022
 3892SOL     OW12574   0.075   2.618   0.806
 3892SOL    HW112575   7.018   2.671   0.775
 3892SOL    HW212576   0.063   2.522   0.779
 3893SOL     OW12577   4.658   3.630   1.368
 3893SOL    HW112578   4.599   3.549   1.363
 3893SOL    HW212579   4.621   3.693   1.437
 3894SOL     OW12580   5.123   0.679   6.359
 3894SOL    HW112581   5.171   0.619   6.295
 3894SOL    HW212582   5.080   0.624   6.430
 3895SOL     OW12583   1.296   0.207   5.079
 3895SOL    HW112584   1.374   0.230   5.021
 3895SOL    HW212585   1.314   0.239   5.172
 3896SOL     OW12586   0.637   0.813   6.572
 3896SOL    HW112587   0.595   0.898   6.604
 3896SOL    HW212588   0.589   0.735   6.612
 3897SOL     OW12589   4.712   6.021   1.977
 3897SOL    HW112590   4.810   6.012   1.996
 3897SOL    HW212591   4.693   6.113   1.942
 3898SOL     OW12592   4.068   2.791   0.331
 3898SOL    HW112593   4.082   2.694   0.350
 3898SOL    HW212594   4.064   2.806   0.232
 3899SOL     OW12595   4.687   6.662   6.149
 3899SOL    HW112596   4.613   6.709   6.101
 3899SOL    HW212597   4.741   6.608   6.084
 3900SOL     OW12598   5.316   3.565   4.065
 3900SOL    HW112599   5.251   3.492   4.044
 3900SOL    HW212600   5.279   3.625   4.136
 3901SOL     OW12601   3.376   0.371   5.846
 3901SOL    HW112602   3.423   0.441   5.901
 3901SOL    HW212603   3.328   0.308   5.907
 3902SOL     OW12604   5.542   3.227   2.455
 3902SOL    HW112605   5.521   3.282   2.375
 3902SOL    HW212606   5.486   3.144   2.455
 3903SOL     OW12607   4.041   6.633   0.422
 3903SOL    HW112608   3.947   6.641   0.453
 3903SOL    HW212609   4.070   6.537   0.426
 3904SOL     OW12610   1.434   0.496   6.596
 3904SOL    HW112611   1.470   0.448   6.516
 3904SOL    HW212612   1.410   0.590   6.572
 3905SOL     OW12613   6.648   6.578   6.511
 3905SOL    HW112614   6.649   6.639   6.432
 3905SOL    HW212615   6.689   6.491   6.485
 3906SOL     OW12616   5.394   6.287   6.227
 3906SOL    HW112617   5.405   6.375   6.274
 3906SOL    HW212618   5.475   6.269   6.172
 3907SOL     OW12619   5.179   1.431   4.179
 3907SOL    HW112620   5.228   1.401   4.261
 3907SOL    HW212621   5.241   1.430   4.100
 3908SOL     OW12622   1.023   2.294   6.929
 3908SOL    HW112623   0.977   2.367   6.878
 3908SOL    HW212624   1.082   2.335   6.999
 3909SOL     OW12625   5.379   5.944   4.865
 3909SOL    HW112626   5.470   5.986   4.865
 3909SOL    HW212627   5.344   5.941   4.771
 3910SOL     OW12628   3.642   4.116   2.745
 3910SOL    HW112629   3.683   4.154   2.828
 3910SOL    HW212630   3.671   4.021   2.733
 3911SOL     OW12631   6.155   1.736   5.015
 3911SOL    HW112632   6.150   1.641   4.984
 3911SOL    HW212633   6.193   1.793   4.941
 3912SOL     OW12634   5.322   1.886   5.088
 3912SOL    HW112635   5.375   1.966   5.060
 3912SOL    HW212636   5.237   1.915   5.132
 3913SOL     OW12637   1.648   0.099   6.541
 3913SOL    HW112638   1.726   0.037   6.536
 3913SOL    HW212639   1.643   0.138   6.632
 3914SOL     OW12640   2.869   0.260   0.445
 3914SOL    HW112641   2.806   0.305   0.508
 3914SOL    HW212642   2.842   0.279   0.351
 3915SOL     OW12643   5.534   5.957   0.940
 3915SOL    HW112644   5.435   5.961   0.930
 3915SOL    HW212645   5.578   6.008   0.866
 3916SOL     OW12646   0.951   0.290   3.018
 3916SOL    HW112647   0.912   0.319   2.930
 3916SOL    HW212648   0.883   0.301   3.090
 3917SOL     OW12649   1.026   6.571   6.882
 3917SOL    HW112650   1.095   6.642   6.866
 3917SOL    HW212651   0.966   6.598   6.957
 3918SOL     OW12652   5.527   5.463   1.606
 3918SOL    HW112653   5.477   5.534   1.556
 3918SOL    HW212654   5.462   5.402   1.652
 3919SOL     OW12655   4.537   6.819   0.539
 3919SOL    HW112656   4.528   6.847   0.443
 3919SOL    HW212657   4.571   6.726   0.544
 3920SOL     OW12658   2.519   3.858   0.494
 3920SOL    HW112659   2.562   3.892   0.411
 3920SOL    HW212660   2.589   3.828   0.559
 3921SOL     OW12661   0.190   4.180   1.305
 3921SOL    HW112662   0.122   4.116   1.340
 3921SOL    HW212663   0.163   4.211   1.214
 3922SOL     OW12664   6.676   4.056   2.071
 3922SOL    HW112665   6.651   4.139   2.020
 3922SOL    HW212666   6.662   3.976   2.013
 3923SOL     OW12667   6.932   0.974   0.726
 3923SOL    HW112668   6.844   0.933   0.704
 3923SOL    HW212669   6.918   1.063   0.770
 3924SOL     OW12670   6.165   4.849   4.090
 3924SOL    HW112671   6.257   4.818   4.065
 3924SOL    HW212672   6.102   4.832   4.014
 3925SOL     OW12673   1.564   4.689   1.575
 3925SOL    HW112674   1.659   4.717   1.592
 3925SOL    HW212675   1.551   4.673   1.477
 3926SOL     OW12676   4.474   4.890   2.278
 3926SOL    HW112677   4.434   4.798   2.274
 3926SOL    HW212678   4.529   4.899   2.362
 3927SOL     OW12679   6.432   2.608   5.188
 3927SOL    HW112680   6.481   2.681   5.237
 3927SOL    HW212681   6.472   2.519   5.213
 3928SOL     OW12682   4.681   6.626   6.614
 3928SOL    HW112683   4.760   6.626   6.676
 3928SOL    HW212684   4.647   6.719   6.602
 3929SOL     OW12685   1.342   0.499   4.964
 3929SOL    HW112686   1.309   0.562   5.034
 3929SOL    HW212687   1.278   0.498   4.887
 3930SOL     OW12688   3.055   2.260   4.655
 3930SOL    HW112689   3.102   2.346   4.638
 3930SOL    HW212690   3.113   2.200   4.711
 3931SOL     OW12691   1.326   1.590   1.529
 3931SOL    HW112692   1.300   1.506   1.576
 3931SOL    HW212693   1.281   1.668   1.575
 3932SOL     OW12694   0.876   3.677   3.345
 3932SOL    HW112695   0.951   3.709   3.287
 3932SOL    HW212696   0.858   3.745   3.415
 3933SOL     OW12697   2.465   6.944   6.014
 3933SOL    HW112698   2.487   6.969   6.108
 3933SOL    HW212699   2.492   7.017   5.952
 3934SOL     OW12700   6.055   0.085   6.500
 3934SOL    HW112701   6.148   0.056   6.520
 3934SOL    HW212702   6.055   0.145   6.419
 3935SOL     OW12703   3.487   0.319   0.070
 3935SOL    HW112704   3.546   0.240   0.062
 3935SOL    HW212705   3.395   0.290   0.094
 3936SOL     OW12706   6.422   5.191   4.815
 3936SOL    HW112707   6.424   5.271   4.874
 3936SOL    HW212708   6.507   5.187   4.762
 3937SOL     OW12709   0.399   1.958   2.816
 3937SOL    HW112710   0.421   1.866   2.849
 3937SOL    HW212711   0.378   1.954   2.718
 3938SOL     OW12712   1.269   1.590   3.261
 3938SOL    HW112713   1.274   1.670   3.321
 3938SOL    HW212714   1.206   1.608   3.185
 3939SOL     OW12715   2.471   2.480   2.866
 3939SOL    HW112716   2.499   2.467   2.771
 3939SOL    HW212717   2.510   2.408   2.923
 3940SOL     OW12718   4.426   3.903   1.062
 3940SOL    HW112719   4.486   3.968   1.107
 3940SOL    HW212720   4.407   3.934   0.969
 3941SOL     OW12721   5.350   4.600   5.917
 3941SOL    HW112722   5.316   4.560   6.002
 3941SOL    HW212723   5.450   4.596   5.916
 3942SOL     OW12724   0.143   5.917   7.009
 3942SOL    HW112725   0.057   5.934   0.035
 3942SOL    HW212726   0.133   5.840   6.947
 3943SOL     OW12727   1.061   2.591   4.377
 3943SOL    HW112728   1.043   2.554   4.468
 3943SOL    HW212729   1.028   2.527   4.308
 3944SOL     OW12730   4.657   2.647   5.106
 3944SOL    HW112731   4.678   2.733   5.059
 3944SOL    HW212732   4.742   2.605   5.138
 3945SOL     OW12733   0.329   2.092   0.212
 3945SOL    HW112734   0.389   2.042   0.150
 3945SOL    HW212735   0.235   2.057   0.203
 3946SOL     OW12736   5.069   4.479   3.860
 3946SOL    HW112737   5.060   4.532   3.776
 3946SOL    HW212738   5.025   4.390   3.849
 3947SOL     OW12739   4.553   6.385   6.705
 3947SOL    HW112740   4.585   6.377   6.799
 3947SOL    HW212741   4.603   6.457   6.658
 3948SOL     OW12742   6.950   4.682   2.051
 3948SOL    HW112743   7.014   4.727   2.113
 3948SOL    HW212744   6.991   4.596   2.019
 3949SOL     OW12745   5.208   6.017   3.208
 3949SOL    HW112746   5.192   6.087   3.279
 3949SOL    HW212747   5.136   6.023   3.139
 3950SOL     OW12748   1.269   5.015   0.476
 3950SOL    HW112749   1.333   5.028   0.401
 3950SOL    HW212750   1.318   4.976   0.555
 3951SOL     OW12751   4.852   0.232   1.780
 3951SOL    HW112752   4.762   0.270   1.762
 3951SOL    HW212753   4.907   0.299   1.830
 3952SOL     OW12754   0.145   2.721   1.543
 3952SOL    HW112755   0.046   2.718   1.532
 3952SOL    HW212756   0.188   2.734   1.454
 3953SOL     OW12757   4.274   4.292   1.200
 3953SOL    HW112758   4.337   4.291   1.277
 3953SOL    HW212759   4.182   4.270   1.232
 3954SOL     OW12760   3.839   5.924   5.935
 3954SOL    HW112761   3.832   5.865   6.016
 3954SOL    HW212762   3.901   5.882   5.868
 3955SOL     OW12763   2.745   1.186   6.263
 3955SOL    HW112764   2.651   1.175   6.232
 3955SOL    HW212765   2.807   1.181   6.184
 3956SOL     OW12766   1.351   0.936   2.330
 3956SOL    HW112767   1.446   0.910   2.347
 3956SOL    HW212768   1.290   0.865   2.366
 3957SOL     OW12769   3.781   0.139   4.300
 3957SOL    HW112770   3.740   0.095   4.220
 3957SOL    HW212771   3.708   0.173   4.360
 3958SOL     OW12772   6.026   1.491   4.057
 3958SOL    HW112773   6.028   1.525   4.152
 3958SOL    HW212774   6.086   1.547   4.001
 3959SOL     OW12775   5.469   5.176   0.324
 3959SOL    HW112776   5.404   5.243   0.289
 3959SOL    HW212777   5.420   5.106   0.376
 3960SOL     OW12778   5.104   1.303   5.865
 3960SOL    HW112779   5.012   1.264   5.872
 3960SOL    HW212780   5.134   1.303   5.770
 3961SOL     OW12781   4.585   0.422   3.090
 3961SOL    HW112782   4.588   0.486   3.166
 3961SOL    HW212783   4.633   0.338   3.115
 3962SOL     OW12784   1.239   4.816   6.035
 3962SOL    HW112785   1.265   4.731   6.081
 3962SOL    HW212786   1.209   4.883   6.102
 3963SOL     OW12787   4.474   5.543   2.462
 3963SOL    HW112788   4.519   5.499   2.539
 3963SOL    HW212789   4.378   5.515   2.459
 3964SOL     OW12790   4.843   4.456   3.578
 3964SOL    HW112791   4.908   4.382   3.592
 3964SOL    HW212792   4.816   4.494   3.667
 3965SOL     OW12793   4.894   3.340   4.240
 3965SOL    HW112794   4.891   3.269   4.310
 3965SOL    HW212795   4.818   3.404   4.255
 3966SOL     OW12796   3.781   6.342   6.625
 3966SOL    HW112797   3.723   6.401   6.569
 3966SOL    HW212798   3.835   6.398   6.688
 3967SOL     OW12799   2.087   4.153   1.860
 3967SOL    HW112800   2.151   4.079   1.881
 3967SOL    HW212801   2.087   4.171   1.762
 3968SOL     OW12802   4.435   0.483   1.172
 3968SOL    HW112803   4.494   0.547   1.222
 3968SOL    HW212804   4.491   0.410   1.133
 3969SOL     OW12805   1.380   4.706   1.980
 3969SOL    HW112806   1.452   4.681   2.045
 3969SOL    HW212807   1.376   4.637   1.907
 3970SOL     OW12808   5.072   5.966   2.641
 3970SOL    HW112809   5.022   5.999   2.721
 3970SOL    HW212810   5.093   5.869   2.653
 3971SOL     OW12811   2.753   5.575   4.402
 3971SOL    HW112812   2.832   5.610   4.452
 3971SOL    HW212813   2.732   5.636   4.326
 3972SOL     OW12814   1.679   4.128   6.638
 3972SOL    HW112815   1.616   4.053   6.658
 3972SOL    HW212816   1.700   4.178   6.722
 3973SOL     OW12817   1.210   5.685   0.629
 3973SOL    HW112818   1.252   5.594   0.631
 3973SOL    HW212819   1.155   5.695   0.545
 3974SOL     OW12820   1.842   0.196   5.846
 3974SOL    HW112821   1.746   0.189   5.873
 3974SOL    HW212822   1.871   0.111   5.802
 3975SOL     OW12823   5.057   1.191   6.369
 3975SOL    HW112824   5.048   1.091   6.371
 3975SOL    HW212825   5.154   1.215   6.356
 3976SOL     OW12826   2.382   6.388   3.006
 3976SOL    HW112827   2.372   6.395   2.906
 3976SOL    HW212828   2.402   6.293   3.030
 3977SOL     OW12829   0.976   3.346   6.426
 3977SOL    HW112830   0.937   3.363   6.517
 3977SOL    HW212831   1.012   3.252   6.423
 3978SOL     OW12832   6.128   4.781   3.458
 3978SOL    HW112833   6.037   4.804   3.423
 3978SOL    HW212834   6.195   4.848   3.424
 3979SOL     OW12835   3.768   1.347   6.420
 3979SOL    HW112836   3.835   1.308   6.357
 3979SOL    HW212837   3.758   1.286   6.499
 3980SOL     OW12838   5.429   6.484   6.406
 3980SOL    HW112839   5.520   6.471   6.444
 3980SOL    HW212840   5.402   6.580   6.414
 3981SOL     OW12841   4.453   5.923   0.872
 3981SOL    HW112842   4.524   5.994   0.878
 3981SOL    HW212843   4.371   5.962   0.829
 3982SOL     OW12844   2.285   6.922   2.742
 3982SOL    HW112845   2.249   6.973   2.664
 3982SOL    HW212846   2.371   6.877   2.715
 3983SOL     OW12847   5.409   5.100   4.062
 3983SOL    HW112848   5.418   5.193   4.026
 3983SOL    HW212849   5.330   5.056   4.020
 3984SOL     OW12850   6.389   1.157   2.165
 3984SOL    HW112851   6.460   1.205   2.217
 3984SOL    HW212852   6.338   1.097   2.226
 3985SOL     OW12853   3.507   5.348   6.724
 3985SOL    HW112854   3.530   5.259   6.685
 3985SOL    HW212855   3.459   5.335   6.811
 3986SOL     OW12856   4.710   1.886   3.180
 3986SOL    HW112857   4.624   1.888   3.232
 3986SOL    HW212858   4.699   1.940   3.097
 3987SOL     OW12859   3.482   5.246   3.991
 3987SOL    HW112860   3.572   5.210   3.966
 3987SOL    HW212861   3.477   5.256   4.091
 3988SOL     OW12862   3.870   5.046   0.073
 3988SOL    HW112863   3.938   4.976   0.049
 3988SOL    HW212864   3.897   5.089   0.159
 3989SOL     OW12865   6.865   2.061   0.120
 3989SOL    HW112866   6.780   2.097   0.081
 3989SOL    HW212867   6.849   2.029   0.213
 3990SOL     OW12868   4.952   2.559   2.181
 3990SOL    HW112869   4.890   2.636   2.172
 3990SOL    HW212870   4.988   2.533   2.091
 3991SOL     OW12871   0.046   1.623   1.696
 3991SOL    HW112872   0.008   1.633   1.604
 3991SOL    HW212873   0.041   1.528   1.724
 3992SOL     OW12874   3.134   2.422   0.778
 3992SOL    HW112875   3.036   2.419   0.798
 3992SOL    HW212876   3.159   2.345   0.720
 3993SOL     OW12877   1.597   2.550   2.351
 3993SOL    HW112878   1.670   2.574   2.415
 3993SOL    HW212879   1.510   2.546   2.400
 3994SOL     OW12880   2.760   0.447   5.832
 3994SOL    HW112881   2.770   0.347   5.837
 3994SOL    HW212882   2.843   0.491   5.867
 3995SOL     OW12883   1.909   3.329   5.639
 3995SOL    HW112884   1.969   3.251   5.625
 3995SOL    HW212885   1.918   3.392   5.562
 3996SOL     OW12886   0.255   6.527   5.715
 3996SOL    HW112887   0.244   6.508   5.617
 3996SOL    HW212888   0.330   6.472   5.751
 3997SOL     OW12889   5.571   1.105   4.133
 3997SOL    HW112890   5.576   1.075   4.038
 3997SOL    HW212891   5.659   1.145   4.160
 3998SOL     OW12892   3.324   1.168   4.449
 3998SOL    HW112893   3.401   1.147   4.389
 3998SOL    HW212894   3.315   1.268   4.458
 3999SOL     OW12895   5.784   2.417   4.691
 3999SOL    HW112896   5.780   2.360   4.609
 3999SOL    HW212897   5.832   2.368   4.764
 4000SOL     OW12898   3.138   6.707   4.008
 4000SOL    HW112899   3.099   6.797   3.990
 4000SOL    HW212900   3.174   6.668   3.923
 4001SOL     OW12901   2.515   1.983   3.774
 4001SOL    HW112902   2.489   1.914   3.842
 4001SOL    HW212903   2.490   2.073   3.808
 4002SOL     OW12904   2.698   3.752   1.629
 4002SOL    HW112905   2.612   3.754   1.680
 4002SOL    HW212906   2.681   3.779   1.534
 4003SOL     OW12907   3.055   0.414   4.109
 4003SOL    HW112908   3.086   0.462   4.027
 4003SOL    HW212909   2.958   0.390   4.099
 4004SOL     OW12910   6.447   2.294   4.309
 4004SOL    HW112911   6.515   2.335   4.247
 4004SOL    HW212912   6.371   2.358   4.321
 4005SOL     OW12913   4.647   5.952   6.340
 4005SOL    HW112914   4.702   6.000   6.271
 4005SOL    HW212915   4.590   6.017   6.389
 4006SOL     OW12916   3.780   5.140   2.434
 4006SOL    HW112917   3.801   5.050   2.397
 4006SOL    HW212918   3.681   5.149   2.447
 4007SOL     OW12919   0.234   2.681   6.615
 4007SOL    HW112920   0.153   2.646   6.568
 4007SOL    HW212921   0.206   2.728   6.699
 4008SOL     OW12922   2.832   2.302   4.830
 4008SOL    HW112923   2.902   2.289   4.759
 4008SOL    HW212924   2.773   2.378   4.805
 4009SOL     OW12925   4.008   3.049   2.529
 4009SOL    HW112926   4.054   3.116   2.470
 4009SOL    HW212927   3.941   2.998   2.475
 4010SOL     OW12928   2.289   2.860   1.747
 4010SOL    HW112929   2.385   2.887   1.743
 4010SOL    HW212930   2.279   2.780   1.805
 4011SOL     OW12931   0.634   2.272   1.816
 4011SOL    HW112932   0.704   2.343   1.814
 4011SOL    HW212933   0.561   2.295   1.752
 4012SOL     OW12934   6.707   4.397   2.166
 4012SOL    HW112935   6.609   4.381   2.157
 4012SOL    HW212936   6.723   4.475   2.226
 4013SOL     OW12937   4.189   2.026   4.541
 4013SOL    HW112938   4.108   1.972   4.520
 4013SOL    HW212939   4.167   2.123   4.537
 4014SOL     OW12940   6.066   6.433   2.615
 4014SOL    HW112941   6.084   6.407   2.710
 4014SOL    HW212942   6.153   6.450   2.568
 4015SOL     OW12943   4.371   4.261   6.286
 4015SOL    HW112944   4.389   4.253   6.188
 4015SOL    HW212945   4.291   4.205   6.309
 4016SOL     OW12946   2.900   5.946   5.535
 4016SOL    HW112947   2.826   5.957   5.601
 4016SOL    HW212948   2.867   5.890   5.458
 4017SOL     OW12949   6.915   5.916   0.105
 4017SOL    HW112950   6.854   5.957   0.173
 4017SOL    HW212951   6.917   5.817   0.117
 4018SOL     OW12952   4.310   5.919   1.879
 4018SOL    HW112953   4.320   5.948   1.784
 4018SOL    HW212954   4.312   5.819   1.884
 4019SOL     OW12955   5.315   4.142   2.721
 4019SOL    HW112956   5.335   4.215   2.787
 4019SOL    HW212957   5.288   4.060   2.770
 4020SOL     OW12958   4.877   2.518   5.205
 4020SOL    HW112959   4.961   2.496   5.154
 4020SOL    HW212960   4.901   2.567   5.289
 4021SOL     OW12961   3.022   4.994   5.634
 4021SOL    HW112962   2.944   4.995   5.696
 4021SOL    HW212963   3.021   5.075   5.576
 4022SOL     OW12964   5.467   1.259   0.080
 4022SOL    HW112965   5.371   1.285   0.075
 4022SOL    HW212966   5.511   1.311   0.154
 4023SOL     OW12967   6.488   2.065   5.015
 4023SOL    HW112968   6.451   1.993   4.957
 4023SOL    HW212969   6.412   2.117   5.056
 4024SOL     OW12970   3.966   5.024   3.842
 4024SOL    HW112971   4.003   4.967   3.770
 4024SOL    HW212972   3.991   4.986   3.931
 4025SOL     OW12973   0.731   4.373   3.600
 4025SOL    HW112974   0.663   4.446   3.599
 4025SOL    HW212975   0.743   4.336   3.508
 4026SOL     OW12976   5.220   6.029   3.968
 4026SOL    HW112977   5.256   5.953   4.022
 4026SOL    HW212978   5.121   6.032   3.975
 4027SOL     OW12979   4.374   4.795   1.843
 4027SOL    HW112980   4.410   4.888   1.854
 4027SOL    HW212981   4.434   4.731   1.891
 4028SOL     OW12982   2.608   1.297   3.796
 4028SOL    HW112983   2.560   1.338   3.718
 4028SOL    HW212984   2.700   1.335   3.803
 4029SOL     OW12985   1.729   4.660   5.499
 4029SOL    HW112986   1.824   4.642   5.526
 4029SOL    HW212987   1.725   4.681   5.401
 4030SOL     OW12988   0.875   1.844   5.595
 4030SOL    HW112989   0.947   1.895   5.548
 4030SOL    HW212990   0.917   1.778   5.658
 4031SOL     OW12991   4.170   5.859   3.857
 4031SOL    HW112992   4.201   5.773   3.899
 4031SOL    HW212993   4.106   5.905   3.919
 4032SOL     OW12994   5.696   0.309   4.117
 4032SOL    HW112995   5.705   0.362   4.033
 4032SOL    HW212996   5.785   0.274   4.145
 4033SOL     OW12997   2.999   3.736   5.256
 4033SOL    HW112998   2.975   3.808   5.322
 4033SOL    HW212999   2.970   3.647   5.292
 4034SOL     OW13000   6.984   2.309   3.863
 4034SOL    HW113001   6.892   2.296   3.827
 4034SOL    HW213002   6.988   2.275   3.957
 4035SOL     OW13003   0.366   4.663   0.012
 4035SOL    HW113004   0.442   4.669   0.076
 4035SOL    HW213005   0.290   4.615   0.056
 4036SOL     OW13006   6.350   6.768   2.883
 4036SOL    HW113007   6.364   6.778   2.784
 4036SOL    HW213008   6.426   6.812   2.931
 4037SOL     OW13009   0.269   3.625   6.978
 4037SOL    HW113010   0.183   3.608   0.004
 4037SOL    HW213011   0.318   3.699   0.001
 4038SOL     OW13012   6.006   4.532   3.924
 4038SOL    HW113013   5.965   4.575   4.004
 4038SOL    HW213014   6.065   4.598   3.877
 4039SOL     OW13015   5.319   6.246   0.260
 4039SOL    HW113016   5.373   6.296   0.193
 4039SOL    HW213017   5.329   6.148   0.244
 4040SOL     OW13018   3.085   6.243   1.352
 4040SOL    HW113019   3.183   6.234   1.371
 4040SOL    HW213020   3.034   6.184   1.415
 4041SOL     OW13021   1.444   6.527   3.518
 4041SOL    HW113022   1.347   6.507   3.499
 4041SOL    HW213023   1.473   6.476   3.599
 4042SOL     OW13024   6.187   4.950   2.116
 4042SOL    HW113025   6.275   4.903   2.119
 4042SOL    HW213026   6.197   5.043   2.150
 4043SOL     OW13027   6.188   1.566   1.141
 4043SOL    HW113028   6.274   1.558   1.190
 4043SOL    HW213029   6.178   1.488   1.079
 4044SOL     OW13030   5.685   6.366   3.751
 4044SOL    HW113031   5.677   6.321   3.840
 4044SOL    HW213032   5.597   6.365   3.705
 4045SOL     OW13033   2.259   5.832   6.278
 4045SOL    HW113034   2.291   5.906   6.219
 4045SOL    HW213035   2.217   5.760   6.221
 4046SOL     OW13036   0.762   3.254   1.242
 4046SOL    HW113037   0.836   3.319   1.254
 4046SOL    HW213038   0.674   3.302   1.244
 4047SOL     OW13039   2.919   3.689   1.477
 4047SOL    HW113040   2.843   3.714   1.536
 4047SOL    HW213041   2.888   3.623   1.408
 4048SOL     OW13042   5.395   0.700   0.885
 4048SOL    HW113043   5.443   0.614   0.904
 4048SOL    HW213044   5.433   0.773   0.942
 4049SOL     OW13045   5.193   6.949   4.916
 4049SOL    HW113046   5.177   6.865   4.865
 4049SOL    HW213047   5.155   6.940   5.008
 4050SOL     OW13048   2.540   0.607   1.021
 4050SOL    HW113049   2.536   0.517   1.064
 4050SOL    HW213050   2.473   0.612   0.948
 4051SOL     OW13051   3.389   4.235   1.436
 4051SOL    HW113052   3.328   4.313   1.426
 4051SOL    HW213053   3.378   4.196   1.528
 4052SOL     OW13054   0.676   0.260   0.780
 4052SOL    HW113055   0.579   0.259   0.753
 4052SOL    HW213056   0.699   0.349   0.818
 4053SOL     OW13057   3.671   4.898   3.757
 4053SOL    HW113058   3.763   4.908   3.795
 4053SOL    HW213059   3.677   4.858   3.665
 4054SOL     OW13060   4.554   2.297   0.706
 4054SOL    HW113061   4.521   2.377   0.757
 4054SOL    HW213062   4.495   2.282   0.627
 4055SOL     OW13063   3.628   2.200   6.706
 4055SOL    HW113064   3.612   2.202   6.607
 4055SOL    HW213065   3.720   2.235   6.725
 4056SOL     OW13066   4.231   3.759   0.565
 4056SOL    HW113067   4.184   3.821   0.501
 4056SOL    HW213068   4.175   3.748   0.647
 4057SOL     OW13069   5.084   3.184   6.861
 4057SOL    HW113070   5.155   3.254   6.869
 4057SOL    HW213071   5.126   3.095   6.843
 4058SOL     OW13072   1.428   0.946   5.173
 4058SOL    HW113073   1.474   1.017   5.120
 4058SOL    HW213074   1.455   0.953   5.269
 4059SOL     OW13075   0.591   2.085   4.400
 4059SOL    HW113076   0.619   2.178   4.373
 4059SOL    HW213077   0.580   2.082   4.499
 4060SOL     OW13078   4.536   5.256   4.428
 4060SOL    HW113079   4.523   5.209   4.341
 4060SOL    HW213080   4.505   5.351   4.421
 4061SOL     OW13081   3.222   3.039   1.643
 4061SOL    HW113082   3.196   2.943   1.656
 4061SOL    HW213083   3.177   3.075   1.562
 4062SOL     OW13084   2.437   0.061   3.363
 4062SOL    HW113085   2.391   0.011   3.289
 4062SOL    HW213086   2.489   7.018   3.419
 4063SOL     OW13087   3.097   5.299   6.324
 4063SOL    HW113088   3.155   5.374   6.292
 4063SOL    HW213089   3.047   5.259   6.247
 4064SOL     OW13090   0.191   0.133   3.871
 4064SOL    HW113091   0.097   0.163   3.888
 4064SOL    HW213092   0.243   0.209   3.831
 4065SOL     OW13093   5.481   5.644   6.774
 4065SOL    HW113094   5.396   5.592   6.789
 4065SOL    HW213095   5.557   5.580   6.764
 4066SOL     OW13096   5.862   4.423   1.664
 4066SOL    HW113097   5.954   4.462   1.672
 4066SOL    HW213098   5.815   4.429   1.752
 4067SOL     OW13099   5.928   0.746   1.781
 4067SOL    HW113100   5.912   0.677   1.711
 4067SOL    HW213101   5.864   0.734   1.856
 4068SOL     OW13102   6.317   0.403   3.681
 4068SOL    HW113103   6.255   0.350   3.622
 4068SOL    HW213104   6.320   0.361   3.772
 4069SOL     OW13105   6.774   5.461   1.026
 4069SOL    HW113106   6.811   5.554   1.014
 4069SOL    HW213107   6.734   5.430   0.940
 4070SOL     OW13108   1.467   3.129   2.934
 4070SOL    HW113109   1.373   3.164   2.937
 4070SOL    HW213110   1.531   3.205   2.947
 4071SOL     OW13111   1.811   6.485   4.073
 4071SOL    HW113112   1.756   6.558   4.033
 4071SOL    HW213113   1.781   6.467   4.166
 4072SOL     OW13114   0.860   0.686   4.391
 4072SOL    HW113115   0.809   0.705   4.475
 4072SOL    HW213116   0.936   0.750   4.383
 4073SOL     OW13117   1.907   5.565   6.398
 4073SOL    HW113118   2.003   5.540   6.412
 4073SOL    HW213119   1.864   5.582   6.487
 4074SOL     OW13120   1.990   2.874   0.549
 4074SOL    HW113121   1.979   2.896   0.646
 4074SOL    HW213122   1.907   2.899   0.499
 4075SOL     OW13123   4.877   1.240   3.372
 4075SOL    HW113124   4.960   1.198   3.336
 4075SOL    HW213125   4.851   1.195   3.457
 4076SOL     OW13126   1.839   2.727   3.805
 4076SOL    HW113127   1.756   2.707   3.857
 4076SOL    HW213128   1.874   2.817   3.831
 4077SOL     OW13129   2.448   1.730   0.711
 4077SOL    HW113130   2.403   1.642   0.720
 4077SOL    HW213131   2.547   1.717   0.709
 4078SOL     OW13132   5.637   3.894   1.787
 4078SOL    HW113133   5.674   3.819   1.841
 4078SOL    HW213134   5.537   3.885   1.780
 4079SOL     OW13135   0.650   1.383   3.852
 4079SOL    HW113136   0.703   1.319   3.909
 4079SOL    HW213137   0.697   1.396   3.765
 4080SOL     OW13138   3.613   3.350   1.649
 4080SOL    HW113139   3.527   3.329   1.697
 4080SOL    HW213140   3.661   3.423   1.698
 4081SOL     OW13141   2.722   2.383   5.964
 4081SOL    HW113142   2.732   2.287   5.937
 4081SOL    HW213143   2.756   2.395   6.057
 4082SOL     OW13144   1.314   2.442   4.764
 4082SOL    HW113145   1.225   2.479   4.738
 4082SOL    HW213146   1.309   2.402   4.855
 4083SOL     OW13147   5.547   5.438   3.145
 4083SOL    HW113148   5.462   5.430   3.198
 4083SOL    HW213149   5.617   5.379   3.185
 4084SOL     OW13150   5.210   0.774   3.757
 4084SOL    HW113151   5.131   0.735   3.803
 4084SOL    HW213152   5.235   0.716   3.679
 4085SOL     OW13153   4.060   4.865   2.253
 4085SOL    HW113154   4.129   4.831   2.316
 4085SOL    HW213155   3.969   4.860   2.296
 4086SOL     OW13156   6.111   5.093   6.169
 4086SOL    HW113157   6.161   5.007   6.165
 4086SOL    HW213158   6.162   5.159   6.225
 4087SOL     OW13159   1.988   7.021   2.262
 4087SOL    HW113160   1.903   0.027   2.218
 4087SOL    HW213161   1.967   6.973   2.347
 4088SOL     OW13162   0.400   1.946   5.109
 4088SOL    HW113163   0.344   2.014   5.064
 4088SOL    HW213164   0.383   1.856   5.069
 4089SOL     OW13165   1.072   0.593   2.980
 4089SOL    HW113166   1.073   0.627   2.886
 4089SOL    HW213167   1.014   0.511   2.985
 4090SOL     OW13168   2.885   1.440   6.379
 4090SOL    HW113169   2.899   1.358   6.323
 4090SOL    HW213170   2.803   1.488   6.347
 4091SOL     OW13171   3.005   5.987   1.156
 4091SOL    HW113172   2.974   6.044   1.232
 4091SOL    HW213173   2.929   5.930   1.124
 4092SOL     OW13174   5.672   2.624   4.120
 4092SOL    HW113175   5.628   2.714   4.116
 4092SOL    HW213176   5.771   2.636   4.130
 4093SOL     OW13177   5.111   4.650   3.657
 4093SOL    HW113178   5.199   4.619   3.622
 4093SOL    HW213179   5.082   4.731   3.606
 4094SOL     OW13180   6.940   5.302   0.145
 4094SOL    HW113181   7.018   5.364   0.146
 4094SOL    HW213182   6.858   5.350   0.174
 4095SOL     OW13183   0.571   5.000   6.794
 4095SOL    HW113184   0.645   4.988   6.728
 4095SOL    HW213185   0.511   4.920   6.792
 4096SOL     OW13186   0.568   1.505   6.735
 4096SOL    HW113187   0.643   1.440   6.730
 4096SOL    HW213188   0.565   1.545   6.827
 4097SOL     OW13189   6.865   4.656   5.297
 4097SOL    HW113190   6.887   4.698   5.209
 4097SOL    HW213191   6.849   4.558   5.285
 4098SOL     OW13192   1.844   4.395   3.437
 4098SOL    HW113193   1.749   4.409   3.407
 4098SOL    HW213194   1.897   4.356   3.361
 4099SOL     OW13195   4.760   4.467   6.266
 4099SOL    HW113196   4.764   4.371   6.292
 4099SOL    HW213197   4.719   4.475   6.175
 4100SOL     OW13198   1.628   0.178   4.004
 4100SOL    HW113199   1.634   0.153   3.907
 4100SOL    HW213200   1.532   0.196   4.027
 4101SOL     OW13201   6.018   6.270   0.256
 4101SOL    HW113202   5.968   6.200   0.205
 4101SOL    HW213203   6.081   6.317   0.194
 4102SOL     OW13204   1.069   0.889   0.635
 4102SOL    HW113205   1.069   0.953   0.559
 4102SOL    HW213206   1.128   0.924   0.708
 4103SOL     OW13207   1.655   6.589   3.378
 4103SOL    HW113208   1.609   6.633   3.301
 4103SOL    HW213209   1.587   6.556   3.443
 4104SOL     OW13210   1.827   5.821   4.394
 4104SOL    HW113211   1.831   5.740   4.336
 4104SOL    HW213212   1.820   5.903   4.337
 4105SOL     OW13213   4.829   1.208   0.833
 4105SOL    HW113214   4.746   1.181   0.784
 4105SOL    HW213215   4.865   1.129   0.883
 4106SOL     OW13216   0.975   1.205   3.215
 4106SOL    HW113217   0.901   1.268   3.240
 4106SOL    HW213218   0.979   1.131   3.282
 4107SOL     OW13219   0.606   6.744   0.042
 4107SOL    HW113220   0.551   6.662   0.024
 4107SOL    HW213221   0.605   6.803   6.983
 4108SOL     OW13222   6.821   5.941   5.269
 4108SOL    HW113223   6.915   5.909   5.284
 4108SOL    HW213224   6.781   5.968   5.357
 4109SOL     OW13225   5.968   6.567   3.214
 4109SOL    HW113226   6.000   6.637   3.150
 4109SOL    HW213227   5.905   6.505   3.167
 4110SOL     OW13228   5.111   2.734   0.349
 4110SOL    HW113229   5.124   2.782   0.262
 4110SOL    HW213230   5.153   2.643   0.343
 4111SOL     OW13231   6.548   3.805   3.879
 4111SOL    HW113232   6.506   3.725   3.836
 4111SOL    HW213233   6.531   3.803   3.977
 4112SOL     OW13234   4.840   6.677   5.285
 4112SOL    HW113235   4.922   6.725   5.315
 4112SOL    HW213236   4.814   6.609   5.354
 4113SOL     OW13237   4.301   5.298   4.958
 4113SOL    HW113238   4.382   5.245   4.936
 4113SOL    HW213239   4.222   5.262   4.908
 4114SOL     OW13240   0.368   1.432   1.330
 4114SOL    HW113241   0.376   1.505   1.398
 4114SOL    HW213242   0.442   1.442   1.263
 4115SOL     OW13243   4.627   6.119   4.178
 4115SOL    HW113244   4.608   6.058   4.102
 4115SOL    HW213245   4.668   6.204   4.144
 4116SOL     OW13246   5.266   3.420   3.192
 4116SOL    HW113247   5.172   3.388   3.177
 4116SOL    HW213248   5.264   3.514   3.227
 4117SOL     OW13249   1.660   1.590   3.563
 4117SOL    HW113250   1.749   1.544   3.564
 4117SOL    HW213251   1.625   1.593   3.470
 4118SOL     OW13252   0.221   6.062   6.623
 4118SOL    HW113253   0.315   6.093   6.607
 4118SOL    HW213254   0.157   6.137   6.605
 4119SOL     OW13255   0.545   0.838   3.998
 4119SOL    HW113256   0.615   0.874   4.061
 4119SOL    HW213257   0.481   0.782   4.049
 4120SOL     OW13258   1.753   0.822   6.289
 4120SOL    HW113259   1.765   0.864   6.199
 4120SOL    HW213260   1.707   0.734   6.279
 4121SOL     OW13261   6.419   0.080   1.972
 4121SOL    HW113262   6.438   0.036   1.884
 4121SOL    HW213263   6.492   0.058   2.036
 4122SOL     OW13264   6.660   4.292   3.092
 4122SOL    HW113265   6.642   4.349   3.011
 4122SOL    HW213266   6.655   4.196   3.066
 4123SOL     OW13267   4.855   4.798   2.004
 4123SOL    HW113268   4.845   4.706   1.966
 4123SOL    HW213269   4.877   4.791   2.101
 4124SOL     OW13270   6.157   5.652   0.021
 4124SOL    HW113271   6.121   5.706   0.097
 4124SOL    HW213272   6.106   5.566   0.015
 4125SOL     OW13273   6.045   1.612   1.438
 4125SOL    HW113274   6.122   1.664   1.401
 4125SOL    HW213275   6.065   1.514   1.430
 4126SOL     OW13276   1.610   2.979   2.471
 4126SOL    HW113277   1.543   2.941   2.406
 4126SOL    HW213278   1.695   2.927   2.466
 4127SOL     OW13279   4.436   1.950   4.521
 4127SOL    HW113280   4.478   1.995   4.600
 4127SOL    HW213281   4.344   1.985   4.507
 4128SOL     OW13282   0.911   3.422   0.013
 4128SOL    HW113283   0.941   3.367   0.092
 4128SOL    HW213284   0.850   3.495   0.045
 4129SOL     OW13285   2.376   2.896   0.754
 4129SOL    HW113286   2.367   2.965   0.826
 4129SOL    HW213287   2.321   2.922   0.675
 4130SOL     OW13288   6.153   3.360   0.646
 4130SOL    HW113289   6.243   3.403   0.645
 4130SOL    HW213290   6.163   3.262   0.659
 4131SOL     OW13291   4.849   6.974   3.251
 4131SOL    HW113292   4.887   6.953   3.161
 4131SOL    HW213293   4.920   7.018   3.307
 4132SOL     OW13294   0.870   5.151   4.024
 4132SOL    HW113295   0.907   5.243   4.009
 4132SOL    HW213296   0.861   5.134   4.122
 4133SOL     OW13297   5.527   0.721   2.874
 4133SOL    HW113298   5.619   0.723   2.835
 4133SOL    HW213299   5.488   0.630   2.863
 4134SOL     OW13300   1.489   3.662   1.455
 4134SOL    HW113301   1.515   3.749   1.498
 4134SOL    HW213302   1.391   3.664   1.434
 4135SOL     OW13303   6.774   1.573   1.836
 4135SOL    HW113304   6.709   1.623   1.893
 4135SOL    HW213305   6.866   1.580   1.875
 4136SOL     OW13306   1.515   4.708   1.299
 4136SOL    HW113307   1.609   4.717   1.269
 4136SOL    HW213308   1.460   4.782   1.261
 4137SOL     OW13309   1.215   2.635   0.464
 4137SOL    HW113310   1.217   2.731   0.493
 4137SOL    HW213311   1.281   2.583   0.518
 4138SOL     OW13312   5.399   0.932   0.484
 4138SOL    HW113313   5.332   0.942   0.557
 4138SOL    HW213314   5.463   1.009   0.486
 4139SOL     OW13315   1.957   3.233   3.056
 4139SOL    HW113316   1.945   3.321   3.009
 4139SOL    HW213317   1.877   3.215   3.114
 4140SOL     OW13318   1.898   0.856   6.558
 4140SOL    HW113319   1.878   0.823   6.466
 4140SOL    HW213320   1.908   0.956   6.556
 4141SOL     OW13321   4.625   0.069   6.059
 4141SOL    HW113322   4.720   0.091   6.077
 4141SOL    HW213323   4.598   0.106   5.970
 4142SOL     OW13324   0.833   4.525   2.486
 4142SOL    HW113325   0.866   4.451   2.428
 4142SOL    HW213326   0.851   4.502   2.582
 4143SOL     OW13327   5.329   2.911   0.475
 4143SOL    HW113328   5.298   2.830   0.425
 4143SOL    HW213329   5.263   2.932   0.547
 4144SOL     OW13330   6.164   0.891   0.693
 4144SOL    HW113331   6.193   0.819   0.757
 4144SOL    HW213332   6.079   0.863   0.648
 4145SOL     OW13333   0.183   6.613   1.642
 4145SOL    HW113334   0.261   6.565   1.602
 4145SOL    HW213335   0.098   6.567   1.615
 4146SOL     OW13336   4.423   6.006   3.159
 4146SOL    HW113337   4.404   6.099   3.188
 4146SOL    HW213338   4.424   6.002   3.059
 4147SOL     OW13339   4.796   4.247   6.019
 4147SOL    HW113340   4.745   4.180   6.074
 4147SOL    HW213341   4.746   4.333   6.015
 4148SOL     OW13342   2.523   1.531   6.065
 4148SOL    HW113343   2.535   1.448   6.011
 4148SOL    HW213344   2.510   1.609   6.004
 4149SOL     OW13345   2.645   3.369   6.259
 4149SOL    HW113346   2.596   3.310   6.195
 4149SOL    HW213347   2.738   3.385   6.224
 4150SOL     OW13348   5.455   1.762   5.971
 4150SOL    HW113349   5.430   1.847   5.926
 4150SOL    HW213350   5.389   1.691   5.947
 4151SOL     OW13351   2.929   6.073   4.152
 4151SOL    HW113352   2.970   6.155   4.192
 4151SOL    HW213353   2.832   6.090   4.134
 4152SOL     OW13354   2.648   4.657   1.147
 4152SOL    HW113355   2.746   4.676   1.143
 4152SOL    HW213356   2.621   4.641   1.242
 4153SOL     OW13357   6.819   5.820   1.441
 4153SOL    HW113358   6.809   5.866   1.529
 4153SOL    HW213359   6.907   5.772   1.438
 4154SOL     OW13360   1.172   6.432   3.543
 4154SOL    HW113361   1.149   6.372   3.467
 4154SOL    HW213362   1.196   6.377   3.623
 4155SOL     OW13363   0.447   0.963   1.228
 4155SOL    HW113364   0.392   1.046   1.240
 4155SOL    HW213365   0.388   0.888   1.198
 4156SOL     OW13366   6.930   5.270   6.182
 4156SOL    HW113367   6.850   5.293   6.239
 4156SOL    HW213368   7.013   5.289   6.233
 4157SOL     OW13369   6.559   6.383   1.713
 4157SOL    HW113370   6.639   6.386   1.654
 4157SOL    HW213371   6.479   6.417   1.663
 4158SOL     OW13372   0.933   2.880   1.816
 4158SOL    HW113373   0.924   2.978   1.795
 4158SOL    HW213374   0.849   2.848   1.859
 4159SOL     OW13375   3.641   1.115   3.943
 4159SOL    HW113376   3.662   1.136   3.847
 4159SOL    HW213377   3.603   1.023   3.949
 4160SOL     OW13378   6.364   6.430   6.628
 4160SOL    HW113379   6.421   6.488   6.687
 4160SOL    HW213380   6.421   6.359   6.587
 4161SOL     OW13381   3.929   3.029   1.630
 4161SOL    HW113382   3.890   3.113   1.668
 4161SOL    HW213383   4.021   3.046   1.596
 4162SOL     OW13384   5.037   5.866   1.720
 4162SOL    HW113385   5.052   5.943   1.782
 4162SOL    HW213386   5.113   5.801   1.729
 4163SOL     OW13387   3.376   6.596   1.443
 4163SOL    HW113388   3.361   6.694   1.447
 4163SOL    HW213389   3.434   6.574   1.364
 4164SOL     OW13390   6.556   0.272   5.420
 4164SOL    HW113391   6.526   0.340   5.353
 4164SOL    HW213392   6.478   0.220   5.453
 4165SOL     OW13393   3.859   1.167   5.155
 4165SOL    HW113394   3.871   1.107   5.234
 4165SOL    HW213395   3.944   1.171   5.103
 4166SOL     OW13396   5.381   1.250   1.651
 4166SOL    HW113397   5.474   1.241   1.617
 4166SOL    HW213398   5.341   1.335   1.616
 4167SOL     OW13399   4.069   5.222   4.861
 4167SOL    HW113400   3.973   5.249   4.873
 4167SOL    HW213401   4.080   5.126   4.888
 4168SOL     OW13402   4.585   4.131   6.685
 4168SOL    HW113403   4.624   4.084   6.764
 4168SOL    HW213404   4.487   4.144   6.698
 4169SOL     OW13405   5.113   3.530   5.146
 4169SOL    HW113406   5.145   3.614   5.190
 4169SOL    HW213407   5.041   3.553   5.080
 4170SOL     OW13408   0.201   3.348   3.585
 4170SOL    HW113409   0.266   3.355   3.509
 4170SOL    HW213410   0.249   3.314   3.666
 4171SOL     OW13411   0.702   2.895   0.889
 4171SOL    HW113412   0.738   2.934   0.805
 4171SOL    HW213413   0.753   2.929   0.967
 4172SOL     OW13414   2.720   4.536   0.810
 4172SOL    HW113415   2.782   4.504   0.739
 4172SOL    HW213416   2.704   4.463   0.876
 4173SOL     OW13417   4.729   2.910   5.042
 4173SOL    HW113418   4.671   2.930   5.120
 4173SOL    HW213419   4.790   2.988   5.025
 4174SOL     OW13420   3.335   0.432   4.656
 4174SOL    HW113421   3.364   0.498   4.724
 4174SOL    HW213422   3.398   0.434   4.578
 4175SOL     OW13423   1.464   4.449   6.747
 4175SOL    HW113424   1.498   4.539   6.718
 4175SOL    HW213425   1.533   4.403   6.802
 4176SOL     OW13426   4.900   0.128   6.094
 4176SOL    HW113427   4.876   0.224   6.110
 4176SOL    HW213428   4.965   0.098   6.163
 4177SOL     OW13429   4.551   4.389   3.260
 4177SOL    HW113430   4.479   4.403   3.191
 4177SOL    HW213431   4.632   4.441   3.235
 4178SOL     OW13432   4.145   5.458   1.646
 4178SOL    HW113433   4.098   5.417   1.568
 4178SOL    HW213434   4.198   5.537   1.617
 4179SOL     OW13435   5.269   3.141   4.998
 4179SOL    HW113436   5.338   3.214   5.001
 4179SOL    HW213437   5.220   3.145   4.911
 4180SOL     OW13438   4.541   4.351   0.281
 4180SOL    HW113439   4.613   4.322   0.344
 4180SOL    HW213440   4.497   4.434   0.316
 4181SOL     OW13441   4.284   0.389   4.947
 4181SOL    HW113442   4.265   0.331   5.026
 4181SOL    HW213443   4.325   0.475   4.978
 4182SOL     OW13444   6.941   6.555   4.260
 4182SOL    HW113445   6.913   6.459   4.261
 4182SOL    HW213446   7.016   6.567   4.195
 4183SOL     OW13447   3.705   2.159   1.307
 4183SOL    HW113448   3.764   2.202   1.375
 4183SOL    HW213449   3.732   2.063   1.296
 4184SOL     OW13450   3.306   5.236   3.615
 4184SOL    HW113451   3.388   5.179   3.615
 4184SOL    HW213452   3.243   5.204   3.686
 4185SOL     OW13453   6.282   3.539   2.614
 4185SOL    HW113454   6.191   3.535   2.656
 4185SOL    HW213455   6.273   3.524   2.515
 4186SOL     OW13456   1.539   6.132   0.613
 4186SOL    HW113457   1.457   6.074   0.619
 4186SOL    HW213458   1.620   6.075   0.615
 4187SOL     OW13459   1.486   3.946   6.645
 4187SOL    HW113460   1.561   3.882   6.662
 4187SOL    HW213461   1.406   3.917   6.698
 4188SOL     OW13462   5.043   6.950   0.140
 4188SOL    HW113463   5.023   0.005   0.201
 4188SOL    HW213464   5.049   6.865   0.194
 4189SOL     OW13465   5.201   5.248   3.477
 4189SOL    HW113466   5.192   5.278   3.572
 4189SOL    HW213467   5.295   5.215   3.462
 4190SOL     OW13468   6.767   6.151   0.728
 4190SOL    HW113469   6.724   6.070   0.766
 4190SOL    HW213470   6.863   6.153   0.753
 4191SOL     OW13471   4.592   4.440   5.997
 4191SOL    HW113472   4.513   4.382   6.017
 4191SOL    HW213473   4.573   4.496   5.917
 4192SOL     OW13474   0.985   3.358   1.525
 4192SOL    HW113475   0.961   3.273   1.572
 4192SOL    HW213476   0.914   3.427   1.541
 4193SOL     OW13477   6.987   6.690   0.802
 4193SOL    HW113478   6.937   6.619   0.753
 4193SOL    HW213479   6.921   6.758   0.837
 4194SOL     OW13480   4.356   1.110   4.727
 4194SOL    HW113481   4.295   1.057   4.785
 4194SOL    HW213482   4.448   1.113   4.768
 4195SOL     OW13483   3.985   5.897   1.427
 4195SOL    HW113484   3.886   5.879   1.424
 4195SOL    HW213485   4.017   5.891   1.521
 4196SOL     OW13486   6.399   2.357   2.497
 4196SOL    HW113487   6.468   2.428   2.484
 4196SOL    HW213488   6.417   2.281   2.434
 4197SOL     OW13489   3.612   6.926   6.201
 4197SOL    HW113490   3.592   6.830   6.184
 4197SOL    HW213491   3.595   6.978   6.117
 4198SOL     OW13492   6.016   1.196   2.907
 4198SOL    HW113493   6.063   1.139   2.840
 4198SOL    HW213494   6.027   1.292   2.883
 4199SOL     OW13495   0.474   3.692   6.297
 4199SOL    HW113496   0.515   3.610   6.259
 4199SOL    HW213497   0.545   3.751   6.335
 4200SOL     OW13498   4.788   1.147   3.617
 4200SOL    HW113499   4.843   1.141   3.700
 4200SOL    HW213500   4.718   1.218   3.628
 4201SOL     OW13501   5.492   0.250   3.110
 4201SOL    HW113502   5.524   0.308   3.185
 4201SOL    HW213503   5.468   0.307   3.031
 4202SOL     OW13504   4.551   4.815   1.134
 4202SOL    HW113505   4.508   4.899   1.168
 4202SOL    HW213506   4.504   4.736   1.174
 4203SOL     OW13507   6.355   5.639   6.885
 4203SOL    HW113508   6.277   5.650   6.947
 4203SOL    HW213509   6.404   5.555   6.909
 4204SOL     OW13510   2.824   3.449   5.832
 4204SOL    HW113511   2.811   3.355   5.865
 4204SOL    HW213512   2.913   3.457   5.787
 4205SOL     OW13513   3.784   5.658   5.009
 4205SOL    HW113514   3.874   5.694   5.036
 4205SOL    HW213515   3.765   5.686   4.914
 4206SOL     OW13516   1.611   2.239   4.782
 4206SOL    HW113517   1.547   2.257   4.857
 4206SOL    HW213518   1.700   2.281   4.804
 4207SOL     OW13519   1.217   3.152   1.563
 4207SOL    HW113520   1.308   3.147   1.523
 4207SOL    HW213521   1.160   3.214   1.510
 4208SOL     OW13522   2.018   3.849   4.909
 4208SOL    HW113523   2.065   3.827   4.995
 4208SOL    HW213524   1.928   3.806   4.908
 4209SOL     OW13525   0.227   5.879   3.083
 4209SOL    HW113526   0.202   5.960   3.135
 4209SOL    HW213527   0.158   5.808   3.096
 4210SOL     OW13528   3.894   3.182   4.841
 4210SOL    HW113529   3.948   3.245   4.787
 4210SOL    HW213530   3.925   3.183   4.936
 4211SOL     OW13531   4.159   2.333   5.527
 4211SOL    HW113532   4.211   2.380   5.456
 4211SOL    HW213533   4.065   2.319   5.496
 4212SOL     OW13534   6.840   2.009   3.171
 4212SOL    HW113535   6.764   2.026   3.234
 4212SOL    HW213536   6.911   1.957   3.218
 4213SOL     OW13537   3.529   1.202   3.149
 4213SOL    HW113538   3.585   1.119   3.142
 4213SOL    HW213539   3.448   1.191   3.092
 4214SOL     OW13540   0.559   5.284   4.218
 4214SOL    HW113541   0.565   5.384   4.220
 4214SOL    HW213542   0.649   5.245   4.241
 4215SOL     OW13543   4.530   6.515   5.058
 4215SOL    HW113544   4.625   6.531   5.034
 4215SOL    HW213545   4.494   6.438   5.003
 4216SOL     OW13546   2.445   6.074   2.602
 4216SOL    HW113547   2.434   6.100   2.507
 4216SOL    HW213548   2.393   6.137   2.660
 4217SOL     OW13549   0.532   0.718   2.168
 4217SOL    HW113550   0.509   0.743   2.262
 4217SOL    HW213551   0.606   0.777   2.136
 4218SOL     OW13552   2.699   1.208   1.546
 4218SOL    HW113553   2.718   1.125   1.598
 4218SOL    HW213554   2.699   1.287   1.607
 4219SOL     OW13555   4.295   6.424   3.731
 4219SOL    HW113556   4.315   6.335   3.689
 4219SOL    HW213557   4.211   6.417   3.785
 4220SOL     OW13558   4.529   2.111   1.658
 4220SOL    HW113559   4.529   2.033   1.722
 4220SOL    HW213560   4.442   2.113   1.609
 4221SOL     OW13561   0.395   5.839   6.869
 4221SOL    HW113562   0.431   5.756   6.825
 4221SOL    HW213563   0.305   5.860   6.831
 4222SOL     OW13564   4.731   2.482   3.482
 4222SOL    HW113565   4.798   2.554   3.465
 4222SOL    HW213566   4.653   2.519   3.532
 4223SOL     OW13567   4.105   3.249   2.371
 4223SOL    HW113568   4.158   3.239   2.287
 4223SOL    HW213569   4.018   3.294   2.350
 4224SOL     OW13570   4.934   3.633   4.831
 4224SOL    HW113571   4.880   3.616   4.914
 4224SOL    HW213572   4.942   3.732   4.817
 4225SOL     OW13573   0.227   2.772   5.731
 4225SOL    HW113574   0.220   2.755   5.830
 4225SOL    HW213575   0.232   2.684   5.683
 4226SOL     OW13576   1.067   5.486   4.672
 4226SOL    HW113577   1.037   5.404   4.624
 4226SOL    HW213578   1.014   5.565   4.641
 4227SOL     OW13579   5.442   5.624   2.160
 4227SOL    HW113580   5.445   5.723   2.171
 4227SOL    HW213581   5.485   5.580   2.239
 4228SOL     OW13582   1.250   5.470   3.975
 4228SOL    HW113583   1.261   5.534   4.051
 4228SOL    HW213584   1.263   5.376   4.007
 4229SOL     OW13585   6.070   4.805   5.902
 4229SOL    HW113586   6.017   4.867   5.844
 4229SOL    HW213587   6.057   4.711   5.871
 4230SOL     OW13588   0.754   0.850   2.068
 4230SOL    HW113589   0.783   0.930   2.016
 4230SOL    HW213590   0.820   0.831   2.140
 4231SOL     OW13591   5.530   1.374   5.980
 4231SOL    HW113592   5.555   1.287   6.022
 4231SOL    HW213593   5.608   1.408   5.926
 4232SOL     OW13594   1.935   5.293   4.138
 4232SOL    HW113595   1.991   5.254   4.064
 4232SOL    HW213596   1.896   5.220   4.193
 4233SOL     OW13597   5.425   6.377   3.645
 4233SOL    HW113598   5.405   6.473   3.665
 4233SOL    HW213599   5.347   6.320   3.670
 4234SOL     OW13600   2.348   5.757   5.838
 4234SOL    HW113601   2.254   5.731   5.861
 4234SOL    HW213602   2.349   5.807   5.752
 4235SOL     OW13603   0.023   5.004   6.090
 4235SOL    HW113604   6.973   5.066   6.058
 4235SOL    HW213605   0.039   4.932   6.022
 4236SOL     OW13606   0.846   5.423   1.816
 4236SOL    HW113607   0.790   5.501   1.845
 4236SOL    HW213608   0.819   5.394   1.724
 4237SOL     OW13609   6.369   4.051   3.345
 4237SOL    HW113610   6.449   3.994   3.362
 4237SOL    HW213611   6.287   3.993   3.343
 4238SOL     OW13612   2.618   0.288   3.384
 4238SOL    HW113613   2.558   0.209   3.373
 4238SOL    HW213614   2.582   0.365   3.331
 4239SOL     OW13615   4.106   0.826   2.957
 4239SOL    HW113616   4.103   0.727   2.943
 4239SOL    HW213617   4.200   0.855   2.975
 4240SOL     OW13618   0.449   6.209   0.935
 4240SOL    HW113619   0.547   6.189   0.927
 4240SOL    HW213620   0.428   6.294   0.888
 4241SOL     OW13621   6.319   2.411   6.695
 4241SOL    HW113622   6.287   2.502   6.670
 4241SOL    HW213623   6.261   2.342   6.653
 4242SOL     OW13624   1.999   2.225   3.880
 4242SOL    HW113625   2.044   2.261   3.799
 4242SOL    HW213626   2.050   2.252   3.962
 4243SOL     OW13627   5.403   1.065   3.493
 4243SOL    HW113628   5.326   1.003   3.508
 4243SOL    HW213629   5.424   1.068   3.395
 4244SOL     OW13630   3.563   3.261   2.231
 4244SOL    HW113631   3.626   3.272   2.154
 4244SOL    HW213632   3.614   3.240   2.314
 4245SOL     OW13633   5.777   2.449   5.966
 4245SOL    HW113634   5.716   2.370   5.978
 4245SOL    HW213635   5.823   2.469   6.052
 4246SOL     OW13636   0.232   3.757   2.373
 4246SOL    HW113637   0.248   3.659   2.368
 4246SOL    HW213638   0.137   3.775   2.395
 4247SOL     OW13639   0.033   5.749   5.297
 4247SOL    HW113640   0.083   5.811   5.236
 4247SOL    HW213641   0.091   5.671   5.320
 4248SOL     OW13642   1.256   3.011   5.509
 4248SOL    HW113643   1.279   2.954   5.588
 4248SOL    HW213644   1.159   3.001   5.487
 4249SOL     OW13645   5.814   3.230   5.854
 4249SOL    HW113646   5.739   3.296   5.854
 4249SOL    HW213647   5.857   3.230   5.944
 4250SOL     OW13648   6.506   5.106   3.524
 4250SOL    HW113649   6.445   5.132   3.449
 4250SOL    HW213650   6.497   5.008   3.542
 4251SOL     OW13651   5.669   4.520   0.547
 4251SOL    HW113652   5.593   4.526   0.483
 4251SOL    HW213653   5.657   4.439   0.605
 4252SOL     OW13654   0.684   5.170   5.454
 4252SOL    HW113655   0.761   5.225   5.424
 4252SOL    HW213656   0.650   5.115   5.377
 4253SOL     OW13657   4.667   0.868   1.492
 4253SOL    HW113658   4.665   0.953   1.545
 4253SOL    HW213659   4.574   0.844   1.464
 4254SOL     OW13660   2.153   3.796   1.480
 4254SOL    HW113661   2.199   3.726   1.425
 4254SOL    HW213662   2.219   3.867   1.505
 4255SOL     OW13663   6.743   3.217   4.258
 4255SOL    HW113664   6.796   3.301   4.271
 4255SOL    HW213665   6.755   3.185   4.164
 4256SOL     OW13666   1.709   6.884   1.567
 4256SOL    HW113667   1.696   6.788   1.591
 4256SOL    HW213668   1.642   6.939   1.617
 4257SOL     OW13669   3.389   1.910   4.994
 4257SOL    HW113670   3.318   1.842   4.976
 4257SOL    HW213671   3.479   1.866   4.995
 4258SOL     OW13672   5.894   6.564   2.439
 4258SOL    HW113673   5.958   6.535   2.510
 4258SOL    HW213674   5.837   6.487   2.412
 4259SOL     OW13675   2.547   2.521   0.050
 4259SOL    HW113676   2.469   2.493   0.106
 4259SOL    HW213677   2.631   2.483   0.090
 4260SOL     OW13678   4.881   5.495   3.403
 4260SOL    HW113679   4.837   5.517   3.316
 4260SOL    HW213680   4.924   5.405   3.398
 4261SOL     OW13681   2.202   6.522   1.678
 4261SOL    HW113682   2.155   6.589   1.735
 4261SOL    HW213683   2.270   6.472   1.732
 4262SOL     OW13684   1.152   5.009   6.490
 4262SOL    HW113685   1.095   4.926   6.487
 4262SOL    HW213686   1.248   4.983   6.502
 4263SOL     OW13687   2.390   4.486   5.589
 4263SOL    HW113688   2.402   4.583   5.609
 4263SOL    HW213689   2.431   4.432   5.663
 4264SOL     OW13690   0.332   1.504   0.173
 4264SOL    HW113691   0.263   1.475   0.240
 4264SOL    HW213692   0.388   1.577   0.213
 4265SOL     OW13693   6.828   1.746   0.482
 4265SOL    HW113694   6.819   1.657   0.438
 4265SOL    HW213695   6.917   1.785   0.461
 4266SOL     OW13696   2.531   5.323   0.206
 4266SOL    HW113697   2.568   5.383   0.276
 4266SOL    HW213698   2.591   5.324   0.126
 4267SOL     OW13699   1.778   3.709   5.041
 4267SOL    HW113700   1.750   3.614   5.025
 4267SOL    HW213701   1.707   3.757   5.091
 4268SOL     OW13702   2.228   1.024   0.521
 4268SOL    HW113703   2.263   0.967   0.447
 4268SOL    HW213704   2.128   1.016   0.526
 4269SOL     OW13705   3.286   3.347   0.401
 4269SOL    HW113706   3.380   3.331   0.372
 4269SOL    HW213707   3.235   3.392   0.327
 4270SOL     OW13708   3.187   3.031   4.963
 4270SOL    HW113709   3.193   3.098   5.037
 4270SOL    HW213710   3.246   2.953   4.984
 4271SOL     OW13711   0.753   0.024   5.936
 4271SOL    HW113712   0.727   0.115   5.904
 4271SOL    HW213713   0.844   0.028   5.975
 4272SOL     OW13714   6.642   4.726   5.419
 4272SOL    HW113715   6.642   4.668   5.500
 4272SOL    HW213716   6.720   4.701   5.360
 4273SOL     OW13717   5.048   6.806   5.383
 4273SOL    HW113718   4.999   6.764   5.460
 4273SOL    HW213719   5.145   6.810   5.404
 4274SOL     OW13720   1.473   6.919   3.750
 4274SOL    HW113721   1.548   6.984   3.760
 4274SOL    HW213722   1.458   6.898   3.653
 4275SOL     OW13723   0.421   0.431   5.926
 4275SOL    HW113724   0.463   0.405   6.013
 4275SOL    HW213725   0.322   0.435   5.936
 4276SOL     OW13726   2.208   4.470   2.778
 4276SOL    HW113727   2.192   4.374   2.759
 4276SOL    HW213728   2.303   4.483   2.807
 4277SOL     OW13729   6.852   5.122   3.758
 4277SOL    HW113730   6.932   5.176   3.785
 4277SOL    HW213731   6.805   5.169   3.683
 4278SOL     OW13732   6.790   6.009   4.681
 4278SOL    HW113733   6.746   6.088   4.723
 4278SOL    HW213734   6.744   5.986   4.595
 4279SOL     OW13735   3.143   6.436   5.044
 4279SOL    HW113736   3.151   6.507   5.114
 4279SOL    HW213737   3.137   6.478   4.954
 4280SOL     OW13738   6.225   2.209   5.088
 4280SOL    HW113739   6.197   2.191   4.994
 4280SOL    HW213740   6.255   2.304   5.096
 4281SOL     OW13741   1.913   4.556   5.131
 4281SOL    HW113742   1.965   4.490   5.077
 4281SOL    HW213743   1.917   4.529   5.228
 4282SOL     OW13744   2.522   2.690   0.864
 4282SOL    HW113745   2.475   2.772   0.830
 4282SOL    HW213746   2.529   2.623   0.790
 4283SOL     OW13747   1.832   0.553   4.191
 4283SOL    HW113748   1.872   0.462   4.187
 4283SOL    HW213749   1.892   0.613   4.244
 4284SOL     OW13750   5.500   1.488   2.278
 4284SOL    HW113751   5.514   1.428   2.358
 4284SOL    HW213752   5.541   1.445   2.197
 4285SOL     OW13753   1.061   0.294   5.366
 4285SOL    HW113754   1.038   0.386   5.396
 4285SOL    HW213755   1.161   0.283   5.365
 4286SOL     OW13756   4.640   6.204   0.182
 4286SOL    HW113757   4.724   6.219   0.234
 4286SOL    HW213758   4.583   6.137   0.229
 4287SOL     OW13759   5.616   0.172   4.585
 4287SOL    HW113760   5.578   0.227   4.510
 4287SOL    HW213761   5.622   0.229   4.668
 4288SOL     OW13762   1.335   0.130   2.925
 4288SOL    HW113763   1.299   0.181   3.004
 4288SOL    HW213764   1.278   0.050   2.909
 4289SOL     OW13765   5.533   2.656   1.241
 4289SOL    HW113766   5.628   2.657   1.272
 4289SOL    HW213767   5.529   2.622   1.147
 4290SOL     OW13768   2.456   0.661   2.427
 4290SOL    HW113769   2.453   0.680   2.525
 4290SOL    HW213770   2.417   0.570   2.410
 4291SOL     OW13771   6.078   2.724   0.311
 4291SOL    HW113772   6.074   2.626   0.332
 4291SOL    HW213773   6.172   2.749   0.289
 4292SOL     OW13774   6.357   3.948   5.742
 4292SOL    HW113775   6.448   3.986   5.725
 4292SOL    HW213776   6.316   3.994   5.820
 4293SOL     OW13777   6.237   3.383   6.427
 4293SOL    HW113778   6.265   3.316   6.495
 4293SOL    HW213779   6.158   3.348   6.377
 4294SOL     OW13780   4.620   2.315   6.038
 4294SOL    HW113781   4.685   2.365   6.096
 4294SOL    HW213782   4.532   2.362   6.040
 4295SOL     OW13783   3.576   6.937   4.349
 4295SOL    HW113784   3.660   6.884   4.353
 4295SOL    HW213785   3.498   6.875   4.338
 4296SOL     OW13786   2.350   1.965   1.209
 4296SOL    HW113787   2.277   1.928   1.268
 4296SOL    HW213788   2.320   1.963   1.114
 4297SOL     OW13789   5.296   0.223   5.162
 4297SOL    HW113790   5.381   0.226   5.110
 4297SOL    HW213791   5.306   0.160   5.239
 4298SOL     OW13792   2.414   5.685   1.311
 4298SOL    HW113793   2.380   5.597   1.276
 4298SOL    HW213794   2.336   5.743   1.336
 4299SOL     OW13795   0.841   3.251   6.160
 4299SOL    HW113796   0.923   3.271   6.213
 4299SOL    HW213797   0.864   3.187   6.086
 4300SOL     OW13798   3.601   1.440   6.734
 4300SOL    HW113799   3.555   1.469   6.818
 4300SOL    HW213800   3.536   1.443   6.658
 4301SOL     OW13801   2.329   1.930   0.852
 4301SOL    HW113802   2.361   1.863   0.784
 4301SOL    HW213803   2.355   2.022   0.823
 4302SOL     OW13804   0.974   6.366   6.724
 4302SOL    HW113805   0.988   6.458   6.760
 4302SOL    HW213806   1.040   6.303   6.766
 4303SOL     OW13807   6.483   3.873   2.354
 4303SOL    HW113808   6.556   3.937   2.377
 4303SOL    HW213809   6.414   3.873   2.426
 4304SOL     OW13810   3.237   3.343   4.125
 4304SOL    HW113811   3.185   3.273   4.075
 4304SOL    HW213812   3.320   3.302   4.163
 4305SOL     OW13813   6.509   1.003   3.662
 4305SOL    HW113814   6.582   1.032   3.600
 4305SOL    HW213815   6.445   0.943   3.613
 4306SOL     OW13816   6.729   4.362   5.981
 4306SOL    HW113817   6.665   4.286   5.968
 4306SOL    HW213818   6.821   4.326   5.998
 4307SOL     OW13819   4.937   3.962   5.902
 4307SOL    HW113820   4.971   3.925   5.989
 4307SOL    HW213821   4.919   4.059   5.912
 4308SOL     OW13822   5.210   5.562   4.624
 4308SOL    HW113823   5.214   5.530   4.719
 4308SOL    HW213824   5.296   5.539   4.577
 4309SOL     OW13825   1.464   1.124   0.846
 4309SOL    HW113826   1.505   1.139   0.756
 4309SOL    HW213827   1.536   1.132   0.916
 4310SOL     OW13828   1.467   2.060   2.713
 4310SOL    HW113829   1.509   2.148   2.688
 4310SOL    HW213830   1.534   2.004   2.761
 4311SOL     OW13831   1.148   6.023   3.501
 4311SOL    HW113832   1.212   5.952   3.471
 4311SOL    HW213833   1.143   6.094   3.431
 4312SOL     OW13834   2.188   5.991   2.071
 4312SOL    HW113835   2.183   5.891   2.074
 4312SOL    HW213836   2.122   6.029   2.135
 4313SOL     OW13837   4.855   1.525   1.663
 4313SOL    HW113838   4.770   1.529   1.714
 4313SOL    HW213839   4.840   1.553   1.568
 4314SOL     OW13840   5.068   2.674   2.979
 4314SOL    HW113841   5.054   2.745   2.911
 4314SOL    HW213842   5.025   2.701   3.066
 4315SOL     OW13843   2.374   0.446   2.005
 4315SOL    HW113844   2.398   0.530   1.955
 4315SOL    HW213845   2.332   0.470   2.092
 4316SOL     OW13846   5.344   0.628   1.234
 4316SOL    HW113847   5.320   0.610   1.329
 4316SOL    HW213848   5.317   0.550   1.178
 4317SOL     OW13849   3.515   1.175   4.221
 4317SOL    HW113850   3.572   1.249   4.257
 4317SOL    HW213851   3.556   1.138   4.138
 4318SOL     OW13852   0.855   3.749   3.000
 4318SOL    HW113853   0.880   3.652   2.994
 4318SOL    HW213854   0.918   3.795   3.063
 4319SOL     OW13855   2.920   3.375   6.793
 4319SOL    HW113856   2.874   3.461   6.771
 4319SOL    HW213857   2.887   3.303   6.732
 4320SOL     OW13858   0.783   6.709   2.658
 4320SOL    HW113859   0.861   6.744   2.608
 4320SOL    HW213860   0.731   6.785   2.697
 4321SOL     OW13861   6.529   0.465   5.209
 4321SOL    HW113862   6.589   0.485   5.132
 4321SOL    HW213863   6.555   0.521   5.287
 4322SOL     OW13864   6.431   1.037   6.639
 4322SOL    HW113865   6.376   1.085   6.707
 4322SOL    HW213866   6.389   1.046   6.549
 4323SOL     OW13867   5.565   2.960   2.960
 4323SOL    HW113868   5.502   2.998   2.892
 4323SOL    HW213869   5.531   2.871   2.990
 4324SOL     OW13870   5.886   4.044   6.543
 4324SOL    HW113871   5.869   3.982   6.466
 4324SOL    HW213872   5.971   4.018   6.588
 4325SOL     OW13873   2.069   1.215   6.620
 4325SOL    HW113874   2.065   1.286   6.549
 4325SOL    HW213875   2.139   1.148   6.596
 4326SOL     OW13876   6.156   3.402   5.206
 4326SOL    HW113877   6.178   3.489   5.251
 4326SOL    HW213878   6.208   3.394   5.121
 4327SOL     OW13879   5.597   5.524   2.383
 4327SOL    HW113880   5.600   5.615   2.422
 4327SOL    HW213881   5.678   5.508   2.327
 4328SOL     OW13882   5.049   4.785   6.512
 4328SOL    HW113883   5.101   4.864   6.478
 4328SOL    HW213884   4.965   4.776   6.459
 4329SOL     OW13885   3.786   1.836   5.078
 4329SOL    HW113886   3.781   1.781   5.161
 4329SOL    HW213887   3.875   1.881   5.072
 4330SOL     OW13888   1.606   0.551   5.852
 4330SOL    HW113889   1.698   0.588   5.858
 4330SOL    HW213890   1.600   0.487   5.776
 4331SOL     OW13891   5.669   2.792   6.758
 4331SOL    HW113892   5.660   2.715   6.696
 4331SOL    HW213893   5.762   2.829   6.751
 4332SOL     OW13894   4.866   3.172   2.287
 4332SOL    HW113895   4.958   3.136   2.267
 4332SOL    HW213896   4.818   3.192   2.202
 4333SOL     OW13897   5.689   1.644   4.950
 4333SOL    HW113898   5.658   1.574   5.015
 4333SOL    HW213899   5.635   1.638   4.866
 4334SOL     OW13900   3.343   2.054   2.018
 4334SOL    HW113901   3.404   2.096   1.951
 4334SOL    HW213902   3.283   1.988   1.971
 4335SOL     OW13903   3.192   3.961   4.495
 4335SOL    HW113904   3.229   4.054   4.503
 4335SOL    HW213905   3.267   3.897   4.479
 4336SOL     OW13906   1.985   6.914   4.785
 4336SOL    HW113907   1.931   6.830   4.789
 4336SOL    HW213908   2.023   6.934   4.875
 4337SOL     OW13909   0.498   4.883   0.240
 4337SOL    HW113910   0.430   4.952   0.214
 4337SOL    HW213911   0.457   4.792   0.235
 4338SOL     OW13912   5.911   5.823   4.377
 4338SOL    HW113913   5.932   5.761   4.453
 4338SOL    HW213914   5.840   5.782   4.319
 4339SOL     OW13915   6.450   2.149   5.327
 4339SOL    HW113916   6.494   2.150   5.416
 4339SOL    HW213917   6.419   2.056   5.306
 4340SOL     OW13918   5.375   3.539   1.661
 4340SOL    HW113919   5.286   3.494   1.649
 4340SOL    HW213920   5.412   3.517   1.751
 4341SOL     OW13921   1.737   3.790   1.943
 4341SOL    HW113922   1.704   3.711   1.891
 4341SOL    HW213923   1.783   3.854   1.881
 4342SOL     OW13924   0.333   2.696   2.819
 4342SOL    HW113925   0.309   2.748   2.737
 4342SOL    HW213926   0.338   2.758   2.898
 4343SOL     OW13927   3.006   1.089   0.859
 4343SOL    HW113928   3.021   1.187   0.877
 4343SOL    HW213929   2.987   1.043   0.945
 4344SOL     OW13930   1.627   4.149   3.362
 4344SOL    HW113931   1.644   4.050   3.370
 4344SOL    HW213932   1.565   4.178   3.434
 4345SOL     OW13933   2.063   2.627   5.344
 4345SOL    HW113934   1.980   2.676   5.371
 4345SOL    HW213935   2.037   2.542   5.297
 4346SOL     OW13936   1.737   3.446   2.097
 4346SOL    HW113937   1.772   3.528   2.142
 4346SOL    HW213938   1.811   3.379   2.088
 4347SOL     OW13939   6.264   0.108   2.273
 4347SOL    HW113940   6.180   0.057   2.256
 4347SOL    HW213941   6.277   0.176   2.200
 4348SOL     OW13942   1.129   3.711   0.952
 4348SOL    HW113943   1.128   3.720   0.852
 4348SOL    HW213944   1.125   3.614   0.977
 4349SOL     OW13945   0.371   1.425   3.866
 4349SOL    HW113946   0.470   1.419   3.874
 4349SOL    HW213947   0.329   1.349   3.915
 4350SOL     OW13948   5.398   2.600   4.189
 4350SOL    HW113949   5.327   2.535   4.162
 4350SOL    HW213950   5.488   2.564   4.165
 4351SOL     OW13951   2.870   5.625   2.554
 4351SOL    HW113952   2.773   5.603   2.559
 4351SOL    HW213953   2.912   5.611   2.644
 4352SOL     OW13954   0.277   1.942   2.018
 4352SOL    HW113955   0.226   1.977   2.096
 4352SOL    HW213956   0.355   2.002   2.000
 4353SOL     OW13957   2.446   5.735   6.767
 4353SOL    HW113958   2.493   5.652   6.738
 4353SOL    HW213959   2.482   5.764   6.856
 4354SOL     OW13960   2.290   0.101   0.128
 4354SOL    HW113961   2.342   0.019   0.103
 4354SOL    HW213962   2.349   0.182   0.118
 4355SOL     OW13963   3.985   0.769   0.536
 4355SOL    HW113964   4.005   0.803   0.628
 4355SOL    HW213965   3.986   0.845   0.471
 4356SOL     OW13966   4.312   3.993   0.802
 4356SOL    HW113967   4.332   4.021   0.708
 4356SOL    HW213968   4.276   3.899   0.801
 4357SOL     OW13969   6.519   6.982   0.380
 4357SOL    HW113970   6.606   6.986   0.428
 4357SOL    HW213971   6.531   7.016   0.287
 4358SOL     OW13972   1.012   6.491   1.391
 4358SOL    HW113973   0.984   6.451   1.478
 4358SOL    HW213974   0.980   6.586   1.386
 4359SOL     OW13975   0.864   1.974   4.066
 4359SOL    HW113976   0.908   2.036   4.132
 4359SOL    HW213977   0.769   2.002   4.051
 4360SOL     OW13978   0.587   3.440   1.146
 4360SOL    HW113979   0.493   3.467   1.167
 4360SOL    HW213980   0.587   3.375   1.070
 4361SOL     OW13981   5.000   2.215   2.186
 4361SOL    HW113982   4.921   2.233   2.243
 4361SOL    HW213983   5.062   2.293   2.187
 4362SOL     OW13984   6.317   4.401   5.267
 4362SOL    HW113985   6.310   4.389   5.168
 4362SOL    HW213986   6.407   4.371   5.298
 4363SOL     OW13987   5.031   2.847   5.325
 4363SOL    HW113988   5.123   2.812   5.342
 4363SOL    HW213989   4.964   2.789   5.372
 4364SOL     OW13990   3.361   4.189   4.474
 4364SOL    HW113991   3.458   4.184   4.500
 4364SOL    HW213992   3.353   4.189   4.375
 4365SOL     OW13993   4.321   2.168   2.669
 4365SOL    HW113994   4.231   2.159   2.626
 4365SOL    HW213995   4.385   2.208   2.604
 4366SOL     OW13996   6.106   5.811   1.320
 4366SOL    HW113997   6.120   5.860   1.234
 4366SOL    HW213998   6.124   5.714   1.307
 4367SOL     OW13999   1.186   6.117   5.768
 4367SOL    HW114000   1.265   6.089   5.821
 4367SOL    HW214001   1.196   6.089   5.673
 4368SOL     OW14002   5.361   4.297   1.757
 4368SOL    HW114003   5.330   4.244   1.836
 4368SOL    HW214004   5.461   4.295   1.752
 4369SOL     OW14005   4.388   5.162   2.324
 4369SOL    HW114006   4.403   5.065   2.308
 4369SOL    HW214007   4.383   5.180   2.423
 4370SOL     OW14008   5.787   4.737   4.033
 4370SOL    HW114009   5.706   4.792   4.054
 4370SOL    HW214010   5.815   4.687   4.115
 4371SOL     OW14011   6.101   1.003   2.158
 4371SOL    HW114012   6.110   1.065   2.237
 4371SOL    HW214013   6.065   1.054   2.080
 4372SOL     OW14014   4.536   1.892   3.509
 4372SOL    HW114015   4.468   1.856   3.573
 4372SOL    HW214016   4.628   1.879   3.547
 4373SOL     OW14017   6.483   1.819   6.452
 4373SOL    HW114018   6.441   1.756   6.387
 4373SOL    HW214019   6.424   1.830   6.532
 4374SOL     OW14020   1.374   1.891   2.158
 4374SOL    HW114021   1.321   1.951   2.218
 4374SOL    HW214022   1.399   1.941   2.075
 4375SOL     OW14023   2.776   6.205   4.623
 4375SOL    HW114024   2.841   6.131   4.608
 4375SOL    HW214025   2.683   6.172   4.611
 4376SOL     OW14026   6.719   0.219   3.022
 4376SOL    HW114027   6.782   0.212   3.100
 4376SOL    HW214028   6.625   0.216   3.056
 4377SOL     OW14029   6.109   4.488   7.020
 4377SOL    HW114030   6.058   4.486   6.934
 4377SOL    HW214031   6.057   4.438   0.068
 4378SOL     OW14032   2.148   0.462   3.657
 4378SOL    HW114033   2.156   0.420   3.567
 4378SOL    HW214034   2.052   0.459   3.687
 4379SOL     OW14035   2.885   1.428   4.748
 4379SOL    HW114036   2.933   1.363   4.690
 4379SOL    HW214037   2.931   1.435   4.836
 4380SOL     OW14038   0.954   1.650   1.540
 4380SOL    HW114039   0.970   1.551   1.533
 4380SOL    HW214040   1.036   1.694   1.578
 4381SOL     OW14041   2.014   5.975   5.509
 4381SOL    HW114042   2.005   5.925   5.423
 4381SOL    HW214043   1.962   5.929   5.580
 4382SOL     OW14044   6.960   3.482   4.890
 4382SOL    HW114045   6.948   3.525   4.979
 4382SOL    HW214046   6.882   3.503   4.832
 4383SOL     OW14047   5.145   2.300   6.209
 4383SOL    HW114048   5.207   2.234   6.166
 4383SOL    HW214049   5.092   2.254   6.280
 4384SOL     OW14050   6.881   6.289   3.156
 4384SOL    HW114051   6.933   6.223   3.209
 4384SOL    HW214052   6.864   6.370   3.212
 4385SOL     OW14053   5.846   1.758   4.703
 4385SOL    HW114054   5.889   1.837   4.746
 4385SOL    HW214055   5.822   1.691   4.773
 4386SOL     OW14056   1.239   3.276   5.229
 4386SOL    HW114057   1.168   3.208   5.209
 4386SOL    HW214058   1.326   3.247   5.188
 4387SOL     OW14059   0.169   2.526   0.449
 4387SOL    HW114060   0.225   2.443   0.453
 4387SOL    HW214061   0.114   2.525   0.365
 4388SOL     OW14062   4.656   2.082   6.294
 4388SOL    HW114063   4.625   2.003   6.347
 4388SOL    HW214064   4.637   2.066   6.197
 4389SOL     OW14065   6.995   4.037   1.477
 4389SOL    HW114066   6.927   4.040   1.551
 4389SOL    HW214067   6.987   3.951   1.428
 4390SOL     OW14068   5.776   0.938   1.261
 4390SOL    HW114069   5.827   0.900   1.338
 4390SOL    HW214070   5.686   0.893   1.256
 4391SOL     OW14071   1.875   5.804   6.253
 4391SOL    HW114072   1.870   5.727   6.318
 4391SOL    HW214073   1.905   5.886   6.302
 4392SOL     OW14074   1.113   1.703   4.260
 4392SOL    HW114075   1.116   1.739   4.167
 4392SOL    HW214076   1.159   1.615   4.263
 4393SOL     OW14077   4.932   6.705   1.783
 4393SOL    HW114078   4.967   6.798   1.783
 4393SOL    HW214079   5.002   6.643   1.745
 4394SOL     OW14080   1.771   0.269   1.254
 4394SOL    HW114081   1.825   0.235   1.176
 4394SOL    HW214082   1.815   0.241   1.339
 4395SOL     OW14083   2.458   5.711   1.018
 4395SOL    HW114084   2.548   5.674   0.995
 4395SOL    HW214085   2.431   5.679   1.109
 4396SOL     OW14086   2.241   0.746   3.512
 4396SOL    HW114087   2.288   0.670   3.468
 4396SOL    HW214088   2.153   0.714   3.548
 4397SOL     OW14089   3.084   1.831   3.912
 4397SOL    HW114090   3.018   1.901   3.885
 4397SOL    HW214091   3.037   1.755   3.957
 4398SOL     OW14092   2.287   3.018   6.239
 4398SOL    HW114093   2.215   2.958   6.204
 4398SOL    HW214094   2.307   3.088   6.170
 4399SOL     OW14095   2.833   6.395   2.301
 4399SOL    HW114096   2.930   6.385   2.323
 4399SOL    HW214097   2.799   6.310   2.260
 4400SOL     OW14098   1.705   6.063   4.707
 4400SOL    HW114099   1.678   5.988   4.646
 4400SOL    HW214100   1.802   6.053   4.730
 4401SOL     OW14101   3.211   6.571   5.568
 4401SOL    HW114102   3.153   6.494   5.594
 4401SOL    HW214103   3.153   6.649   5.542
 4402SOL     OW14104   0.924   0.347   3.360
 4402SOL    HW114105   0.858   0.297   3.416
 4402SOL    HW214106   1.010   0.296   3.356
 4403SOL     OW14107   1.455   4.935   1.143
 4403SOL    HW114108   1.356   4.930   1.127
 4403SOL    HW214109   1.502   4.878   1.076
 4404SOL     OW14110   0.824   5.693   6.131
 4404SOL    HW114111   0.900   5.659   6.187
 4404SOL    HW214112   0.808   5.631   6.055
 4405SOL     OW14113   1.932   4.366   3.703
 4405SOL    HW114114   1.935   4.268   3.721
 4405SOL    HW214115   1.903   4.381   3.608
 4406SOL     OW14116   5.877   3.634   1.931
 4406SOL    HW114117   5.779   3.646   1.915
 4406SOL    HW214118   5.890   3.570   2.007
 4407SOL     OW14119   7.014   6.294   2.351
 4407SOL    HW114120   6.986   6.262   2.441
 4407SOL    HW214121   0.092   6.302   2.347
 4408SOL     OW14122   4.326   0.312   0.864
 4408SOL    HW114123   4.316   0.223   0.820
 4408SOL    HW214124   4.398   0.364   0.818
 4409SOL     OW14125   3.843   0.858   2.244
 4409SOL    HW114126   3.810   0.935   2.298
 4409SOL    HW214127   3.813   0.772   2.286
 4410SOL     OW14128   1.031   5.903   1.079
 4410SOL    HW114129   1.065   5.811   1.101
 4410SOL    HW214130   0.960   5.896   1.009
 4411SOL     OW14131   3.079   4.504   5.677
 4411SOL    HW114132   3.160   4.555   5.707
 4411SOL    HW214133   3.108   4.419   5.633
 4412SOL     OW14134   4.519   6.422   2.979
 4412SOL    HW114135   4.580   6.481   3.033
 4412SOL    HW214136   4.430   6.418   3.024
 4413SOL     OW14137   3.580   0.082   4.114
 4413SOL    HW114138   3.585   0.014   4.187
 4413SOL    HW214139   3.484   0.101   4.093
 4414SOL     OW14140   4.774   4.232   1.819
 4414SOL    HW114141   4.703   4.272   1.876
 4414SOL    HW214142   4.733   4.171   1.751
 4415SOL     OW14143   3.233   3.463   1.654
 4415SOL    HW114144   3.258   3.373   1.688
 4415SOL    HW214145   3.313   3.506   1.612
 4416SOL     OW14146   4.159   2.277   3.558
 4416SOL    HW114147   4.159   2.297   3.656
 4416SOL    HW214148   4.066   2.287   3.522
 4417SOL     OW14149   0.585   3.693   3.416
 4417SOL    HW114150   0.611   3.745   3.498
 4417SOL    HW214151   0.536   3.610   3.443
 4418SOL     OW14152   6.306   0.052   0.857
 4418SOL    HW114153   6.359   7.001   0.812
 4418SOL    HW214154   6.335   0.141   0.821
 4419SOL     OW14155   6.542   5.979   6.664
 4419SOL    HW114156   6.589   6.052   6.613
 4419SOL    HW214157   6.445   5.978   6.639
 4420SOL     OW14158   3.715   2.149   0.809
 4420SOL    HW114159   3.674   2.071   0.762
 4420SOL    HW214160   3.642   2.207   0.846
 4421SOL     OW14161   1.792   2.412   4.600
 4421SOL    HW114162   1.832   2.437   4.512
 4421SOL    HW214163   1.698   2.445   4.604
 4422SOL     OW14164   0.122   4.570   0.117
 4422SOL    HW114165   0.129   4.477   0.153
 4422SOL    HW214166   0.089   4.567   0.022
 4423SOL     OW14167   5.450   3.906   5.666
 4423SOL    HW114168   5.374   3.970   5.651
 4423SOL    HW214169   5.522   3.923   5.599
 4424SOL     OW14170   4.973   5.946   4.357
 4424SOL    HW114171   4.888   5.998   4.364
 4424SOL    HW214172   4.963   5.859   4.405
 4425SOL     OW14173   1.738   5.659   1.686
 4425SOL    HW114174   1.784   5.668   1.598
 4425SOL    HW214175   1.702   5.747   1.714
 4426SOL     OW14176   1.347   0.229   4.054
 4426SOL    HW114177   1.256   0.204   4.086
 4426SOL    HW214178   1.370   0.321   4.085
 4427SOL     OW14179   3.557   5.807   3.204
 4427SOL    HW114180   3.602   5.730   3.158
 4427SOL    HW214181   3.618   5.885   3.205
 4428SOL     OW14182   5.495   0.889   3.796
 4428SOL    HW114183   5.518   0.865   3.701
 4428SOL    HW214184   5.436   0.818   3.835
 4429SOL     OW14185   2.752   6.096   3.546
 4429SOL    HW114186   2.774   6.193   3.558
 4429SOL    HW214187   2.836   6.043   3.541
 4430SOL     OW14188   5.194   4.637   4.938
 4430SOL    HW114189   5.159   4.641   5.032
 4430SOL    HW214190   5.285   4.679   4.934
 4431SOL     OW14191   3.331   0.701   3.950
 4431SOL    HW114192   3.244   0.663   3.918
 4431SOL    HW214193   3.406   0.640   3.925
 4432SOL     OW14194   1.523   3.903   6.161
 4432SOL    HW114195   1.486   3.919   6.252
 4432SOL    HW214196   1.609   3.953   6.151
 4433SOL     OW14197   0.978   1.182   4.991
 4433SOL    HW114198   1.041   1.157   5.065
 4433SOL    HW214199   0.930   1.266   5.015
 4434SOL     OW14200   6.707   0.596   1.738
 4434SOL    HW114201   6.758   0.682   1.740
 4434SOL    HW214202   6.635   0.598   1.807
 4435SOL     OW14203   2.778   4.181   0.660
 4435SOL    HW114204   2.685   4.201   0.691
 4435SOL    HW214205   2.782   4.186   0.561
 4436SOL     OW14206   4.567   1.758   1.566
 4436SOL    HW114207   4.523   1.846   1.550
 4436SOL    HW214208   4.665   1.771   1.580
 4437SOL     OW14209   6.946   4.060   1.860
 4437SOL    HW114210   6.887   4.064   1.780
 4437SOL    HW214211   6.965   3.965   1.883
 4438SOL     OW14212   3.773   0.386   6.066
 4438SOL    HW114213   3.782   0.478   6.105
 4438SOL    HW214214   3.863   0.349   6.046
 4439SOL     OW14215   2.314   6.533   2.222
 4439SOL    HW114216   2.248   6.600   2.187
 4439SOL    HW214217   2.377   6.506   2.149
 4440SOL     OW14218   2.058   4.948   0.002
 4440SOL    HW114219   1.976   4.997   0.032
 4440SOL    HW214220   2.049   4.922   6.928
 4441SOL     OW14221   0.517   1.323   0.051
 4441SOL    HW114222   0.496   1.232   0.015
 4441SOL    HW214223   0.433   1.367   0.082
 4442SOL     OW14224   1.814   4.374   6.491
 4442SOL    HW114225   1.876   4.356   6.567
 4442SOL    HW214226   1.720   4.371   6.524
 4443SOL     OW14227   0.327   5.053   6.139
 4443SOL    HW114228   0.251   5.048   6.205
 4443SOL    HW214229   0.403   4.997   6.172
 4444SOL     OW14230   5.397   3.916   6.903
 4444SOL    HW114231   5.323   3.893   6.839
 4444SOL    HW214232   5.367   3.989   6.964
 4445SOL     OW14233   0.281   5.993   0.312
 4445SOL    HW114234   0.351   5.991   0.241
 4445SOL    HW214235   0.305   5.927   0.384
 4446SOL     OW14236   5.247   0.983   0.725
 4446SOL    HW114237   5.164   0.950   0.770
 4446SOL    HW214238   5.308   1.024   0.793
 4447SOL     OW14239   4.957   5.380   5.579
 4447SOL    HW114240   4.918   5.297   5.618
 4447SOL    HW214241   5.049   5.394   5.615
 4448SOL     OW14242   3.331   0.111   1.617
 4448SOL    HW114243   3.255   0.146   1.562
 4448SOL    HW214244   3.357   0.180   1.685
 4449SOL     OW14245   3.615   1.511   6.275
 4449SOL    HW114246   3.691   1.478   6.330
 4449SOL    HW214247   3.533   1.458   6.296
 4450SOL     OW14248   3.340   0.385   0.580
 4450SOL    HW114249   3.383   0.355   0.495
 4450SOL    HW214250   3.259   0.329   0.599
 4451SOL     OW14251   4.768   4.163   3.712
 4451SOL    HW114252   4.859   4.191   3.681
 4451SOL    HW214253   4.700   4.197   3.648
 4452SOL     OW14254   5.109   6.335   4.738
 4452SOL    HW114255   5.135   6.311   4.644
 4452SOL    HW214256   5.025   6.287   4.762
 4453SOL     OW14257   0.389   3.550   0.948
 4453SOL    HW114258   0.396   3.588   0.856
 4453SOL    HW214259   0.421   3.618   1.014
 4454SOL     OW14260   0.969   2.310   0.550
 4454SOL    HW114261   0.966   2.398   0.504
 4454SOL    HW214262   0.888   2.257   0.527
 4455SOL     OW14263   6.973   6.352   5.195
 4455SOL    HW114264   0.024   6.375   5.132
 4455SOL    HW214265   7.011   6.305   5.274
 4456SOL     OW14266   1.918   6.766   4.229
 4456SOL    HW114267   1.928   6.724   4.139
 4456SOL    HW214268   1.829   6.811   4.236
 4457SOL     OW14269   0.915   2.127   5.031
 4457SOL    HW114270   0.844   2.085   5.088
 4457SOL    HW214271   0.924   2.075   4.946
 4458SOL     OW14272   1.956   3.749   0.504
 4458SOL    HW114273   1.992   3.840   0.481
 4458SOL    HW214274   1.958   3.692   0.422
 4459SOL     OW14275   1.343   2.655   3.811
 4459SOL    HW114276   1.323   2.720   3.737
 4459SOL    HW214277   1.402   2.582   3.775
 4460SOL     OW14278   0.209   3.564   4.225
 4460SOL    HW114279   0.143   3.609   4.164
 4460SOL    HW214280   0.195   3.597   4.319
 4461SOL     OW14281   2.461   0.800   1.300
 4461SOL    HW114282   2.477   0.709   1.262
 4461SOL    HW214283   2.395   0.848   1.243
 4462SOL     OW14284   5.827   4.994   2.357
 4462SOL    HW114285   5.829   5.012   2.455
 4462SOL    HW214286   5.735   5.012   2.322
 4463SOL     OW14287   6.102   2.173   0.821
 4463SOL    HW114288   6.118   2.248   0.756
 4463SOL    HW214289   6.008   2.141   0.813
 4464SOL     OW14290   0.728   5.843   0.049
 4464SOL    HW114291   0.810   5.833   7.014
 4464SOL    HW214292   0.716   5.762   0.106
 4465SOL     OW14293   1.875   5.852   0.847
 4465SOL    HW114294   1.974   5.860   0.835
 4465SOL    HW214295   1.846   5.909   0.924
 4466SOL     OW14296   1.849   1.895   3.304
 4466SOL    HW114297   1.929   1.955   3.307
 4466SOL    HW214298   1.853   1.839   3.221
 4467SOL     OW14299   3.376   5.981   3.307
 4467SOL    HW114300   3.373   5.888   3.271
 4467SOL    HW214301   3.352   6.045   3.235
 4468SOL     OW14302   0.977   3.683   1.737
 4468SOL    HW114303   0.900   3.637   1.693
 4468SOL    HW214304   1.037   3.614   1.780
 4469SOL     OW14305   3.027   6.398   0.904
 4469SOL    HW114306   3.034   6.299   0.916
 4469SOL    HW214307   3.038   6.443   0.993
 4470SOL     OW14308   1.361   0.448   2.211
 4470SOL    HW114309   1.424   0.501   2.154
 4470SOL    HW214310   1.268   0.482   2.200
 4471SOL     OW14311   1.667   1.670   6.252
 4471SOL    HW114312   1.652   1.767   6.235
 4471SOL    HW214313   1.614   1.616   6.186
 4472SOL     OW14314   1.772   3.068   1.297
 4472SOL    HW114315   1.870   3.087   1.301
 4472SOL    HW214316   1.733   3.072   1.389
 4473SOL     OW14317   0.573   3.357   4.632
 4473SOL    HW114318   0.573   3.456   4.618
 4473SOL    HW214319   0.657   3.318   4.593
 4474SOL     OW14320   2.651   6.692   1.447
 4474SOL    HW114321   2.681   6.698   1.543
 4474SOL    HW214322   2.599   6.607   1.434
 4475SOL     OW14323   0.650   4.012   1.464
 4475SOL    HW114324   0.673   4.042   1.557
 4475SOL    HW214325   0.652   3.912   1.461
 4476SOL     OW14326   4.542   1.359   3.935
 4476SOL    HW114327   4.627   1.413   3.937
 4476SOL    HW214328   4.534   1.307   4.020
 4477SOL     OW14329   1.939   0.588   6.113
 4477SOL    HW114330   1.972   0.680   6.093
 4477SOL    HW214331   1.955   0.529   6.033
 4478SOL     OW14332   1.544   0.730   0.207
 4478SOL    HW114333   1.552   0.717   0.108
 4478SOL    HW214334   1.449   0.751   0.230
 4479SOL     OW14335   1.511   3.145   0.915
 4479SOL    HW114336   1.529   3.050   0.941
 4479SOL    HW214337   1.419   3.153   0.876
 4480SOL     OW14338   0.554   5.814   4.028
 4480SOL    HW114339   0.601   5.745   3.974
 4480SOL    HW214340   0.622   5.877   4.067
 4481SOL     OW14341   2.618   4.338   6.165
 4481SOL    HW114342   2.535   4.286   6.186
 4481SOL    HW214343   2.608   4.380   6.075
 4482SOL     OW14344   2.874   5.561   6.620
 4482SOL    HW114345   2.956   5.520   6.658
 4482SOL    HW214346   2.829   5.495   6.559
 4483SOL     OW14347   0.396   3.479   1.415
 4483SOL    HW114348   0.370   3.382   1.406
 4483SOL    HW214349   0.446   3.492   1.501
 4484SOL     OW14350   2.705   2.742   0.013
 4484SOL    HW114351   2.774   2.725   0.084
 4484SOL    HW214352   2.627   2.680   0.027
 4485SOL     OW14353   5.560   2.699   5.047
 4485SOL    HW114354   5.474   2.749   5.039
 4485SOL    HW214355   5.562   2.626   4.978
 4486SOL     OW14356   4.463   5.034   5.462
 4486SOL    HW114357   4.553   5.077   5.453
 4486SOL    HW214358   4.403   5.065   5.388
 4487SOL     OW14359   1.270   2.661   0.196
 4487SOL    HW114360   1.233   2.662   0.289
 4487SOL    HW214361   1.307   2.751   0.174
 4488SOL     OW14362   0.079   3.733   4.011
 4488SOL    HW114363   0.034   3.790   4.080
 4488SOL    HW214364   0.013   3.706   3.941
 4489SOL     OW14365   4.066   5.349   5.460
 4489SOL    HW114366   4.071   5.384   5.366
 4489SOL    HW214367   4.158   5.331   5.494
 4490SOL     OW14368   5.109   1.548   0.883
 4490SOL    HW114369   5.126   1.615   0.812
 4490SOL    HW214370   5.104   1.594   0.972
 4491SOL     OW14371   1.036   2.728   3.044
 4491SOL    HW114372   1.067   2.648   2.993
 4491SOL    HW214373   1.005   2.798   2.980
 4492SOL     OW14374   5.327   0.793   1.522
 4492SOL    HW114375   5.384   0.821   1.444
 4492SOL    HW214376   5.380   0.731   1.580
 4493SOL     OW14377   4.471   0.973   4.470
 4493SOL    HW114378   4.449   1.064   4.436
 4493SOL    HW214379   4.423   0.957   4.557
 4494SOL     OW14380   0.282   0.640   0.852
 4494SOL    HW114381   0.282   0.635   0.752
 4494SOL    HW214382   0.355   0.582   0.888
 4495SOL     OW14383   4.761   5.825   1.753
 4495SOL    HW114384   4.860   5.825   1.742
 4495SOL    HW214385   4.730   5.916   1.780
 4496SOL     OW14386   3.805   5.997   6.472
 4496SOL    HW114387   3.728   6.058   6.489
 4496SOL    HW214388   3.819   5.939   6.552
 4497SOL     OW14389   4.083   1.795   6.170
 4497SOL    HW114390   4.119   1.888   6.159
 4497SOL    HW214391   4.125   1.753   6.251
 4498SOL     OW14392   0.918   5.859   5.374
 4498SOL    HW114393   0.898   5.933   5.438
 4498SOL    HW214394   0.919   5.772   5.423
 4499SOL     OW14395   5.747   1.997   2.081
 4499SOL    HW114396   5.708   1.911   2.113
 4499SOL    HW214397   5.795   1.983   1.995
 4500SOL     OW14398   3.391   5.851   6.923
 4500SOL    HW114399   3.356   5.877   7.014
 4500SOL    HW214400   3.384   5.929   6.862
 4501SOL     OW14401   5.328   0.871   2.620
 4501SOL    HW114402   5.295   0.777   2.614
 4501SOL    HW214403   5.388   0.880   2.700
 4502SOL     OW14404   0.534   3.539   6.871
 4502SOL    HW114405   0.452   3.574   6.914
 4502SOL    HW214406   0.538   3.570   6.776
 4503SOL     OW14407   3.118   6.978   2.488
 4503SOL    HW114408   3.034   6.986   2.434
 4503SOL    HW214409   3.188   6.931   2.433
 4504SOL     OW14410   0.355   2.011   3.199
 4504SOL    HW114411   0.407   2.091   3.168
 4504SOL    HW214412   0.290   2.039   3.270
 4505SOL     OW14413   6.244   3.970   3.046
 4505SOL    HW114414   6.213   3.955   3.140
 4505SOL    HW214415   6.275   4.064   3.036
 4506SOL     OW14416   4.646   2.763   4.773
 4506SOL    HW114417   4.580   2.837   4.762
 4506SOL    HW214418   4.710   2.786   4.846
 4507SOL     OW14419   6.248   2.747   3.493
 4507SOL    HW114420   6.275   2.837   3.458
 4507SOL    HW214421   6.206   2.757   3.583
 4508SOL     OW14422   0.379   5.532   0.733
 4508SOL    HW114423   0.450   5.502   0.669
 4508SOL    HW214424   0.290   5.529   0.688
 4509SOL     OW14425   4.793   2.714   2.479
 4509SOL    HW114426   4.720   2.651   2.505
 4509SOL    HW214427   4.783   2.738   2.382
 4510SOL     OW14428   4.461   1.435   4.580
 4510SOL    HW114429   4.560   1.443   4.594
 4510SOL    HW214430   4.441   1.348   4.535
 4511SOL     OW14431   0.658   4.302   0.779
 4511SOL    HW114432   0.720   4.299   0.858
 4511SOL    HW214433   0.566   4.278   0.809
 4512SOL     OW14434   2.995   2.658   6.083
 4512SOL    HW114435   2.973   2.581   6.143
 4512SOL    HW214436   3.067   2.713   6.125
 4513SOL     OW14437   1.429   6.450   0.567
 4513SOL    HW114438   1.417   6.380   0.496
 4513SOL    HW214439   1.472   6.531   0.527
 4514SOL     OW14440   3.236   3.607   0.001
 4514SOL    HW114441   3.283   3.612   6.934
 4514SOL    HW214442   3.150   3.657   7.017
 4515SOL     OW14443   4.181   0.376   6.244
 4515SOL    HW114444   4.193   0.469   6.277
 4515SOL    HW214445   4.179   0.313   6.322
 4516SOL     OW14446   3.735   1.609   4.922
 4516SOL    HW114447   3.794   1.554   4.862
 4516SOL    HW214448   3.776   1.699   4.935
 4517SOL     OW14449   3.723   0.607   5.671
 4517SOL    HW114450   3.736   0.547   5.592
 4517SOL    HW214451   3.691   0.552   5.748
 4518SOL     OW14452   1.346   0.426   1.023
 4518SOL    HW114453   1.440   0.421   0.990
 4518SOL    HW214454   1.340   0.386   1.114
 4519SOL     OW14455   5.157   6.318   6.477
 4519SOL    HW114456   5.166   6.273   6.566
 4519SOL    HW214457   5.245   6.353   6.448
 4520SOL     OW14458   4.698   6.882   5.103
 4520SOL    HW114459   4.611   6.841   5.076
 4520SOL    HW214460   4.740   6.826   5.175
 4521SOL     OW14461   4.468   2.281   4.551
 4521SOL    HW114462   4.475   2.202   4.612
 4521SOL    HW214463   4.487   2.364   4.603
 4522SOL     OW14464   5.073   3.997   3.404
 4522SOL    HW114465   4.973   3.988   3.396
 4522SOL    HW214466   5.112   4.014   3.314
 4523SOL     OW14467   0.245   3.290   6.181
 4523SOL    HW114468   0.293   3.216   6.229
 4523SOL    HW214469   0.310   3.359   6.151
 4524SOL     OW14470   0.791   3.167   2.902
 4524SOL    HW114471   0.764   3.213   2.818
 4524SOL    HW214472   0.716   3.109   2.934
 4525SOL     OW14473   3.055   1.616   5.459
 4525SOL    HW114474   3.074   1.535   5.404
 4525SOL    HW214475   3.053   1.696   5.399
 4526SOL     OW14476   0.255   6.801   5.764
 4526SOL    HW114477   0.328   6.856   5.724
 4526SOL    HW214478   0.288   6.708   5.780
 4527SOL     OW14479   6.634   0.418   2.853
 4527SOL    HW114480   6.593   0.484   2.916
 4527SOL    HW214481   6.709   0.371   2.900
 4528SOL     OW14482   4.071   0.816   5.164
 4528SOL    HW114483   4.087   0.749   5.091
 4528SOL    HW214484   4.000   0.782   5.226
 4529SOL     OW14485   2.510   1.228   5.287
 4529SOL    HW114486   2.571   1.299   5.252
 4529SOL    HW214487   2.443   1.269   5.349
 4530SOL     OW14488   3.339   5.526   5.474
 4530SOL    HW114489   3.420   5.569   5.514
 4530SOL    HW214490   3.343   5.427   5.490
 4531SOL     OW14491   0.925   4.886   5.974
 4531SOL    HW114492   1.024   4.891   5.962
 4531SOL    HW214493   0.884   4.843   5.894
 4532SOL     OW14494   5.988   0.637   2.812
 4532SOL    HW114495   5.900   0.626   2.858
 4532SOL    HW214496   6.060   0.597   2.869
 4533SOL     OW14497   3.112   0.291   2.271
 4533SOL    HW114498   3.044   0.271   2.201
 4533SOL    HW214499   3.066   0.303   2.359
 4534SOL     OW14500   4.361   1.805   4.133
 4534SOL    HW114501   4.305   1.795   4.216
 4534SOL    HW214502   4.404   1.896   4.133
 4535SOL     OW14503   2.551   1.794   1.006
 4535SOL    HW114504   2.454   1.811   1.025
 4535SOL    HW214505   2.569   1.696   1.008
 4536SOL     OW14506   2.563   1.291   5.932
 4536SOL    HW114507   2.558   1.218   6.000
 4536SOL    HW214508   2.649   1.285   5.881
 4537SOL     OW14509   3.601   2.869   3.773
 4537SOL    HW114510   3.586   2.960   3.812
 4537SOL    HW214511   3.555   2.800   3.829
 4538SOL     OW14512   0.170   2.085   0.630
 4538SOL    HW114513   0.238   2.017   0.660
 4538SOL    HW214514   0.196   2.122   0.541
 4539SOL     OW14515   1.405   6.041   5.030
 4539SOL    HW114516   1.356   5.988   4.961
 4539SOL    HW214517   1.391   5.999   5.120
 4540SOL     OW14518   0.553   0.488   7.022
 4540SOL    HW114519   0.454   0.497   0.003
 4540SOL    HW214520   0.587   0.524   6.935
 4541SOL     OW14521   4.515   2.901   5.864
 4541SOL    HW114522   4.568   2.819   5.840
 4541SOL    HW214523   4.578   2.977   5.882
 4542SOL     OW14524   6.646   2.321   1.255
 4542SOL    HW114525   6.713   2.390   1.230
 4542SOL    HW214526   6.692   2.233   1.268
 4543SOL     OW14527   3.634   2.237   0.171
 4543SOL    HW114528   3.630   2.185   0.256
 4543SOL    HW214529   3.613   2.177   0.094
 4544SOL     OW14530   5.554   6.113   0.687
 4544SOL    HW114531   5.557   6.030   0.631
 4544SOL    HW214532   5.631   6.172   0.663
 4545SOL     OW14533   2.023   3.192   5.408
 4545SOL    HW114534   2.039   3.105   5.361
 4545SOL    HW214535   2.097   3.255   5.385
 4546SOL     OW14536   3.363   1.476   6.579
 4546SOL    HW114537   3.411   1.457   6.494
 4546SOL    HW214538   3.266   1.493   6.560
 4547SOL     OW14539   6.630   0.152   0.163
 4547SOL    HW114540   6.672   0.080   0.108
 4547SOL    HW214541   6.689   0.175   0.240
 4548SOL     OW14542   2.263   2.782   2.565
 4548SOL    HW114543   2.237   2.695   2.521
 4548SOL    HW214544   2.298   2.763   2.657
 4549SOL     OW14545   5.856   3.661   3.920
 4549SOL    HW114546   5.885   3.747   3.878
 4549SOL    HW214547   5.836   3.676   4.017
 4550SOL     OW14548   1.189   4.084   3.138
 4550SOL    HW114549   1.113   4.103   3.076
 4550SOL    HW214550   1.170   4.125   3.227
 4551SOL     OW14551   1.025   3.613   4.565
 4551SOL    HW114552   1.046   3.540   4.500
 4551SOL    HW214553   1.108   3.639   4.614
 4552SOL     OW14554   5.675   1.238   1.511
 4552SOL    HW114555   5.660   1.160   1.572
 4552SOL    HW214556   5.739   1.302   1.553
 4553SOL     OW14557   5.994   5.398   6.331
 4553SOL    HW114558   5.963   5.353   6.415
 4553SOL    HW214559   5.968   5.344   6.252
 4554SOL     OW14560   0.138   5.951   2.821
 4554SOL    HW114561   0.165   6.046   2.804
 4554SOL    HW214562   0.177   5.920   2.908
 4555SOL     OW14563   1.162   1.163   6.510
 4555SOL    HW114564   1.225   1.128   6.580
 4555SOL    HW214565   1.113   1.243   6.545
 4556SOL     OW14566   5.881   4.398   5.957
 4556SOL    HW114567   5.964   4.451   5.974
 4556SOL    HW214568   5.862   4.340   6.036
 4557SOL     OW14569   6.375   4.775   2.640
 4557SOL    HW114570   6.287   4.743   2.675
 4557SOL    HW214571   6.438   4.789   2.716
 4558SOL     OW14572   6.906   3.335   5.350
 4558SOL    HW114573   6.959   3.288   5.421
 4558SOL    HW214574   6.942   3.310   5.260
 4559SOL     OW14575   0.061   2.455   2.442
 4559SOL    HW114576   0.083   2.535   2.388
 4559SOL    HW214577   0.124   2.449   2.520
 4560SOL     OW14578   5.683   5.002   2.806
 4560SOL    HW114579   5.775   4.971   2.833
 4560SOL    HW214580   5.631   5.025   2.888
 4561SOL     OW14581   3.800   2.070   4.400
 4561SOL    HW114582   3.723   2.078   4.464
 4561SOL    HW214583   3.771   2.018   4.320
 4562SOL     OW14584   2.609   1.541   0.968
 4562SOL    HW114585   2.626   1.442   0.976
 4562SOL    HW214586   2.601   1.566   0.872
 4563SOL     OW14587   0.407   3.844   1.716
 4563SOL    HW114588   0.502   3.829   1.743
 4563SOL    HW214589   0.376   3.932   1.752
 4564SOL     OW14590   0.493   3.814   2.191
 4564SOL    HW114591   0.504   3.862   2.278
 4564SOL    HW214592   0.537   3.725   2.197
 4565SOL     OW14593   1.651   6.030   5.749
 4565SOL    HW114594   1.616   5.941   5.721
 4565SOL    HW214595   1.713   6.018   5.827
 4566SOL     OW14596   5.808   4.455   1.946
 4566SOL    HW114597   5.752   4.496   2.018
 4566SOL    HW214598   5.870   4.387   1.987
 4567SOL     OW14599   0.221   0.487   6.489
 4567SOL    HW114600   0.275   0.571   6.496
 4567SOL    HW214601   0.282   0.409   6.479
 4568SOL     OW14602   1.130   5.555   3.247
 4568SOL    HW114603   1.092   5.647   3.232
 4568SOL    HW214604   1.153   5.544   3.343
 4569SOL     OW14605   2.321   0.924   3.326
 4569SOL    HW114606   2.269   0.860   3.381
 4569SOL    HW214607   2.411   0.939   3.367
 4570SOL     OW14608   5.581   5.585   1.923
 4570SOL    HW114609   5.586   5.655   1.852
 4570SOL    HW214610   5.507   5.607   1.987
 4571SOL     OW14611   2.879   3.485   6.124
 4571SOL    HW114612   2.971   3.447   6.118
 4571SOL    HW214613   2.844   3.504   6.033
 4572SOL     OW14614   2.862   2.956   1.619
 4572SOL    HW114615   2.932   2.995   1.678
 4572SOL    HW214616   2.816   2.881   1.668
 4573SOL     OW14617   1.780   6.056   1.509
 4573SOL    HW114618   1.821   6.107   1.584
 4573SOL    HW214619   1.681   6.049   1.523
 4574SOL     OW14620   6.206   1.498   0.581
 4574SOL    HW114621   6.259   1.582   0.584
 4574SOL    HW214622   6.243   1.438   0.510
 4575SOL     OW14623   6.754   6.593   4.680
 4575SOL    HW114624   6.699   6.550   4.609
 4575SOL    HW214625   6.764   6.531   4.757
 4576SOL     OW14626   2.859   5.140   4.859
 4576SOL    HW114627   2.834   5.076   4.787
 4576SOL    HW214628   2.858   5.092   4.947
 4577SOL     OW14629   1.955   1.379   2.638
 4577SOL    HW114630   1.862   1.405   2.664
 4577SOL    HW214631   1.953   1.327   2.553
 4578SOL     OW14632   1.077   1.166   2.006
 4578SOL    HW114633   1.036   1.132   1.922
 4578SOL    HW214634   1.151   1.105   2.034
 4579SOL     OW14635   3.599   1.715   2.264
 4579SOL    HW114636   3.693   1.726   2.231
 4579SOL    HW214637   3.562   1.804   2.290
 4580SOL     OW14638   6.925   2.582   0.248
 4580SOL    HW114639   6.931   2.659   0.185
 4580SOL    HW214640   6.848   2.595   0.311
 4581SOL     OW14641   3.152   0.535   1.484
 4581SOL    HW114642   3.167   0.577   1.573
 4581SOL    HW214643   3.229   0.556   1.423
 4582SOL     OW14644   6.251   1.110   3.688
 4582SOL    HW114645   6.230   1.118   3.591
 4582SOL    HW214646   6.349   1.091   3.699
 4583SOL     OW14647   1.554   6.919   6.786
 4583SOL    HW114648   1.542   6.923   6.885
 4583SOL    HW214649   1.637   6.969   6.761
 4584SOL     OW14650   1.822   0.736   5.562
 4584SOL    HW114651   1.813   0.709   5.658
 4584SOL    HW214652   1.803   0.658   5.503
 4585SOL     OW14653   1.258   3.636   3.194
 4585SOL    HW114654   1.312   3.642   3.111
 4585SOL    HW214655   1.270   3.545   3.235
 4586SOL     OW14656   5.587   4.501   6.799
 4586SOL    HW114657   5.535   4.477   6.717
 4586SOL    HW214658   5.530   4.486   6.880
 4587SOL     OW14659   3.226   3.669   4.638
 4587SOL    HW114660   3.177   3.705   4.717
 4587SOL    HW214661   3.324   3.671   4.657
 4588SOL     OW14662   2.892   4.163   5.766
 4588SOL    HW114663   2.848   4.177   5.676
 4588SOL    HW214664   2.989   4.141   5.753
 4589SOL     OW14665   5.379   0.015   2.410
 4589SOL    HW114666   5.470   7.021   2.448
 4589SOL    HW214667   5.350   0.109   2.429
 4590SOL     OW14668   3.541   5.251   1.674
 4590SOL    HW114669   3.629   5.204   1.680
 4590SOL    HW214670   3.471   5.198   1.722
 4591SOL     OW14671   1.970   0.445   5.887
 4591SOL    HW114672   1.937   0.353   5.868
 4591SOL    HW214673   2.034   0.473   5.816
 4592SOL     OW14674   2.192   1.692   3.831
 4592SOL    HW114675   2.227   1.723   3.920
 4592SOL    HW214676   2.094   1.673   3.839
 4593SOL     OW14677   1.357   6.252   4.435
 4593SOL    HW114678   1.390   6.248   4.341
 4593SOL    HW214679   1.431   6.283   4.495
 4594SOL     OW14680   1.934   0.549   2.730
 4594SOL    HW114681   1.840   0.518   2.717
 4594SOL    HW214682   1.943   0.589   2.821
 4595SOL     OW14683   5.182   1.627   6.240
 4595SOL    HW114684   5.132   1.559   6.294
 4595SOL    HW214685   5.158   1.719   6.272
 4596SOL     OW14686   0.468   1.065   2.357
 4596SOL    HW114687   0.431   1.121   2.431
 4596SOL    HW214688   0.511   1.124   2.288
 4597SOL     OW14689   2.429   6.128   6.882
 4597SOL    HW114690   2.445   6.069   6.803
 4597SOL    HW214691   2.488   6.100   6.958
 4598SOL     OW14692   2.245   5.222   6.948
 4598SOL    HW114693   2.251   5.132   6.992
 4598SOL    HW214694   2.152   5.257   6.956
 4599SOL     OW14695   2.491   5.057   3.288
 4599SOL    HW114696   2.571   5.030   3.341
 4599SOL    HW214697   2.446   5.135   3.332
 4600SOL     OW14698   7.008   6.070   6.251
 4600SOL    HW114699   6.914   6.092   6.224
 4600SOL    HW214700   0.037   6.154   6.266
 4601SOL     OW14701   1.215   1.094   5.120
 4601SOL    HW114702   1.250   1.176   5.074
 4601SOL    HW214703   1.291   1.040   5.154
 4602SOL     OW14704   2.974   2.435   6.794
 4602SOL    HW114705   3.030   2.377   6.853
 4602SOL    HW214706   2.882   2.441   6.832
 4603SOL     OW14707   5.169   6.608   0.968
 4603SOL    HW114708   5.106   6.666   0.915
 4603SOL    HW214709   5.218   6.664   1.035
 4604SOL     OW14710   5.641   0.028   5.802
 4604SOL    HW114711   5.659   0.036   5.900
 4604SOL    HW214712   5.556   0.077   5.780
 4605SOL     OW14713   3.350   0.186   2.187
 4605SOL    HW114714   3.260   0.203   2.226
 4605SOL    HW214715   3.417   0.177   2.260
 4606SOL     OW14716   6.627   6.659   4.217
 4606SOL    HW114717   6.722   6.641   4.194
 4606SOL    HW214718   6.618   6.669   4.316
 4607SOL     OW14719   1.770   2.830   1.960
 4607SOL    HW114720   1.710   2.797   1.886
 4607SOL    HW214721   1.772   2.930   1.959
 4608SOL     OW14722   0.289   3.587   4.588
 4608SOL    HW114723   0.232   3.654   4.540
 4608SOL    HW214724   0.382   3.623   4.598
 4609SOL     OW14725   4.662   6.440   6.965
 4609SOL    HW114726   4.574   6.487   6.967
 4609SOL    HW214727   4.707   6.449   0.032
 4610SOL     OW14728   5.476   2.579   0.357
 4610SOL    HW114729   5.488   2.482   0.338
 4610SOL    HW214730   5.562   2.628   0.336
 4611SOL     OW14731   1.234   0.599   6.166
 4611SOL    HW114732   1.187   0.585   6.079
 4611SOL    HW214733   1.186   0.549   6.238
 4612SOL     OW14734   1.849   0.090   1.455
 4612SOL    HW114735   1.777   0.029   1.487
 4612SOL    HW214736   1.892   0.135   1.533
 4613SOL     OW14737   1.730   4.802   1.854
 4613SOL    HW114738   1.637   4.811   1.820
 4613SOL    HW214739   1.795   4.810   1.778
 4614SOL     OW14740   6.848   3.788   4.296
 4614SOL    HW114741   6.891   3.730   4.364
 4614SOL    HW214742   6.770   3.836   4.338
 4615SOL     OW14743   0.730   2.194   0.450
 4615SOL    HW114744   0.697   2.283   0.481
 4615SOL    HW214745   0.666   2.123   0.480
 4616SOL     OW14746   6.297   2.876   5.190
 4616SOL    HW114747   6.335   2.889   5.282
 4616SOL    HW214748   6.315   2.782   5.160
 4617SOL     OW14749   0.173   2.477   2.718
 4617SOL    HW114750   0.081   2.496   2.754
 4617SOL    HW214751   0.241   2.521   2.776
 4618SOL     OW14752   1.951   4.856   5.847
 4618SOL    HW114753   2.031   4.882   5.793
 4618SOL    HW214754   1.913   4.771   5.811
 4619SOL     OW14755   3.820   6.475   5.231
 4619SOL    HW114756   3.721   6.464   5.246
 4619SOL    HW214757   3.869   6.402   5.278
 4620SOL     OW14758   1.281   5.245   2.620
 4620SOL    HW114759   1.337   5.288   2.690
 4620SOL    HW214760   1.339   5.188   2.562
 4621SOL     OW14761   4.710   0.674   2.322
 4621SOL    HW114762   4.670   0.737   2.388
 4621SOL    HW214763   4.801   0.707   2.296
 4622SOL     OW14764   4.593   5.973   1.385
 4622SOL    HW114765   4.677   6.015   1.351
 4622SOL    HW214766   4.615   5.909   1.459
 4623SOL     OW14767   2.761   4.901   1.424
 4623SOL    HW114768   2.686   4.944   1.474
 4623SOL    HW214769   2.727   4.817   1.381
 4624SOL     OW14770   4.256   1.425   2.047
 4624SOL    HW114771   4.314   1.362   1.994
 4624SOL    HW214772   4.162   1.392   2.047
 4625SOL     OW14773   1.797   5.656   1.373
 4625SOL    HW114774   1.708   5.659   1.329
 4625SOL    HW214775   1.846   5.573   1.344
 4626SOL     OW14776   4.112   3.704   2.209
 4626SOL    HW114777   4.205   3.737   2.224
 4626SOL    HW214778   4.069   3.684   2.297
 4627SOL     OW14779   5.553   6.625   5.004
 4627SOL    HW114780   5.632   6.612   4.944
 4627SOL    HW214781   5.548   6.720   5.033
 4628SOL     OW14782   5.836   5.005   3.729
 4628SOL    HW114783   5.786   4.959   3.656
 4628SOL    HW214784   5.774   5.067   3.778
 4629SOL     OW14785   2.360   6.308   6.674
 4629SOL    HW114786   2.378   6.405   6.661
 4629SOL    HW214787   2.360   6.286   6.772
 4630SOL     OW14788   1.498   3.434   2.197
 4630SOL    HW114789   1.477   3.336   2.199
 4630SOL    HW214790   1.580   3.449   2.142
 4631SOL     OW14791   0.574   0.560   3.307
 4631SOL    HW114792   0.654   0.515   3.267
 4631SOL    HW214793   0.551   0.641   3.253
 4632SOL     OW14794   3.308   4.924   2.752
 4632SOL    HW114795   3.272   4.996   2.694
 4632SOL    HW214796   3.233   4.874   2.794
 4633SOL     OW14797   5.025   1.083   4.225
 4633SOL    HW114798   5.023   1.183   4.220
 4633SOL    HW214799   5.117   1.053   4.248
 4634SOL     OW14800   2.864   3.509   4.919
 4634SOL    HW114801   2.880   3.496   4.822
 4634SOL    HW214802   2.767   3.496   4.940
 4635SOL     OW14803   5.115   6.142   0.817
 4635SOL    HW114804   5.038   6.079   0.808
 4635SOL    HW214805   5.150   6.164   0.725
 4636SOL     OW14806   1.934   5.688   0.609
 4636SOL    HW114807   1.906   5.766   0.665
 4636SOL    HW214808   1.945   5.719   0.514
 4637SOL     OW14809   2.659   0.809   2.258
 4637SOL    HW114810   2.686   0.852   2.344
 4637SOL    HW214811   2.572   0.762   2.269
 4638SOL     OW14812   3.196   4.544   6.767
 4638SOL    HW114813   3.283   4.534   6.815
 4638SOL    HW214814   3.195   4.631   6.717
 4639SOL     OW14815   2.291   2.412   1.238
 4639SOL    HW114816   2.216   2.376   1.182
 4639SOL    HW214817   2.258   2.429   1.331
 4640SOL     OW14818   6.478   2.822   6.109
 4640SOL    HW114819   6.510   2.849   6.199
 4640SOL    HW214820   6.516   2.732   6.085
 4641SOL     OW14821   0.703   5.601   4.275
 4641SOL    HW114822   0.750   5.644   4.198
 4641SOL    HW214823   0.633   5.663   4.311
 4642SOL     OW14824   0.420   1.722   3.248
 4642SOL    HW114825   0.339   1.693   3.298
 4642SOL    HW214826   0.400   1.805   3.196
 4643SOL     OW14827   0.173   1.880   0.095
 4643SOL    HW114828   0.176   1.788   0.054
 4643SOL    HW214829   0.127   1.943   0.031
 4644SOL     OW14830   1.019   1.106   0.477
 4644SOL    HW114831   1.091   1.164   0.515
 4644SOL    HW214832   1.013   1.120   0.378
 4645SOL     OW14833   1.203   1.634   3.844
 4645SOL    HW114834   1.279   1.647   3.780
 4645SOL    HW214835   1.186   1.720   3.893
 4646SOL     OW14836   2.030   4.780   3.662
 4646SOL    HW114837   1.952   4.769   3.600
 4646SOL    HW214838   2.115   4.777   3.611
 4647SOL     OW14839   1.487   6.831   2.801
 4647SOL    HW114840   1.520   6.741   2.772
 4647SOL    HW214841   1.405   6.819   2.857
 4648SOL     OW14842   2.681   1.621   4.533
 4648SOL    HW114843   2.675   1.614   4.632
 4648SOL    HW214844   2.663   1.715   4.505
 4649SOL     OW14845   5.520   0.437   0.447
 4649SOL    HW114846   5.537   0.347   0.487
 4649SOL    HW214847   5.564   0.507   0.503
 4650SOL     OW14848   5.457   5.906   1.242
 4650SOL    HW114849   5.373   5.921   1.293
 4650SOL    HW214850   5.443   5.930   1.146
 4651SOL     OW14851   6.026   3.383   6.089
 4651SOL    HW114852   6.040   3.469   6.138
 4651SOL    HW214853   6.019   3.308   6.155
 4652SOL     OW14854   0.323   6.327   4.145
 4652SOL    HW114855   0.279   6.294   4.228
 4652SOL    HW214856   0.253   6.349   4.076
 4653SOL     OW14857   5.426   5.350   0.643
 4653SOL    HW114858   5.510   5.370   0.592
 4653SOL    HW214859   5.428   5.398   0.730
 4654SOL     OW14860   0.374   6.669   5.001
 4654SOL    HW114861   0.397   6.599   4.933
 4654SOL    HW214862   0.424   6.753   4.980
 4655SOL     OW14863   4.629   2.687   1.166
 4655SOL    HW114864   4.703   2.696   1.232
 4655SOL    HW214865   4.635   2.761   1.099
 4656SOL     OW14866   1.032   1.401   1.368
 4656SOL    HW114867   1.117   1.358   1.338
 4656SOL    HW214868   1.010   1.477   1.307
 4657SOL     OW14869   5.687   6.802   2.067
 4657SOL    HW114870   5.591   6.799   2.092
 4657SOL    HW214871   5.707   6.889   2.023
 4658SOL     OW14872   2.350   2.522   6.085
 4658SOL    HW114873   2.266   2.567   6.115
 4658SOL    HW214874   2.403   2.493   6.165
 4659SOL     OW14875   3.093   4.755   0.558
 4659SOL    HW114876   3.023   4.823   0.581
 4659SOL    HW214877   3.096   4.685   0.629
 4660SOL     OW14878   1.230   6.343   3.996
 4660SOL    HW114879   1.315   6.306   4.033
 4660SOL    HW214880   1.238   6.442   3.985
 4661SOL     OW14881   0.999   2.979   5.433
 4661SOL    HW114882   0.960   2.943   5.348
 4661SOL    HW214883   0.943   2.951   5.510
 4662SOL     OW14884   2.516   6.095   4.626
 4662SOL    HW114885   2.529   6.005   4.668
 4662SOL    HW214886   2.440   6.142   4.671
 4663SOL     OW14887   1.709   6.976   0.463
 4663SOL    HW114888   1.617   7.002   0.437
 4663SOL    HW214889   1.709   6.939   0.556
 4664SOL     OW14890   6.152   6.282   6.742
 4664SOL    HW114891   6.198   6.193   6.747
 4664SOL    HW214892   6.214   6.348   6.699
 4665SOL     OW14893   2.291   0.372   4.516
 4665SOL    HW114894   2.355   0.450   4.516
 4665SOL    HW214895   2.234   0.377   4.597
 4666SOL     OW14896   1.971   1.859   5.580
 4666SOL    HW114897   1.988   1.932   5.514
 4666SOL    HW214898   1.901   1.797   5.543
 4667SOL     OW14899   6.318   3.610   1.220
 4667SOL    HW114900   6.389   3.590   1.153
 4667SOL    HW214901   6.295   3.528   1.272
 4668SOL     OW14902   4.208   2.303   4.533
 4668SOL    HW114903   4.308   2.303   4.520
 4668SOL    HW214904   4.169   2.382   4.486
 4669SOL     OW14905   5.327   6.875   6.834
 4669SOL    HW114906   5.353   6.885   6.931
 4669SOL    HW214907   5.400   6.827   6.785
 4670SOL     OW14908   0.963   2.973   0.632
 4670SOL    HW114909   1.035   2.982   0.563
 4670SOL    HW214910   0.975   3.042   0.703
 4671SOL     OW14911   0.397   3.815   0.119
 4671SOL    HW114912   0.331   3.886   0.140
 4671SOL    HW214913   0.490   3.854   0.122
 4672SOL     OW14914   2.879   4.268   6.256
 4672SOL    HW114915   2.900   4.275   6.353
 4672SOL    HW214916   2.781   4.286   6.241
 4673SOL     OW14917   5.978   0.295   6.704
 4673SOL    HW114918   6.016   0.229   6.639
 4673SOL    HW214919   6.051   0.353   6.739
 4674SOL     OW14920   1.121   1.935   0.670
 4674SOL    HW114921   1.101   1.912   0.765
 4674SOL    HW214922   1.219   1.923   0.652
 4675SOL     OW14923   2.506   6.583   0.061
 4675SOL    HW114924   2.574   6.512   0.078
 4675SOL    HW214925   2.526   6.663   0.117
 4676SOL     OW14926   0.742   6.063   3.664
 4676SOL    HW114927   0.801   6.042   3.586
 4676SOL    HW214928   0.663   6.001   3.664
 4677SOL     OW14929   4.469   0.519   6.512
 4677SOL    HW114930   4.495   0.557   6.601
 4677SOL    HW214931   4.382   0.470   6.520
 4678SOL     OW14932   2.175   4.594   0.018
 4678SOL    HW114933   2.082   4.567   7.018
 4678SOL    HW214934   2.191   4.581   0.116
 4679SOL     OW14935   3.221   0.996   6.125
 4679SOL    HW114936   3.193   1.041   6.040
 4679SOL    HW214937   3.312   1.028   6.151
 4680SOL     OW14938   2.038   4.768   0.265
 4680SOL    HW114939   2.126   4.807   0.292
 4680SOL    HW214940   2.024   4.782   0.167
 4681SOL     OW14941   0.041   5.459   5.583
 4681SOL    HW114942   0.135   5.489   5.600
 4681SOL    HW214943   7.001   5.499   5.650
 4682SOL     OW14944   4.139   6.376   0.697
 4682SOL    HW114945   4.198   6.456   0.702
 4682SOL    HW214946   4.103   6.356   0.788
 4683SOL     OW14947   5.979   4.454   2.870
 4683SOL    HW114948   6.041   4.375   2.873
 4683SOL    HW214949   5.955   4.481   2.963
 4684SOL     OW14950   1.675   1.636   4.702
 4684SOL    HW114951   1.767   1.601   4.712
 4684SOL    HW214952   1.674   1.734   4.723
 4685SOL     OW14953   5.398   5.203   4.717
 4685SOL    HW114954   5.383   5.110   4.684
 4685SOL    HW214955   5.344   5.217   4.800
 4686SOL     OW14956   4.390   5.989   6.644
 4686SOL    HW114957   4.322   6.030   6.705
 4686SOL    HW214958   4.427   6.060   6.584
 4687SOL     OW14959   6.380   5.651   4.491
 4687SOL    HW114960   6.434   5.616   4.415
 4687SOL    HW214961   6.373   5.581   4.562
 4688SOL     OW14962   0.348   2.919   6.539
 4688SOL    HW114963   0.292   2.839   6.562
 4688SOL    HW214964   0.442   2.904   6.567
 4689SOL     OW14965   0.282   6.189   5.212
 4689SOL    HW114966   0.292   6.185   5.112
 4689SOL    HW214967   0.309   6.279   5.245
 4690SOL     OW14968   1.532   1.834   6.946
 4690SOL    HW114969   1.481   1.776   7.009
 4690SOL    HW214970   1.528   1.929   6.976
 4691SOL     OW14971   2.179   5.236   0.772
 4691SOL    HW114972   2.153   5.332   0.775
 4691SOL    HW214973   2.217   5.208   0.860
 4692SOL     OW14974   0.203   5.044   3.531
 4692SOL    HW114975   0.247   5.050   3.621
 4692SOL    HW214976   0.256   4.985   3.471
 4693SOL     OW14977   0.563   1.190   4.070
 4693SOL    HW114978   0.522   1.277   4.095
 4693SOL    HW214979   0.557   1.127   4.147
 4694SOL     OW14980   1.805   1.868   6.950
 4694SOL    HW114981   1.708   1.865   6.926
 4694SOL    HW214982   1.846   1.779   6.934
 4695SOL     OW14983   3.394   3.106   2.025
 4695SOL    HW114984   3.463   3.036   2.004
 4695SOL    HW214985   3.434   3.174   2.086
 4696SOL     OW14986   6.637   2.856   6.331
 4696SOL    HW114987   6.712   2.791   6.344
 4696SOL    HW214988   6.674   2.945   6.305
 4697SOL     OW14989   0.943   5.092   0.116
 4697SOL    HW114990   0.965   5.189   0.116
 4697SOL    HW214991   0.940   5.058   0.211
 4698SOL     OW14992   5.560   3.668   0.775
 4698SOL    HW114993   5.465   3.695   0.782
 4698SOL    HW214994   5.571   3.574   0.808
 4699SOL     OW14995   0.010   0.141   2.605
 4699SOL    HW114996   7.021   0.071   2.533
 4699SOL    HW214997   6.959   0.129   2.673
 4700SOL     OW14998   5.201   1.296   0.836
 4700SOL    HW114999   5.141   1.375   0.843
 4700SOL    HW215000   5.149   1.218   0.801
 4701SOL     OW15001   0.618   1.070   0.784
 4701SOL    HW115002   0.520   1.056   0.796
 4701SOL    HW215003   0.651   1.137   0.851
 4702SOL     OW15004   3.796   3.725   0.574
 4702SOL    HW115005   3.725   3.708   0.643
 4702SOL    HW215006   3.884   3.691   0.608
 4703SOL     OW15007   2.137   0.671   2.331
 4703SOL    HW115008   2.114   0.674   2.428
 4703SOL    HW215009   2.216   0.731   2.314
 4704SOL     OW15010   5.628   6.632   1.177
 4704SOL    HW115011   5.620   6.720   1.130
 4704SOL    HW215012   5.577   6.562   1.127
 4705SOL     OW15013   3.297   3.844   4.184
 4705SOL    HW115014   3.214   3.898   4.170
 4705SOL    HW215015   3.371   3.904   4.214
 4706SOL     OW15016   4.327   5.868   0.093
 4706SOL    HW115017   4.418   5.905   0.076
 4706SOL    HW215018   4.284   5.845   0.006
 4707SOL     OW15019   2.450   5.428   0.752
 4707SOL    HW115020   2.424   5.386   0.839
 4707SOL    HW215021   2.509   5.507   0.770
 4708SOL     OW15022   2.316   2.398   1.903
 4708SOL    HW115023   2.340   2.341   1.981
 4708SOL    HW215024   2.348   2.355   1.819
 4709SOL     OW15025   4.265   5.226   5.801
 4709SOL    HW115026   4.259   5.126   5.794
 4709SOL    HW215027   4.175   5.264   5.818
 4710SOL     OW15028   4.258   1.253   0.179
 4710SOL    HW115029   4.301   1.271   0.268
 4710SOL    HW215030   4.250   1.339   0.129
 4711SOL     OW15031   3.482   0.227   2.451
 4711SOL    HW115032   3.571   0.228   2.404
 4711SOL    HW215033   3.451   0.321   2.466
 4712SOL     OW15034   1.971   4.657   0.503
 4712SOL    HW115035   2.026   4.697   0.430
 4712SOL    HW215036   2.007   4.685   0.592
 4713SOL     OW15037   1.810   5.309   0.541
 4713SOL    HW115038   1.775   5.331   0.632
 4713SOL    HW215039   1.803   5.389   0.481
 4714SOL     OW15040   2.834   2.099   1.325
 4714SOL    HW115041   2.784   2.136   1.246
 4714SOL    HW215042   2.886   2.173   1.369
 4715SOL     OW15043   6.887   3.041   3.473
 4715SOL    HW115044   6.914   3.094   3.553
 4715SOL    HW215045   6.901   2.944   3.491
 4716SOL     OW15046   3.279   5.642   0.252
 4716SOL    HW115047   3.371   5.609   0.229
 4716SOL    HW215048   3.212   5.600   0.191
 4717SOL     OW15049   1.453   6.021   3.387
 4717SOL    HW115050   1.508   6.040   3.307
 4717SOL    HW215051   1.404   5.935   3.374
 4718SOL     OW15052   5.943   0.858   6.206
 4718SOL    HW115053   5.983   0.786   6.149
 4718SOL    HW215054   5.890   0.920   6.148
 4719SOL     OW15055   4.214   3.539   1.045
 4719SOL    HW115056   4.296   3.550   1.100
 4719SOL    HW215057   4.140   3.503   1.102
 4720SOL     OW15058   2.201   0.521   5.725
 4720SOL    HW115059   2.226   0.612   5.759
 4720SOL    HW215060   2.283   0.463   5.722
 4721SOL     OW15061   1.650   2.031   1.693
 4721SOL    HW115062   1.569   2.001   1.643
 4721SOL    HW215063   1.711   1.953   1.708
 4722SOL     OW15064   2.194   0.472   0.779
 4722SOL    HW115065   2.158   0.476   0.686
 4722SOL    HW215066   2.286   0.512   0.781
 4723SOL     OW15067   2.490   6.977   6.957
 4723SOL    HW115068   2.450   0.015   6.888
 4723SOL    HW215069   2.579   7.014   6.986
 4724SOL     OW15070   3.848   6.857   1.893
 4724SOL    HW115071   3.783   6.892   1.960
 4724SOL    HW215072   3.799   6.804   1.823
 4725SOL     OW15073   4.826   6.462   3.235
 4725SOL    HW115074   4.847   6.538   3.295
 4725SOL    HW215075   4.817   6.378   3.288
 4726SOL     OW15076   0.321   4.575   6.106
 4726SOL    HW115077   0.332   4.571   6.205
 4726SOL    HW215078   0.387   4.640   6.067
 4727SOL     OW15079   6.920   5.642   0.144
 4727SOL    HW115080   6.852   5.601   0.204
 4727SOL    HW215081   7.011   5.611   0.171
 4728SOL     OW15082   0.156   0.944   6.956
 4728SOL    HW115083   0.076   0.927   7.014
 4728SOL    HW215084   0.128   0.993   6.873
 4729SOL     OW15085   3.398   0.647   1.724
 4729SOL    HW115086   3.463   0.720   1.703
 4729SOL    HW215087   3.305   0.685   1.728
 4730SOL     OW15088   1.930   6.850   5.295
 4730SOL    HW115089   1.933   6.945   5.325
 4730SOL    HW215090   2.020   6.808   5.307
 4731SOL     OW15091   5.518   1.471   5.089
 4731SOL    HW115092   5.580   1.430   5.156
 4731SOL    HW215093   5.478   1.400   5.032
 4732SOL     OW15094   0.124   2.817   6.872
 4732SOL    HW115095   0.183   2.893   6.899
 4732SOL    HW215096   0.141   2.739   6.932
 4733SOL     OW15097   6.883   3.937   2.911
 4733SOL    HW115098   6.980   3.960   2.916
 4733SOL    HW215099   6.864   3.891   2.824
 4734SOL     OW15100   4.260   4.169   6.614
 4734SOL    HW115101   4.247   4.159   6.713
 4734SOL    HW215102   4.175   4.197   6.571
 4735SOL     OW15103   1.323   4.628   3.841
 4735SOL    HW115104   1.304   4.683   3.922
 4735SOL    HW215105   1.282   4.671   3.761
 4736SOL     OW15106   1.010   0.854   0.284
 4736SOL    HW115107   0.930   0.817   0.331
 4736SOL    HW215108   1.010   0.954   0.291
 4737SOL     OW15109   2.067   5.313   1.616
 4737SOL    HW115110   2.140   5.370   1.577
 4737SOL    HW215111   2.089   5.293   1.712
 4738SOL     OW15112   0.182   6.214   2.801
 4738SOL    HW115113   0.102   6.252   2.848
 4738SOL    HW215114   0.265   6.247   2.846
 4739SOL     OW15115   4.623   1.274   1.020
 4739SOL    HW115116   4.591   1.181   1.035
 4739SOL    HW215117   4.705   1.273   0.963
 4740SOL     OW15118   1.108   1.292   2.951
 4740SOL    HW115119   1.052   1.271   3.031
 4740SOL    HW215120   1.203   1.307   2.980
 4741SOL     OW15121   4.111   3.556   1.551
 4741SOL    HW115122   4.061   3.609   1.482
 4741SOL    HW215123   4.188   3.611   1.585
 4742SOL     OW15124   3.181   6.972   0.967
 4742SOL    HW115125   3.175   6.969   0.867
 4742SOL    HW215126   3.184   0.046   0.997
 4743SOL     OW15127   2.473   4.524   1.653
 4743SOL    HW115128   2.396   4.507   1.714
 4743SOL    HW215129   2.523   4.605   1.684
 4744SOL     OW15130   2.148   6.291   0.666
 4744SOL    HW115131   2.139   6.391   0.658
 4744SOL    HW215132   2.082   6.258   0.734
 4745SOL     OW15133   1.224   4.675   0.486
 4745SOL    HW115134   1.258   4.701   0.396
 4745SOL    HW215135   1.301   4.662   0.548
 4746SOL     OW15136   4.751   5.607   4.633
 4746SOL    HW115137   4.684   5.659   4.687
 4746SOL    HW215138   4.756   5.513   4.668
 4747SOL     OW15139   1.478   2.269   1.345
 4747SOL    HW115140   1.502   2.352   1.395
 4747SOL    HW215141   1.561   2.222   1.316
 4748SOL     OW15142   1.273   6.759   3.137
 4748SOL    HW115143   1.366   6.722   3.140
 4748SOL    HW215144   1.253   6.792   3.044
 4749SOL     OW15145   1.849   0.627   6.880
 4749SOL    HW115146   1.827   0.538   6.840
 4749SOL    HW215147   1.832   0.699   6.813
 4750SOL     OW15148   5.437   3.321   5.434
 4750SOL    HW115149   5.339   3.316   5.456
 4750SOL    HW215150   5.449   3.329   5.335
 4751SOL     OW15151   4.593   0.544   3.414
 4751SOL    HW115152   4.612   0.608   3.489
 4751SOL    HW215153   4.496   0.550   3.390
 4752SOL     OW15154   4.602   1.796   0.150
 4752SOL    HW115155   4.521   1.756   0.192
 4752SOL    HW215156   4.582   1.824   0.056
 4753SOL     OW15157   3.494   5.656   5.041
 4753SOL    HW115158   3.428   5.701   5.100
 4753SOL    HW215159   3.577   5.712   5.035
 4754SOL     OW15160   4.813   4.674   5.923
 4754SOL    HW115161   4.727   4.700   5.967
 4754SOL    HW215162   4.879   4.644   5.992
 4755SOL     OW15163   1.949   0.892   1.569
 4755SOL    HW115164   1.882   0.965   1.555
 4755SOL    HW215165   2.033   0.914   1.520
 4756SOL     OW15166   6.294   3.977   6.571
 4756SOL    HW115167   6.324   4.072   6.558
 4756SOL    HW215168   6.335   3.940   6.654
 4757SOL     OW15169   2.118   3.822   1.775
 4757SOL    HW115170   2.184   3.859   1.840
 4757SOL    HW215171   2.032   3.872   1.783
 4758SOL     OW15172   2.347   6.560   3.330
 4758SOL    HW115173   2.346   6.461   3.345
 4758SOL    HW215174   2.291   6.582   3.251
 4759SOL     OW15175   1.179   5.114   1.197
 4759SOL    HW115176   1.215   5.167   1.120
 4759SOL    HW215177   1.158   5.021   1.167
 4760SOL     OW15178   2.064   5.820   1.199
 4760SOL    HW115179   1.984   5.833   1.140
 4760SOL    HW215180   2.129   5.894   1.184
 4761SOL     OW15181   6.680   6.195   1.191
 4761SOL    HW115182   6.670   6.096   1.201
 4761SOL    HW215183   6.776   6.220   1.203
 4762SOL     OW15184   2.173   6.718   2.039
 4762SOL    HW115185   2.135   6.692   1.950
 4762SOL    HW215186   2.215   6.808   2.032
 4763SOL     OW15187   5.412   4.870   1.627
 4763SOL    HW115188   5.447   4.780   1.651
 4763SOL    HW215189   5.453   4.900   1.541
 4764SOL     OW15190   4.126   3.360   6.494
 4764SOL    HW115191   4.149   3.454   6.522
 4764SOL    HW215192   4.045   3.329   6.543
 4765SOL     OW15193   3.270   1.423   4.404
 4765SOL    HW115194   3.260   1.393   4.309
 4765SOL    HW215195   3.186   1.466   4.434
 4766SOL     OW15196   0.870   0.145   4.316
 4766SOL    HW115197   0.894   0.056   4.353
 4766SOL    HW215198   0.789   0.136   4.257
 4767SOL     OW15199   1.812   4.241   4.649
 4767SOL    HW115200   1.802   4.182   4.729
 4767SOL    HW215201   1.818   4.336   4.679
 4768SOL     OW15202   3.976   2.529   0.057
 4768SOL    HW115203   3.934   2.471   0.127
 4768SOL    HW215204   4.066   2.492   0.032
 4769SOL     OW15205   2.712   5.294   1.064
 4769SOL    HW115206   2.745   5.265   0.974
 4769SOL    HW215207   2.790   5.316   1.122
 4770SOL     OW15208   0.384   1.056   6.222
 4770SOL    HW115209   0.311   1.054   6.153
 4770SOL    HW215210   0.400   0.964   6.257
 4771SOL     OW15211   2.306   6.691   5.059
 4771SOL    HW115212   2.379   6.757   5.078
 4771SOL    HW215213   2.319   6.653   4.968
 4772SOL     OW15214   2.741   5.940   2.294
 4772SOL    HW115215   2.786   5.901   2.373
 4772SOL    HW215216   2.686   5.870   2.248
 4773SOL     OW15217   2.266   5.153   5.102
 4773SOL    HW115218   2.363   5.135   5.114
 4773SOL    HW215219   2.213   5.096   5.164
 4774SOL     OW15220   2.009   3.752   0.030
 4774SOL    HW115221   1.930   3.796   0.073
 4774SOL    HW215222   2.022   3.788   6.959
 4775SOL     OW15223   6.367   6.336   5.274
 4775SOL    HW115224   6.331   6.407   5.214
 4775SOL    HW215225   6.467   6.333   5.266
 4776SOL     OW15226   0.693   0.684   6.312
 4776SOL    HW115227   0.622   0.618   6.337
 4776SOL    HW215228   0.701   0.753   6.384
 4777SOL     OW15229   0.735   6.628   1.803
 4777SOL    HW115230   0.702   6.534   1.790
 4777SOL    HW215231   0.732   6.676   1.716
 4778SOL     OW15232   1.568   2.654   5.666
 4778SOL    HW115233   1.649   2.706   5.694
 4778SOL    HW215234   1.566   2.646   5.567
 4779SOL     OW15235   4.953   0.868   3.432
 4779SOL    HW115236   4.942   0.849   3.335
 4779SOL    HW215237   4.901   0.802   3.486
 4780SOL     OW15238   6.588   3.037   4.863
 4780SOL    HW115239   6.509   3.003   4.914
 4780SOL    HW215240   6.559   3.112   4.802
 4781SOL     OW15241   2.284   6.228   2.772
 4781SOL    HW115242   2.253   6.163   2.841
 4781SOL    HW215243   2.222   6.307   2.771
 4782SOL     OW15244   6.714   6.300   4.262
 4782SOL    HW115245   6.756   6.258   4.342
 4782SOL    HW215246   6.657   6.233   4.214
 4783SOL     OW15247   6.399   3.470   1.012
 4783SOL    HW115248   6.326   3.524   0.970
 4783SOL    HW215249   6.399   3.378   0.974
 4784SOL     OW15250   5.408   2.891   6.765
 4784SOL    HW115251   5.436   2.987   6.767
 4784SOL    HW215252   5.485   2.833   6.792
 4785SOL     OW15253   1.090   5.829   3.967
 4785SOL    HW115254   1.161   5.759   3.959
 4785SOL    HW215255   1.062   5.859   3.876
 4786SOL     OW15256   1.837   6.175   0.269
 4786SOL    HW115257   1.797   6.112   0.203
 4786SOL    HW215258   1.936   6.172   0.262
 4787SOL     OW15259   3.453   0.918   4.297
 4787SOL    HW115260   3.462   1.014   4.271
 4787SOL    HW215261   3.364   0.884   4.267
 4788SOL     OW15262   5.493   6.479   6.728
 4788SOL    HW115263   5.427   6.517   6.793
 4788SOL    HW215264   5.580   6.461   6.776
 4789SOL     OW15265   5.231   1.083   2.968
 4789SOL    HW115266   5.280   1.104   2.883
 4789SOL    HW215267   5.150   1.029   2.947
 4790SOL     OW15268   6.749   2.172   4.783
 4790SOL    HW115269   6.754   2.271   4.770
 4790SOL    HW215270   6.685   2.133   4.717
 4791SOL     OW15271   6.932   1.273   0.305
 4791SOL    HW115272   7.016   1.220   0.317
 4791SOL    HW215273   6.855   1.212   0.288
 4792SOL     OW15274   2.306   2.689   2.830
 4792SOL    HW115275   2.251   2.717   2.910
 4792SOL    HW215276   2.370   2.618   2.858
 4793SOL     OW15277   1.091   4.229   5.487
 4793SOL    HW115278   1.029   4.152   5.502
 4793SOL    HW215279   1.105   4.242   5.389
 4794SOL     OW15280   3.878   0.913   4.491
 4794SOL    HW115281   3.873   1.010   4.469
 4794SOL    HW215282   3.810   0.863   4.437
 4795SOL     OW15283   0.167   0.479   5.715
 4795SOL    HW115284   0.246   0.540   5.720
 4795SOL    HW215285   0.095   0.513   5.774
 4796SOL     OW15286   3.718   1.323   4.647
 4796SOL    HW115287   3.736   1.224   4.652
 4796SOL    HW215288   3.640   1.345   4.705
 4797SOL     OW15289   1.335   5.813   4.521
 4797SOL    HW115290   1.263   5.838   4.585
 4797SOL    HW215291   1.424   5.827   4.564
 4798SOL     OW15292   4.419   4.592   6.297
 4798SOL    HW115293   4.444   4.574   6.392
 4798SOL    HW215294   4.343   4.531   6.271
 4799SOL     OW15295   3.418   3.083   6.387
 4799SOL    HW115296   3.429   3.137   6.471
 4799SOL    HW215297   3.436   2.986   6.408
 4800SOL     OW15298   0.857   5.249   0.534
 4800SOL    HW115299   0.856   5.152   0.508
 4800SOL    HW215300   0.847   5.257   0.633
 4801SOL     OW15301   4.984   2.583   1.684
 4801SOL    HW115302   4.889   2.560   1.708
 4801SOL    HW215303   4.990   2.600   1.585
 4802SOL     OW15304   6.991   6.898   3.999
 4802SOL    HW115305   7.002   6.919   3.902
 4802SOL    HW215306   0.055   6.917   4.047
 4803SOL     OW15307   5.206   3.868   5.986
 4803SOL    HW115308   5.146   3.811   6.043
 4803SOL    HW215309   5.291   3.819   5.968
 4804SOL     OW15310   5.095   1.732   0.665
 4804SOL    HW115311   5.019   1.709   0.604
 4804SOL    HW215312   5.068   1.807   0.725
 4805SOL     OW15313   6.181   1.133   0.800
 4805SOL    HW115314   6.093   1.144   0.846
 4805SOL    HW215315   6.181   1.049   0.746
 4806SOL     OW15316   1.063   1.004   2.896
 4806SOL    HW115317   1.047   1.101   2.913
 4806SOL    HW215318   1.159   0.989   2.873
 4807SOL     OW15319   0.886   3.582   5.978
 4807SOL    HW115320   0.957   3.535   6.031
 4807SOL    HW215321   0.922   3.669   5.944
 4808SOL     OW15322   4.280   5.603   0.200
 4808SOL    HW115323   4.281   5.700   0.175
 4808SOL    HW215324   4.368   5.578   0.241
 4809SOL     OW15325   3.538   4.518   1.501
 4809SOL    HW115326   3.557   4.601   1.449
 4809SOL    HW215327   3.457   4.532   1.558
 4810SOL     OW15328   0.640   4.215   3.795
 4810SOL    HW115329   0.683   4.285   3.738
 4810SOL    HW215330   0.576   4.161   3.739
 4811SOL     OW15331   3.433   4.084   4.225
 4811SOL    HW115332   3.525   4.073   4.263
 4811SOL    HW215333   3.439   4.129   4.136
 4812SOL     OW15334   0.556   0.383   2.409
 4812SOL    HW115335   0.557   0.297   2.461
 4812SOL    HW215336   0.557   0.362   2.311
 4813SOL     OW15337   6.018   1.296   5.770
 4813SOL    HW115338   6.089   1.231   5.798
 4813SOL    HW215339   5.938   1.285   5.828
 4814SOL     OW15340   6.318   4.312   1.719
 4814SOL    HW115341   6.297   4.405   1.751
 4814SOL    HW215342   6.334   4.313   1.621
 4815SOL     OW15343   5.237   4.978   2.787
 4815SOL    HW115344   5.274   5.069   2.772
 4815SOL    HW215345   5.216   4.936   2.699
 4816SOL     OW15346   1.243   0.968   2.082
 4816SOL    HW115347   1.197   0.880   2.089
 4816SOL    HW215348   1.291   0.989   2.167
 4817SOL     OW15349   4.214   1.795   0.766
 4817SOL    HW115350   4.160   1.833   0.692
 4817SOL    HW215351   4.311   1.808   0.747
 4818SOL     OW15352   3.469   0.121   5.192
 4818SOL    HW115353   3.402   0.054   5.158
 4818SOL    HW215354   3.522   0.156   5.115
 4819SOL     OW15355   2.445   0.293   0.890
 4819SOL    HW115356   2.500   0.343   0.823
 4819SOL    HW215357   2.448   0.195   0.869
 4820SOL     OW15358   5.867   4.157   1.905
 4820SOL    HW115359   5.905   4.226   1.966
 4820SOL    HW215360   5.939   4.122   1.845
 4821SOL     OW15361   0.038   4.331   1.680
 4821SOL    HW115362   0.054   4.377   1.768
 4821SOL    HW215363   0.053   4.233   1.690
 4822SOL     OW15364   2.162   3.969   3.075
 4822SOL    HW115365   2.210   4.057   3.073
 4822SOL    HW215366   2.122   3.952   2.985
 4823SOL     OW15367   0.875   1.070   4.479
 4823SOL    HW115368   0.954   1.104   4.531
 4823SOL    HW215369   0.873   1.114   4.389
 4824SOL     OW15370   5.481   2.776   2.172
 4824SOL    HW115371   5.483   2.683   2.208
 4824SOL    HW215372   5.456   2.774   2.075
 4825SOL     OW15373   0.765   3.372   2.654
 4825SOL    HW115374   0.763   3.307   2.578
 4825SOL    HW215375   0.858   3.405   2.667
 4826SOL     OW15376   6.196   6.145   0.445
 4826SOL    HW115377   6.126   6.193   0.391
 4826SOL    HW215378   6.287   6.170   0.411
 4827SOL     OW15379   4.797   0.552   0.820
 4827SOL    HW115380   4.868   0.572   0.888
 4827SOL    HW215381   4.818   0.466   0.773
 4828SOL     OW15382   5.805   3.796   0.674
 4828SOL    HW115383   5.743   3.746   0.733
 4828SOL    HW215384   5.820   3.744   0.589
 4829SOL     OW15385   3.037   0.472   6.235
 4829SOL    HW115386   3.049   0.493   6.332
 4829SOL    HW215387   3.067   0.549   6.180
 4830SOL     OW15388   4.382   6.990   4.780
 4830SOL    HW115389   4.326   0.030   4.724
 4830SOL    HW215390   4.476   6.991   4.746
 4831SOL     OW15391   6.150   3.827   5.920
 4831SOL    HW115392   6.186   3.871   6.002
 4831SOL    HW215393   6.150   3.727   5.933
 4832SOL     OW15394   2.558   3.748   6.146
 4832SOL    HW115395   2.561   3.848   6.139
 4832SOL    HW215396   2.463   3.718   6.154
 4833SOL     OW15397   4.647   1.051   2.524
 4833SOL    HW115398   4.723   1.048   2.458
 4833SOL    HW215399   4.670   1.114   2.598
 4834SOL     OW15400   4.600   1.549   2.090
 4834SOL    HW115401   4.508   1.579   2.116
 4834SOL    HW215402   4.631   1.478   2.154
 4835SOL     OW15403   2.002   0.392   6.655
 4835SOL    HW115404   1.936   0.373   6.583
 4835SOL    HW215405   2.029   0.306   6.699
 4836SOL     OW15406   5.366   2.106   4.032
 4836SOL    HW115407   5.357   2.124   3.934
 4836SOL    HW215408   5.297   2.041   4.062
 4837SOL     OW15409   1.982   3.617   0.265
 4837SOL    HW115410   2.029   3.530   0.278
 4837SOL    HW215411   2.005   3.654   0.175
 4838SOL     OW15412   3.725   5.562   2.355
 4838SOL    HW115413   3.661   5.494   2.318
 4838SOL    HW215414   3.675   5.644   2.381
 4839SOL     OW15415   0.524   5.755   6.111
 4839SOL    HW115416   0.582   5.701   6.172
 4839SOL    HW215417   0.510   5.707   6.025
 4840SOL     OW15418   6.987   6.541   0.215
 4840SOL    HW115419   7.007   6.451   0.255
 4840SOL    HW215420   6.908   6.581   0.261
 4841SOL     OW15421   2.814   5.043   2.282
 4841SOL    HW115422   2.831   4.950   2.251
 4841SOL    HW215423   2.716   5.064   2.274
 4842SOL     OW15424   4.697   6.101   0.950
 4842SOL    HW115425   4.759   6.032   0.913
 4842SOL    HW215426   4.738   6.192   0.939
 4843SOL     OW15427   6.787   3.524   0.191
 4843SOL    HW115428   6.845   3.603   0.169
 4843SOL    HW215429   6.692   3.545   0.170
 4844SOL     OW15430   5.878   1.918   6.321
 4844SOL    HW115431   5.850   1.938   6.227
 4844SOL    HW215432   5.803   1.871   6.368
 4845SOL     OW15433   6.211   6.076   3.403
 4845SOL    HW115434   6.275   6.151   3.419
 4845SOL    HW215435   6.259   5.999   3.360
 4846SOL     OW15436   1.645   3.540   0.510
 4846SOL    HW115437   1.676   3.603   0.439
 4846SOL    HW215438   1.652   3.585   0.599
 4847SOL     OW15439   3.558   1.797   4.704
 4847SOL    HW115440   3.614   1.751   4.773
 4847SOL    HW215441   3.504   1.729   4.654
 4848SOL     OW15442   2.258   2.126   2.436
 4848SOL    HW115443   2.329   2.070   2.478
 4848SOL    HW215444   2.212   2.073   2.364
 4849SOL     OW15445   1.073   6.863   0.648
 4849SOL    HW115446   1.037   6.921   0.722
 4849SOL    HW215447   1.002   6.799   0.618
 4850SOL     OW15448   4.171   0.779   2.065
 4850SOL    HW115449   4.270   0.786   2.050
 4850SOL    HW215450   4.145   0.839   2.141
 4851SOL     OW15451   5.188   6.274   5.201
 4851SOL    HW115452   5.113   6.306   5.257
 4851SOL    HW215453   5.154   6.212   5.130
 4852SOL     OW15454   1.674   1.010   6.927
 4852SOL    HW115455   1.582   0.988   6.960
 4852SOL    HW215456   1.706   0.938   6.866
 4853SOL     OW15457   3.154   1.687   2.374
 4853SOL    HW115458   3.171   1.602   2.323
 4853SOL    HW215459   3.204   1.762   2.331
 4854SOL     OW15460   5.396   0.117   1.996
 4854SOL    HW115461   5.404   0.022   2.027
 4854SOL    HW215462   5.337   0.168   2.059
 4855SOL     OW15463   6.229   1.842   2.680
 4855SOL    HW115464   6.189   1.901   2.610
 4855SOL    HW215465   6.263   1.758   2.638
 4856SOL     OW15466   3.082   5.051   3.441
 4856SOL    HW115467   3.072   5.123   3.510
 4856SOL    HW215468   3.058   4.962   3.481
 4857SOL     OW15469   0.211   1.852   5.507
 4857SOL    HW115470   0.305   1.884   5.501
 4857SOL    HW215471   0.151   1.927   5.536
 4858SOL     OW15472   1.618   2.172   4.516
 4858SOL    HW115473   1.530   2.201   4.479
 4858SOL    HW215474   1.629   2.207   4.609
 4859SOL     OW15475   1.971   5.945   4.610
 4859SOL    HW115476   2.015   5.876   4.667
 4859SOL    HW215477   1.925   5.901   4.533
 4860SOL     OW15478   4.562   4.849   1.566
 4860SOL    HW115479   4.573   4.783   1.640
 4860SOL    HW215480   4.488   4.912   1.589
 4861SOL     OW15481   4.663   4.420   5.207
 4861SOL    HW115482   4.639   4.500   5.151
 4861SOL    HW215483   4.739   4.371   5.165
 4862SOL     OW15484   1.899   6.497   2.393
 4862SOL    HW115485   1.819   6.553   2.413
 4862SOL    HW215486   1.919   6.439   2.472
 4863SOL     OW15487   5.853   4.055   0.369
 4863SOL    HW115488   5.808   4.051   0.458
 4863SOL    HW215489   5.786   4.078   0.298
 4864SOL     OW15490   2.828   1.010   3.281
 4864SOL    HW115491   2.811   1.097   3.327
 4864SOL    HW215492   2.926   0.997   3.269
 4865SOL     OW15493   2.960   6.001   4.574
 4865SOL    HW115494   3.034   5.993   4.508
 4865SOL    HW215495   2.931   5.910   4.603
 4866SOL     OW15496   6.743   4.028   1.249
 4866SOL    HW115497   6.762   4.093   1.322
 4866SOL    HW215498   6.685   3.954   1.284
 4867SOL     OW15499   4.721   6.769   2.891
 4867SOL    HW115500   4.716   6.772   2.791
 4867SOL    HW215501   4.812   6.797   2.921
 4868SOL     OW15502   6.456   4.511   1.529
 4868SOL    HW115503   6.550   4.487   1.552
 4868SOL    HW215504   6.427   4.458   1.449
 4869SOL     OW15505   0.148   1.462   6.187
 4869SOL    HW115506   0.170   1.402   6.110
 4869SOL    HW215507   0.204   1.545   6.181
 4870SOL     OW15508   1.150   5.961   1.937
 4870SOL    HW115509   1.072   5.986   1.994
 4870SOL    HW215510   1.148   5.863   1.918
 4871SOL     OW15511   1.286   1.161   4.269
 4871SOL    HW115512   1.270   1.208   4.183
 4871SOL    HW215513   1.205   1.167   4.327
 4872SOL     OW15514   6.081   0.014   3.801
 4872SOL    HW115515   6.088   0.089   3.736
 4872SOL    HW215516   6.124   6.954   3.762
 4873SOL     OW15517   6.799   6.161   5.098
 4873SOL    HW115518   6.880   6.211   5.129
 4873SOL    HW215519   6.813   6.063   5.112
 4874SOL     OW15520   4.950   2.672   3.407
 4874SOL    HW115521   4.925   2.748   3.347
 4874SOL    HW215522   4.960   2.588   3.354
 4875SOL     OW15523   5.602   6.174   6.084
 4875SOL    HW115524   5.612   6.165   5.985
 4875SOL    HW215525   5.660   6.107   6.130
 4876SOL     OW15526   1.711   1.318   3.171
 4876SOL    HW115527   1.739   1.321   3.075
 4876SOL    HW215528   1.680   1.226   3.194
 4877SOL     OW15529   0.776   1.658   4.485
 4877SOL    HW115530   0.795   1.730   4.418
 4877SOL    HW215531   0.679   1.633   4.480
 4878SOL     OW15532   6.752   1.733   3.028
 4878SOL    HW115533   6.703   1.812   3.065
 4878SOL    HW215534   6.823   1.764   2.965
 4879SOL     OW15535   4.612   1.646   2.975
 4879SOL    HW115536   4.618   1.708   3.053
 4879SOL    HW215537   4.645   1.692   2.893
 4880SOL     OW15538   6.114   2.597   6.201
 4880SOL    HW115539   6.202   2.550   6.194
 4880SOL    HW215540   6.124   2.676   6.261
 4881SOL     OW15541   1.372   2.959   1.966
 4881SOL    HW115542   1.293   2.966   1.904
 4881SOL    HW215543   1.363   2.877   2.022
 4882SOL     OW15544   4.459   2.496   4.975
 4882SOL    HW115545   4.538   2.536   5.021
 4882SOL    HW215546   4.377   2.509   5.031
 4883SOL     OW15547   6.094   3.768   1.234
 4883SOL    HW115548   6.157   3.696   1.207
 4883SOL    HW215549   6.004   3.729   1.254
 4884SOL     OW15550   2.039   6.296   1.599
 4884SOL    HW115551   2.001   6.317   1.689
 4884SOL    HW215552   2.037   6.378   1.542
 4885SOL     OW15553   1.611   4.838   0.931
 4885SOL    HW115554   1.559   4.753   0.924
 4885SOL    HW215555   1.688   4.835   0.867
 4886SOL     OW15556   3.000   1.112   2.247
 4886SOL    HW115557   3.064   1.094   2.173
 4886SOL    HW215558   3.049   1.113   2.334
 4887SOL     OW15559   0.897   6.915   2.061
 4887SOL    HW115560   0.932   7.000   2.022
 4887SOL    HW215561   0.933   6.838   2.009
 4888SOL     OW15562   3.293   6.671   2.892
 4888SOL    HW115563   3.322   6.680   2.987
 4888SOL    HW215564   3.299   6.760   2.847
 4889SOL     OW15565   6.737   2.334   3.737
 4889SOL    HW115566   6.706   2.424   3.766
 4889SOL    HW215567   6.683   2.264   3.784
 4890SOL     OW15568   0.541   1.219   4.888
 4890SOL    HW115569   0.540   1.217   4.788
 4890SOL    HW215570   0.521   1.312   4.920
 4891SOL     OW15571   2.530   5.392   6.158
 4891SOL    HW115572   2.540   5.329   6.235
 4891SOL    HW215573   2.529   5.340   6.073
 4892SOL     OW15574   5.464   6.856   2.993
 4892SOL    HW115575   5.510   6.779   3.036
 4892SOL    HW215576   5.400   6.897   3.057
 4893SOL     OW15577   0.036   3.598   1.977
 4893SOL    HW115578   7.002   3.581   2.059
 4893SOL    HW215579   0.046   3.513   1.926
 4894SOL     OW15580   4.517   6.507   1.844
 4894SOL    HW115581   4.587   6.547   1.785
 4894SOL    HW215582   4.528   6.407   1.845
 4895SOL     OW15583   6.907   4.423   3.559
 4895SOL    HW115584   6.924   4.369   3.477
 4895SOL    HW215585   6.819   4.397   3.599
 4896SOL     OW15586   1.807   4.590   3.913
 4896SOL    HW115587   1.718   4.549   3.892
 4896SOL    HW215588   1.880   4.537   3.870
 4897SOL     OW15589   2.056   6.577   5.057
 4897SOL    HW115590   2.064   6.490   5.009
 4897SOL    HW215591   2.145   6.621   5.063
 4898SOL     OW15592   4.012   1.859   4.096
 4898SOL    HW115593   3.962   1.779   4.065
 4898SOL    HW215594   4.088   1.831   4.154
 4899SOL     OW15595   0.352   5.414   1.707
 4899SOL    HW115596   0.413   5.481   1.665
 4899SOL    HW215597   0.371   5.408   1.804
 4900SOL     OW15598   4.005   6.017   5.518
 4900SOL    HW115599   4.032   6.092   5.579
 4900SOL    HW215600   3.924   5.971   5.555
 4901SOL     OW15601   0.677   1.542   6.049
 4901SOL    HW115602   0.723   1.483   5.983
 4901SOL    HW215603   0.669   1.494   6.136
 4902SOL     OW15604   2.452   0.056   6.275
 4902SOL    HW115605   2.355   0.075   6.286
 4902SOL    HW215606   2.500   0.139   6.246
 4903SOL     OW15607   5.622   5.290   1.404
 4903SOL    HW115608   5.710   5.282   1.451
 4903SOL    HW215609   5.568   5.362   1.446
 4904SOL     OW15610   1.298   0.409   0.273
 4904SOL    HW115611   1.308   0.377   0.179
 4904SOL    HW215612   1.294   0.509   0.274
 4905SOL     OW15613   3.501   6.410   3.072
 4905SOL    HW115614   3.492   6.416   2.972
 4905SOL    HW215615   3.561   6.333   3.095
 4906SOL     OW15616   5.721   3.043   4.803
 4906SOL    HW115617   5.684   2.957   4.768
 4906SOL    HW215618   5.786   3.082   4.738
 4907SOL     OW15619   4.317   1.533   6.741
 4907SOL    HW115620   4.413   1.555   6.723
 4907SOL    HW215621   4.270   1.615   6.774
 4908SOL     OW15622   4.761   0.289   0.097
 4908SOL    HW115623   4.716   0.218   0.151
 4908SOL    HW215624   4.782   0.253   0.006
 4909SOL     OW15625   5.756   4.235   4.090
 4909SOL    HW115626   5.827   4.296   4.056
 4909SOL    HW215627   5.788   4.140   4.084
 4910SOL     OW15628   4.890   0.804   5.921
 4910SOL    HW115629   4.825   0.863   5.873
 4910SOL    HW215630   4.958   0.861   5.967
 4911SOL     OW15631   0.764   2.611   1.966
 4911SOL    HW115632   0.704   2.658   1.901
 4911SOL    HW215633   0.819   2.678   2.015
 4912SOL     OW15634   6.293   2.332   4.746
 4912SOL    HW115635   6.226   2.400   4.715
 4912SOL    HW215636   6.375   2.337   4.690
 4913SOL     OW15637   6.947   3.138   4.879
 4913SOL    HW115638   6.950   3.149   4.779
 4913SOL    HW215639   6.901   3.052   4.902
 4914SOL     OW15640   4.268   0.609   4.301
 4914SOL    HW115641   4.324   0.691   4.293
 4914SOL    HW215642   4.297   0.541   4.234
 4915SOL     OW15643   3.818   5.798   5.594
 4915SOL    HW115644   3.895   5.782   5.656
 4915SOL    HW215645   3.841   5.764   5.503
 4916SOL     OW15646   6.372   1.288   3.921
 4916SOL    HW115647   6.273   1.284   3.931
 4916SOL    HW215648   6.395   1.325   3.831
 4917SOL     OW15649   4.320   6.580   0.710
 4917SOL    HW115650   4.416   6.564   0.732
 4917SOL    HW215651   4.282   6.646   0.775
 4918SOL     OW15652   6.702   5.497   1.923
 4918SOL    HW115653   6.681   5.567   1.991
 4918SOL    HW215654   6.723   5.540   1.835
 4919SOL     OW15655   3.878   3.538   2.700
 4919SOL    HW115656   3.854   3.441   2.701
 4919SOL    HW215657   3.927   3.561   2.785
 4920SOL     OW15658   5.948   0.790   4.935
 4920SOL    HW115659   6.027   0.850   4.930
 4920SOL    HW215660   5.870   0.840   4.972
 4921SOL     OW15661   0.299   6.760   2.105
 4921SOL    HW115662   0.226   6.771   2.037
 4921SOL    HW215663   0.261   6.717   2.187
 4922SOL     OW15664   3.559   2.296   5.942
 4922SOL    HW115665   3.612   2.220   5.904
 4922SOL    HW215666   3.616   2.378   5.946
 4923SOL     OW15667   3.795   1.794   2.960
 4923SOL    HW115668   3.816   1.874   3.016
 4923SOL    HW215669   3.837   1.805   2.869
 4924SOL     OW15670   2.414   0.991   5.871
 4924SOL    HW115671   2.465   1.056   5.815
 4924SOL    HW215672   2.425   1.014   5.967
 4925SOL     OW15673   4.817   6.265   3.399
 4925SOL    HW115674   4.848   6.183   3.447
 4925SOL    HW215675   4.717   6.272   3.407
 4926SOL     OW15676   5.104   2.514   1.168
 4926SOL    HW115677   5.040   2.522   1.245
 4926SOL    HW215678   5.116   2.604   1.126
 4927SOL     OW15679   3.685   1.865   6.496
 4927SOL    HW115680   3.652   1.835   6.407
 4927SOL    HW215681   3.614   1.919   6.542
 4928SOL     OW15682   0.508   2.300   1.102
 4928SOL    HW115683   0.450   2.227   1.139
 4928SOL    HW215684   0.484   2.316   1.006
 4929SOL     OW15685   6.994   6.631   4.540
 4929SOL    HW115686   6.979   6.616   4.442
 4929SOL    HW215687   6.906   6.644   4.585
 4930SOL     OW15688   5.663   6.485   2.051
 4930SOL    HW115689   5.616   6.450   2.131
 4930SOL    HW215690   5.701   6.575   2.071
 4931SOL     OW15691   6.284   6.175   1.724
 4931SOL    HW115692   6.255   6.159   1.818
 4931SOL    HW215693   6.384   6.177   1.720
 4932SOL     OW15694   3.010   3.471   1.993
 4932SOL    HW115695   2.986   3.568   2.000
 4932SOL    HW215696   2.930   3.419   1.964
 4933SOL     OW15697   3.253   5.807   5.138
 4933SOL    HW115698   3.294   5.877   5.079
 4933SOL    HW215699   3.206   5.851   5.214
 4934SOL     OW15700   3.987   5.113   3.433
 4934SOL    HW115701   3.917   5.171   3.476
 4934SOL    HW215702   4.073   5.163   3.428
 4935SOL     OW15703   1.344   1.987   6.023
 4935SOL    HW115704   1.342   2.047   5.943
 4935SOL    HW215705   1.295   2.031   6.099
 4936SOL     OW15706   2.690   3.216   1.203
 4936SOL    HW115707   2.688   3.161   1.286
 4936SOL    HW215708   2.629   3.295   1.214
 4937SOL     OW15709   4.788   3.025   4.750
 4937SOL    HW115710   4.848   3.103   4.732
 4937SOL    HW215711   4.771   3.018   4.849
 4938SOL     OW15712   3.837   5.857   6.226
 4938SOL    HW115713   3.857   5.761   6.243
 4938SOL    HW215714   3.819   5.904   6.313
 4939SOL     OW15715   4.416   3.292   5.761
 4939SOL    HW115716   4.489   3.270   5.825
 4939SOL    HW215717   4.368   3.209   5.735
 4940SOL     OW15718   2.395   6.119   4.354
 4940SOL    HW115719   2.433   6.107   4.446
 4940SOL    HW215720   2.431   6.204   4.314
 4941SOL     OW15721   5.216   1.327   0.371
 4941SOL    HW115722   5.240   1.420   0.401
 4941SOL    HW215723   5.149   1.288   0.435
 4942SOL     OW15724   4.929   3.572   5.367
 4942SOL    HW115725   4.974   3.484   5.381
 4942SOL    HW215726   4.865   3.565   5.291
 4943SOL     OW15727   4.162   2.713   0.963
 4943SOL    HW115728   4.166   2.615   0.983
 4943SOL    HW215729   4.067   2.741   0.949
 4944SOL     OW15730   2.563   4.543   2.308
 4944SOL    HW115731   2.556   4.540   2.209
 4944SOL    HW215732   2.509   4.468   2.348
 4945SOL     OW15733   0.464   6.855   4.158
 4945SOL    HW115734   0.516   6.871   4.074
 4945SOL    HW215735   0.390   6.790   4.139
 4946SOL     OW15736   1.065   3.615   2.382
 4946SOL    HW115737   1.080   3.683   2.454
 4946SOL    HW215738   1.150   3.601   2.331
 4947SOL     OW15739   0.852   6.371   0.611
 4947SOL    HW115740   0.858   6.468   0.634
 4947SOL    HW215741   0.944   6.332   0.606
 4948SOL     OW15742   2.589   0.871   1.968
 4948SOL    HW115743   2.565   0.965   1.991
 4948SOL    HW215744   2.610   0.820   2.052
 4949SOL     OW15745   5.314   1.663   4.928
 4949SOL    HW115746   5.294   1.737   4.992
 4949SOL    HW215747   5.397   1.617   4.956
 4950SOL     OW15748   3.386   5.466   4.691
 4950SOL    HW115749   3.304   5.422   4.728
 4950SOL    HW215750   3.396   5.557   4.732
 4951SOL     OW15751   4.419   2.051   4.244
 4951SOL    HW115752   4.392   2.144   4.270
 4951SOL    HW215753   4.429   1.995   4.326
 4952SOL     OW15754   0.103   5.845   5.727
 4952SOL    HW115755   0.100   5.919   5.793
 4952SOL    HW215756   0.074   5.760   5.770
 4953SOL     OW15757   2.045   5.646   1.754
 4953SOL    HW115758   1.997   5.710   1.694
 4953SOL    HW215759   2.106   5.588   1.701
 4954SOL     OW15760   5.294   5.532   6.559
 4954SOL    HW115761   5.249   5.454   6.600
 4954SOL    HW215762   5.383   5.504   6.522
 4955SOL     OW15763   1.742   6.633   1.672
 4955SOL    HW115764   1.695   6.636   1.760
 4955SOL    HW215765   1.718   6.548   1.624
 4956SOL     OW15766   4.702   6.644   4.518
 4956SOL    HW115767   4.652   6.562   4.490
 4956SOL    HW215768   4.664   6.724   4.471
 4957SOL     OW15769   0.623   0.639   3.565
 4957SOL    HW115770   0.636   0.588   3.481
 4957SOL    HW215771   0.549   0.706   3.553
 4958SOL     OW15772   0.473   5.948   0.081
 4958SOL    HW115773   0.556   5.897   0.060
 4958SOL    HW215774   0.403   5.929   0.013
 4959SOL     OW15775   0.677   0.847   1.129
 4959SOL    HW115776   0.595   0.905   1.129
 4959SOL    HW215777   0.749   0.892   1.077
 4960SOL     OW15778   3.927   0.008   4.801
 4960SOL    HW115779   3.878   0.083   4.758
 4960SOL    HW215780   3.933   6.952   4.738
 4961SOL     OW15781   4.667   0.839   4.792
 4961SOL    HW115782   4.764   0.857   4.808
 4961SOL    HW215783   4.611   0.906   4.840
 4962SOL     OW15784   0.186   1.766   0.550
 4962SOL    HW115785   0.148   1.749   0.641
 4962SOL    HW215786   0.252   1.695   0.528
 4963SOL     OW15787   0.544   4.886   1.648
 4963SOL    HW115788   0.483   4.842   1.714
 4963SOL    HW215789   0.516   4.981   1.636
 4964SOL     OW15790   3.155   6.625   3.426
 4964SOL    HW115791   3.067   6.577   3.429
 4964SOL    HW215792   3.227   6.562   3.455
 4965SOL     OW15793   6.823   0.704   4.392
 4965SOL    HW115794   6.813   0.646   4.473
 4965SOL    HW215795   6.756   0.778   4.395
 4966SOL     OW15796   3.139   4.882   3.995
 4966SOL    HW115797   3.163   4.862   3.900
 4966SOL    HW215798   3.041   4.865   4.009
 4967SOL     OW15799   3.985   2.537   5.670
 4967SOL    HW115800   4.050   2.487   5.613
 4967SOL    HW215801   3.902   2.482   5.682
 4968SOL     OW15802   6.309   3.385   4.986
 4968SOL    HW115803   6.303   3.483   4.968
 4968SOL    HW215804   6.276   3.335   4.906
 4969SOL     OW15805   0.987   1.517   1.793
 4969SOL    HW115806   0.900   1.470   1.804
 4969SOL    HW215807   1.058   1.471   1.845
 4970SOL     OW15808   0.890   2.610   5.415
 4970SOL    HW115809   0.905   2.651   5.504
 4970SOL    HW215810   0.796   2.576   5.409
 4971SOL     OW15811   5.145   6.209   3.385
 4971SOL    HW115812   5.144   6.305   3.358
 4971SOL    HW215813   5.051   6.172   3.382
 4972SOL     OW15814   1.350   2.995   6.397
 4972SOL    HW115815   1.356   2.931   6.474
 4972SOL    HW215816   1.437   3.044   6.389
 4973SOL     OW15817   5.088   6.744   2.768
 4973SOL    HW115818   5.088   6.844   2.767
 4973SOL    HW215819   5.137   6.710   2.688
 4974SOL     OW15820   5.490   6.559   2.574
 4974SOL    HW115821   5.454   6.518   2.658
 4974SOL    HW215822   5.425   6.626   2.539
 4975SOL     OW15823   5.997   5.804   0.661
 4975SOL    HW115824   6.059   5.725   0.653
 4975SOL    HW215825   5.917   5.789   0.604
 4976SOL     OW15826   3.931   0.774   5.428
 4976SOL    HW115827   3.977   0.768   5.517
 4976SOL    HW215828   3.894   0.685   5.403
 4977SOL     OW15829   3.509   3.739   0.969
 4977SOL    HW115830   3.483   3.788   1.052
 4977SOL    HW215831   3.458   3.653   0.963
 4978SOL     OW15832   5.444   3.238   6.165
 4978SOL    HW115833   5.491   3.151   6.147
 4978SOL    HW215834   5.467   3.304   6.093
 4979SOL     OW15835   1.374   0.617   5.475
 4979SOL    HW115836   1.337   0.643   5.564
 4979SOL    HW215837   1.431   0.691   5.440
 4980SOL     OW15838   2.858   5.144   1.923
 4980SOL    HW115839   2.865   5.184   2.015
 4980SOL    HW215840   2.943   5.096   1.902
 4981SOL     OW15841   4.071   6.758   5.686
 4981SOL    HW115842   3.975   6.735   5.699
 4981SOL    HW215843   4.128   6.694   5.738
 4982SOL     OW15844   2.199   3.071   0.589
 4982SOL    HW115845   2.252   3.120   0.520
 4982SOL    HW215846   2.147   2.997   0.545
 4983SOL     OW15847   5.248   3.038   4.078
 4983SOL    HW115848   5.150   3.051   4.097
 4983SOL    HW215849   5.265   3.048   3.980
 4984SOL     OW15850   4.689   4.152   3.148
 4984SOL    HW115851   4.646   4.239   3.173
 4984SOL    HW215852   4.714   4.154   3.051
 4985SOL     OW15853   5.284   4.858   2.478
 4985SOL    HW115854   5.262   4.910   2.396
 4985SOL    HW215855   5.370   4.892   2.517
 4986SOL     OW15856   4.476   4.899   2.562
 4986SOL    HW115857   4.460   4.993   2.591
 4986SOL    HW215858   4.556   4.863   2.609
 4987SOL     OW15859   6.959   3.750   1.341
 4987SOL    HW115860   0.026   3.703   1.336
 4987SOL    HW215861   6.907   3.732   1.258
 4988SOL     OW15862   0.423   1.601   4.454
 4988SOL    HW115863   0.479   1.533   4.407
 4988SOL    HW215864   0.388   1.562   4.539
 4989SOL     OW15865   0.397   0.931   0.542
 4989SOL    HW115866   0.403   1.005   0.475
 4989SOL    HW215867   0.397   0.969   0.634
 4990SOL     OW15868   1.578   2.211   5.528
 4990SOL    HW115869   1.479   2.223   5.517
 4990SOL    HW215870   1.616   2.169   5.446
 4991SOL     OW15871   1.049   2.874   4.232
 4991SOL    HW115872   1.064   2.783   4.271
 4991SOL    HW215873   1.107   2.886   4.151
 4992SOL     OW15874   3.543   0.515   6.000
 4992SOL    HW115875   3.566   0.612   6.009
 4992SOL    HW215876   3.624   0.460   6.020
 4993SOL     OW15877   2.996   6.054   3.870
 4993SOL    HW115878   2.918   6.013   3.823
 4993SOL    HW215879   2.988   6.040   3.968
 4994SOL     OW15880   0.320   6.969   2.702
 4994SOL    HW115881   0.269   6.891   2.738
 4994SOL    HW215882   0.311   6.972   2.602
 4995SOL     OW15883   5.620   2.305   6.430
 4995SOL    HW115884   5.665   2.381   6.383
 4995SOL    HW215885   5.581   2.242   6.362
 4996SOL     OW15886   1.243   1.298   3.207
 4996SOL    HW115887   1.240   1.397   3.224
 4996SOL    HW215888   1.151   1.261   3.212
 4997SOL     OW15889   0.584   2.594   3.399
 4997SOL    HW115890   0.624   2.676   3.358
 4997SOL    HW215891   0.655   2.541   3.445
 4998SOL     OW15892   1.550   5.715   4.858
 4998SOL    HW115893   1.544   5.615   4.865
 4998SOL    HW215894   1.476   5.756   4.911
 4999SOL     OW15895   6.003   5.298   1.240
 4999SOL    HW115896   6.067   5.229   1.273
 4999SOL    HW215897   5.911   5.258   1.234
 5000SOL     OW15898   0.114   6.271   4.332
 5000SOL    HW115899   0.018   6.258   4.355
 5000SOL    HW215900   0.171   6.226   4.400
 5001SOL     OW15901   4.080   4.377   5.875
 5001SOL    HW115902   4.015   4.362   5.950
 5001SOL    HW215903   4.105   4.289   5.835
 5002SOL     OW15904   2.301   0.917   2.190
 5002SOL    HW115905   2.260   0.928   2.100
 5002SOL    HW215906   2.379   0.980   2.200
 5003SOL     OW15907   6.639   5.589   3.002
 5003SOL    HW115908   6.595   5.657   2.943
 5003SOL    HW215909   6.648   5.626   3.094
 5004SOL     OW15910   3.306   5.907   0.155
 5004SOL    HW115911   3.299   5.817   0.199
 5004SOL    HW215912   3.214   5.947   0.146
 5005SOL     OW15913   4.775   2.713   0.058
 5005SOL    HW115914   4.781   2.737   6.983
 5005SOL    HW215915   4.742   2.791   0.110
 5006SOL     OW15916   5.361   5.998   4.603
 5006SOL    HW115917   5.438   5.934   4.609
 5006SOL    HW215918   5.337   6.011   4.507
 5007SOL     OW15919   3.929   1.056   5.671
 5007SOL    HW115920   3.851   1.109   5.638
 5007SOL    HW215921   4.009   1.076   5.613
 5008SOL     OW15922   6.491   1.382   3.655
 5008SOL    HW115923   6.576   1.351   3.700
 5008SOL    HW215924   6.490   1.349   3.561
 5009SOL     OW15925   1.545   6.659   3.087
 5009SOL    HW115926   1.529   6.562   3.107
 5009SOL    HW215927   1.556   6.672   2.989
 5010SOL     OW15928   4.078   3.244   4.532
 5010SOL    HW115929   4.068   3.305   4.611
 5010SOL    HW215930   4.058   3.150   4.560
 5011SOL     OW15931   1.000   2.796   2.611
 5011SOL    HW115932   0.946   2.829   2.688
 5011SOL    HW215933   0.956   2.823   2.525
 5012SOL     OW15934   6.641   2.302   6.594
 5012SOL    HW115935   6.627   2.243   6.514
 5012SOL    HW215936   6.553   2.320   6.638
 5013SOL     OW15937   3.912   1.786   6.614
 5013SOL    HW115938   3.844   1.836   6.561
 5013SOL    HW215939   3.946   1.709   6.560
 5014SOL     OW15940   5.943   6.517   0.365
 5014SOL    HW115941   5.965   6.422   0.340
 5014SOL    HW215942   5.853   6.540   0.326
 5015SOL     OW15943   4.547   2.289   3.848
 5015SOL    HW115944   4.642   2.319   3.842
 5015SOL    HW215945   4.511   2.276   3.755
 5016SOL     OW15946   2.257   6.794   3.413
 5016SOL    HW115947   2.291   6.703   3.391
 5016SOL    HW215948   2.273   6.856   3.336
 5017SOL     OW15949   2.247   2.838   1.445
 5017SOL    HW115950   2.149   2.819   1.443
 5017SOL    HW215951   2.278   2.843   1.541
 5018SOL     OW15952   6.276   5.374   3.661
 5018SOL    HW115953   6.344   5.430   3.707
 5018SOL    HW215954   6.219   5.327   3.729
 5019SOL     OW15955   1.842   4.626   6.394
 5019SOL    HW115956   1.871   4.694   6.461
 5019SOL    HW215957   1.838   4.536   6.438
 5020SOL     OW15958   5.436   5.168   6.017
 5020SOL    HW115959   5.529   5.184   6.049
 5020SOL    HW215960   5.427   5.074   5.985
 5021SOL     OW15961   1.468   4.353   6.240
 5021SOL    HW115962   1.549   4.365   6.182
 5021SOL    HW215963   1.497   4.336   6.334
 5022SOL     OW15964   1.293   5.431   0.229
 5022SOL    HW115965   1.343   5.432   0.142
 5022SOL    HW215966   1.349   5.386   0.298
 5023SOL     OW15967   6.155   2.967   2.122
 5023SOL    HW115968   6.093   3.042   2.143
 5023SOL    HW215969   6.107   2.880   2.132
 5024SOL     OW15970   6.558   3.936   4.618
 5024SOL    HW115971   6.529   4.006   4.684
 5024SOL    HW215972   6.567   3.848   4.665
 5025SOL     OW15973   5.390   1.125   3.185
 5025SOL    HW115974   5.322   1.128   3.111
 5025SOL    HW215975   5.372   1.199   3.249
 5026SOL     OW15976   0.589   6.683   4.301
 5026SOL    HW115977   0.620   6.723   4.387
 5026SOL    HW215978   0.544   6.753   4.245
 5027SOL     OW15979   0.867   0.192   3.650
 5027SOL    HW115980   0.885   0.102   3.689
 5027SOL    HW215981   0.901   0.263   3.712
 5028SOL     OW15982   0.327   0.475   2.818
 5028SOL    HW115983   0.281   0.394   2.781
 5028SOL    HW215984   0.344   0.541   2.744
 5029SOL     OW15985   0.092   1.419   1.388
 5029SOL    HW115986   0.048   1.330   1.398
 5029SOL    HW215987   0.188   1.407   1.365
 5030SOL     OW15988   1.250   6.150   0.091
 5030SOL    HW115989   1.248   6.249   0.073
 5030SOL    HW215990   1.343   6.117   0.083
 5031SOL     OW15991   5.345   0.311   4.452
 5031SOL    HW115992   5.391   0.396   4.475
 5031SOL    HW215993   5.403   0.256   4.391
 5032SOL     OW15994   2.108   5.503   1.014
 5032SOL    HW115995   2.050   5.566   1.066
 5032SOL    HW215996   2.077   5.500   0.919
 5033SOL     OW15997   1.953   4.146   5.661
 5033SOL    HW115998   1.867   4.156   5.613
 5033SOL    HW215999   1.943   4.078   5.734
 5034SOL     OW16000   6.858   3.318   0.803
 5034SOL    HW116001   6.893   3.236   0.758
 5034SOL    HW216002   6.764   3.335   0.773
 5035SOL     OW16003   5.209   4.508   0.600
 5035SOL    HW116004   5.298   4.488   0.560
 5035SOL    HW216005   5.162   4.576   0.545
 5036SOL     OW16006   1.506   0.539   1.904
 5036SOL    HW116007   1.544   0.632   1.911
 5036SOL    HW216008   1.556   0.478   1.965
 5037SOL     OW16009   4.179   2.302   3.840
 5037SOL    HW116010   4.195   2.224   3.899
 5037SOL    HW216011   4.230   2.381   3.875
 5038SOL     OW16012   1.966   6.390   5.508
 5038SOL    HW116013   1.942   6.357   5.417
 5038SOL    HW216014   2.006   6.316   5.561
 5039SOL     OW16015   2.137   1.862   5.072
 5039SOL    HW116016   2.237   1.852   5.067
 5039SOL    HW216017   2.108   1.933   5.007
 5040SOL     OW16018   3.047   3.795   5.686
 5040SOL    HW116019   3.072   3.706   5.648
 5040SOL    HW216020   2.951   3.813   5.667
 5041SOL     OW16021   1.406   4.654   0.668
 5041SOL    HW116022   1.498   4.643   0.632
 5041SOL    HW216023   1.406   4.636   0.767
 5042SOL     OW16024   5.405   2.429   6.669
 5042SOL    HW116025   5.306   2.443   6.671
 5042SOL    HW216026   5.424   2.338   6.632
 5043SOL     OW16027   4.054   0.560   3.432
 5043SOL    HW116028   4.001   0.645   3.437
 5043SOL    HW216029   4.005   0.488   3.480
 5044SOL     OW16030   6.832   4.919   3.185
 5044SOL    HW116031   6.747   4.907   3.134
 5044SOL    HW216032   6.852   4.837   3.238
 5045SOL     OW16033   5.913   2.435   6.727
 5045SOL    HW116034   5.932   2.502   6.655
 5045SOL    HW216035   5.948   2.346   6.699
 5046SOL     OW16036   3.344   2.825   5.040
 5046SOL    HW116037   3.364   2.734   5.076
 5046SOL    HW216038   3.430   2.877   5.033
 5047SOL     OW16039   0.962   0.873   2.458
 5047SOL    HW116040   0.928   0.873   2.552
 5047SOL    HW216041   0.949   0.964   2.418
 5048SOL     OW16042   5.943   2.962   1.824
 5048SOL    HW116043   5.892   2.901   1.762
 5048SOL    HW216044   5.915   3.056   1.809
 5049SOL     OW16045   0.923   2.565   2.294
 5049SOL    HW116046   0.921   2.655   2.337
 5049SOL    HW216047   1.016   2.545   2.262
 5050SOL     OW16048   0.864   3.129   1.676
 5050SOL    HW116049   0.849   3.093   1.583
 5050SOL    HW216050   0.776   3.156   1.715
 5051SOL     OW16051   2.741   5.464   0.645
 5051SOL    HW116052   2.792   5.488   0.562
 5051SOL    HW216053   2.643   5.468   0.626
 5052SOL     OW16054   5.616   4.989   0.799
 5052SOL    HW116055   5.649   4.966   0.891
 5052SOL    HW216056   5.590   4.905   0.751
 5053SOL     OW16057   2.451   4.603   0.740
 5053SOL    HW116058   2.510   4.539   0.789
 5053SOL    HW216059   2.408   4.666   0.805
 5054SOL     OW16060   3.657   5.870   4.514
 5054SOL    HW116061   3.650   5.965   4.546
 5054SOL    HW216062   3.718   5.867   4.435
 5055SOL     OW16063   1.143   2.031   5.177
 5055SOL    HW116064   1.064   2.063   5.125
 5055SOL    HW216065   1.225   2.037   5.121
 5056SOL     OW16066   0.887   2.851   5.225
 5056SOL    HW116067   0.847   2.860   5.134
 5056SOL    HW216068   0.859   2.763   5.264
 5057SOL     OW16069   0.265   5.156   2.425
 5057SOL    HW116070   0.335   5.123   2.361
 5057SOL    HW216071   0.260   5.095   2.504
 5058SOL     OW16072   3.810   4.427   6.520
 5058SOL    HW116073   3.852   4.474   6.598
 5058SOL    HW216074   3.776   4.495   6.455
 5059SOL     OW16075   3.633   1.852   3.918
 5059SOL    HW116076   3.593   1.938   3.887
 5059SOL    HW216077   3.653   1.794   3.839
 5060SOL     OW16078   0.504   3.404   5.786
 5060SOL    HW116079   0.594   3.446   5.780
 5060SOL    HW216080   0.492   3.341   5.708
 5061SOL     OW16081   3.703   2.976   5.433
 5061SOL    HW116082   3.766   2.929   5.372
 5061SOL    HW216083   3.711   2.937   5.525
 5062SOL     OW16084   5.101   1.429   2.778
 5062SOL    HW116085   5.032   1.498   2.752
 5062SOL    HW216086   5.105   1.358   2.707
 5063SOL     OW16087   0.942   0.569   2.651
 5063SOL    HW116088   0.955   0.668   2.656
 5063SOL    HW216089   0.885   0.547   2.572
 5064SOL     OW16090   4.460   5.611   1.184
 5064SOL    HW116091   4.418   5.566   1.263
 5064SOL    HW216092   4.396   5.677   1.146
 5065SOL     OW16093   2.541   0.225   2.413
 5065SOL    HW116094   2.595   0.186   2.487
 5065SOL    HW216095   2.449   0.248   2.445
 5066SOL     OW16096   2.543   4.551   2.042
 5066SOL    HW116097   2.526   4.649   2.032
 5066SOL    HW216098   2.641   4.535   2.055
 5067SOL     OW16099   4.440   3.096   1.189
 5067SOL    HW116100   4.393   3.011   1.213
 5067SOL    HW216101   4.457   3.098   1.091
 5068SOL     OW16102   2.925   5.977   0.360
 5068SOL    HW116103   2.921   5.927   0.446
 5068SOL    HW216104   2.918   6.075   0.377
 5069SOL     OW16105   3.555   5.099   5.655
 5069SOL    HW116106   3.537   5.054   5.743
 5069SOL    HW216107   3.585   5.031   5.588
 5070SOL     OW16108   6.250   3.086   3.865
 5070SOL    HW116109   6.329   3.090   3.926
 5070SOL    HW216110   6.177   3.143   3.902
 5071SOL     OW16111   2.702   0.439   4.604
 5071SOL    HW116112   2.644   0.440   4.522
 5071SOL    HW216113   2.719   0.534   4.633
 5072SOL     OW16114   1.004   1.499   0.434
 5072SOL    HW116115   1.061   1.495   0.516
 5072SOL    HW216116   1.014   1.589   0.390
 5073SOL     OW16117   2.319   0.440   2.265
 5073SOL    HW116118   2.259   0.515   2.293
 5073SOL    HW216119   2.265   0.357   2.252
 5074SOL     OW16120   3.483   2.129   1.774
 5074SOL    HW116121   3.520   2.060   1.711
 5074SOL    HW216122   3.556   2.192   1.802
 5075SOL     OW16123   0.960   3.242   0.231
 5075SOL    HW116124   0.863   3.232   0.208
 5075SOL    HW216125   0.997   3.153   0.260
 5076SOL     OW16126   5.451   6.757   6.625
 5076SOL    HW116127   5.522   6.686   6.633
 5076SOL    HW216128   5.451   6.793   6.531
 5077SOL     OW16129   1.046   4.521   3.930
 5077SOL    HW116130   0.999   4.458   3.991
 5077SOL    HW216131   1.143   4.494   3.923
 5078SOL     OW16132   0.915   1.612   3.759
 5078SOL    HW116133   0.977   1.546   3.801
 5078SOL    HW216134   0.848   1.565   3.702
 5079SOL     OW16135   1.485   3.104   5.866
 5079SOL    HW116136   1.474   3.203   5.871
 5079SOL    HW216137   1.481   3.066   5.958
 5080SOL     OW16138   5.698   5.418   6.738
 5080SOL    HW116139   5.796   5.417   6.758
 5080SOL    HW216140   5.682   5.466   6.652
 5081SOL     OW16141   3.329   5.224   5.522
 5081SOL    HW116142   3.391   5.165   5.575
 5081SOL    HW216143   3.326   5.192   5.428
 5082SOL     OW16144   5.651   6.076   1.895
 5082SOL    HW116145   5.707   6.043   1.820
 5082SOL    HW216146   5.691   6.048   1.982
 5083SOL     OW16147   2.007   6.938   3.196
 5083SOL    HW116148   1.910   6.948   3.173
 5083SOL    HW216149   2.028   6.842   3.211
 5084SOL     OW16150   1.548   4.982   5.332
 5084SOL    HW116151   1.598   4.899   5.308
 5084SOL    HW216152   1.541   5.042   5.252
 5085SOL     OW16153   0.234   3.814   6.196
 5085SOL    HW116154   0.212   3.769   6.110
 5085SOL    HW216155   0.326   3.787   6.225
 5086SOL     OW16156   2.551   5.087   2.308
 5086SOL    HW116157   2.556   5.023   2.385
 5086SOL    HW216158   2.457   5.118   2.296
 5087SOL     OW16159   6.987   5.045   2.176
 5087SOL    HW116160   0.038   5.074   2.115
 5087SOL    HW216161   7.000   4.948   2.199
 5088SOL     OW16162   5.044   6.280   2.094
 5088SOL    HW116163   4.992   6.363   2.075
 5088SOL    HW216164   4.994   6.224   2.160
 5089SOL     OW16165   5.658   4.999   5.113
 5089SOL    HW116166   5.582   5.058   5.086
 5089SOL    HW216167   5.711   4.973   5.033
 5090SOL     OW16168   3.143   0.263   4.909
 5090SOL    HW116169   3.222   0.201   4.913
 5090SOL    HW216170   3.166   0.349   4.954
 5091SOL     OW16171   6.284   6.913   0.035
 5091SOL    HW116172   6.203   6.920   0.094
 5091SOL    HW216173   6.299   6.817   0.011
 5092SOL     OW16174   2.937   3.518   4.096
 5092SOL    HW116175   2.889   3.575   4.030
 5092SOL    HW216176   2.973   3.575   4.170
 5093SOL     OW16177   1.637   1.678   2.623
 5093SOL    HW116178   1.564   1.643   2.683
 5093SOL    HW216179   1.655   1.774   2.645
 5094SOL     OW16180   2.508   6.021   5.922
 5094SOL    HW116181   2.457   5.987   5.843
 5094SOL    HW216182   2.458   5.998   6.006
 5095SOL     OW16183   6.429   1.134   3.138
 5095SOL    HW116184   6.348   1.192   3.147
 5095SOL    HW216185   6.421   1.078   3.056
 5096SOL     OW16186   5.805   2.945   5.503
 5096SOL    HW116187   5.805   2.919   5.407
 5096SOL    HW216188   5.737   2.892   5.553
 5097SOL     OW16189   1.198   6.782   6.822
 5097SOL    HW116190   1.288   6.741   6.809
 5097SOL    HW216191   1.208   6.880   6.840
 5098SOL     OW16192   3.885   2.238   1.499
 5098SOL    HW116193   3.961   2.294   1.467
 5098SOL    HW216194   3.875   2.248   1.599
 5099SOL     OW16195   0.993   0.368   1.964
 5099SOL    HW116196   1.084   0.407   1.948
 5099SOL    HW216197   0.925   0.423   1.915
 5100SOL     OW16198   5.343   4.372   2.916
 5100SOL    HW116199   5.332   4.453   2.857
 5100SOL    HW216200   5.295   4.387   3.002
 5101SOL     OW16201   3.840   0.066   6.253
 5101SOL    HW116202   3.886   0.083   6.166
 5101SOL    HW216203   3.759   0.009   6.237
 5102SOL     OW16204   5.192   4.461   4.746
 5102SOL    HW116205   5.189   4.534   4.814
 5102SOL    HW216206   5.116   4.398   4.760
 5103SOL     OW16207   0.994   0.918   5.883
 5103SOL    HW116208   1.044   0.995   5.844
 5103SOL    HW216209   1.048   0.877   5.956
 5104SOL     OW16210   3.749   4.158   1.749
 5104SOL    HW116211   3.665   4.160   1.803
 5104SOL    HW216212   3.728   4.176   1.653
 5105SOL     OW16213   3.830   3.450   6.389
 5105SOL    HW116214   3.868   3.542   6.385
 5105SOL    HW216215   3.878   3.391   6.324
 5106SOL     OW16216   4.675   2.861   0.979
 5106SOL    HW116217   4.721   2.823   0.899
 5106SOL    HW216218   4.605   2.925   0.951
 5107SOL     OW16219   5.135   3.256   0.425
 5107SOL    HW116220   5.076   3.178   0.447
 5107SOL    HW216221   5.105   3.336   0.478
 5108SOL     OW16222   4.431   4.564   6.968
 5108SOL    HW116223   4.448   4.471   7.002
 5108SOL    HW216224   4.484   4.629   7.021
 5109SOL     OW16225   1.439   3.019   1.222
 5109SOL    HW116226   1.485   2.985   1.140
 5109SOL    HW216227   1.503   3.073   1.276
 5110SOL     OW16228   4.794   0.405   6.196
 5110SOL    HW116229   4.767   0.373   6.287
 5110SOL    HW216230   4.768   0.501   6.185
 5111SOL     OW16231   0.617   6.614   5.366
 5111SOL    HW116232   0.584   6.701   5.331
 5111SOL    HW216233   0.707   6.593   5.327
 5112SOL     OW16234   0.216   0.190   2.783
 5112SOL    HW116235   0.147   0.189   2.711
 5112SOL    HW216236   0.287   0.123   2.763
 5113SOL     OW16237   2.200   4.318   0.189
 5113SOL    HW116238   2.293   4.298   0.221
 5113SOL    HW216239   2.143   4.344   0.267
 5114SOL     OW16240   4.298   5.630   0.831
 5114SOL    HW116241   4.310   5.651   0.734
 5114SOL    HW216242   4.348   5.698   0.886
 5115SOL     OW16243   1.754   3.874   1.091
 5115SOL    HW116244   1.790   3.838   1.005
 5115SOL    HW216245   1.709   3.800   1.142
 5116SOL     OW16246   1.787   6.847   6.591
 5116SOL    HW116247   1.878   6.848   6.550
 5116SOL    HW216248   1.722   6.803   6.529
 5117SOL     OW16249   1.425   2.256   3.676
 5117SOL    HW116250   1.485   2.195   3.624
 5117SOL    HW216251   1.417   2.224   3.770
 5118SOL     OW16252   5.256   6.025   6.380
 5118SOL    HW116253   5.283   6.117   6.349
 5118SOL    HW216254   5.333   5.963   6.368
 5119SOL     OW16255   5.102   1.910   0.200
 5119SOL    HW116256   5.067   1.987   0.146
 5119SOL    HW216257   5.090   1.931   0.297
 5120SOL     OW16258   5.382   0.099   5.505
 5120SOL    HW116259   5.367   0.106   5.603
 5120SOL    HW216260   5.408   0.005   5.481
 5121SOL     OW16261   1.617   3.699   0.009
 5121SOL    HW116262   1.548   3.683   0.079
 5121SOL    HW216263   1.685   3.764   0.042
 5122SOL     OW16264   5.225   5.211   3.811
 5122SOL    HW116265   5.225   5.112   3.823
 5122SOL    HW216266   5.131   5.245   3.818
 5123SOL     OW16267   5.159   2.541   2.374
 5123SOL    HW116268   5.089   2.567   2.306
 5123SOL    HW216269   5.172   2.616   2.439
 5124SOL     OW16270   2.115   6.158   3.645
 5124SOL    HW116271   2.015   6.163   3.655
 5124SOL    HW216272   2.146   6.232   3.585
 5125SOL     OW16273   0.138   1.821   3.922
 5125SOL    HW116274   0.152   1.868   4.010
 5125SOL    HW216275   0.132   1.888   3.849
 5126SOL     OW16276   2.208   0.024   0.593
 5126SOL    HW116277   2.195   0.109   0.544
 5126SOL    HW216278   2.256   0.042   0.680
 5127SOL     OW16279   1.843   5.263   6.544
 5127SOL    HW116280   1.799   5.268   6.455
 5127SOL    HW216281   1.774   5.247   6.615
 5128SOL     OW16282   6.566   6.088   1.828
 5128SOL    HW116283   6.582   6.180   1.792
 5128SOL    HW216284   6.585   6.086   1.926
 5129SOL     OW16285   5.677   6.926   1.275
 5129SOL    HW116286   5.765   6.881   1.263
 5129SOL    HW216287   5.620   6.910   1.194
 5130SOL     OW16288   6.581   4.978   3.045
 5130SOL    HW116289   6.513   5.019   3.105
 5130SOL    HW216290   6.627   5.050   2.993
 5131SOL     OW16291   2.365   2.351   3.250
 5131SOL    HW116292   2.363   2.408   3.332
 5131SOL    HW216293   2.447   2.373   3.197
 5132SOL     OW16294   2.861   5.519   5.179
 5132SOL    HW116295   2.783   5.503   5.240
 5132SOL    HW216296   2.943   5.537   5.234
 5133SOL     OW16297   3.629   6.438   6.408
 5133SOL    HW116298   3.531   6.454   6.400
 5133SOL    HW216299   3.677   6.525   6.409
 5134SOL     OW16300   0.457   3.955   0.768
 5134SOL    HW116301   0.520   3.986   0.839
 5134SOL    HW216302   0.363   3.965   0.801
 5135SOL     OW16303   6.642   1.869   5.143
 5135SOL    HW116304   6.714   1.895   5.207
 5135SOL    HW216305   6.630   1.941   5.075
 5136SOL     OW16306   4.294   1.504   4.208
 5136SOL    HW116307   4.258   1.587   4.164
 5136SOL    HW216308   4.325   1.440   4.137
 5137SOL     OW16309   3.752   4.589   6.322
 5137SOL    HW116310   3.686   4.664   6.322
 5137SOL    HW216311   3.834   4.618   6.271
 5138SOL     OW16312   2.537   3.760   5.831
 5138SOL    HW116313   2.563   3.670   5.797
 5138SOL    HW216314   2.599   3.787   5.905
 5139SOL     OW16315   1.203   6.829   3.870
 5139SOL    HW116316   1.296   6.849   3.840
 5139SOL    HW216317   1.152   6.786   3.796
 5140SOL     OW16318   3.560   2.849   1.288
 5140SOL    HW116319   3.593   2.784   1.219
 5140SOL    HW216320   3.510   2.799   1.359
 5141SOL     OW16321   5.961   3.223   6.704
 5141SOL    HW116322   5.994   3.171   6.625
 5141SOL    HW216323   5.870   3.189   6.730
 5142SOL     OW16324   5.197   3.850   4.542
 5142SOL    HW116325   5.196   3.769   4.600
 5142SOL    HW216326   5.183   3.931   4.598
 5143SOL     OW16327   6.664   5.329   3.913
 5143SOL    HW116328   6.637   5.411   3.862
 5143SOL    HW216329   6.590   5.262   3.909
 5144SOL     OW16330   1.485   1.305   5.651
 5144SOL    HW116331   1.464   1.304   5.553
 5144SOL    HW216332   1.413   1.354   5.700
 5145SOL     OW16333   2.562   5.645   6.029
 5145SOL    HW116334   2.481   5.677   5.980
 5145SOL    HW216335   2.537   5.569   6.089
 5146SOL     OW16336   2.707   4.688   7.016
 5146SOL    HW116337   2.737   4.733   0.079
 5146SOL    HW216338   2.788   4.653   6.967
 5147SOL     OW16339   6.193   4.684   6.668
 5147SOL    HW116340   6.291   4.702   6.677
 5147SOL    HW216341   6.171   4.597   6.711
 5148SOL     OW16342   0.474   5.920   1.344
 5148SOL    HW116343   0.483   5.850   1.274
 5148SOL    HW216344   0.402   5.894   1.408
 5149SOL     OW16345   6.667   1.290   4.348
 5149SOL    HW116346   6.679   1.215   4.283
 5149SOL    HW216347   6.690   1.259   4.440
 5150SOL     OW16348   1.684   4.767   4.214
 5150SOL    HW116349   1.762   4.816   4.174
 5150SOL    HW216350   1.718   4.688   4.265
 5151SOL     OW16351   4.106   1.145   6.653
 5151SOL    HW116352   4.178   1.201   6.693
 5151SOL    HW216353   4.145   1.081   6.587
 5152SOL     OW16354   0.935   4.881   6.875
 5152SOL    HW116355   0.890   4.867   6.963
 5152SOL    HW216356   0.986   4.967   6.877
 5153SOL     OW16357   1.368   1.826   0.629
 5153SOL    HW116358   1.460   1.857   0.607
 5153SOL    HW216359   1.368   1.778   0.716
 5154SOL     OW16360   1.365   2.669   5.248
 5154SOL    HW116361   1.318   2.747   5.290
 5154SOL    HW216362   1.350   2.670   5.149
 5155SOL     OW16363   3.334   6.885   2.325
 5155SOL    HW116364   3.313   6.862   2.230
 5155SOL    HW216365   3.421   6.934   2.329
 5156SOL     OW16366   5.884   2.637   5.383
 5156SOL    HW116367   5.960   2.572   5.380
 5156SOL    HW216368   5.907   2.717   5.327
 5157SOL     OW16369   5.344   2.898   3.340
 5157SOL    HW116370   5.399   2.980   3.359
 5157SOL    HW216371   5.404   2.819   3.330
 5158SOL     OW16372   3.705   1.478   1.246
 5158SOL    HW116373   3.741   1.400   1.195
 5158SOL    HW216374   3.609   1.462   1.268
 5159SOL     OW16375   1.563   3.004   4.221
 5159SOL    HW116376   1.508   3.027   4.301
 5159SOL    HW216377   1.654   3.046   4.229
 5160SOL     OW16378   1.947   3.384   4.588
 5160SOL    HW116379   2.014   3.388   4.514
 5160SOL    HW216380   1.994   3.396   4.675
 5161SOL     OW16381   0.706   3.175   5.235
 5161SOL    HW116382   0.684   3.200   5.141
 5161SOL    HW216383   0.776   3.237   5.271
 5162SOL     OW16384   6.551   6.127   4.130
 5162SOL    HW116385   6.501   6.050   4.090
 5162SOL    HW216386   6.508   6.213   4.102
 5163SOL     OW16387   5.141   4.313   1.279
 5163SOL    HW116388   5.143   4.260   1.364
 5163SOL    HW216389   5.163   4.253   1.202
 5164SOL     OW16390   6.013   3.916   5.708
 5164SOL    HW116391   6.082   3.893   5.776
 5164SOL    HW216392   5.946   3.978   5.749
 5165SOL     OW16393   6.131   4.228   3.985
 5165SOL    HW116394   6.186   4.306   4.016
 5165SOL    HW216395   6.101   4.243   3.891
 5166SOL     OW16396   1.834   6.089   1.802
 5166SOL    HW116397   1.852   6.182   1.835
 5166SOL    HW216398   1.920   6.044   1.780
 5167SOL     OW16399   0.344   6.245   5.898
 5167SOL    HW116400   0.405   6.321   5.919
 5167SOL    HW216401   0.257   6.257   5.947
 5168SOL     OW16402   4.192   2.227   2.919
 5168SOL    HW116403   4.256   2.245   2.994
 5168SOL    HW216404   4.244   2.201   2.837
 5169SOL     OW16405   3.811   3.976   6.296
 5169SOL    HW116406   3.843   3.883   6.315
 5169SOL    HW216407   3.761   4.011   6.375
 5170SOL     OW16408   5.442   4.299   5.080
 5170SOL    HW116409   5.530   4.283   5.125
 5170SOL    HW216410   5.394   4.212   5.067
 5171SOL     OW16411   2.499   5.246   4.657
 5171SOL    HW116412   2.500   5.277   4.562
 5171SOL    HW216413   2.552   5.162   4.665
 5172SOL     OW16414   1.265   5.146   2.205
 5172SOL    HW116415   1.324   5.156   2.125
 5172SOL    HW216416   1.182   5.097   2.179
 5173SOL     OW16417   5.518   3.085   6.541
 5173SOL    HW116418   5.517   3.002   6.486
 5173SOL    HW216419   5.567   3.157   6.492
 5174SOL     OW16420   1.288   4.545   6.134
 5174SOL    HW116421   1.334   4.466   6.175
 5174SOL    HW216422   1.194   4.519   6.109
 5175SOL     OW16423   0.683   4.624   6.835
 5175SOL    HW116424   0.753   4.671   6.781
 5175SOL    HW216425   0.592   4.656   6.807
 5176SOL     OW16426   4.943   3.558   0.323
 5176SOL    HW116427   5.001   3.564   0.403
 5176SOL    HW216428   4.847   3.570   0.350
 5177SOL     OW16429   5.065   0.041   6.314
 5177SOL    HW116430   5.154   0.080   6.336
 5177SOL    HW216431   5.047   6.984   6.373
 5178SOL     OW16432   2.329   2.665   1.948
 5178SOL    HW116433   2.327   2.565   1.948
 5178SOL    HW216434   2.321   2.698   2.042
 5179SOL     OW16435   3.242   6.092   5.949
 5179SOL    HW116436   3.335   6.057   5.953
 5179SOL    HW216437   3.214   6.103   5.853
 5180SOL     OW16438   2.721   2.087   1.623
 5180SOL    HW116439   2.772   2.070   1.539
 5180SOL    HW216440   2.724   2.184   1.646
 5181SOL     OW16441   4.235   6.379   2.697
 5181SOL    HW116442   4.218   6.426   2.783
 5181SOL    HW216443   4.325   6.404   2.662
 5182SOL     OW16444   5.271   4.558   1.237
 5182SOL    HW116445   5.242   4.569   1.333
 5182SOL    HW216446   5.237   4.470   1.203
 5183SOL     OW16447   4.481   0.560   1.764
 5183SOL    HW116448   4.427   0.530   1.844
 5183SOL    HW216449   4.485   0.660   1.763
 5184SOL     OW16450   0.907   0.886   3.086
 5184SOL    HW116451   0.978   0.924   3.027
 5184SOL    HW216452   0.948   0.851   3.170
 5185SOL     OW16453   3.894   0.204   2.069
 5185SOL    HW116454   3.858   0.182   1.979
 5185SOL    HW216455   3.980   0.253   2.059
 5186SOL     OW16456   6.560   4.338   0.689
 5186SOL    HW116457   6.516   4.253   0.717
 5186SOL    HW216458   6.490   4.406   0.669
 5187SOL     OW16459   5.492   1.788   4.028
 5187SOL    HW116460   5.575   1.831   3.991
 5187SOL    HW216461   5.453   1.846   4.099
 5188SOL     OW16462   0.874   4.018   5.841
 5188SOL    HW116463   0.818   3.936   5.833
 5188SOL    HW216464   0.829   4.083   5.903
 5189SOL     OW16465   4.452   5.344   6.749
 5189SOL    HW116466   4.419   5.261   6.794
 5189SOL    HW216467   4.551   5.339   6.739
 5190SOL     OW16468   1.550   2.497   3.709
 5190SOL    HW116469   1.525   2.409   3.668
 5190SOL    HW216470   1.610   2.547   3.646
 5191SOL     OW16471   3.858   0.478   1.188
 5191SOL    HW116472   3.772   0.512   1.151
 5191SOL    HW216473   3.858   0.378   1.185
 5192SOL     OW16474   6.450   5.700   2.741
 5192SOL    HW116475   6.411   5.717   2.831
 5192SOL    HW216476   6.497   5.782   2.709
 5193SOL     OW16477   4.996   3.896   3.058
 5193SOL    HW116478   5.077   3.954   3.072
 5193SOL    HW216479   4.937   3.937   2.988
 5194SOL     OW16480   5.932   0.621   5.621
 5194SOL    HW116481   5.907   0.534   5.661
 5194SOL    HW216482   5.854   0.684   5.626
 5195SOL     OW16483   6.242   6.305   5.659
 5195SOL    HW116484   6.248   6.260   5.748
 5195SOL    HW216485   6.163   6.268   5.609
 5196SOL     OW16486   0.151   4.156   1.969
 5196SOL    HW116487   0.067   4.119   1.930
 5196SOL    HW216488   0.219   4.170   1.897
 5197SOL     OW16489   3.070   5.732   4.835
 5197SOL    HW116490   3.015   5.654   4.865
 5197SOL    HW216491   3.056   5.809   4.897
 5198SOL     OW16492   4.154   6.884   5.350
 5198SOL    HW116493   4.173   6.821   5.425
 5198SOL    HW216494   4.060   6.918   5.359
 5199SOL     OW16495   1.492   5.135   1.336
 5199SOL    HW116496   1.475   5.061   1.271
 5199SOL    HW216497   1.587   5.129   1.369
 5200SOL     OW16498   6.812   1.335   5.370
 5200SOL    HW116499   6.882   1.264   5.379
 5200SOL    HW216500   6.841   1.402   5.302
 5201SOL     OW16501   6.475   5.073   3.846
 5201SOL    HW116502   6.452   4.976   3.836
 5201SOL    HW216503   6.488   5.114   3.755
 5202SOL     OW16504   3.602   2.767   5.839
 5202SOL    HW116505   3.624   2.680   5.883
 5202SOL    HW216506   3.506   2.769   5.814
 5203SOL     OW16507   1.637   0.298   0.444
 5203SOL    HW116508   1.587   0.276   0.528
 5203SOL    HW216509   1.627   0.395   0.423
 5204SOL     OW16510   3.331   0.842   0.254
 5204SOL    HW116511   3.379   0.884   0.177
 5204SOL    HW216512   3.257   0.903   0.284
 5205SOL     OW16513   0.351   5.809   0.805
 5205SOL    HW116514   0.413   5.875   0.762
 5205SOL    HW216515   0.389   5.717   0.795
 5206SOL     OW16516   0.949   4.268   4.463
 5206SOL    HW116517   0.929   4.213   4.382
 5206SOL    HW216518   0.977   4.360   4.435
 5207SOL     OW16519   6.974   0.443   3.827
 5207SOL    HW116520   6.909   0.415   3.756
 5207SOL    HW216521   6.953   0.396   3.913
 5208SOL     OW16522   4.887   2.068   0.042
 5208SOL    HW116523   4.880   2.167   0.052
 5208SOL    HW216524   4.908   2.046   6.968
 5209SOL     OW16525   5.382   5.700   2.700
 5209SOL    HW116526   5.408   5.794   2.682
 5209SOL    HW216527   5.450   5.656   2.758
 5210SOL     OW16528   5.298   4.166   0.305
 5210SOL    HW116529   5.241   4.171   0.387
 5210SOL    HW216530   5.302   4.256   0.261
 5211SOL     OW16531   4.862   3.138   4.439
 5211SOL    HW116532   4.865   3.194   4.522
 5211SOL    HW216533   4.818   3.051   4.459
 5212SOL     OW16534   1.174   3.574   0.440
 5212SOL    HW116535   1.106   3.539   0.504
 5212SOL    HW216536   1.253   3.513   0.438
 5213SOL     OW16537   4.130   3.368   2.828
 5213SOL    HW116538   4.070   3.296   2.792
 5213SOL    HW216539   4.209   3.379   2.767
 5214SOL     OW16540   5.316   3.659   5.605
 5214SOL    HW116541   5.356   3.746   5.632
 5214SOL    HW216542   5.301   3.658   5.506
 5215SOL     OW16543   6.906   3.697   4.572
 5215SOL    HW116544   6.895   3.771   4.637
 5215SOL    HW216545   6.824   3.640   4.573
 5216SOL     OW16546   4.918   5.637   1.260
 5216SOL    HW116547   4.953   5.678   1.344
 5216SOL    HW216548   4.844   5.694   1.223
 5217SOL     OW16549   4.386   6.058   3.952
 5217SOL    HW116550   4.366   5.960   3.957
 5217SOL    HW216551   4.302   6.110   3.969
 5218SOL     OW16552   0.126   6.915   0.783
 5218SOL    HW116553   0.064   6.837   0.792
 5218SOL    HW216554   0.160   6.919   0.689
 5219SOL     OW16555   3.205   1.712   4.909
 5219SOL    HW116556   3.225   1.620   4.877
 5219SOL    HW216557   3.119   1.712   4.960
 5220SOL     OW16558   2.290   4.238   4.146
 5220SOL    HW116559   2.250   4.169   4.206
 5220SOL    HW216560   2.236   4.321   4.150
 5221SOL     OW16561   6.345   5.895   1.095
 5221SOL    HW116562   6.391   5.809   1.117
 5221SOL    HW216563   6.285   5.882   1.016
 5222SOL     OW16564   5.196   4.048   0.868
 5222SOL    HW116565   5.113   4.022   0.918
 5222SOL    HW216566   5.241   3.966   0.834
 5223SOL     OW16567   0.439   3.060   0.973
 5223SOL    HW116568   0.509   2.997   0.942
 5223SOL    HW216569   0.473   3.154   0.966
 5224SOL     OW16570   0.414   2.419   5.035
 5224SOL    HW116571   0.382   2.513   5.026
 5224SOL    HW216572   0.505   2.418   5.075
 5225SOL     OW16573   0.099   1.508   5.042
 5225SOL    HW116574   0.103   1.445   4.965
 5225SOL    HW216575   0.104   1.602   5.009
 5226SOL     OW16576   1.006   6.524   3.856
 5226SOL    HW116577   0.973   6.440   3.813
 5226SOL    HW216578   1.044   6.584   3.786
 5227SOL     OW16579   6.999   2.693   5.556
 5227SOL    HW116580   0.019   2.762   5.498
 5227SOL    HW216581   0.044   2.620   5.575
 5228SOL     OW16582   1.468   2.370   5.742
 5228SOL    HW116583   1.475   2.458   5.696
 5228SOL    HW216584   1.524   2.302   5.694
 5229SOL     OW16585   3.479   1.053   6.102
 5229SOL    HW116586   3.503   1.142   6.143
 5229SOL    HW216587   3.505   1.053   6.006
 5230SOL     OW16588   6.594   6.429   1.972
 5230SOL    HW116589   6.602   6.528   1.989
 5230SOL    HW216590   6.591   6.412   1.874
 5231SOL     OW16591   6.773   2.339   1.906
 5231SOL    HW116592   6.687   2.330   1.855
 5231SOL    HW216593   6.848   2.299   1.852
 5232SOL     OW16594   1.622   3.022   5.626
 5232SOL    HW116595   1.577   3.050   5.710
 5232SOL    HW216596   1.722   3.024   5.638
 5233SOL     OW16597   2.826   6.989   2.933
 5233SOL    HW116598   2.923   6.985   2.953
 5233SOL    HW216599   2.809   6.952   2.842
 5234SOL     OW16600   2.210   2.236   0.456
 5234SOL    HW116601   2.310   2.228   0.447
 5234SOL    HW216602   2.168   2.146   0.444
 5235SOL     OW16603   2.029   2.317   1.142
 5235SOL    HW116604   2.068   2.242   1.090
 5235SOL    HW216605   1.995   2.283   1.230
 5236SOL     OW16606   3.894   5.660   1.953
 5236SOL    HW116607   3.821   5.644   2.019
 5236SOL    HW216608   3.980   5.624   1.990
 5237SOL     OW16609   2.173   1.705   2.949
 5237SOL    HW116610   2.187   1.772   2.877
 5237SOL    HW216611   2.189   1.747   3.038
 5238SOL     OW16612   0.933   6.849   3.067
 5238SOL    HW116613   0.973   6.805   3.146
 5238SOL    HW216614   0.920   6.782   2.994
 5239SOL     OW16615   2.417   3.941   1.249
 5239SOL    HW116616   2.481   3.876   1.289
 5239SOL    HW216617   2.411   3.927   1.150
 5240SOL     OW16618   2.207   3.499   5.935
 5240SOL    HW116619   2.306   3.497   5.952
 5240SOL    HW216620   2.187   3.452   5.849
 5241SOL     OW16621   1.131   5.745   2.299
 5241SOL    HW116622   1.047   5.693   2.282
 5241SOL    HW216623   1.131   5.778   2.394
 5242SOL     OW16624   4.991   0.227   6.504
 5242SOL    HW116625   5.004   0.156   6.436
 5242SOL    HW216626   4.893   0.244   6.517
 5243SOL     OW16627   2.515   6.800   2.656
 5243SOL    HW116628   2.607   6.790   2.695
 5243SOL    HW216629   2.517   6.778   2.559
 5244SOL     OW16630   4.751   2.840   0.721
 5244SOL    HW116631   4.751   2.940   0.711
 5244SOL    HW216632   4.827   2.802   0.670
 5245SOL     OW16633   4.186   3.541   1.946
 5245SOL    HW116634   4.186   3.571   2.041
 5245SOL    HW216635   4.093   3.551   1.908
 5246SOL     OW16636   5.845   3.208   0.833
 5246SOL    HW116637   5.899   3.234   0.913
 5246SOL    HW216638   5.769   3.150   0.862
 5247SOL     OW16639   3.622   2.168   6.187
 5247SOL    HW116640   3.578   2.205   6.105
 5247SOL    HW216641   3.689   2.099   6.161
 5248SOL     OW16642   6.712   1.043   3.473
 5248SOL    HW116643   6.794   1.088   3.508
 5248SOL    HW216644   6.733   0.993   3.389
 5249SOL     OW16645   0.362   4.636   6.382
 5249SOL    HW116646   0.306   4.658   6.463
 5249SOL    HW216647   0.438   4.702   6.376
 5250SOL     OW16648   2.101   5.623   1.354
 5250SOL    HW116649   2.037   5.552   1.325
 5250SOL    HW216650   2.081   5.708   1.304
 5251SOL     OW16651   0.798   4.875   0.555
 5251SOL    HW116652   0.699   4.874   0.537
 5251SOL    HW216653   0.813   4.891   0.653
 5252SOL     OW16654   3.674   6.839   2.111
 5252SOL    HW116655   3.588   6.890   2.109
 5252SOL    HW216656   3.679   6.784   2.195
 5253SOL     OW16657   6.776   5.804   4.393
 5253SOL    HW116658   6.843   5.731   4.408
 5253SOL    HW216659   6.767   5.820   4.295
 5254SOL     OW16660   6.172   0.218   3.553
 5254SOL    HW116661   6.073   0.201   3.554
 5254SOL    HW216662   6.211   0.178   3.469
 5255SOL     OW16663   6.165   1.794   5.667
 5255SOL    HW116664   6.098   1.823   5.598
 5255SOL    HW216665   6.131   1.713   5.714
 5256SOL     OW16666   6.844   1.447   2.666
 5256SOL    HW116667   6.807   1.539   2.671
 5256SOL    HW216668   6.778   1.386   2.623
 5257SOL     OW16669   3.952   1.240   6.253
 5257SOL    HW116670   3.975   1.334   6.230
 5257SOL    HW216671   3.965   1.182   6.173
 5258SOL     OW16672   4.212   1.215   3.025
 5258SOL    HW116673   4.237   1.300   2.979
 5258SOL    HW216674   4.295   1.172   3.061
 5259SOL     OW16675   6.428   5.340   3.322
 5259SOL    HW116676   6.528   5.342   3.332
 5259SOL    HW216677   6.388   5.417   3.372
 5260SOL     OW16678   2.326   0.866   0.734
 5260SOL    HW116679   2.351   0.927   0.810
 5260SOL    HW216680   2.288   0.920   0.659
 5261SOL     OW16681   5.949   4.372   0.197
 5261SOL    HW116682   5.875   4.316   0.160
 5261SOL    HW216683   5.913   4.432   0.268
 5262SOL     OW16684   1.804   0.848   2.984
 5262SOL    HW116685   1.822   0.923   3.048
 5262SOL    HW216686   1.807   0.883   2.890
 5263SOL     OW16687   1.575   6.858   2.442
 5263SOL    HW116688   1.605   6.881   2.349
 5263SOL    HW216689   1.557   6.760   2.448
 5264SOL     OW16690   6.410   1.824   1.619
 5264SOL    HW116691   6.415   1.781   1.709
 5264SOL    HW216692   6.345   1.899   1.620
 5265SOL     OW16693   6.322   4.819   4.572
 5265SOL    HW116694   6.421   4.823   4.579
 5265SOL    HW216695   6.293   4.865   4.487
 5266SOL     OW16696   2.282   0.699   0.463
 5266SOL    HW116697   2.307   0.605   0.439
 5266SOL    HW216698   2.185   0.702   0.488
 5267SOL     OW16699   5.426   2.888   4.238
 5267SOL    HW116700   5.363   2.938   4.180
 5267SOL    HW216701   5.398   2.792   4.243
 5268SOL     OW16702   5.281   0.514   6.202
 5268SOL    HW116703   5.257   0.419   6.224
 5268SOL    HW216704   5.368   0.516   6.153
 5269SOL     OW16705   0.473   6.201   3.717
 5269SOL    HW116706   0.536   6.228   3.790
 5269SOL    HW216707   0.481   6.103   3.700
 5270SOL     OW16708   0.747   2.461   6.123
 5270SOL    HW116709   0.648   2.448   6.131
 5270SOL    HW216710   0.780   2.418   6.039
 5271SOL     OW16711   0.301   4.848   3.274
 5271SOL    HW116712   0.323   4.826   3.179
 5271SOL    HW216713   0.284   4.764   3.325
 5272SOL     OW16714   4.641   0.959   0.395
 5272SOL    HW116715   4.702   0.889   0.357
 5272SOL    HW216716   4.663   1.047   0.354
 5273SOL     OW16717   0.872   2.476   3.009
 5273SOL    HW116718   0.778   2.450   3.030
 5273SOL    HW216719   0.882   2.575   3.018
 5274SOL     OW16720   4.832   5.558   1.777
 5274SOL    HW116721   4.783   5.644   1.791
 5274SOL    HW216722   4.928   5.570   1.800
 5275SOL     OW16723   4.342   2.028   6.397
 5275SOL    HW116724   4.294   1.955   6.445
 5275SOL    HW216725   4.435   1.997   6.374
 5276SOL     OW16726   4.491   6.453   2.691
 5276SOL    HW116727   4.558   6.500   2.633
 5276SOL    HW216728   4.515   6.465   2.787
 5277SOL     OW16729   2.129   2.408   1.484
 5277SOL    HW116730   2.181   2.397   1.569
 5277SOL    HW216731   2.041   2.450   1.504
 5278SOL     OW16732   4.500   4.559   1.347
 5278SOL    HW116733   4.412   4.554   1.393
 5278SOL    HW216734   4.550   4.640   1.378
 5279SOL     OW16735   2.691   5.477   2.175
 5279SOL    HW116736   2.597   5.457   2.203
 5279SOL    HW216737   2.755   5.438   2.242
 5280SOL     OW16738   4.945   6.297   4.487
 5280SOL    HW116739   4.868   6.325   4.430
 5280SOL    HW216740   4.977   6.207   4.458
 5281SOL     OW16741   0.139   2.042   1.495
 5281SOL    HW116742   0.051   2.068   1.453
 5281SOL    HW216743   0.162   1.948   1.470
 5282SOL     OW16744   4.649   1.931   2.527
 5282SOL    HW116745   4.621   1.998   2.458
 5282SOL    HW216746   4.733   1.886   2.497
 5283SOL     OW16747   4.979   4.609   6.124
 5283SOL    HW116748   4.925   4.567   6.197
 5283SOL    HW216749   5.069   4.566   6.120
 5284SOL     OW16750   5.602   3.022   3.658
 5284SOL    HW116751   5.533   2.968   3.707
 5284SOL    HW216752   5.628   3.101   3.712
 5285SOL     OW16753   3.345   5.474   3.713
 5285SOL    HW116754   3.271   5.520   3.665
 5285SOL    HW216755   3.348   5.378   3.687
 5286SOL     OW16756   2.098   4.691   1.968
 5286SOL    HW116757   2.049   4.764   1.920
 5286SOL    HW216758   2.069   4.689   2.063
 5287SOL     OW16759   1.353   1.672   1.145
 5287SOL    HW116760   1.370   1.765   1.113
 5287SOL    HW216761   1.391   1.660   1.236
 5288SOL     OW16762   4.220   0.647   1.072
 5288SOL    HW116763   4.188   0.684   1.159
 5288SOL    HW216764   4.296   0.585   1.088
 5289SOL     OW16765   2.330   5.446   1.174
 5289SOL    HW116766   2.344   5.347   1.182
 5289SOL    HW216767   2.251   5.464   1.115
 5290SOL     OW16768   4.792   6.002   0.414
 5290SOL    HW116769   4.795   5.931   0.484
 5290SOL    HW216770   4.701   6.004   0.372
 5291SOL     OW16771   1.588   5.164   5.906
 5291SOL    HW116772   1.561   5.085   5.960
 5291SOL    HW216773   1.608   5.136   5.812
 5292SOL     OW16774   4.677   2.648   5.542
 5292SOL    HW116775   4.625   2.640   5.627
 5292SOL    HW216776   4.618   2.683   5.470
 5293SOL     OW16777   0.386   0.281   4.424
 5293SOL    HW116778   0.302   0.300   4.374
 5293SOL    HW216779   0.426   0.195   4.390
 5294SOL     OW16780   5.319   2.040   5.445
 5294SOL    HW116781   5.297   1.950   5.482
 5294SOL    HW216782   5.419   2.052   5.444
 5295SOL     OW16783   6.275   1.344   1.996
 5295SOL    HW116784   6.280   1.277   2.069
 5295SOL    HW216785   6.259   1.435   2.034
 5296SOL     OW16786   1.408   4.445   0.260
 5296SOL    HW116787   1.342   4.464   0.187
 5296SOL    HW216788   1.432   4.531   0.306
 5297SOL     OW16789   1.868   3.269   1.726
 5297SOL    HW116790   1.876   3.221   1.639
 5297SOL    HW216791   1.847   3.203   1.799
 5298SOL     OW16792   0.921   5.078   1.537
 5298SOL    HW116793   1.010   5.095   1.496
 5298SOL    HW216794   0.870   5.164   1.544
 5299SOL     OW16795   2.836   0.436   2.011
 5299SOL    HW116796   2.757   0.448   2.071
 5299SOL    HW216797   2.898   0.514   2.021
 5300SOL     OW16798   0.196   5.089   3.161
 5300SOL    HW116799   0.282   5.139   3.152
 5300SOL    HW216800   0.209   5.011   3.222
 5301SOL     OW16801   4.272   1.502   0.084
 5301SOL    HW116802   4.262   1.601   0.089
 5301SOL    HW216803   4.360   1.479   0.043
 5302SOL     OW16804   6.514   4.763   2.881
 5302SOL    HW116805   6.556   4.830   2.942
 5302SOL    HW216806   6.432   4.726   2.925
 5303SOL     OW16807   0.742   4.812   3.705
 5303SOL    HW116808   0.784   4.757   3.778
 5303SOL    HW216809   0.667   4.761   3.664
 5304SOL     OW16810   5.423   2.271   5.805
 5304SOL    HW116811   5.466   2.310   5.723
 5304SOL    HW216812   5.381   2.345   5.858
 5305SOL     OW16813   2.755   1.148   2.815
 5305SOL    HW116814   2.698   1.181   2.890
 5305SOL    HW216815   2.722   1.186   2.728
 5306SOL     OW16816   2.522   0.093   5.602
 5306SOL    HW116817   2.510   0.065   5.506
 5306SOL    HW216818   2.444   0.148   5.630
 5307SOL     OW16819   4.819   6.972   6.646
 5307SOL    HW116820   4.722   6.952   6.659
 5307SOL    HW216821   4.859   7.005   6.731
 5308SOL     OW16822   0.034   0.705   3.200
 5308SOL    HW116823   7.014   0.622   3.162
 5308SOL    HW216824   0.060   0.766   3.126
 5309SOL     OW16825   3.428   3.782   3.951
 5309SOL    HW116826   3.525   3.786   3.974
 5309SOL    HW216827   3.374   3.810   4.031
 5310SOL     OW16828   4.983   1.927   0.842
 5310SOL    HW116829   5.034   1.977   0.912
 5310SOL    HW216830   4.940   1.992   0.779
 5311SOL     OW16831   1.508   5.999   0.067
 5311SOL    HW116832   1.547   6.090   0.050
 5311SOL    HW216833   1.493   5.952   7.002
 5312SOL     OW16834   0.471   3.254   2.104
 5312SOL    HW116835   0.491   3.326   2.038
 5312SOL    HW216836   0.373   3.254   2.126
 5313SOL     OW16837   1.449   5.672   0.393
 5313SOL    HW116838   1.420   5.767   0.382
 5313SOL    HW216839   1.431   5.642   0.487
 5314SOL     OW16840   3.393   4.753   0.667
 5314SOL    HW116841   3.466   4.820   0.677
 5314SOL    HW216842   3.333   4.781   0.593
 5315SOL     OW16843   5.106   2.684   2.601
 5315SOL    HW116844   5.015   2.665   2.565
 5315SOL    HW216845   5.125   2.782   2.593
 5316SOL     OW16846   6.354   5.214   4.387
 5316SOL    HW116847   6.327   5.274   4.312
 5316SOL    HW216848   6.410   5.139   4.352
 5317SOL     OW16849   5.738   6.153   2.658
 5317SOL    HW116850   5.663   6.128   2.719
 5317SOL    HW216851   5.816   6.093   2.675
 5318SOL     OW16852   0.096   2.667   5.053
 5318SOL    HW116853   0.163   2.673   5.127
 5318SOL    HW216854   0.014   2.718   5.079
 5319SOL     OW16855   4.035   6.871   1.061
 5319SOL    HW116856   3.970   6.868   1.137
 5319SOL    HW216857   4.086   6.956   1.064
 5320SOL     OW16858   5.436   3.616   6.095
 5320SOL    HW116859   5.432   3.692   6.029
 5320SOL    HW216860   5.346   3.603   6.135
 5321SOL     OW16861   1.464   5.417   5.917
 5321SOL    HW116862   1.516   5.484   5.970
 5321SOL    HW216863   1.517   5.334   5.907
 5322SOL     OW16864   3.326   6.181   0.652
 5322SOL    HW116865   3.401   6.179   0.587
 5322SOL    HW216866   3.281   6.092   0.654
 5323SOL     OW16867   5.791   3.457   0.374
 5323SOL    HW116868   5.890   3.470   0.385
 5323SOL    HW216869   5.761   3.502   0.289
 5324SOL     OW16870   3.863   3.254   1.775
 5324SOL    HW116871   3.861   3.220   1.870
 5324SOL    HW216872   3.780   3.307   1.758
 5325SOL     OW16873   4.988   5.763   3.412
 5325SOL    HW116874   4.912   5.719   3.364
 5325SOL    HW216875   5.074   5.726   3.378
 5326SOL     OW16876   6.617   0.016   2.173
 5326SOL    HW116877   6.634   0.052   2.265
 5326SOL    HW216878   6.703   0.011   2.122
 5327SOL     OW16879   6.774   0.541   4.625
 5327SOL    HW116880   6.789   0.465   4.688
 5327SOL    HW216881   6.745   0.622   4.677
 5328SOL     OW16882   3.684   4.997   1.151
 5328SOL    HW116883   3.715   5.013   1.057
 5328SOL    HW216884   3.628   4.915   1.154
 5329SOL     OW16885   6.605   4.839   0.290
 5329SOL    HW116886   6.554   4.924   0.277
 5329SOL    HW216887   6.703   4.858   0.288
 5330SOL     OW16888   4.556   4.754   0.074
 5330SOL    HW116889   4.651   4.785   0.070
 5330SOL    HW216890   4.501   4.820   0.125
 5331SOL     OW16891   4.900   2.950   6.652
 5331SOL    HW116892   4.997   2.958   6.677
 5331SOL    HW216893   4.891   2.952   6.553
 5332SOL     OW16894   6.136   2.643   7.015
 5332SOL    HW116895   6.132   2.544   7.004
 5332SOL    HW216896   6.125   2.666   0.090
 5333SOL     OW16897   1.603   1.680   4.057
 5333SOL    HW116898   1.647   1.591   4.048
 5333SOL    HW216899   1.587   1.720   3.966
 5334SOL     OW16900   3.372   5.491   2.199
 5334SOL    HW116901   3.326   5.420   2.145
 5334SOL    HW216902   3.455   5.453   2.240
 5335SOL     OW16903   0.054   4.514   1.207
 5335SOL    HW116904   0.018   4.499   1.299
 5335SOL    HW216905   0.150   4.540   1.212
 5336SOL     OW16906   1.892   2.932   4.488
 5336SOL    HW116907   1.961   3.000   4.514
 5336SOL    HW216908   1.919   2.843   4.525
 5337SOL     OW16909   5.791   5.504   0.365
 5337SOL    HW116910   5.728   5.505   0.288
 5337SOL    HW216911   5.856   5.429   0.354
 5338SOL     OW16912   6.403   3.223   0.899
 5338SOL    HW116913   6.321   3.204   0.846
 5338SOL    HW216914   6.443   3.137   0.931
 5339SOL     OW16915   5.510   3.970   2.873
 5339SOL    HW116916   5.521   4.049   2.813
 5339SOL    HW216917   5.436   3.912   2.839
 5340SOL     OW16918   5.230   3.340   2.885
 5340SOL    HW116919   5.208   3.329   2.982
 5340SOL    HW216920   5.323   3.376   2.876
 5341SOL     OW16921   4.037   4.862   3.637
 5341SOL    HW116922   4.071   4.940   3.585
 5341SOL    HW216923   3.945   4.838   3.605
 5342SOL     OW16924   6.617   6.210   4.821
 5342SOL    HW116925   6.528   6.245   4.794
 5342SOL    HW216926   6.606   6.149   4.900
 5343SOL     OW16927   3.347   2.930   6.793
 5343SOL    HW116928   3.286   3.004   6.766
 5343SOL    HW216929   3.340   2.855   6.727
 5344SOL     OW16930   1.230   2.055   6.279
 5344SOL    HW116931   1.168   2.122   6.238
 5344SOL    HW216932   1.180   2.001   6.347
 5345SOL     OW16933   4.317   1.281   6.698
 5345SOL    HW116934   4.369   1.237   6.771
 5345SOL    HW216935   4.323   1.380   6.707
 5346SOL     OW16936   3.025   6.244   3.594
 5346SOL    HW116937   3.103   6.181   3.587
 5346SOL    HW216938   3.019   6.280   3.687
 5347SOL     OW16939   5.894   1.794   4.093
 5347SOL    HW116940   5.924   1.718   4.151
 5347SOL    HW216941   5.970   1.822   4.034
 5348SOL     OW16942   5.176   2.759   3.539
 5348SOL    HW116943   5.094   2.721   3.496
 5348SOL    HW216944   5.222   2.820   3.474
 5349SOL     OW16945   0.780   3.535   1.572
 5349SOL    HW116946   0.697   3.487   1.602
 5349SOL    HW216947   0.758   3.596   1.497
 5350SOL     OW16948   1.110   6.508   0.318
 5350SOL    HW116949   1.186   6.483   0.257
 5350SOL    HW216950   1.111   6.447   0.398
 5351SOL     OW16951   6.589   6.358   3.336
 5351SOL    HW116952   6.625   6.303   3.261
 5351SOL    HW216953   6.577   6.452   3.306
 5352SOL     OW16954   1.246   3.289   5.491
 5352SOL    HW116955   1.254   3.299   5.392
 5352SOL    HW216956   1.254   3.193   5.516
 5353SOL     OW16957   3.754   5.227   3.512
 5353SOL    HW116958   3.661   5.248   3.543
 5353SOL    HW216959   3.807   5.312   3.506
 5354SOL     OW16960   4.393   6.231   0.531
 5354SOL    HW116961   4.325   6.277   0.588
 5354SOL    HW216962   4.482   6.234   0.577
 5355SOL     OW16963   5.376   4.488   5.276
 5355SOL    HW116964   5.469   4.472   5.308
 5355SOL    HW216965   5.362   4.442   5.188
 5356SOL     OW16966   0.139   5.779   0.990
 5356SOL    HW116967   0.211   5.789   0.922
 5356SOL    HW216968   0.149   5.850   1.060
 5357SOL     OW16969   5.753   3.718   2.720
 5357SOL    HW116970   5.700   3.721   2.636
 5357SOL    HW216971   5.765   3.623   2.749
 5358SOL     OW16972   4.183   1.735   6.841
 5358SOL    HW116973   4.230   1.725   6.928
 5358SOL    HW216974   4.085   1.719   6.854
 5359SOL     OW16975   3.844   2.378   0.240
 5359SOL    HW116976   3.765   2.321   0.216
 5359SOL    HW216977   3.881   2.349   0.328
 5360SOL     OW16978   5.556   4.883   4.157
 5360SOL    HW116979   5.485   4.813   4.164
 5360SOL    HW216980   5.518   4.967   4.118
 5361SOL     OW16981   2.074   5.553   2.803
 5361SOL    HW116982   1.992   5.512   2.763
 5361SOL    HW216983   2.078   5.650   2.778
 5362SOL     OW16984   5.716   1.008   2.734
 5362SOL    HW116985   5.677   0.948   2.664
 5362SOL    HW216986   5.658   1.005   2.816
 5363SOL     OW16987   5.931   5.626   3.449
 5363SOL    HW116988   5.878   5.659   3.371
 5363SOL    HW216989   5.926   5.692   3.524
 5364SOL     OW16990   4.869   1.399   2.546
 5364SOL    HW116991   4.882   1.316   2.599
 5364SOL    HW216992   4.795   1.453   2.586
 5365SOL     OW16993   3.130   3.046   4.114
 5365SOL    HW116994   3.075   3.121   4.077
 5365SOL    HW216995   3.130   3.050   4.214
 5366SOL     OW16996   6.611   5.861   2.953
 5366SOL    HW116997   6.539   5.914   2.999
 5366SOL    HW216998   6.693   5.917   2.946
 5367SOL     OW16999   6.030   5.611   1.736
 5367SOL    HW117000   5.939   5.604   1.695
 5367SOL    HW217001   6.079   5.525   1.723
 5368SOL     OW17002   6.486   5.889   3.965
 5368SOL    HW117003   6.387   5.897   3.976
 5368SOL    HW217004   6.512   5.928   3.876
 5369SOL     OW17005   3.219   5.376   3.035
 5369SOL    HW117006   3.289   5.438   3.000
 5369SOL    HW217007   3.129   5.418   3.025
 5370SOL     OW17008   1.802   3.348   0.620
 5370SOL    HW117009   1.823   3.304   0.532
 5370SOL    HW217010   1.738   3.423   0.605
 5371SOL     OW17011   5.897   4.775   4.639
 5371SOL    HW117012   5.911   4.868   4.674
 5371SOL    HW217013   5.818   4.733   4.684
 5372SOL     OW17014   1.600   0.039   2.861
 5372SOL    HW117015   1.519   0.093   2.882
 5372SOL    HW217016   1.572   6.973   2.820
 5373SOL     OW17017   2.984   1.589   6.781
 5373SOL    HW117018   2.919   1.658   6.750
 5373SOL    HW217019   3.011   1.532   6.704
 5374SOL     OW17020   1.956   4.272   2.287
 5374SOL    HW117021   1.933   4.203   2.219
 5374SOL    HW217022   2.006   4.347   2.243
 5375SOL     OW17023   2.281   4.556   4.919
 5375SOL    HW117024   2.378   4.574   4.903
 5375SOL    HW217025   2.234   4.642   4.938
 5376SOL     OW17026   0.529   0.312   6.152
 5376SOL    HW117027   0.582   0.270   6.225
 5376SOL    HW217028   0.473   0.243   6.107
 5377SOL     OW17029   1.850   1.027   3.198
 5377SOL    HW117030   1.900   1.108   3.168
 5377SOL    HW217031   1.878   1.004   3.292
 5378SOL     OW17032   4.430   0.872   2.023
 5378SOL    HW117033   4.472   0.947   2.075
 5378SOL    HW217034   4.416   0.901   1.928
 5379SOL     OW17035   1.704   2.120   5.307
 5379SOL    HW117036   1.793   2.120   5.260
 5379SOL    HW217037   1.680   2.026   5.332
 5380SOL     OW17038   4.278   6.469   1.531
 5380SOL    HW117039   4.376   6.472   1.512
 5380SOL    HW217040   4.243   6.562   1.539
 5381SOL     OW17041   3.934   0.457   3.977
 5381SOL    HW117042   3.866   0.396   4.016
 5381SOL    HW217043   3.889   0.539   3.940
 5382SOL     OW17044   4.675   1.299   1.462
 5382SOL    HW117045   4.736   1.223   1.485
 5382SOL    HW217046   4.673   1.364   1.537
 5383SOL     OW17047   2.470   2.591   4.605
 5383SOL    HW117048   2.481   2.588   4.506
 5383SOL    HW217049   2.406   2.664   4.630
 5384SOL     OW17050   5.720   5.072   4.563
 5384SOL    HW117051   5.632   5.036   4.592
 5384SOL    HW217052   5.730   5.061   4.464
 5385SOL     OW17053   3.898   3.367   5.986
 5385SOL    HW117054   3.933   3.361   6.080
 5385SOL    HW217055   3.803   3.336   5.984
 5386SOL     OW17056   5.048   4.458   4.475
 5386SOL    HW117057   5.014   4.365   4.480
 5386SOL    HW217058   5.130   4.466   4.533
 5387SOL     OW17059   0.872   1.893   3.774
 5387SOL    HW117060   0.875   1.796   3.747
 5387SOL    HW217061   0.897   1.901   3.870
 5388SOL     OW17062   0.600   6.793   2.335
 5388SOL    HW117063   0.697   6.799   2.311
 5388SOL    HW217064   0.545   6.826   2.259
 5389SOL     OW17065   4.350   1.486   3.807
 5389SOL    HW117066   4.413   1.420   3.848
 5389SOL    HW217067   4.402   1.562   3.768
 5390SOL     OW17068   0.364   2.581   3.232
 5390SOL    HW117069   0.330   2.487   3.229
 5390SOL    HW217070   0.429   2.591   3.308
 5391SOL     OW17071   2.880   2.991   0.590
 5391SOL    HW117072   2.887   2.891   0.588
 5391SOL    HW217073   2.784   3.017   0.598
 5392SOL     OW17074   6.035   0.953   4.045
 5392SOL    HW117075   6.096   0.955   3.966
 5392SOL    HW217076   5.946   0.991   4.018
 5393SOL     OW17077   4.911   2.289   4.820
 5393SOL    HW117078   4.901   2.245   4.730
 5393SOL    HW217079   4.885   2.385   4.813
 5394SOL     OW17080   1.025   2.005   1.507
 5394SOL    HW117081   1.007   1.971   1.415
 5394SOL    HW217082   0.938   2.014   1.556
 5395SOL     OW17083   6.533   1.362   0.568
 5395SOL    HW117084   6.607   1.427   0.549
 5395SOL    HW217085   6.472   1.357   0.489
 5396SOL     OW17086   4.586   3.961   0.587
 5396SOL    HW117087   4.621   4.014   0.664
 5396SOL    HW217088   4.502   4.002   0.553
 5397SOL     OW17089   0.286   1.237   2.522
 5397SOL    HW117090   0.273   1.325   2.476
 5397SOL    HW217091   0.303   1.252   2.619
 5398SOL     OW17092   6.126   2.289   2.456
 5398SOL    HW117093   6.164   2.249   2.373
 5398SOL    HW217094   6.199   2.299   2.524
 5399SOL     OW17095   1.742   2.152   0.127
 5399SOL    HW117096   1.828   2.100   0.131
 5399SOL    HW217097   1.763   2.249   0.119
 5400SOL     OW17098   4.750   3.246   1.766
 5400SOL    HW117099   4.844   3.233   1.800
 5400SOL    HW217100   4.696   3.164   1.786
 5401SOL     OW17101   5.999   2.491   1.587
 5401SOL    HW117102   6.084   2.440   1.589
 5401SOL    HW217103   5.982   2.523   1.493
 5402SOL     OW17104   1.660   6.583   2.518
 5402SOL    HW117105   1.641   6.488   2.492
 5402SOL    HW217106   1.707   6.584   2.606
 5403SOL     OW17107   4.927   2.976   0.381
 5403SOL    HW117108   5.003   2.912   0.380
 5403SOL    HW217109   4.912   3.012   0.288
 5404SOL     OW17110   5.605   0.456   6.703
 5404SOL    HW117111   5.510   0.432   6.682
 5404SOL    HW217112   5.610   0.553   6.728
 5405SOL     OW17113   0.762   4.806   0.127
 5405SOL    HW117114   0.721   4.723   0.091
 5405SOL    HW217115   0.690   4.865   0.166
 5406SOL     OW17116   2.647   0.916   6.512
 5406SOL    HW117117   2.603   0.909   6.422
 5406SOL    HW217118   2.579   0.946   6.580
 5407SOL     OW17119   1.750   6.963   3.102
 5407SOL    HW117120   1.703   6.961   3.190
 5407SOL    HW217121   1.689   7.002   3.033
 5408SOL     OW17122   2.645   1.411   4.067
 5408SOL    HW117123   2.630   1.402   3.969
 5408SOL    HW217124   2.697   1.332   4.100
 5409SOL     OW17125   0.594   3.086   1.775
 5409SOL    HW117126   0.562   3.046   1.861
 5409SOL    HW217127   0.589   3.016   1.703
 5410SOL     OW17128   0.452   2.541   0.805
 5410SOL    HW117129   0.434   2.603   0.729
 5410SOL    HW217130   0.480   2.452   0.769
 5411SOL     OW17131   3.370   5.270   0.003
 5411SOL    HW117132   3.390   5.301   0.096
 5411SOL    HW217133   3.318   5.184   0.007
 5412SOL     OW17134   0.205   2.082   6.007
 5412SOL    HW117135   0.140   2.021   5.961
 5412SOL    HW217136   0.172   2.101   6.099
 5413SOL     OW17137   0.522   5.752   4.801
 5413SOL    HW117138   0.575   5.808   4.864
 5413SOL    HW217139   0.499   5.806   4.720
 5414SOL     OW17140   5.165   4.646   5.562
 5414SOL    HW117141   5.225   4.690   5.496
 5414SOL    HW217142   5.190   4.550   5.571
 5415SOL     OW17143   4.015   0.671   0.017
 5415SOL    HW117144   3.995   0.660   0.114
 5415SOL    HW217145   3.954   0.613   6.985
 5416SOL     OW17146   3.658   5.748   6.841
 5416SOL    HW117147   3.573   5.779   6.882
 5416SOL    HW217148   3.638   5.690   6.762
 5417SOL     OW17149   4.190   6.987   4.338
 5417SOL    HW117150   4.233   6.984   4.428
 5417SOL    HW217151   4.123   0.039   4.335
 5418SOL     OW17152   7.015   3.231   5.120
 5418SOL    HW117153   0.034   3.141   5.135
 5418SOL    HW217154   6.991   3.240   5.023
 5419SOL     OW17155   4.675   0.934   5.699
 5419SOL    HW117156   4.699   0.989   5.620
 5419SOL    HW217157   4.576   0.921   5.702
 5420SOL     OW17158   0.701   1.912   2.071
 5420SOL    HW117159   0.665   1.908   2.165
 5420SOL    HW217160   0.778   1.848   2.063
 5421SOL     OW17161   3.709   4.968   2.116
 5421SOL    HW117162   3.706   4.884   2.061
 5421SOL    HW217163   3.655   5.039   2.070
 5422SOL     OW17164   2.555   5.236   3.737
 5422SOL    HW117165   2.480   5.212   3.676
 5422SOL    HW217166   2.606   5.154   3.762
 5423SOL     OW17167   4.451   6.580   2.238
 5423SOL    HW117168   4.443   6.645   2.314
 5423SOL    HW217169   4.366   6.529   2.229
 5424SOL     OW17170   4.281   3.859   5.574
 5424SOL    HW117171   4.333   3.781   5.540
 5424SOL    HW217172   4.261   3.921   5.499
 5425SOL     OW17173   1.356   4.341   5.597
 5425SOL    HW117174   1.326   4.349   5.692
 5425SOL    HW217175   1.276   4.326   5.538
 5426SOL     OW17176   6.444   5.683   1.425
 5426SOL    HW117177   6.454   5.781   1.410
 5426SOL    HW217178   6.370   5.666   1.491
 5427SOL     OW17179   4.142   2.757   6.763
 5427SOL    HW117180   4.219   2.723   6.817
 5427SOL    HW217181   4.174   2.782   6.672
 5428SOL     OW17182   5.747   5.694   2.668
 5428SOL    HW117183   5.731   5.596   2.660
 5428SOL    HW217184   5.845   5.712   2.675
 5429SOL     OW17185   3.402   0.646   4.867
 5429SOL    HW117186   3.404   0.678   4.773
 5429SOL    HW217187   3.496   0.630   4.899
 5430SOL     OW17188   2.965   3.971   5.376
 5430SOL    HW117189   2.902   4.004   5.447
 5430SOL    HW217190   3.056   3.959   5.415
 5431SOL     OW17191   4.156   4.426   0.477
 5431SOL    HW117192   4.197   4.491   0.542
 5431SOL    HW217193   4.172   4.333   0.509
 5432SOL     OW17194   0.206   5.158   6.525
 5432SOL    HW117195   0.188   5.226   6.596
 5432SOL    HW217196   0.304   5.157   6.504
 5433SOL     OW17197   2.535   0.767   1.571
 5433SOL    HW117198   2.489   0.795   1.487
 5433SOL    HW217199   2.598   0.692   1.551
 5434SOL     OW17200   5.204   0.966   4.720
 5434SOL    HW117201   5.253   0.922   4.645
 5434SOL    HW217202   5.145   1.039   4.684
 5435SOL     OW17203   6.563   4.634   1.023
 5435SOL    HW117204   6.554   4.618   0.924
 5435SOL    HW217205   6.548   4.548   1.072
 5436SOL     OW17206   1.416   4.128   2.907
 5436SOL    HW117207   1.467   4.053   2.864
 5436SOL    HW217208   1.473   4.171   2.976
 5437SOL     OW17209   3.529   5.637   1.528
 5437SOL    HW117210   3.506   5.628   1.431
 5437SOL    HW217211   3.491   5.559   1.579
 5438SOL     OW17212   4.876   5.694   2.424
 5438SOL    HW117213   4.871   5.782   2.471
 5438SOL    HW217214   4.824   5.699   2.338
 5439SOL     OW17215   0.957   4.418   1.764
 5439SOL    HW117216   0.983   4.513   1.745
 5439SOL    HW217217   1.039   4.361   1.768
 5440SOL     OW17218   6.130   6.840   3.991
 5440SOL    HW117219   6.106   6.925   3.943
 5440SOL    HW217220   6.174   6.863   4.078
 5441SOL     OW17221   5.940   2.939   4.376
 5441SOL    HW117222   5.857   2.946   4.321
 5441SOL    HW217223   5.973   2.845   4.376
 5442SOL     OW17224   3.427   0.123   6.317
 5442SOL    HW117225   3.390   0.135   6.410
 5442SOL    HW217226   3.484   0.041   6.314
 5443SOL     OW17227   4.620   0.890   3.472
 5443SOL    HW117228   4.687   0.911   3.543
 5443SOL    HW217229   4.667   0.854   3.391
 5444SOL     OW17230   5.892   1.117   5.508
 5444SOL    HW117231   5.926   1.156   5.594
 5444SOL    HW217232   5.887   1.189   5.439
 5445SOL     OW17233   5.774   5.947   5.136
 5445SOL    HW117234   5.732   5.946   5.226
 5445SOL    HW217235   5.807   5.855   5.114
 5446SOL     OW17236   0.077   4.125   6.505
 5446SOL    HW117237   0.073   4.139   6.604
 5446SOL    HW217238   0.085   4.027   6.486
 5447SOL     OW17239   0.388   2.090   1.198
 5447SOL    HW117240   0.390   2.026   1.121
 5447SOL    HW217241   0.305   2.077   1.251
 5448SOL     OW17242   4.382   4.637   3.081
 5448SOL    HW117243   4.404   4.695   3.159
 5448SOL    HW217244   4.287   4.653   3.053
 5449SOL     OW17245   2.849   1.159   2.021
 5449SOL    HW117246   2.896   1.154   2.109
 5449SOL    HW217247   2.751   1.150   2.035
 5450SOL     OW17248   4.278   5.646   1.863
 5450SOL    HW117249   4.221   5.584   1.809
 5450SOL    HW217250   4.369   5.605   1.876
 5451SOL     OW17251   6.551   6.876   3.054
 5451SOL    HW117252   6.649   6.871   3.038
 5451SOL    HW217253   6.534   6.917   3.143
 5452SOL     OW17254   2.269   4.159   2.126
 5452SOL    HW117255   2.357   4.185   2.165
 5452SOL    HW217256   2.226   4.240   2.083
 5453SOL     OW17257   5.785   4.224   3.677
 5453SOL    HW117258   5.727   4.150   3.643
 5453SOL    HW217259   5.728   4.301   3.705
 5454SOL     OW17260   6.095   4.642   2.696
 5454SOL    HW117261   6.052   4.583   2.765
 5454SOL    HW217262   6.157   4.587   2.639
 5455SOL     OW17263   2.229   1.769   3.582
 5455SOL    HW117264   2.243   1.740   3.677
 5455SOL    HW217265   2.133   1.794   3.568
 5456SOL     OW17266   5.518   1.949   1.199
 5456SOL    HW117267   5.442   2.014   1.198
 5456SOL    HW217268   5.498   1.876   1.264
 5457SOL     OW17269   5.767   1.077   6.601
 5457SOL    HW117270   5.684   1.128   6.622
 5457SOL    HW217271   5.744   0.980   6.588
 5458SOL     OW17272   5.614   3.231   0.439
 5458SOL    HW117273   5.680   3.297   0.403
 5458SOL    HW217274   5.521   3.264   0.423
 5459SOL     OW17275   1.737   3.253   5.376
 5459SOL    HW117276   1.818   3.235   5.431
 5459SOL    HW217277   1.697   3.340   5.402
 5460SOL     OW17278   0.637   0.934   1.643
 5460SOL    HW117279   0.730   0.913   1.672
 5460SOL    HW217280   0.599   1.005   1.702
 5461SOL     OW17281   6.356   1.074   5.497
 5461SOL    HW117282   6.436   1.038   5.546
 5461SOL    HW217283   6.379   1.083   5.399
 5462SOL     OW17284   5.016   4.369   6.541
 5462SOL    HW117285   5.057   4.438   6.482
 5462SOL    HW217286   5.027   4.396   6.637
 5463SOL     OW17287   0.801   2.653   6.591
 5463SOL    HW117288   0.813   2.747   6.560
 5463SOL    HW217289   0.760   2.599   6.518
 5464SOL     OW17290   1.321   6.319   5.523
 5464SOL    HW117291   1.343   6.332   5.426
 5464SOL    HW217292   1.405   6.303   5.574
 5465SOL     OW17293   0.204   6.926   4.458
 5465SOL    HW117294   0.265   6.993   4.416
 5465SOL    HW217295   0.152   6.879   4.386
 5466SOL     OW17296   6.209   2.508   5.078
 5466SOL    HW117297   6.296   2.554   5.098
 5466SOL    HW217298   6.144   2.574   5.041
 5467SOL     OW17299   4.793   2.894   4.519
 5467SOL    HW117300   4.757   2.807   4.486
 5467SOL    HW217301   4.774   2.903   4.617
 5468SOL     OW17302   0.157   1.391   1.023
 5468SOL    HW117303   0.100   1.462   1.065
 5468SOL    HW217304   0.130   1.301   1.057
 5469SOL     OW17305   3.309   0.095   4.604
 5469SOL    HW117306   3.287   0.009   4.558
 5469SOL    HW217307   3.233   0.159   4.594
 5470SOL     OW17308   3.821   5.407   3.800
 5470SOL    HW117309   3.879   5.455   3.734
 5470SOL    HW217310   3.745   5.467   3.828
 5471SOL     OW17311   4.748   0.768   3.700
 5471SOL    HW117312   4.670   0.711   3.676
 5471SOL    HW217313   4.723   0.829   3.776
 5472SOL     OW17314   2.763   3.031   6.984
 5472SOL    HW117315   2.713   3.056   0.045
 5472SOL    HW217316   2.742   2.936   6.959
 5473SOL     OW17317   2.745   4.433   1.696
 5473SOL    HW117318   2.826   4.474   1.736
 5473SOL    HW217319   2.672   4.501   1.690
 5474SOL     OW17320   0.681   5.098   2.795
 5474SOL    HW117321   0.715   5.109   2.888
 5474SOL    HW217322   0.743   5.144   2.731
 5475SOL     OW17323   0.577   1.297   5.382
 5475SOL    HW117324   0.671   1.319   5.357
 5475SOL    HW217325   0.558   1.330   5.474
 5476SOL     OW17326   2.594   0.045   5.139
 5476SOL    HW117327   2.693   0.034   5.134
 5476SOL    HW217328   2.549   6.994   5.087
 5477SOL     OW17329   1.575   4.153   4.528
 5477SOL    HW117330   1.596   4.085   4.458
 5477SOL    HW217331   1.660   4.189   4.566
 5478SOL     OW17332   5.719   4.701   5.589
 5478SOL    HW117333   5.774   4.774   5.548
 5478SOL    HW217334   5.622   4.720   5.576
 5479SOL     OW17335   4.218   1.824   5.041
 5479SOL    HW117336   4.218   1.728   5.015
 5479SOL    HW217337   4.174   1.878   4.970
 5480SOL     OW17338   0.450   3.542   3.641
 5480SOL    HW117339   0.355   3.538   3.610
 5480SOL    HW217340   0.454   3.528   3.740
 5481SOL     OW17341   4.037   0.973   6.314
 5481SOL    HW117342   4.001   1.065   6.296
 5481SOL    HW217343   4.133   0.969   6.287
 5482SOL     OW17344   4.678   2.720   1.486
 5482SOL    HW117345   4.601   2.661   1.464
 5482SOL    HW217346   4.661   2.812   1.451
 5483SOL     OW17347   6.949   2.674   5.985
 5483SOL    HW117348   0.024   2.687   5.961
 5483SOL    HW217349   6.898   2.758   5.967
 5484SOL     OW17350   6.457   6.971   4.657
 5484SOL    HW117351   6.386   6.978   4.728
 5484SOL    HW217352   6.538   6.927   4.696
 5485SOL     OW17353   3.088   0.170   5.462
 5485SOL    HW117354   3.023   0.099   5.490
 5485SOL    HW217355   3.060   0.258   5.499
 5486SOL     OW17356   0.546   0.979   3.528
 5486SOL    HW117357   0.551   1.026   3.440
 5486SOL    HW217358   0.638   0.971   3.567
 5487SOL     OW17359   4.690   5.458   1.074
 5487SOL    HW117360   4.618   5.527   1.071
 5487SOL    HW217361   4.760   5.485   1.140
 5488SOL     OW17362   5.252   1.218   6.743
 5488SOL    HW117363   5.198   1.140   6.711
 5488SOL    HW217364   5.211   1.255   6.826
 5489SOL     OW17365   1.539   3.637   2.872
 5489SOL    HW117366   1.446   3.643   2.908
 5489SOL    HW217367   1.538   3.656   2.774
 5490SOL     OW17368   1.904   1.915   0.395
 5490SOL    HW117369   1.901   1.822   0.432
 5490SOL    HW217370   1.928   1.911   0.298
 5491SOL     OW17371   0.795   5.330   0.813
 5491SOL    HW117372   0.711   5.288   0.847
 5491SOL    HW217373   0.808   5.420   0.853
 5492SOL     OW17374   1.185   1.116   5.824
 5492SOL    HW117375   1.252   1.055   5.783
 5492SOL    HW217376   1.123   1.150   5.753
 5493SOL     OW17377   3.308   3.043   0.033
 5493SOL    HW117378   3.366   3.006   6.982
 5493SOL    HW217379   3.305   3.143   0.026
 5494SOL     OW17380   5.953   3.425   1.749
 5494SOL    HW117381   6.042   3.387   1.771
 5494SOL    HW217382   5.936   3.505   1.807
 5495SOL     OW17383   3.266   3.188   2.373
 5495SOL    HW117384   3.170   3.161   2.364
 5495SOL    HW217385   3.315   3.120   2.428
 5496SOL     OW17386   3.927   5.853   1.681
 5496SOL    HW117387   3.842   5.849   1.629
 5496SOL    HW217388   3.908   5.835   1.777
 5497SOL     OW17389   6.621   6.704   2.003
 5497SOL    HW117390   6.669   6.749   1.928
 5497SOL    HW217391   6.531   6.746   2.014
 5498SOL     OW17392   4.251   1.005   5.288
 5498SOL    HW117393   4.224   1.066   5.214
 5498SOL    HW217394   4.240   0.910   5.259
 5499SOL     OW17395   6.962   1.305   3.172
 5499SOL    HW117396   6.903   1.379   3.141
 5499SOL    HW217397   7.019   1.274   3.095
 5500SOL     OW17398   2.090   6.002   1.815
 5500SOL    HW117399   2.121   5.981   1.907
 5500SOL    HW217400   2.151   5.959   1.748
 5501SOL     OW17401   2.447   6.458   2.490
 5501SOL    HW117402   2.524   6.403   2.525
 5501SOL    HW217403   2.482   6.544   2.453
 5502SOL     OW17404   4.995   3.891   6.219
 5502SOL    HW117405   4.904   3.867   6.253
 5502SOL    HW217406   5.031   3.967   6.273
 5503SOL     OW17407   1.173   5.391   3.710
 5503SOL    HW117408   1.200   5.303   3.672
 5503SOL    HW217409   1.195   5.394   3.807
 5504SOL     OW17410   3.559   2.112   5.040
 5504SOL    HW117411   3.482   2.049   5.033
 5504SOL    HW217412   3.599   2.127   4.949
 5505SOL     OW17413   2.512   5.284   5.911
 5505SOL    HW117414   2.521   5.339   5.828
 5505SOL    HW217415   2.516   5.187   5.888
 5506SOL     OW17416   6.197   0.397   5.751
 5506SOL    HW117417   6.234   0.434   5.666
 5506SOL    HW217418   6.161   0.305   5.735
 5507SOL     OW17419   2.325   6.253   4.016
 5507SOL    HW117420   2.353   6.174   3.961
 5507SOL    HW217421   2.329   6.335   3.958
 5508SOL     OW17422   3.027   0.968   6.787
 5508SOL    HW117423   3.047   0.927   6.876
 5508SOL    HW217424   3.112   0.997   6.744
 5509SOL     OW17425   5.797   6.565   6.822
 5509SOL    HW117426   5.874   6.610   6.868
 5509SOL    HW217427   5.830   6.486   6.771
 5510SOL     OW17428   5.301   0.747   5.505
 5510SOL    HW117429   5.270   0.830   5.458
 5510SOL    HW217430   5.243   0.730   5.585
 5511SOL     OW17431   0.149   0.984   2.524
 5511SOL    HW117432   0.195   1.068   2.553
 5511SOL    HW217433   0.193   0.948   2.442
 5512SOL     OW17434   1.173   0.205   0.912
 5512SOL    HW117435   1.264   0.167   0.900
 5512SOL    HW217436   1.177   0.305   0.905
 5513SOL     OW17437   4.349   4.643   4.565
 5513SOL    HW117438   4.408   4.587   4.507
 5513SOL    HW217439   4.272   4.677   4.512
 5514SOL     OW17440   5.502   5.514   2.875
 5514SOL    HW117441   5.419   5.462   2.857
 5514SOL    HW217442   5.529   5.502   2.971
 5515SOL     OW17443   6.699   2.875   1.305
 5515SOL    HW117444   6.769   2.810   1.335
 5515SOL    HW217445   6.742   2.962   1.283
 5516SOL     OW17446   1.414   3.492   6.320
 5516SOL    HW117447   1.493   3.547   6.291
 5516SOL    HW217448   1.379   3.528   6.407
 5517SOL     OW17449   2.578   1.875   2.216
 5517SOL    HW117450   2.588   1.832   2.126
 5517SOL    HW217451   2.667   1.908   2.247
 5518SOL     OW17452   6.024   4.711   4.976
 5518SOL    HW117453   6.091   4.648   4.938
 5518SOL    HW217454   6.066   4.761   5.052
 5519SOL     OW17455   5.287   3.741   4.308
 5519SOL    HW117456   5.255   3.801   4.382
 5519SOL    HW217457   5.369   3.693   4.337
 5520SOL     OW17458   1.727   3.576   1.792
 5520SOL    HW117459   1.676   3.516   1.854
 5520SOL    HW217460   1.824   3.551   1.793
 5521SOL     OW17461   5.955   5.129   1.525
 5521SOL    HW117462   5.980   5.096   1.434
 5521SOL    HW217463   6.017   5.090   1.592
 5522SOL     OW17464   2.304   3.601   1.651
 5522SOL    HW117465   2.315   3.553   1.738
 5522SOL    HW217466   2.349   3.549   1.578
 5523SOL     OW17467   2.609   7.012   2.265
 5523SOL    HW117468   2.593   0.084   2.296
 5523SOL    HW217469   2.604   6.949   2.342
 5524SOL     OW17470   0.132   5.380   6.343
 5524SOL    HW117471   0.087   5.455   6.391
 5524SOL    HW217472   0.148   5.304   6.407
 5525SOL     OW17473   6.732   5.512   4.917
 5525SOL    HW117474   6.732   5.607   4.948
 5525SOL    HW217475   6.641   5.473   4.931
 5526SOL     OW17476   6.569   3.123   4.461
 5526SOL    HW117477   6.541   3.039   4.415
 5526SOL    HW217478   6.651   3.159   4.416
 5527SOL     OW17479   1.819   3.689   1.543
 5527SOL    HW117480   1.784   3.692   1.449
 5527SOL    HW217481   1.755   3.640   1.601
 5528SOL     OW17482   0.535   3.341   3.119
 5528SOL    HW117483   0.503   3.288   3.041
 5528SOL    HW217484   0.514   3.438   3.104
 5529SOL     OW17485   2.330   1.319   5.065
 5529SOL    HW117486   2.381   1.247   5.113
 5529SOL    HW217487   2.363   1.409   5.095
 5530SOL     OW17488   0.771   2.713   0.523
 5530SOL    HW117489   0.791   2.722   0.620
 5530SOL    HW217490   0.673   2.722   0.508
 5531SOL     OW17491   3.667   3.210   5.896
 5531SOL    HW117492   3.605   3.223   5.818
 5531SOL    HW217493   3.620   3.235   5.980
 5532SOL     OW17494   2.487   1.752   1.382
 5532SOL    HW117495   2.450   1.668   1.344
 5532SOL    HW217496   2.443   1.831   1.338
 5533SOL     OW17497   4.058   1.164   1.107
 5533SOL    HW117498   4.026   1.255   1.135
 5533SOL    HW217499   4.148   1.146   1.148
 5534SOL     OW17500   0.096   3.913   6.964
 5534SOL    HW117501   0.059   3.966   0.018
 5534SOL    HW217502   0.049   3.824   6.959
 5535SOL     OW17503   5.846   3.461   2.773
 5535SOL    HW117504   5.860   3.411   2.858
 5535SOL    HW217505   5.923   3.523   2.757
 5536SOL     OW17506   2.367   0.324   3.811
 5536SOL    HW117507   2.455   0.342   3.767
 5536SOL    HW217508   2.301   0.294   3.742
 5537SOL     OW17509   4.286   0.480   4.688
 5537SOL    HW117510   4.243   0.569   4.675
 5537SOL    HW217511   4.271   0.449   4.782
 5538SOL     OW17512   4.721   1.509   6.897
 5538SOL    HW117513   4.630   1.470   6.915
 5538SOL    HW217514   4.714   1.609   6.892
 5539SOL     OW17515   3.089   6.969   0.666
 5539SOL    HW117516   2.996   6.937   0.644
 5539SOL    HW217517   3.117   0.016   0.598
 5540SOL     OW17518   5.637   0.969   6.881
 5540SOL    HW117519   5.597   1.057   6.859
 5540SOL    HW217520   5.715   0.981   6.942
 5541SOL     OW17521   4.575   3.898   6.510
 5541SOL    HW117522   4.597   3.992   6.537
 5541SOL    HW217523   4.634   3.871   6.434
 5542SOL     OW17524   4.815   4.853   0.097
 5542SOL    HW117525   4.888   4.792   0.065
 5542SOL    HW217526   4.839   4.947   0.076
 5543SOL     OW17527   1.406   0.710   0.944
 5543SOL    HW117528   1.469   0.760   1.003
 5543SOL    HW217529   1.375   0.627   0.990
 5544SOL     OW17530   4.364   5.913   6.012
 5544SOL    HW117531   4.364   6.013   6.008
 5544SOL    HW217532   4.288   5.882   6.069
 5545SOL     OW17533   4.284   0.543   3.114
 5545SOL    HW117534   4.355   0.608   3.142
 5545SOL    HW217535   4.250   0.569   3.023
 5546SOL     OW17536   0.331   5.792   5.549
 5546SOL    HW117537   0.330   5.813   5.452
 5546SOL    HW217538   0.262   5.847   5.596
 5547SOL     OW17539   5.684   1.937   4.958
 5547SOL    HW117540   5.690   1.840   4.980
 5547SOL    HW217541   5.776   1.974   4.945
 5548SOL     OW17542   0.313   4.359   5.072
 5548SOL    HW117543   0.348   4.452   5.087
 5548SOL    HW217544   0.213   4.360   5.083
 5549SOL     OW17545   4.162   3.189   1.273
 5549SOL    HW117546   4.172   3.158   1.179
 5549SOL    HW217547   4.148   3.110   1.333
 5550SOL     OW17548   1.247   3.684   2.886
 5550SOL    HW117549   1.164   3.671   2.939
 5550SOL    HW217550   1.242   3.771   2.836
 5551SOL     OW17551   2.398   4.842   3.757
 5551SOL    HW117552   2.331   4.809   3.823
 5551SOL    HW217553   2.410   4.774   3.685
 5552SOL     OW17554   0.389   6.677   6.469
 5552SOL    HW117555   0.348   6.589   6.495
 5552SOL    HW217556   0.320   6.733   6.423
 5553SOL     OW17557   4.831   0.599   6.632
 5553SOL    HW117558   4.780   0.615   6.716
 5553SOL    HW217559   4.794   0.519   6.584
 5554SOL     OW17560   5.573   2.980   1.602
 5554SOL    HW117561   5.497   3.028   1.647
 5554SOL    HW217562   5.538   2.904   1.548
 5555SOL     OW17563   1.651   3.987   2.471
 5555SOL    HW117564   1.615   3.977   2.378
 5555SOL    HW217565   1.725   4.053   2.471
 5556SOL     OW17566   6.359   0.552   4.756
 5556SOL    HW117567   6.265   0.524   4.737
 5556SOL    HW217568   6.420   0.473   4.746
 5557SOL     OW17569   3.301   5.765   2.213
 5557SOL    HW117570   3.377   5.808   2.261
 5557SOL    HW217571   3.323   5.669   2.195
 5558SOL     OW17572   3.419   4.313   0.087
 5558SOL    HW117573   3.438   4.217   0.067
 5558SOL    HW217574   3.482   4.346   0.158
 5559SOL     OW17575   1.833   6.492   2.963
 5559SOL    HW117576   1.805   6.440   2.882
 5559SOL    HW217577   1.762   6.486   3.033
 5560SOL     OW17578   0.610   5.911   2.720
 5560SOL    HW117579   0.541   5.861   2.668
 5560SOL    HW217580   0.566   5.983   2.773
 5561SOL     OW17581   3.364   0.960   3.726
 5561SOL    HW117582   3.441   1.022   3.743
 5561SOL    HW217583   3.295   0.972   3.797
 5562SOL     OW17584   4.146   3.751   0.838
 5562SOL    HW117585   4.177   3.680   0.902
 5562SOL    HW217586   4.080   3.711   0.774
 5563SOL     OW17587   3.089   4.811   2.890
 5563SOL    HW117588   3.101   4.822   2.988
 5563SOL    HW217589   3.106   4.716   2.865
 5564SOL     OW17590   5.516   0.635   5.658
 5564SOL    HW117591   5.597   0.673   5.703
 5564SOL    HW217592   5.458   0.710   5.625
 5565SOL     OW17593   3.803   2.713   0.174
 5565SOL    HW117594   3.761   2.663   0.249
 5565SOL    HW217595   3.853   2.649   0.115
 5566SOL     OW17596   1.147   3.581   6.961
 5566SOL    HW117597   1.191   3.542   6.880
 5566SOL    HW217598   1.083   3.515   7.000
 5567SOL     OW17599   6.514   4.150   1.511
 5567SOL    HW117600   6.450   4.147   1.434
 5567SOL    HW217601   6.480   4.090   1.584
 5568SOL     OW17602   4.160   6.620   2.386
 5568SOL    HW117603   4.186   6.655   2.476
 5568SOL    HW217604   4.088   6.676   2.347
 5569SOL     OW17605   2.352   2.266   4.237
 5569SOL    HW117606   2.335   2.342   4.300
 5569SOL    HW217607   2.415   2.201   4.279
 5570SOL     OW17608   6.821   3.367   2.856
 5570SOL    HW117609   6.766   3.294   2.895
 5570SOL    HW217610   6.764   3.448   2.842
 5571SOL     OW17611   0.444   5.425   1.947
 5571SOL    HW117612   0.387   5.500   1.980
 5571SOL    HW217613   0.540   5.453   1.944
 5572SOL     OW17614   0.689   3.228   4.985
 5572SOL    HW117615   0.635   3.310   4.968
 5572SOL    HW217616   0.735   3.201   4.900
 5573SOL     OW17617   1.985   5.075   4.820
 5573SOL    HW117618   1.987   5.170   4.850
 5573SOL    HW217619   1.933   5.068   4.735
 5574SOL     OW17620   0.204   2.696   6.305
 5574SOL    HW117621   0.181   2.690   6.207
 5574SOL    HW217622   0.159   2.622   6.354
 5575SOL     OW17623   0.657   0.684   1.522
 5575SOL    HW117624   0.571   0.634   1.517
 5575SOL    HW217625   0.643   0.772   1.569
 5576SOL     OW17626   1.927   4.003   3.762
 5576SOL    HW117627   2.017   3.997   3.719
 5576SOL    HW217628   1.884   3.912   3.762
 5577SOL     OW17629   1.621   3.306   6.527
 5577SOL    HW117630   1.563   3.284   6.449
 5577SOL    HW217631   1.681   3.383   6.504
 5578SOL     OW17632   3.157   3.008   2.941
 5578SOL    HW117633   3.105   3.078   2.991
 5578SOL    HW217634   3.128   3.007   2.845
 5579SOL     OW17635   0.140   3.345   1.419
 5579SOL    HW117636   0.085   3.355   1.336
 5579SOL    HW217637   0.079   3.338   1.498
 5580SOL     OW17638   4.586   1.397   5.825
 5580SOL    HW117639   4.545   1.424   5.738
 5580SOL    HW217640   4.674   1.353   5.809
 5581SOL     OW17641   0.707   1.772   0.905
 5581SOL    HW117642   0.615   1.802   0.928
 5581SOL    HW217643   0.761   1.850   0.872
 5582SOL     OW17644   2.308   3.738   6.227
 5582SOL    HW117645   2.260   3.652   6.210
 5582SOL    HW217646   2.308   3.758   6.325
 5583SOL     OW17647   5.418   1.099   2.455
 5583SOL    HW117648   5.368   1.175   2.496
 5583SOL    HW217649   5.422   1.023   2.521
 5584SOL     OW17650   6.858   4.588   4.319
 5584SOL    HW117651   6.834   4.535   4.400
 5584SOL    HW217652   6.898   4.676   4.347
 5585SOL     OW17653   4.554   5.433   2.704
 5585SOL    HW117654   4.638   5.382   2.684
 5585SOL    HW217655   4.515   5.399   2.789
 5586SOL     OW17656   6.820   3.205   5.996
 5586SOL    HW117657   6.861   3.185   5.907
 5586SOL    HW217658   6.856   3.291   6.031
 5587SOL     OW17659   4.317   0.864   6.618
 5587SOL    HW117660   4.380   0.908   6.682
 5587SOL    HW217661   4.326   0.905   6.528
 5588SOL     OW17662   2.970   6.475   1.880
 5588SOL    HW117663   2.981   6.432   1.790
 5588SOL    HW217664   3.043   6.442   1.941
 5589SOL     OW17665   6.066   4.445   6.751
 5589SOL    HW117666   5.968   4.448   6.730
 5589SOL    HW217667   6.091   4.352   6.778
 5590SOL     OW17668   5.967   5.909   4.041
 5590SOL    HW117669   5.967   5.833   4.106
 5590SOL    HW217670   6.056   5.914   3.996
 5591SOL     OW17671   6.693   1.847   1.995
 5591SOL    HW117672   6.783   1.883   2.020
 5591SOL    HW217673   6.625   1.881   2.060
 5592SOL     OW17674   1.046   4.116   3.498
 5592SOL    HW117675   1.103   4.092   3.577
 5592SOL    HW217676   1.029   4.214   3.498
 5593SOL     OW17677   6.628   2.215   6.965
 5593SOL    HW117678   6.554   2.283   6.963
 5593SOL    HW217679   6.612   2.146   6.895
 5594SOL     OW17680   5.253   1.856   5.614
 5594SOL    HW117681   5.187   1.875   5.687
 5594SOL    HW217682   5.215   1.787   5.552
 5595SOL     OW17683   0.981   2.308   5.400
 5595SOL    HW117684   0.984   2.209   5.408
 5595SOL    HW217685   0.926   2.333   5.319
 5596SOL     OW17686   3.930   6.605   2.740
 5596SOL    HW117687   3.938   6.530   2.674
 5596SOL    HW217688   3.917   6.567   2.832
 5597SOL     OW17689   5.478   2.532   3.648
 5597SOL    HW117690   5.408   2.466   3.676
 5597SOL    HW217691   5.440   2.592   3.577
 5598SOL     OW17692   5.248   2.723   3.981
 5598SOL    HW117693   5.325   2.689   3.928
 5598SOL    HW217694   5.275   2.805   4.031
 5599SOL     OW17695   0.982   1.675   4.677
 5599SOL    HW117696   1.064   1.652   4.625
 5599SOL    HW217697   0.901   1.641   4.629
 5600SOL     OW17698   1.334   2.337   4.155
 5600SOL    HW117699   1.316   2.304   4.248
 5600SOL    HW217700   1.301   2.431   4.147
 5601SOL     OW17701   2.310   0.688   6.128
 5601SOL    HW117702   2.364   0.638   6.060
 5601SOL    HW217703   2.232   0.732   6.083
 5602SOL     OW17704   0.284   1.169   1.199
 5602SOL    HW117705   0.207   1.119   1.160
 5602SOL    HW217706   0.286   1.262   1.162
 5603SOL     OW17707   5.115   1.804   6.681
 5603SOL    HW117708   5.173   1.724   6.694
 5603SOL    HW217709   5.145   1.855   6.600
 5604SOL     OW17710   6.211   2.246   5.555
 5604SOL    HW117711   6.251   2.258   5.465
 5604SOL    HW217712   6.283   2.237   5.624
 5605SOL     OW17713   0.657   1.676   4.903
 5605SOL    HW117714   0.693   1.583   4.898
 5605SOL    HW217715   0.610   1.689   4.991
 5606SOL     OW17716   5.091   6.328   1.320
 5606SOL    HW117717   5.013   6.318   1.382
 5606SOL    HW217718   5.060   6.314   1.226
 5607SOL     OW17719   5.151   1.556   1.884
 5607SOL    HW117720   5.120   1.462   1.900
 5607SOL    HW217721   5.178   1.565   1.788
 5608SOL     OW17722   4.506   0.360   5.135
 5608SOL    HW117723   4.548   0.413   5.061
 5608SOL    HW217724   4.534   0.264   5.128
 5609SOL     OW17725   2.599   5.753   6.992
 5609SOL    HW117726   2.607   5.828   0.036
 5609SOL    HW217727   2.690   5.726   6.962
 5610SOL     OW17728   5.040   0.602   0.288
 5610SOL    HW117729   5.035   0.592   0.188
 5610SOL    HW217730   5.116   0.548   0.323
 5611SOL     OW17731   1.692   4.745   2.822
 5611SOL    HW117732   1.682   4.657   2.777
 5611SOL    HW217733   1.759   4.800   2.773
 5612SOL     OW17734   3.422   1.316   6.334
 5612SOL    HW117735   3.335   1.283   6.296
 5612SOL    HW217736   3.461   1.246   6.394
 5613SOL     OW17737   4.662   4.541   2.625
 5613SOL    HW117738   4.564   4.546   2.608
 5613SOL    HW217739   4.710   4.529   2.538
 5614SOL     OW17740   4.491   2.489   3.604
 5614SOL    HW117741   4.466   2.395   3.625
 5614SOL    HW217742   4.519   2.535   3.688
 5615SOL     OW17743   1.062   0.359   0.018
 5615SOL    HW117744   1.142   0.302   0.041
 5615SOL    HW217745   1.012   0.381   0.102
 5616SOL     OW17746   2.445   0.686   4.910
 5616SOL    HW117747   2.543   0.666   4.921
 5616SOL    HW217748   2.398   0.668   4.996
 5617SOL     OW17749   2.430   0.391   5.648
 5617SOL    HW117750   2.493   0.465   5.625
 5617SOL    HW217751   2.461   0.345   5.731
 5618SOL     OW17752   6.290   3.986   4.030
 5618SOL    HW117753   6.260   3.911   3.970
 5618SOL    HW217754   6.267   4.073   3.988
 5619SOL     OW17755   2.887   4.004   5.990
 5619SOL    HW117756   2.887   4.067   5.913
 5619SOL    HW217757   2.948   4.039   6.062
 5620SOL     OW17758   4.069   2.492   0.421
 5620SOL    HW117759   4.168   2.490   0.403
 5620SOL    HW217760   4.044   2.411   0.474
 5621SOL     OW17761   1.680   1.654   5.948
 5621SOL    HW117762   1.713   1.747   5.963
 5621SOL    HW217763   1.751   1.589   5.974
 5622SOL     OW17764   4.829   0.215   5.788
 5622SOL    HW117765   4.897   0.288   5.776
 5622SOL    HW217766   4.853   0.137   5.730
 5623SOL     OW17767   1.908   6.066   6.414
 5623SOL    HW117768   1.992   6.115   6.391
 5623SOL    HW217769   1.830   6.112   6.374
 5624SOL     OW17770   1.260   4.419   3.602
 5624SOL    HW117771   1.253   4.518   3.615
 5624SOL    HW217772   1.173   4.376   3.628
 5625SOL     OW17773   6.482   2.882   4.373
 5625SOL    HW117774   6.432   2.825   4.308
 5625SOL    HW217775   6.446   2.866   4.466
 5626SOL     OW17776   3.300   6.741   4.676
 5626SOL    HW117777   3.387   6.789   4.684
 5626SOL    HW217778   3.234   6.800   4.629
 5627SOL     OW17779   1.580   6.255   1.814
 5627SOL    HW117780   1.676   6.226   1.811
 5627SOL    HW217781   1.561   6.315   1.737
 5628SOL     OW17782   1.663   2.037   5.762
 5628SOL    HW117783   1.754   2.048   5.802
 5628SOL    HW217784   1.655   2.093   5.679
 5629SOL     OW17785   3.197   3.808   2.259
 5629SOL    HW117786   3.273   3.759   2.302
 5629SOL    HW217787   3.196   3.903   2.291
 5630SOL     OW17788   0.861   4.990   0.784
 5630SOL    HW117789   0.838   5.005   0.880
 5630SOL    HW217790   0.935   5.052   0.757
 5631SOL     OW17791   4.198   1.794   0.089
 5631SOL    HW117792   4.253   1.862   0.137
 5631SOL    HW217793   4.111   1.781   0.137
 5632SOL     OW17794   4.319   3.944   6.456
 5632SOL    HW117795   4.410   3.914   6.485
 5632SOL    HW217796   4.287   4.016   6.518
 5633SOL     OW17797   0.103   2.857   3.776
 5633SOL    HW117798   0.052   2.913   3.840
 5633SOL    HW217799   0.062   2.766   3.771
 5634SOL     OW17800   3.499   4.931   4.419
 5634SOL    HW117801   3.450   4.889   4.342
 5634SOL    HW217802   3.434   4.949   4.493
 5635SOL     OW17803   2.454   2.564   5.025
 5635SOL    HW117804   2.401   2.503   5.085
 5635SOL    HW217805   2.460   2.654   5.067
 5636SOL     OW17806   4.272   5.589   3.124
 5636SOL    HW117807   4.264   5.492   3.101
 5636SOL    HW217808   4.183   5.624   3.152
 5637SOL     OW17809   6.387   0.434   4.256
 5637SOL    HW117810   6.305   0.484   4.281
 5637SOL    HW217811   6.455   0.441   4.329
 5638SOL     OW17812   5.973   2.789   0.562
 5638SOL    HW117813   5.948   2.884   0.548
 5638SOL    HW217814   6.032   2.759   0.487
 5639SOL     OW17815   0.041   1.365   6.566
 5639SOL    HW117816   0.019   1.321   6.653
 5639SOL    HW217817   0.008   1.459   6.566
 5640SOL     OW17818   2.492   0.173   3.981
 5640SOL    HW117819   2.456   0.242   3.918
 5640SOL    HW217820   2.534   0.219   4.060
 5641SOL     OW17821   6.446   4.906   5.620
 5641SOL    HW117822   6.449   4.847   5.701
 5641SOL    HW217823   6.540   4.927   5.591
 5642SOL     OW17824   1.979   1.380   6.890
 5642SOL    HW117825   1.987   1.400   6.793
 5642SOL    HW217826   1.959   1.283   6.902
 5643SOL     OW17827   6.150   3.099   4.513
 5643SOL    HW117828   6.074   3.066   4.457
 5643SOL    HW217829   6.229   3.115   4.455
 5644SOL     OW17830   2.964   6.886   6.156
 5644SOL    HW117831   2.925   6.829   6.084
 5644SOL    HW217832   2.899   6.959   6.181
 5645SOL     OW17833   5.905   3.296   3.696
 5645SOL    HW117834   5.985   3.316   3.753
 5645SOL    HW217835   5.934   3.252   3.611
 5646SOL     OW17836   1.957   4.188   2.974
 5646SOL    HW117837   1.927   4.254   2.906
 5646SOL    HW217838   2.033   4.135   2.937
 5647SOL     OW17839   5.759   6.035   2.385
 5647SOL    HW117840   5.714   5.946   2.378
 5647SOL    HW217841   5.777   6.056   2.481
 5648SOL     OW17842   3.623   6.197   3.184
 5648SOL    HW117843   3.627   6.224   3.280
 5648SOL    HW217844   3.682   6.118   3.168
 5649SOL     OW17845   0.976   5.405   3.977
 5649SOL    HW117846   0.925   5.477   4.023
 5649SOL    HW217847   1.074   5.426   3.980
 5650SOL     OW17848   0.098   4.460   0.795
 5650SOL    HW117849   0.182   4.475   0.846
 5650SOL    HW217850   0.038   4.540   0.805
 5651SOL     OW17851   1.542   0.744   0.637
 5651SOL    HW117852   1.501   0.719   0.724
 5651SOL    HW217853   1.609   0.817   0.651
 5652SOL     OW17854   0.758   4.802   1.844
 5652SOL    HW117855   0.749   4.830   1.748
 5652SOL    HW217856   0.668   4.777   1.880
 5653SOL     OW17857   0.105   6.261   1.718
 5653SOL    HW117858   0.017   6.254   1.765
 5653SOL    HW217859   0.094   6.234   1.622
 5654SOL     OW17860   1.758   6.358   4.999
 5654SOL    HW117861   1.684   6.364   4.932
 5654SOL    HW217862   1.731   6.407   5.082
 5655SOL     OW17863   6.790   3.190   3.990
 5655SOL    HW117864   6.758   3.122   3.924
 5655SOL    HW217865   6.785   3.281   3.949
 5656SOL     OW17866   6.918   3.144   6.407
 5656SOL    HW117867   6.962   3.233   6.417
 5656SOL    HW217868   6.988   3.073   6.406
 5657SOL     OW17869   4.522   5.244   4.758
 5657SOL    HW117870   4.597   5.183   4.783
 5657SOL    HW217871   4.488   5.220   4.667
 5658SOL     OW17872   1.922   2.270   5.552
 5658SOL    HW117873   1.870   2.188   5.530
 5658SOL    HW217874   2.013   2.264   5.511
 5659SOL     OW17875   3.086   4.069   6.189
 5659SOL    HW117876   3.084   3.977   6.227
 5659SOL    HW217877   3.029   4.130   6.244
 5660SOL     OW17878   4.592   0.225   6.810
 5660SOL    HW117879   4.543   0.311   6.820
 5660SOL    HW217880   4.690   0.242   6.819
 5661SOL     OW17881   0.835   6.084   5.542
 5661SOL    HW117882   0.868   6.178   5.530
 5661SOL    HW217883   0.735   6.084   5.543
 5662SOL     OW17884   2.886   6.073   3.071
 5662SOL    HW117885   2.869   6.151   3.011
 5662SOL    HW217886   2.886   5.989   3.018
 5663SOL     OW17887   1.298   3.035   0.740
 5663SOL    HW117888   1.240   3.006   0.816
 5663SOL    HW217889   1.323   2.955   0.685
 5664SOL     OW17890   4.999   4.177   4.451
 5664SOL    HW117891   4.927   4.124   4.407
 5664SOL    HW217892   5.067   4.204   4.382
 5665SOL     OW17893   2.111   0.400   1.236
 5665SOL    HW117894   2.105   0.366   1.142
 5665SOL    HW217895   2.051   0.480   1.246
 5666SOL     OW17896   6.216   0.866   4.846
 5666SOL    HW117897   6.181   0.812   4.769
 5666SOL    HW217898   6.206   0.963   4.825
 5667SOL     OW17899   1.990   5.339   4.890
 5667SOL    HW117900   2.087   5.363   4.892
 5667SOL    HW217901   1.940   5.397   4.955
 5668SOL     OW17902   5.671   2.812   3.511
 5668SOL    HW117903   5.699   2.833   3.417
 5668SOL    HW217904   5.647   2.897   3.558
 5669SOL     OW17905   6.084   4.009   6.739
 5669SOL    HW117906   6.157   3.965   6.687
 5669SOL    HW217907   6.121   4.088   6.789
 5670SOL     OW17908   0.804   2.325   2.373
 5670SOL    HW117909   0.845   2.413   2.352
 5670SOL    HW217910   0.727   2.309   2.311
 5671SOL     OW17911   0.900   6.952   3.713
 5671SOL    HW117912   0.944   6.972   3.800
 5671SOL    HW217913   0.808   6.917   3.729
 5672SOL     OW17914   5.272   4.114   4.993
 5672SOL    HW117915   5.194   4.174   5.012
 5672SOL    HW217916   5.249   4.051   4.919
 5673SOL     OW17917   0.946   0.519   1.113
 5673SOL    HW117918   0.865   0.561   1.154
 5673SOL    HW217919   1.028   0.570   1.139
 5674SOL     OW17920   1.054   5.685   5.107
 5674SOL    HW117921   1.039   5.756   5.038
 5674SOL    HW217922   1.035   5.722   5.197
 5675SOL     OW17923   2.545   1.611   0.015
 5675SOL    HW117924   2.631   1.655   0.043
 5675SOL    HW217925   2.528   1.630   6.940
 5676SOL     OW17926   2.729   2.179   1.945
 5676SOL    HW117927   2.774   2.235   2.015
 5676SOL    HW217928   2.740   2.223   1.856
 5677SOL     OW17929   0.096   0.062   1.403
 5677SOL    HW117930   0.097   6.986   1.384
 5677SOL    HW217931   0.155   0.082   1.481
 5678SOL     OW17932   3.064   1.774   1.613
 5678SOL    HW117933   3.152   1.732   1.592
 5678SOL    HW217934   3.053   1.857   1.559
 5679SOL     OW17935   5.857   3.358   4.899
 5679SOL    HW117936   5.857   3.291   4.974
 5679SOL    HW217937   5.770   3.354   4.851
 5680SOL     OW17938   1.269   5.604   5.829
 5680SOL    HW117939   1.333   5.529   5.847
 5680SOL    HW217940   1.299   5.686   5.879
 5681SOL     OW17941   0.088   4.267   2.893
 5681SOL    HW117942   0.089   4.320   2.808
 5681SOL    HW217943   0.066   4.328   2.970
 5682SOL     OW17944   2.083   4.398   2.042
 5682SOL    HW117945   2.078   4.497   2.027
 5682SOL    HW217946   2.145   4.358   1.975
 5683SOL     OW17947   4.446   1.891   6.900
 5683SOL    HW117948   4.358   1.853   6.928
 5683SOL    HW217949   4.433   1.984   6.866
 5684SOL     OW17950   2.349   2.579   5.366
 5684SOL    HW117951   2.386   2.580   5.459
 5684SOL    HW217952   2.250   2.597   5.369
 5685SOL     OW17953   2.477   2.195   3.572
 5685SOL    HW117954   2.416   2.122   3.544
 5685SOL    HW217955   2.439   2.242   3.652
 5686SOL     OW17956   3.068   6.682   6.298
 5686SOL    HW117957   3.014   6.765   6.286
 5686SOL    HW217958   3.123   6.666   6.216
 5687SOL     OW17959   1.685   6.396   5.497
 5687SOL    HW117960   1.620   6.371   5.569
 5687SOL    HW217961   1.778   6.383   5.530
 5688SOL     OW17962   2.064   3.107   3.308
 5688SOL    HW117963   2.055   3.170   3.231
 5688SOL    HW217964   2.084   3.159   3.391
 5689SOL     OW17965   1.269   1.272   1.624
 5689SOL    HW117966   1.249   1.182   1.664
 5689SOL    HW217967   1.322   1.326   1.689
 5690SOL     OW17968   1.150   5.662   0.370
 5690SOL    HW117969   1.108   5.714   0.296
 5690SOL    HW217970   1.215   5.596   0.332
 5691SOL     OW17971   3.947   0.809   2.719
 5691SOL    HW117972   3.992   0.834   2.805
 5691SOL    HW217973   3.932   0.891   2.664
 5692SOL     OW17974   4.933   5.183   1.268
 5692SOL    HW117975   5.003   5.203   1.200
 5692SOL    HW217976   4.976   5.151   1.352
 5693SOL     OW17977   3.358   0.621   1.278
 5693SOL    HW117978   3.340   0.687   1.204
 5693SOL    HW217979   3.432   0.560   1.251
 5694SOL     OW17980   0.510   0.109   2.353
 5694SOL    HW117981   0.506   0.077   2.258
 5694SOL    HW217982   0.605   0.111   2.383
 5695SOL     OW17983   0.924   0.646   0.880
 5695SOL    HW117984   0.925   0.599   0.968
 5695SOL    HW217985   1.007   0.625   0.829
 5696SOL     OW17986   1.627   6.902   4.410
 5696SOL    HW117987   1.639   6.815   4.457
 5696SOL    HW217988   1.671   6.975   4.463
 5697SOL     OW17989   6.618   3.020   0.872
 5697SOL    HW117990   6.715   3.030   0.890
 5697SOL    HW217991   6.591   2.924   0.882
 5698SOL     OW17992   2.069   3.077   3.623
 5698SOL    HW117993   2.140   3.043   3.562
 5698SOL    HW217994   1.980   3.072   3.577
 5699SOL     OW17995   2.491   2.593   3.114
 5699SOL    HW117996   2.490   2.588   3.015
 5699SOL    HW217997   2.565   2.536   3.150
 5700SOL     OW17998   6.123   0.300   2.849
 5700SOL    HW117999   6.058   0.225   2.864
 5700SOL    HW218000   6.153   0.300   2.754
 5701SOL     OW18001   6.505   0.723   0.729
 5701SOL    HW118002   6.583   0.761   0.778
 5701SOL    HW218003   6.501   0.762   0.637
 5702SOL     OW18004   2.539   6.619   4.597
 5702SOL    HW118005   2.564   6.555   4.525
 5702SOL    HW218006   2.621   6.646   4.648
 5703SOL     OW18007   6.271   3.022   6.243
 5703SOL    HW118008   6.345   3.081   6.274
 5703SOL    HW218009   6.307   2.947   6.188
 5704SOL     OW18010   5.686   4.440   3.821
 5704SOL    HW118011   5.658   4.487   3.905
 5704SOL    HW218012   5.775   4.474   3.792
 5705SOL     OW18013   5.792   6.437   6.366
 5705SOL    HW118014   5.802   6.502   6.441
 5705SOL    HW218015   5.877   6.385   6.356
 5706SOL     OW18016   5.621   2.282   0.318
 5706SOL    HW118017   5.693   2.218   0.291
 5706SOL    HW218018   5.615   2.285   0.418
 5707SOL     OW18019   5.535   6.451   2.298
 5707SOL    HW118020   5.438   6.451   2.273
 5707SOL    HW218021   5.544   6.471   2.395
 5708SOL     OW18022   4.686   6.062   3.694
 5708SOL    HW118023   4.688   5.981   3.635
 5708SOL    HW218024   4.618   6.127   3.660
 5709SOL     OW18025   0.520   1.337   2.130
 5709SOL    HW118026   0.598   1.300   2.080
 5709SOL    HW218027   0.481   1.414   2.079
 5710SOL     OW18028   2.523   2.447   1.066
 5710SOL    HW118029   2.493   2.492   0.982
 5710SOL    HW218030   2.447   2.446   1.132
 5711SOL     OW18031   5.314   1.629   2.121
 5711SOL    HW118032   5.378   1.558   2.150
 5711SOL    HW218033   5.274   1.603   2.033
 5712SOL     OW18034   6.863   6.228   1.862
 5712SOL    HW118035   6.845   6.173   1.944
 5712SOL    HW218036   6.861   6.325   1.886
 5713SOL     OW18037   2.593   6.263   0.484
 5713SOL    HW118038   2.601   6.261   0.384
 5713SOL    HW218039   2.679   6.233   0.525
 5714SOL     OW18040   6.214   6.345   1.967
 5714SOL    HW118041   6.199   6.412   1.894
 5714SOL    HW218042   6.141   6.353   2.035
 5715SOL     OW18043   0.997   0.021   0.867
 5715SOL    HW118044   0.975   7.010   0.959
 5715SOL    HW218045   1.062   0.096   0.873
 5716SOL     OW18046   0.244   4.619   5.707
 5716SOL    HW118047   0.180   4.542   5.707
 5716SOL    HW218048   0.257   4.651   5.800
 5717SOL     OW18049   1.713   5.005   2.994
 5717SOL    HW118050   1.700   4.918   2.948
 5717SOL    HW218051   1.624   5.050   3.007
 5718SOL     OW18052   1.123   2.993   0.422
 5718SOL    HW118053   1.213   3.028   0.399
 5718SOL    HW218054   1.078   2.961   0.339
 5719SOL     OW18055   3.123   4.037   1.093
 5719SOL    HW118056   3.047   4.089   1.132
 5719SOL    HW218057   3.209   4.066   1.134
 5720SOL     OW18058   2.025   5.443   5.891
 5720SOL    HW118059   2.108   5.393   5.917
 5720SOL    HW218060   2.031   5.537   5.926
 5721SOL     OW18061   4.693   4.793   0.339
 5721SOL    HW118062   4.733   4.813   0.250
 5721SOL    HW218063   4.683   4.878   0.392
 5722SOL     OW18064   0.831   0.924   5.269
 5722SOL    HW118065   0.830   0.878   5.357
 5722SOL    HW218066   0.778   0.871   5.203
 5723SOL     OW18067   4.295   3.270   0.123
 5723SOL    HW118068   4.275   3.252   0.027
 5723SOL    HW218069   4.253   3.200   0.180
 5724SOL     OW18070   5.010   2.255   3.725
 5724SOL    HW118071   5.016   2.163   3.763
 5724SOL    HW218072   4.932   2.261   3.664
 5725SOL     OW18073   6.560   3.916   3.506
 5725SOL    HW118074   6.633   3.872   3.456
 5725SOL    HW218075   6.597   3.959   3.588
 5726SOL     OW18076   5.002   4.591   2.964
 5726SOL    HW118077   5.007   4.602   3.063
 5726SOL    HW218078   5.004   4.493   2.941
 5727SOL     OW18079   0.909   2.282   4.482
 5727SOL    HW118080   0.907   2.183   4.496
 5727SOL    HW218081   0.903   2.328   4.570
 5728SOL     OW18082   5.340   6.404   4.896
 5728SOL    HW118083   5.250   6.373   4.864
 5728SOL    HW218084   5.329   6.450   4.985
 5729SOL     OW18085   1.865   1.419   6.031
 5729SOL    HW118086   1.865   1.341   5.968
 5729SOL    HW218087   1.922   1.399   6.110
 5730SOL     OW18088   6.547   4.167   5.968
 5730SOL    HW118089   6.534   4.107   6.047
 5730SOL    HW218090   6.463   4.171   5.915
 5731SOL     OW18091   0.626   6.384   1.741
 5731SOL    HW118092   0.675   6.360   1.825
 5731SOL    HW218093   0.534   6.345   1.744
 5732SOL     OW18094   1.635   6.933   4.129
 5732SOL    HW118095   1.638   0.003   4.089
 5732SOL    HW218096   1.646   6.939   4.228
 5733SOL     OW18097   3.366   6.916   5.031
 5733SOL    HW118098   3.358   6.984   4.959
 5733SOL    HW218099   3.292   6.929   5.097
 5734SOL     OW18100   1.605   5.617   3.250
 5734SOL    HW118101   1.571   5.677   3.322
 5734SOL    HW218102   1.705   5.625   3.244
 5735SOL     OW18103   3.251   1.397   2.228
 5735SOL    HW118104   3.250   1.390   2.328
 5735SOL    HW218105   3.275   1.308   2.189
 5736SOL     OW18106   0.780   5.382   6.959
 5736SOL    HW118107   0.770   5.458   0.001
 5736SOL    HW218108   0.756   5.296   7.005
 5737SOL     OW18109   5.015   4.690   0.522
 5737SOL    HW118110   4.992   4.777   0.565
 5737SOL    HW218111   4.931   4.641   0.499
 5738SOL     OW18112   1.016   3.826   5.989
 5738SOL    HW118113   1.103   3.839   6.037
 5738SOL    HW218114   0.998   3.906   5.932
 5739SOL     OW18115   0.835   1.531   0.962
 5739SOL    HW118116   0.797   1.617   0.927
 5739SOL    HW218117   0.910   1.551   1.025
 5740SOL     OW18118   3.896   6.144   6.072
 5740SOL    HW118119   3.872   6.056   6.031
 5740SOL    HW218120   3.850   6.153   6.160
 5741SOL     OW18121   1.124   5.431   4.343
 5741SOL    HW118122   1.028   5.421   4.320
 5741SOL    HW218123   1.169   5.342   4.343
 5742SOL     OW18124   6.475   6.850   3.961
 5742SOL    HW118125   6.454   6.762   4.005
 5742SOL    HW218126   6.538   6.902   4.019
 5743SOL     OW18127   1.779   6.963   5.077
 5743SOL    HW118128   1.826   6.899   5.138
 5743SOL    HW218129   1.847   7.010   5.020
 5744SOL     OW18130   6.388   0.445   2.232
 5744SOL    HW118131   6.353   0.385   2.159
 5744SOL    HW218132   6.356   0.538   2.216
 5745SOL     OW18133   1.955   1.805   3.566
 5745SOL    HW118134   1.936   1.707   3.561
 5745SOL    HW218135   1.907   1.852   3.491
 5746SOL     OW18136   5.413   2.732   0.079
 5746SOL    HW118137   5.393   2.670   0.003
 5746SOL    HW218138   5.495   2.701   0.127
 5747SOL     OW18139   1.097   5.843   3.172
 5747SOL    HW118140   1.161   5.879   3.105
 5747SOL    HW218141   1.007   5.884   3.157
 5748SOL     OW18142   2.652   5.995   2.800
 5748SOL    HW118143   2.586   6.024   2.731
 5748SOL    HW218144   2.652   6.062   2.875
 5749SOL     OW18145   2.600   1.743   3.517
 5749SOL    HW118146   2.642   1.820   3.565
 5749SOL    HW218147   2.601   1.759   3.419
 5750SOL     OW18148   6.852   5.686   2.842
 5750SOL    HW118149   6.857   5.778   2.881
 5750SOL    HW218150   6.775   5.637   2.884
 5751SOL     OW18151   2.189   3.752   5.782
 5751SOL    HW118152   2.183   3.674   5.845
 5751SOL    HW218153   2.185   3.719   5.688
 5752SOL     OW18154   6.597   6.992   6.798
 5752SOL    HW118155   6.610   0.053   6.744
 5752SOL    HW218156   6.629   6.913   6.746
 5753SOL     OW18157   3.814   2.566   0.555
 5753SOL    HW118158   3.903   2.562   0.509
 5753SOL    HW218159   3.744   2.590   0.488
 5754SOL     OW18160   6.134   4.494   1.620
 5754SOL    HW118161   6.183   4.563   1.674
 5754SOL    HW218162   6.110   4.532   1.531
 5755SOL     OW18163   3.568   4.007   0.787
 5755SOL    HW118164   3.573   3.910   0.808
 5755SOL    HW218165   3.513   4.021   0.705
 5756SOL     OW18166   7.014   5.576   4.361
 5756SOL    HW118167   6.983   5.528   4.443
 5756SOL    HW218168   6.945   5.566   4.289
 5757SOL     OW18169   0.487   4.820   0.981
 5757SOL    HW118170   0.529   4.857   1.063
 5757SOL    HW218171   0.388   4.833   0.986
 5758SOL     OW18172   1.296   1.976   5.607
 5758SOL    HW118173   1.345   1.894   5.635
 5758SOL    HW218174   1.236   2.006   5.681
 5759SOL     OW18175   5.501   1.558   5.457
 5759SOL    HW118176   5.593   1.546   5.495
 5759SOL    HW218177   5.496   1.646   5.410
 5760SOL     OW18178   2.054   5.427   2.384
 5760SOL    HW118179   2.094   5.442   2.474
 5760SOL    HW218180   1.957   5.408   2.393
 5761SOL     OW18181   4.888   0.316   4.913
 5761SOL    HW118182   4.898   0.229   4.864
 5761SOL    HW218183   4.908   0.302   5.010
 5762SOL     OW18184   5.999   6.152   1.666
 5762SOL    HW118185   5.960   6.223   1.725
 5762SOL    HW218186   6.084   6.117   1.707
 5763SOL     OW18187   1.267   1.011   1.711
 5763SOL    HW118188   1.345   1.024   1.772
 5763SOL    HW218189   1.272   0.920   1.670
 5764SOL     OW18190   4.703   3.304   5.288
 5764SOL    HW118191   4.670   3.389   5.248
 5764SOL    HW218192   4.801   3.312   5.307
 5765SOL     OW18193   5.642   4.835   0.115
 5765SOL    HW118194   5.707   4.780   0.062
 5765SOL    HW218195   5.629   4.924   0.071
 5766SOL     OW18196   3.686   1.519   2.795
 5766SOL    HW118197   3.685   1.446   2.863
 5766SOL    HW218198   3.733   1.599   2.831
 5767SOL     OW18199   0.365   6.251   1.765
 5767SOL    HW118200   0.276   6.266   1.723
 5767SOL    HW218201   0.360   6.275   1.862
 5768SOL     OW18202   6.170   1.478   2.690
 5768SOL    HW118203   6.231   1.436   2.758
 5768SOL    HW218204   6.217   1.553   2.645
 5769SOL     OW18205   2.260   5.414   3.799
 5769SOL    HW118206   2.216   5.445   3.715
 5769SOL    HW218207   2.190   5.384   3.864
 5770SOL     OW18208   6.182   0.676   1.466
 5770SOL    HW118209   6.253   0.745   1.480
 5770SOL    HW218210   6.226   0.586   1.453
 5771SOL     OW18211   0.743   1.783   1.646
 5771SOL    HW118212   0.817   1.730   1.606
 5771SOL    HW218213   0.777   1.871   1.677
 5772SOL     OW18214   6.476   4.227   6.925
 5772SOL    HW118215   6.484   4.261   7.019
 5772SOL    HW218216   6.562   4.183   6.898
 5773SOL     OW18217   5.653   5.690   4.250
 5773SOL    HW118218   5.611   5.781   4.254
 5773SOL    HW218219   5.700   5.680   4.162
 5774SOL     OW18220   2.005   5.216   3.649
 5774SOL    HW118221   1.932   5.264   3.698
 5774SOL    HW218222   1.978   5.203   3.554
 5775SOL     OW18223   0.084   0.246   6.848
 5775SOL    HW118224   0.081   0.346   6.848
 5775SOL    HW218225   0.034   0.211   6.928
 5776SOL     OW18226   5.140   0.895   5.187
 5776SOL    HW118227   5.176   0.868   5.277
 5776SOL    HW218228   5.105   0.814   5.140
 5777SOL     OW18229   6.786   0.939   5.417
 5777SOL    HW118230   6.739   0.981   5.339
 5777SOL    HW218231   6.872   0.987   5.433
 5778SOL     OW18232   2.436   6.805   3.818
 5778SOL    HW118233   2.377   6.783   3.896
 5778SOL    HW218234   2.516   6.855   3.850
 5779SOL     OW18235   4.702   1.387   2.292
 5779SOL    HW118236   4.748   1.329   2.224
 5779SOL    HW218237   4.749   1.380   2.380
 5780SOL     OW18238   5.707   3.894   1.224
 5780SOL    HW118239   5.756   3.890   1.311
 5780SOL    HW218240   5.772   3.897   1.148
 5781SOL     OW18241   1.984   5.588   4.597
 5781SOL    HW118242   1.949   5.616   4.507
 5781SOL    HW218243   1.946   5.500   4.622
 5782SOL     OW18244   2.985   1.773   2.666
 5782SOL    HW118245   2.928   1.699   2.631
 5782SOL    HW218246   2.942   1.861   2.643
 5783SOL     OW18247   1.445   0.048   0.892
 5783SOL    HW118248   1.509   0.028   0.966
 5783SOL    HW218249   1.404   6.985   0.859
 5784SOL     OW18250   1.515   5.674   6.941
 5784SOL    HW118251   1.463   5.704   6.861
 5784SOL    HW218252   1.609   5.652   6.913
 5785SOL     OW18253   1.954   1.914   0.141
 5785SOL    HW118254   1.878   1.898   0.078
 5785SOL    HW218255   2.018   1.838   0.136
 5786SOL     OW18256   1.268   3.453   1.344
 5786SOL    HW118257   1.214   3.436   1.261
 5786SOL    HW218258   1.234   3.535   1.390
 5787SOL     OW18259   0.059   3.243   5.536
 5787SOL    HW118260   0.036   3.259   5.632
 5787SOL    HW218261   0.120   3.164   5.530
 5788SOL     OW18262   2.119   2.024   2.217
 5788SOL    HW118263   2.149   1.971   2.137
 5788SOL    HW218264   2.070   2.106   2.187
 5789SOL     OW18265   3.247   4.813   6.634
 5789SOL    HW118266   3.247   4.867   6.717
 5789SOL    HW218267   3.235   4.873   6.555
 5790SOL     OW18268   5.964   6.145   4.192
 5790SOL    HW118269   5.972   6.063   4.136
 5790SOL    HW218270   5.879   6.193   4.170
 5791SOL     OW18271   3.746   1.278   1.974
 5791SOL    HW118272   3.763   1.214   1.900
 5791SOL    HW218273   3.711   1.364   1.937
 5792SOL     OW18274   5.079   3.196   3.101
 5792SOL    HW118275   5.048   3.183   3.195
 5792SOL    HW218276   5.118   3.111   3.066
 5793SOL     OW18277   4.347   2.516   5.929
 5793SOL    HW118278   4.278   2.578   5.892
 5793SOL    HW218279   4.356   2.437   5.869
 5794SOL     OW18280   4.454   6.789   0.249
 5794SOL    HW118281   4.408   6.864   0.296
 5794SOL    HW218282   4.387   6.719   0.223
 5795SOL     OW18283   2.329   5.864   1.721
 5795SOL    HW118284   2.278   5.876   1.636
 5795SOL    HW218285   2.420   5.906   1.711
 5796SOL     OW18286   4.711   1.771   6.847
 5796SOL    HW118287   4.619   1.811   6.836
 5796SOL    HW218288   4.776   1.844   6.865
 5797SOL     OW18289   5.606   2.321   1.144
 5797SOL    HW118290   5.674   2.257   1.181
 5797SOL    HW218291   5.650   2.407   1.122
 5798SOL     OW18292   1.903   3.839   5.229
 5798SOL    HW118293   1.872   3.931   5.206
 5798SOL    HW218294   1.863   3.773   5.165
 5799SOL     OW18295   2.509   6.639   3.548
 5799SOL    HW118296   2.439   6.600   3.488
 5799SOL    HW218297   2.470   6.655   3.639
 5800SOL     OW18298   1.116   6.911   1.109
 5800SOL    HW118299   1.065   6.875   1.187
 5800SOL    HW218300   1.180   6.981   1.141
 5801SOL     OW18301   1.918   1.456   1.945
 5801SOL    HW118302   1.894   1.521   2.018
 5801SOL    HW218303   1.983   1.498   1.883
 5802SOL     OW18304   7.020   0.797   1.964
 5802SOL    HW118305   6.977   0.799   1.874
 5802SOL    HW218306   0.094   0.768   1.955
 5803SOL     OW18307   0.487   5.259   3.947
 5803SOL    HW118308   0.540   5.182   3.910
 5803SOL    HW218309   0.517   5.278   4.040
 5804SOL     OW18310   5.965   1.259   3.653
 5804SOL    HW118311   6.042   1.247   3.715
 5804SOL    HW218312   5.902   1.182   3.662
 5805SOL     OW18313   1.232   2.554   1.872
 5805SOL    HW118314   1.219   2.531   1.776
 5805SOL    HW218315   1.329   2.541   1.896
 5806SOL     OW18316   6.230   4.123   2.176
 5806SOL    HW118317   6.191   4.059   2.242
 5806SOL    HW218318   6.210   4.091   2.083
 5807SOL     OW18319   1.308   0.437   1.292
 5807SOL    HW118320   1.408   0.434   1.288
 5807SOL    HW218321   1.275   0.515   1.240
 5808SOL     OW18322   6.594   6.981   5.734
 5808SOL    HW118323   6.576   0.007   5.820
 5808SOL    HW218324   6.692   6.982   5.714
 5809SOL     OW18325   1.086   1.935   5.428
 5809SOL    HW118326   1.166   1.954   5.484
 5809SOL    HW218327   1.100   1.971   5.336
 5810SOL     OW18328   3.034   6.772   5.524
 5810SOL    HW118329   2.977   6.830   5.465
 5810SOL    HW218330   2.985   6.753   5.609
 5811SOL     OW18331   3.523   4.226   6.757
 5811SOL    HW118332   3.597   4.291   6.778
 5811SOL    HW218333   3.555   4.133   6.771
 5812SOL     OW18334   6.082   2.373   6.976
 5812SOL    HW118335   6.098   2.276   6.962
 5812SOL    HW218336   6.023   2.409   6.904
 5813SOL     OW18337   5.030   6.077   0.474
 5813SOL    HW118338   4.951   6.041   0.425
 5813SOL    HW218339   5.089   6.001   0.502
 5814SOL     OW18340   5.291   1.443   1.430
 5814SOL    HW118341   5.252   1.492   1.352
 5814SOL    HW218342   5.219   1.424   1.496
 5815SOL     OW18343   6.723   2.000   4.136
 5815SOL    HW118344   6.757   2.038   4.222
 5815SOL    HW218345   6.800   1.977   4.077
 5816SOL     OW18346   0.162   3.494   2.501
 5816SOL    HW118347   0.097   3.470   2.429
 5816SOL    HW218348   0.160   3.424   2.572
 5817SOL     OW18349   6.084   3.590   3.098
 5817SOL    HW118350   6.036   3.649   3.032
 5817SOL    HW218351   6.088   3.637   3.186
 5818SOL     OW18352   2.743   0.374   4.950
 5818SOL    HW118353   2.721   0.331   5.038
 5818SOL    HW218354   2.782   0.305   4.888
 5819SOL     OW18355   4.468   5.513   0.376
 5819SOL    HW118356   4.471   5.413   0.380
 5819SOL    HW218357   4.531   5.551   0.444
 5820SOL     OW18358   5.446   5.911   2.154
 5820SOL    HW118359   5.535   5.955   2.145
 5820SOL    HW218360   5.375   5.973   2.122
 5821SOL     OW18361   0.132   6.491   0.926
 5821SOL    HW118362   0.137   6.398   0.888
 5821SOL    HW218363   0.080   6.550   0.864
 5822SOL     OW18364   1.778   3.254   2.747
 5822SOL    HW118365   1.824   3.166   2.731
 5822SOL    HW218366   1.692   3.256   2.696
 5823SOL     OW18367   2.065   5.030   3.383
 5823SOL    HW118368   2.162   5.023   3.404
 5823SOL    HW218369   2.026   4.938   3.378
 5824SOL     OW18370   1.105   1.179   2.475
 5824SOL    HW118371   1.082   1.214   2.384
 5824SOL    HW218372   1.072   1.242   2.545
 5825SOL     OW18373   5.615   1.168   4.622
 5825SOL    HW118374   5.551   1.093   4.601
 5825SOL    HW218375   5.677   1.138   4.694
 5826SOL     OW18376   0.585   6.869   5.280
 5826SOL    HW118377   0.671   6.919   5.286
 5826SOL    HW218378   0.510   6.934   5.268
 5827SOL     OW18379   2.154   3.889   3.612
 5827SOL    HW118380   2.137   3.798   3.649
 5827SOL    HW218381   2.147   3.888   3.513
 5828SOL     OW18382   3.594   0.263   4.886
 5828SOL    HW118383   3.669   0.215   4.842
 5828SOL    HW218384   3.621   0.357   4.905
 5829SOL     OW18385   2.348   0.866   4.041
 5829SOL    HW118386   2.447   0.867   4.034
 5829SOL    HW218387   2.308   0.872   3.949
 5830SOL     OW18388   3.934   4.906   4.108
 5830SOL    HW118389   4.022   4.925   4.151
 5830SOL    HW218390   3.860   4.924   4.172
 5831SOL     OW18391   1.614   2.589   5.361
 5831SOL    HW118392   1.650   2.513   5.307
 5831SOL    HW218393   1.540   2.634   5.311
 5832SOL     OW18394   3.092   5.174   1.712
 5832SOL    HW118395   3.057   5.116   1.638
 5832SOL    HW218396   3.076   5.270   1.688
 5833SOL     OW18397   3.280   4.669   0.088
 5833SOL    HW118398   3.295   4.577   0.051
 5833SOL    HW218399   3.330   4.679   0.174
 5834SOL     OW18400   5.506   2.882   6.334
 5834SOL    HW118401   5.437   2.839   6.391
 5834SOL    HW218402   5.497   2.849   6.240
 5835SOL     OW18403   4.930   2.294   3.014
 5835SOL    HW118404   4.934   2.334   2.922
 5835SOL    HW218405   4.961   2.199   3.009
 5836SOL     OW18406   4.817   6.121   3.149
 5836SOL    HW118407   4.784   6.168   3.066
 5836SOL    HW218408   4.831   6.188   3.221
 5837SOL     OW18409   2.957   5.324   6.846
 5837SOL    HW118410   2.946   5.225   6.853
 5837SOL    HW218411   3.054   5.347   6.849
 5838SOL     OW18412   3.893   2.259   1.001
 5838SOL    HW118413   3.843   2.236   0.918
 5838SOL    HW218414   3.833   2.307   1.065
 5839SOL     OW18415   1.804   2.446   0.807
 5839SOL    HW118416   1.776   2.516   0.874
 5839SOL    HW218417   1.858   2.489   0.735
 5840SOL     OW18418   0.368   3.253   2.917
 5840SOL    HW118419   0.272   3.230   2.935
 5840SOL    HW218420   0.373   3.314   2.838
 5841SOL     OW18421   5.370   1.821   0.147
 5841SOL    HW118422   5.388   1.812   0.245
 5841SOL    HW218423   5.279   1.859   0.133
 5842SOL     OW18424   1.952   2.775   1.466
 5842SOL    HW118425   1.893   2.770   1.385
 5842SOL    HW218426   1.920   2.710   1.535
 5843SOL     OW18427   2.578   3.954   0.843
 5843SOL    HW118428   2.558   4.046   0.809
 5843SOL    HW218429   2.509   3.928   0.911
 5844SOL     OW18430   0.378   6.476   5.210
 5844SOL    HW118431   0.360   6.552   5.148
 5844SOL    HW218432   0.449   6.502   5.275
 5845SOL     OW18433   1.191   6.899   2.395
 5845SOL    HW118434   1.191   6.837   2.317
 5845SOL    HW218435   1.283   6.937   2.407
 5846SOL     OW18436   6.592   4.088   5.617
 5846SOL    HW118437   6.612   4.042   5.530
 5846SOL    HW218438   6.654   4.054   5.687
 5847SOL     OW18439   2.667   4.243   6.563
 5847SOL    HW118440   2.612   4.226   6.644
 5847SOL    HW218441   2.642   4.178   6.491
 5848SOL     OW18442   2.198   5.540   2.146
 5848SOL    HW118443   2.142   5.479   2.202
 5848SOL    HW218444   2.142   5.614   2.111
 5849SOL     OW18445   3.708   6.174   5.518
 5849SOL    HW118446   3.807   6.185   5.512
 5849SOL    HW218447   3.684   6.140   5.609
 5850SOL     OW18448   0.819   1.533   2.954
 5850SOL    HW118449   0.788   1.445   2.917
 5850SOL    HW218450   0.908   1.521   2.999
 5851SOL     OW18451   6.544   3.479   4.029
 5851SOL    HW118452   6.519   3.572   4.056
 5851SOL    HW218453   6.643   3.471   4.024
 5852SOL     OW18454   4.773   3.981   2.473
 5852SOL    HW118455   4.799   3.886   2.457
 5852SOL    HW218456   4.738   4.021   2.388
 5853SOL     OW18457   3.975   4.990   6.027
 5853SOL    HW118458   4.071   4.964   6.018
 5853SOL    HW218459   3.927   4.923   6.084
 5854SOL     OW18460   2.810   4.774   5.291
 5854SOL    HW118461   2.813   4.682   5.252
 5854SOL    HW218462   2.848   4.772   5.384
 5855SOL     OW18463   2.287   2.695   3.284
 5855SOL    HW118464   2.347   2.633   3.234
 5855SOL    HW218465   2.206   2.715   3.227
 5856SOL     OW18466   1.064   0.042   2.943
 5856SOL    HW118467   1.019   0.131   2.943
 5856SOL    HW218468   1.010   6.999   2.998
 5857SOL     OW18469   5.825   4.529   6.673
 5857SOL    HW118470   5.745   4.499   6.724
 5857SOL    HW218471   5.798   4.592   6.601
 5858SOL     OW18472   1.482   1.140   3.161
 5858SOL    HW118473   1.408   1.195   3.201
 5858SOL    HW218474   1.455   1.109   3.070
 5859SOL     OW18475   6.056   6.476   1.291
 5859SOL    HW118476   6.128   6.410   1.269
 5859SOL    HW218477   5.974   6.455   1.238
 5860SOL     OW18478   0.276   4.628   3.455
 5860SOL    HW118479   0.283   4.530   3.434
 5860SOL    HW218480   0.197   4.644   3.514
 5861SOL     OW18481   5.270   1.018   5.421
 5861SOL    HW118482   5.228   1.046   5.334
 5861SOL    HW218483   5.223   1.063   5.497
 5862SOL     OW18484   6.728   5.700   2.576
 5862SOL    HW118485   6.781   5.710   2.661
 5862SOL    HW218486   6.659   5.772   2.572
 5863SOL     OW18487   3.922   6.645   6.685
 5863SOL    HW118488   3.969   6.689   6.608
 5863SOL    HW218489   3.963   6.676   6.771
 5864SOL     OW18490   3.503   4.056   2.493
 5864SOL    HW118491   3.540   4.118   2.562
 5864SOL    HW218492   3.554   4.067   2.407
 5865SOL     OW18493   6.581   0.541   6.153
 5865SOL    HW118494   6.679   0.542   6.172
 5865SOL    HW218495   6.566   0.510   6.059
 5866SOL     OW18496   3.986   3.112   2.786
 5866SOL    HW118497   3.924   3.042   2.822
 5866SOL    HW218498   4.016   3.087   2.694
 5867SOL     OW18499   3.112   1.433   1.704
 5867SOL    HW118500   3.115   1.333   1.694
 5867SOL    HW218501   3.198   1.465   1.742
 5868SOL     OW18502   0.792   1.074   5.794
 5868SOL    HW118503   0.849   1.013   5.849
 5868SOL    HW218504   0.846   1.112   5.719
 5869SOL     OW18505   0.799   6.190   3.300
 5869SOL    HW118506   0.726   6.236   3.351
 5869SOL    HW218507   0.832   6.111   3.352
 5870SOL     OW18508   3.757   5.461   4.638
 5870SOL    HW118509   3.855   5.443   4.643
 5870SOL    HW218510   3.738   5.517   4.557
 5871SOL     OW18511   3.069   3.921   3.659
 5871SOL    HW118512   3.015   3.892   3.580
 5871SOL    HW218513   3.024   3.888   3.743
 5872SOL     OW18514   4.679   5.742   1.520
 5872SOL    HW118515   4.717   5.772   1.607
 5872SOL    HW218516   4.693   5.643   1.511
 5873SOL     OW18517   4.308   6.051   2.126
 5873SOL    HW118518   4.299   6.020   2.031
 5873SOL    HW218519   4.218   6.051   2.169
 5874SOL     OW18520   1.660   3.731   5.616
 5874SOL    HW118521   1.727   3.804   5.621
 5874SOL    HW218522   1.675   3.667   5.692
 5875SOL     OW18523   2.938   1.584   0.947
 5875SOL    HW118524   2.952   1.682   0.961
 5875SOL    HW218525   2.910   1.567   0.853
 5876SOL     OW18526   3.707   3.553   1.788
 5876SOL    HW118527   3.798   3.590   1.806
 5876SOL    HW218528   3.645   3.579   1.862
 5877SOL     OW18529   5.310   4.201   1.052
 5877SOL    HW118530   5.283   4.148   0.971
 5877SOL    HW218531   5.352   4.287   1.023
 5878SOL     OW18532   1.934   4.616   2.496
 5878SOL    HW118533   2.009   4.659   2.545
 5878SOL    HW218534   1.861   4.593   2.560
 5879SOL     OW18535   0.448   4.316   4.850
 5879SOL    HW118536   0.379   4.315   4.923
 5879SOL    HW218537   0.518   4.383   4.872
 5880SOL     OW18538   3.198   5.624   1.098
 5880SOL    HW118539   3.212   5.525   1.109
 5880SOL    HW218540   3.211   5.649   1.002
 5881SOL     OW18541   1.112   6.213   4.572
 5881SOL    HW118542   1.038   6.206   4.505
 5881SOL    HW218543   1.199   6.227   4.524
 5882SOL     OW18544   4.691   1.034   1.739
 5882SOL    HW118545   4.665   1.130   1.755
 5882SOL    HW218546   4.749   1.003   1.813
 5883SOL     OW18547   0.071   3.706   5.616
 5883SOL    HW118548   0.157   3.675   5.655
 5883SOL    HW218549   0.075   3.805   5.602
 5884SOL     OW18550   1.072   1.656   3.069
 5884SOL    HW118551   1.119   1.664   2.981
 5884SOL    HW218552   1.032   1.744   3.093
 5885SOL     OW18553   5.786   6.554   1.413
 5885SOL    HW118554   5.783   6.454   1.413
 5885SOL    HW218555   5.732   6.589   1.335
 5886SOL     OW18556   1.504   1.445   6.099
 5886SOL    HW118557   1.450   1.371   6.059
 5886SOL    HW218558   1.559   1.489   6.028
 5887SOL     OW18559   4.276   6.646   4.033
 5887SOL    HW118560   4.325   6.567   4.070
 5887SOL    HW218561   4.320   6.730   4.065
 5888SOL     OW18562   2.210   0.291   3.455
 5888SOL    HW118563   2.282   0.222   3.446
 5888SOL    HW218564   2.131   0.266   3.400
 5889SOL     OW18565   2.729   0.645   0.710
 5889SOL    HW118566   2.727   0.722   0.647
 5889SOL    HW218567   2.819   0.640   0.754
 5890SOL     OW18568   3.205   4.906   5.859
 5890SOL    HW118569   3.153   4.952   5.787
 5890SOL    HW218570   3.145   4.890   5.938
 5891SOL     OW18571   2.951   3.894   0.159
 5891SOL    HW118572   2.899   3.836   0.222
 5891SOL    HW218573   2.956   3.987   0.196
 5892SOL     OW18574   0.754   6.762   1.306
 5892SOL    HW118575   0.701   6.718   1.378
 5892SOL    HW218576   0.697   6.831   1.260
 5893SOL     OW18577   1.473   0.556   3.708
 5893SOL    HW118578   1.455   0.625   3.638
 5893SOL    HW218579   1.454   0.465   3.671
 5894SOL     OW18580   1.061   2.853   3.296
 5894SOL    HW118581   0.976   2.843   3.348
 5894SOL    HW218582   1.054   2.802   3.210
 5895SOL     OW18583   4.889   3.502   3.646
 5895SOL    HW118584   4.891   3.445   3.564
 5895SOL    HW218585   4.845   3.590   3.625
 5896SOL     OW18586   3.332   2.177   5.879
 5896SOL    HW118587   3.420   2.209   5.912
 5896SOL    HW218588   3.329   2.182   5.779
 5897SOL     OW18589   4.342   0.468   1.428
 5897SOL    HW118590   4.247   0.486   1.456
 5897SOL    HW218591   4.346   0.466   1.328
 5898SOL     OW18592   1.899   0.382   2.372
 5898SOL    HW118593   1.820   0.443   2.363
 5898SOL    HW218594   1.982   0.435   2.388
 5899SOL     OW18595   5.345   0.052   4.127
 5899SOL    HW118596   5.417   0.112   4.162
 5899SOL    HW218597   5.256   0.085   4.158
 5900SOL     OW18598   4.497   5.401   2.981
 5900SOL    HW118599   4.559   5.331   3.016
 5900SOL    HW218600   4.402   5.375   3.000
 5901SOL     OW18601   3.533   6.655   5.072
 5901SOL    HW118602   3.488   6.745   5.069
 5901SOL    HW218603   3.614   6.657   5.014
 5902SOL     OW18604   6.508   1.498   6.779
 5902SOL    HW118605   6.470   1.457   6.696
 5902SOL    HW218606   6.606   1.480   6.784
 5903SOL     OW18607   5.969   2.747   6.015
 5903SOL    HW118608   6.024   2.682   6.067
 5903SOL    HW218609   5.991   2.739   5.918
 5904SOL     OW18610   0.107   3.970   2.647
 5904SOL    HW118611   0.144   4.039   2.709
 5904SOL    HW218612   0.169   3.891   2.644
 5905SOL     OW18613   0.149   5.240   2.773
 5905SOL    HW118614   0.245   5.214   2.773
 5905SOL    HW218615   0.135   5.321   2.829
 5906SOL     OW18616   6.302   1.597   3.661
 5906SOL    HW118617   6.345   1.512   3.692
 5906SOL    HW218618   6.350   1.675   3.700
 5907SOL     OW18619   1.743   6.527   2.005
 5907SOL    HW118620   1.662   6.569   1.966
 5907SOL    HW218621   1.801   6.598   2.046
 5908SOL     OW18622   0.491   3.354   5.470
 5908SOL    HW118623   0.497   3.375   5.373
 5908SOL    HW218624   0.526   3.262   5.487
 5909SOL     OW18625   6.970   4.765   1.116
 5909SOL    HW118626   6.982   4.668   1.097
 5909SOL    HW218627   6.873   4.789   1.109
 5910SOL     OW18628   2.193   1.463   3.655
 5910SOL    HW118629   2.174   1.550   3.700
 5910SOL    HW218630   2.291   1.450   3.647
 5911SOL     OW18631   6.269   5.711   6.330
 5911SOL    HW118632   6.279   5.637   6.396
 5911SOL    HW218633   6.338   5.702   6.259
 5912SOL     OW18634   0.248   1.175   3.626
 5912SOL    HW118635   0.302   1.122   3.691
 5912SOL    HW218636   0.220   1.261   3.668
 5913SOL     OW18637   5.903   1.392   6.989
 5913SOL    HW118638   5.814   1.423   6.954
 5913SOL    HW218639   5.976   1.439   6.939
 5914SOL     OW18640   0.803   6.297   0.187
 5914SOL    HW118641   0.739   6.223   0.204
 5914SOL    HW218642   0.897   6.264   0.203
 5915SOL     OW18643   3.765   1.961   6.088
 5915SOL    HW118644   3.719   1.879   6.121
 5915SOL    HW218645   3.863   1.955   6.105
 5916SOL     OW18646   1.072   6.382   2.759
 5916SOL    HW118647   1.101   6.409   2.667
 5916SOL    HW218648   1.138   6.317   2.796
 5917SOL     OW18649   4.044   4.557   0.287
 5917SOL    HW118650   3.984   4.503   0.229
 5917SOL    HW218651   4.079   4.501   0.362
 5918SOL     OW18652   2.911   6.117   5.200
 5918SOL    HW118653   2.945   6.190   5.258
 5918SOL    HW218654   2.828   6.147   5.153
 5919SOL     OW18655   3.583   3.074   3.941
 5919SOL    HW118656   3.582   3.171   3.965
 5919SOL    HW218657   3.499   3.031   3.972
 5920SOL     OW18658   6.658   7.008   5.436
 5920SOL    HW118659   6.659   0.005   5.534
 5920SOL    HW218660   6.614   0.062   5.388
 5921SOL     OW18661   2.814   4.877   6.209
 5921SOL    HW118662   2.855   4.901   6.298
 5921SOL    HW218663   2.767   4.789   6.217
 5922SOL     OW18664   4.824   3.953   3.302
 5922SOL    HW118665   4.866   3.905   3.225
 5922SOL    HW218666   4.763   4.024   3.267
 5923SOL     OW18667   6.675   0.128   2.412
 5923SOL    HW118668   6.687   0.218   2.369
 5923SOL    HW218669   6.644   0.140   2.506
 5924SOL     OW18670   5.878   0.381   3.284
 5924SOL    HW118671   5.889   0.310   3.353
 5924SOL    HW218672   5.873   0.339   3.193
 5925SOL     OW18673   4.873   6.371   1.491
 5925SOL    HW118674   4.915   6.395   1.578
 5925SOL    HW218675   4.797   6.308   1.507
 5926SOL     OW18676   4.951   5.351   3.861
 5926SOL    HW118677   4.890   5.295   3.805
 5926SOL    HW218678   4.984   5.429   3.808
 5927SOL     OW18679   1.197   4.585   1.599
 5927SOL    HW118680   1.167   4.572   1.505
 5927SOL    HW218681   1.119   4.613   1.655
 5928SOL     OW18682   3.778   0.309   0.522
 5928SOL    HW118683   3.750   0.239   0.587
 5928SOL    HW218684   3.778   0.399   0.567
 5929SOL     OW18685   1.528   0.992   6.502
 5929SOL    HW118686   1.511   1.012   6.406
 5929SOL    HW218687   1.610   1.042   6.533
 5930SOL     OW18688   1.222   3.376   2.029
 5930SOL    HW118689   1.260   3.288   2.058
 5930SOL    HW218690   1.241   3.445   2.098
 5931SOL     OW18691   4.945   6.055   3.496
 5931SOL    HW118692   4.962   5.962   3.462
 5931SOL    HW218693   4.923   6.051   3.594
 5932SOL     OW18694   3.048   1.523   0.026
 5932SOL    HW118695   2.951   1.506   0.047
 5932SOL    HW218696   3.056   1.554   6.953
 5933SOL     OW18697   6.028   6.071   4.436
 5933SOL    HW118698   6.019   5.973   4.422
 5933SOL    HW218699   6.007   6.119   4.351
 5934SOL     OW18700   3.141   3.713   6.043
 5934SOL    HW118701   3.173   3.630   5.996
 5934SOL    HW218702   3.051   3.738   6.008
 5935SOL     OW18703   6.903   5.855   5.952
 5935SOL    HW118704   6.898   5.785   5.880
 5935SOL    HW218705   6.817   5.907   5.953
 5936SOL     OW18706   3.791   3.241   1.448
 5936SOL    HW118707   3.741   3.280   1.526
 5936SOL    HW218708   3.756   3.149   1.429
 5937SOL     OW18709   6.769   3.560   1.478
 5937SOL    HW118710   6.684   3.590   1.521
 5937SOL    HW218711   6.815   3.640   1.437
 5938SOL     OW18712   0.365   4.815   4.901
 5938SOL    HW118713   0.435   4.808   4.829
 5938SOL    HW218714   0.279   4.846   4.861
 5939SOL     OW18715   3.607   0.663   5.142
 5939SOL    HW118716   3.528   0.630   5.194
 5939SOL    HW218717   3.678   0.591   5.141
 5940SOL     OW18718   5.034   6.220   2.504
 5940SOL    HW118719   5.066   6.141   2.557
 5940SOL    HW218720   5.012   6.191   2.411
 5941SOL     OW18721   6.497   1.945   2.150
 5941SOL    HW118722   6.499   1.925   2.248
 5941SOL    HW218723   6.513   2.042   2.135
 5942SOL     OW18724   5.262   3.098   5.773
 5942SOL    HW118725   5.240   3.038   5.696
 5942SOL    HW218726   5.285   3.043   5.853
 5943SOL     OW18727   3.382   4.291   1.710
 5943SOL    HW118728   3.289   4.299   1.675
 5943SOL    HW218729   3.426   4.381   1.709
 5944SOL     OW18730   0.866   3.198   6.821
 5944SOL    HW118731   0.828   3.232   6.735
 5944SOL    HW218732   0.851   3.266   6.893
 5945SOL     OW18733   0.114   6.011   5.950
 5945SOL    HW118734   0.022   5.973   5.938
 5945SOL    HW218735   0.122   6.052   6.041
 5946SOL     OW18736   3.433   4.219   0.919
 5946SOL    HW118737   3.464   4.141   0.864
 5946SOL    HW218738   3.445   4.198   1.016
 5947SOL     OW18739   3.057   3.082   4.708
 5947SOL    HW118740   3.102   3.038   4.786
 5947SOL    HW218741   2.961   3.098   4.730
 5948SOL     OW18742   5.457   3.962   2.092
 5948SOL    HW118743   5.536   4.016   2.120
 5948SOL    HW218744   5.408   4.010   2.019
 5949SOL     OW18745   6.466   4.191   1.907
 5949SOL    HW118746   6.408   4.110   1.920
 5949SOL    HW218747   6.433   4.243   1.828
 5950SOL     OW18748   4.963   1.084   5.327
 5950SOL    HW118749   5.022   1.044   5.258
 5950SOL    HW218750   4.931   1.174   5.295
 5951SOL     OW18751   1.376   3.943   6.397
 5951SOL    HW118752   1.411   3.946   6.491
 5951SOL    HW218753   1.288   3.896   6.395
 5952SOL     OW18754   3.919   4.928   1.380
 5952SOL    HW118755   3.942   4.880   1.295
 5952SOL    HW218756   3.998   4.925   1.442
 5953SOL     OW18757   6.203   2.632   4.617
 5953SOL    HW118758   6.127   2.679   4.662
 5953SOL    HW218759   6.283   2.692   4.615
 5954SOL     OW18760   1.501   6.297   4.172
 5954SOL    HW118761   1.495   6.216   4.115
 5954SOL    HW218762   1.589   6.297   4.220
 5955SOL     OW18763   6.208   3.649   0.916
 5955SOL    HW118764   6.127   3.650   0.975
 5955SOL    HW218765   6.193   3.712   0.839
 5956SOL     OW18766   5.257   2.802   4.629
 5956SOL    HW118767   5.311   2.727   4.590
 5956SOL    HW218768   5.178   2.821   4.570
 5957SOL     OW18769   0.721   1.391   2.556
 5957SOL    HW118770   0.662   1.420   2.481
 5957SOL    HW218771   0.789   1.463   2.574
 5958SOL     OW18772   3.717   6.672   2.441
 5958SOL    HW118773   3.683   6.743   2.503
 5958SOL    HW218774   3.813   6.691   2.419
 5959SOL     OW18775   5.518   2.614   4.487
 5959SOL    HW118776   5.606   2.573   4.464
 5959SOL    HW218777   5.467   2.630   4.403
 5960SOL     OW18778   4.195   0.060   6.177
 5960SOL    HW118779   4.192   0.118   6.258
 5960SOL    HW218780   4.242   0.108   6.103
 5961SOL     OW18781   2.780   1.746   2.992
 5961SOL    HW118782   2.832   1.787   3.067
 5961SOL    HW218783   2.688   1.786   2.990
 5962SOL     OW18784   5.130   6.578   0.071
 5962SOL    HW118785   5.048   6.626   0.040
 5962SOL    HW218786   5.105   6.496   0.121
 5963SOL     OW18787   3.479   4.045   0.087
 5963SOL    HW118788   3.508   3.964   0.035
 5963SOL    HW218789   3.547   4.066   0.156
 5964SOL     OW18790   2.192   6.580   3.099
 5964SOL    HW118791   2.187   6.658   3.037
 5964SOL    HW218792   2.260   6.515   3.064
 5965SOL     OW18793   1.624   0.592   0.419
 5965SOL    HW118794   1.576   0.625   0.500
 5965SOL    HW218795   1.610   0.655   0.343
 5966SOL     OW18796   2.408   0.969   5.316
 5966SOL    HW118797   2.459   1.055   5.307
 5966SOL    HW218798   2.426   0.913   5.235
 5967SOL     OW18799   2.989   1.792   3.638
 5967SOL    HW118800   3.066   1.843   3.600
 5967SOL    HW218801   2.903   1.836   3.610
 5968SOL     OW18802   5.302   1.958   1.437
 5968SOL    HW118803   5.330   1.866   1.464
 5968SOL    HW218804   5.203   1.968   1.449
 5969SOL     OW18805   5.023   0.829   6.912
 5969SOL    HW118806   5.074   0.743   6.924
 5969SOL    HW218807   5.043   0.890   6.988
 5970SOL     OW18808   0.411   3.554   0.656
 5970SOL    HW118809   0.372   3.464   0.638
 5970SOL    HW218810   0.354   3.624   0.612
 5971SOL     OW18811   0.661   6.688   3.946
 5971SOL    HW118812   0.592   6.634   3.897
 5971SOL    HW218813   0.696   6.634   4.024
 5972SOL     OW18814   4.795   4.876   1.369
 5972SOL    HW118815   4.767   4.937   1.295
 5972SOL    HW218816   4.746   4.900   1.452
 5973SOL     OW18817   1.617   2.260   2.579
 5973SOL    HW118818   1.623   2.230   2.484
 5973SOL    HW218819   1.706   2.297   2.607
 5974SOL     OW18820   5.073   1.928   5.812
 5974SOL    HW118821   5.086   1.943   5.910
 5974SOL    HW218822   4.982   1.890   5.795
 5975SOL     OW18823   4.903   4.907   0.638
 5975SOL    HW118824   4.838   4.857   0.696
 5975SOL    HW218825   4.971   4.952   0.696
 5976SOL     OW18826   2.588   3.523   5.721
 5976SOL    HW118827   2.541   3.437   5.701
 5976SOL    HW218828   2.677   3.504   5.763
 5977SOL     OW18829   0.181   4.838   0.224
 5977SOL    HW118830   0.166   4.792   0.312
 5977SOL    HW218831   0.140   4.785   0.151
 5978SOL     OW18832   3.392   5.183   0.563
 5978SOL    HW118833   3.462   5.115   0.587
 5978SOL    HW218834   3.303   5.151   0.595
 5979SOL     OW18835   5.967   0.308   1.362
 5979SOL    HW118836   6.047   0.326   1.420
 5979SOL    HW218837   5.990   0.237   1.296
 5980SOL     OW18838   3.378   3.260   1.782
 5980SOL    HW118839   3.372   3.244   1.881
 5980SOL    HW218840   3.328   3.188   1.734
 5981SOL     OW18841   2.545   2.985   0.364
 5981SOL    HW118842   2.503   2.897   0.343
 5981SOL    HW218843   2.567   2.989   0.462
 5982SOL     OW18844   6.526   2.423   1.467
 5982SOL    HW118845   6.542   2.392   1.561
 5982SOL    HW218846   6.581   2.368   1.404
 5983SOL     OW18847   0.242   0.799   3.811
 5983SOL    HW118848   0.258   0.774   3.716
 5983SOL    HW218849   0.295   0.880   3.834
 5984SOL     OW18850   6.529   6.653   3.258
 5984SOL    HW118851   6.437   6.638   3.221
 5984SOL    HW218852   6.569   6.735   3.215
 5985SOL     OW18853   5.631   2.385   2.733
 5985SOL    HW118854   5.681   2.299   2.735
 5985SOL    HW218855   5.536   2.368   2.706
 5986SOL     OW18856   4.109   3.590   5.494
 5986SOL    HW118857   4.113   3.665   5.561
 5986SOL    HW218858   4.201   3.565   5.466
 5987SOL     OW18859   6.847   6.994   5.690
 5987SOL    HW118860   6.875   0.067   5.678
 5987SOL    HW218861   6.923   6.933   5.665
 5988SOL     OW18862   1.872   2.523   6.351
 5988SOL    HW118863   1.882   2.618   6.381
 5988SOL    HW218864   1.957   2.491   6.310
 5989SOL     OW18865   0.480   5.621   6.743
 5989SOL    HW118866   0.483   5.599   6.646
 5989SOL    HW218867   0.508   5.540   6.796
 5990SOL     OW18868   3.910   5.149   1.790
 5990SOL    HW118869   3.885   5.204   1.870
 5990SOL    HW218870   4.009   5.147   1.781
 5991SOL     OW18871   5.283   6.781   1.149
 5991SOL    HW118872   5.328   6.868   1.170
 5991SOL    HW218873   5.310   6.712   1.216
 5992SOL     OW18874   3.341   0.401   1.822
 5992SOL    HW118875   3.244   0.408   1.847
 5992SOL    HW218876   3.368   0.480   1.768
 5993SOL     OW18877   6.174   1.774   0.305
 5993SOL    HW118878   6.185   1.821   0.218
 5993SOL    HW218879   6.092   1.807   0.351
 5994SOL     OW18880   0.700   3.089   0.655
 5994SOL    HW118881   0.619   3.044   0.619
 5994SOL    HW218882   0.781   3.037   0.629
 5995SOL     OW18883   4.755   4.098   1.528
 5995SOL    HW118884   4.729   4.194   1.519
 5995SOL    HW218885   4.676   4.045   1.556
 5996SOL     OW18886   3.082   5.253   1.323
 5996SOL    HW118887   3.144   5.232   1.398
 5996SOL    HW218888   3.058   5.169   1.275
 5997SOL     OW18889   0.121   0.072   3.507
 5997SOL    HW118890   0.217   0.044   3.518
 5997SOL    HW218891   0.117   0.170   3.485
 5998SOL     OW18892   6.983   6.906   1.622
 5998SOL    HW118893   7.022   6.994   1.651
 5998SOL    HW218894   0.026   6.860   1.561
 5999SOL     OW18895   4.837   3.042   1.100
 5999SOL    HW118896   4.817   3.138   1.083
 5999SOL    HW218897   4.766   2.985   1.059
 6000SOL     OW18898   6.843   4.362   1.121
 6000SOL    HW118899   6.935   4.401   1.133
 6000SOL    HW218900   6.806   4.392   1.034
 6001SOL     OW18901   5.834   5.235   5.561
 6001SOL    HW118902   5.893   5.204   5.486
 6001SOL    HW218903   5.739   5.230   5.532
 6002SOL     OW18904   5.520   5.557   4.667
 6002SOL    HW118905   5.482   5.493   4.600
 6002SOL    HW218906   5.550   5.506   4.748
 6003SOL     OW18907   0.388   3.183   4.579
 6003SOL    HW118908   0.468   3.239   4.599
 6003SOL    HW218909   0.339   3.164   4.665
 6004SOL     OW18910   5.026   2.781   3.796
 6004SOL    HW118911   5.068   2.817   3.880
 6004SOL    HW218912   5.098   2.749   3.735
 6005SOL     OW18913   3.649   5.580   6.130
 6005SOL    HW118914   3.746   5.559   6.123
 6005SOL    HW218915   3.603   5.510   6.184
 6006SOL     OW18916   3.451   6.000   5.735
 6006SOL    HW118917   3.419   6.035   5.647
 6006SOL    HW218918   3.469   5.902   5.727
 6007SOL     OW18919   1.937   5.811   5.729
 6007SOL    HW118920   1.857   5.752   5.735
 6007SOL    HW218921   2.019   5.758   5.753
 6008SOL     OW18922   3.297   4.864   5.445
 6008SOL    HW118923   3.254   4.922   5.514
 6008SOL    HW218924   3.234   4.790   5.419
 6009SOL     OW18925   3.721   5.194   3.178
 6009SOL    HW118926   3.712   5.147   3.266
 6009SOL    HW218927   3.676   5.283   3.183
 6010SOL     OW18928   0.226   5.550   5.322
 6010SOL    HW118929   0.300   5.485   5.341
 6010SOL    HW218930   0.167   5.513   5.251
 6011SOL     OW18931   6.332   2.072   1.857
 6011SOL    HW118932   6.392   2.123   1.919
 6011SOL    HW218933   6.237   2.097   1.874
 6012SOL     OW18934   0.341   0.239   6.399
 6012SOL    HW118935   0.298   0.157   6.436
 6012SOL    HW218936   0.315   0.250   6.303
 6013SOL     OW18937   6.030   1.463   2.411
 6013SOL    HW118938   6.014   1.542   2.352
 6013SOL    HW218939   6.038   1.493   2.506
 6014SOL     OW18940   3.825   3.100   4.201
 6014SOL    HW118941   3.833   3.056   4.111
 6014SOL    HW218942   3.800   3.031   4.269
 6015SOL     OW18943   5.861   1.468   4.824
 6015SOL    HW118944   5.786   1.480   4.889
 6015SOL    HW218945   5.830   1.409   4.749
 6016SOL     OW18946   5.270   1.668   4.613
 6016SOL    HW118947   5.195   1.732   4.629
 6016SOL    HW218948   5.244   1.578   4.649
 6017SOL     OW18949   6.720   2.765   5.548
 6017SOL    HW118950   6.714   2.863   5.565
 6017SOL    HW218951   6.815   2.736   5.559
 6018SOL     OW18952   3.081   1.450   5.764
 6018SOL    HW118953   3.167   1.495   5.785
 6018SOL    HW218954   3.016   1.518   5.728
 6019SOL     OW18955   6.893   3.448   6.754
 6019SOL    HW118956   6.992   3.462   6.748
 6019SOL    HW218957   6.847   3.536   6.749
 6020SOL     OW18958   0.840   4.188   6.857
 6020SOL    HW118959   0.760   4.130   6.840
 6020SOL    HW218960   0.810   4.277   6.891
 6021SOL     OW18961   4.443   0.151   3.391
 6021SOL    HW118962   4.431   0.151   3.490
 6021SOL    HW218963   4.523   0.204   3.367
 6022SOL     OW18964   6.309   1.727   1.394
 6022SOL    HW118965   6.339   1.765   1.481
 6022SOL    HW218966   6.337   1.787   1.319
 6023SOL     OW18967   4.879   1.100   1.469
 6023SOL    HW118968   4.852   1.019   1.417
 6023SOL    HW218969   4.977   1.116   1.458
 6024SOL     OW18970   0.544   5.331   6.793
 6024SOL    HW118971   0.473   5.282   6.842
 6024SOL    HW218972   0.634   5.305   6.829
 6025SOL     OW18973   2.350   1.101   4.634
 6025SOL    HW118974   2.442   1.120   4.600
 6025SOL    HW218975   2.326   1.006   4.613
 6026SOL     OW18976   6.568   4.031   4.133
 6026SOL    HW118977   6.470   4.039   4.116
 6026SOL    HW218978   6.616   4.109   4.093
 6027SOL     OW18979   5.772   3.955   6.282
 6027SOL    HW118980   5.708   3.917   6.349
 6027SOL    HW218981   5.806   3.882   6.223
 6028SOL     OW18982   5.695   5.247   5.983
 6028SOL    HW118983   5.706   5.187   5.904
 6028SOL    HW218984   5.764   5.224   6.052
 6029SOL     OW18985   2.290   0.585   3.006
 6029SOL    HW118986   2.276   0.486   3.011
 6029SOL    HW218987   2.380   0.608   3.040
 6030SOL     OW18988   5.260   3.824   5.044
 6030SOL    HW118989   5.288   3.919   5.057
 6030SOL    HW218990   5.163   3.813   5.068
 6031SOL     OW18991   0.564   6.067   5.506
 6031SOL    HW118992   0.532   5.978   5.473
 6031SOL    HW218993   0.486   6.127   5.523
 6032SOL     OW18994   3.181   5.808   3.605
 6032SOL    HW118995   3.129   5.754   3.671
 6032SOL    HW218996   3.119   5.871   3.558
 6033SOL     OW18997   2.190   1.307   2.416
 6033SOL    HW118998   2.158   1.364   2.491
 6033SOL    HW218999   2.211   1.215   2.450
 6034SOL     OW19000   1.311   1.135   0.139
 6034SOL    HW119001   1.332   1.093   0.227
 6034SOL    HW219002   1.344   1.230   0.139
 6035SOL     OW19003   1.442   0.780   2.968
 6035SOL    HW119004   1.489   0.693   2.952
 6035SOL    HW219005   1.418   0.787   3.065
 6036SOL     OW19006   6.422   2.100   0.621
 6036SOL    HW119007   6.360   2.041   0.673
 6036SOL    HW219008   6.482   2.149   0.685
 6037SOL     OW19009   4.769   2.672   0.372
 6037SOL    HW119010   4.744   2.689   0.467
 6037SOL    HW219011   4.838   2.739   0.343
 6038SOL     OW19012   0.817   2.371   5.887
 6038SOL    HW119013   0.856   2.366   5.796
 6038SOL    HW219014   0.770   2.285   5.908
 6039SOL     OW19015   3.581   3.825   3.452
 6039SOL    HW119016   3.552   3.783   3.366
 6039SOL    HW219017   3.512   3.806   3.523
 6040SOL     OW19018   0.548   1.936   0.071
 6040SOL    HW119019   0.576   1.901   7.003
 6040SOL    HW219020   0.559   2.036   0.072
 6041SOL     OW19021   2.367   2.872   5.584
 6041SOL    HW119022   2.316   2.900   5.502
 6041SOL    HW219023   2.461   2.905   5.578
 6042SOL     OW19024   3.481   5.496   2.943
 6042SOL    HW119025   3.496   5.452   2.854
 6042SOL    HW219026   3.564   5.486   2.999
 6043SOL     OW19027   2.246   0.894   3.766
 6043SOL    HW119028   2.267   0.843   3.683
 6043SOL    HW219029   2.158   0.939   3.757
 6044SOL     OW19030   0.796   2.337   1.410
 6044SOL    HW119031   0.739   2.387   1.345
 6044SOL    HW219032   0.777   2.239   1.403
 6045SOL     OW19033   5.206   2.152   3.482
 6045SOL    HW119034   5.107   2.146   3.466
 6045SOL    HW219035   5.224   2.156   3.580
 6046SOL     OW19036   3.001   3.164   2.472
 6046SOL    HW119037   2.956   3.124   2.392
 6046SOL    HW219038   2.996   3.264   2.467
 6047SOL     OW19039   5.987   1.228   0.604
 6047SOL    HW119040   6.073   1.223   0.654
 6047SOL    HW219041   5.998   1.184   0.515
 6048SOL     OW19042   5.755   5.429   4.439
 6048SOL    HW119043   5.725   5.511   4.391
 6048SOL    HW219044   5.679   5.365   4.448
 6049SOL     OW19045   4.079   4.698   5.304
 6049SOL    HW119046   4.058   4.632   5.375
 6049SOL    HW219047   3.994   4.735   5.266
 6050SOL     OW19048   3.731   5.823   1.464
 6050SOL    HW119049   3.655   5.763   1.489
 6050SOL    HW219050   3.697   5.900   1.410
 6051SOL     OW19051   1.740   1.194   3.475
 6051SOL    HW119052   1.730   1.104   3.433
 6051SOL    HW219053   1.834   1.227   3.461
 6052SOL     OW19054   5.473   6.679   0.632
 6052SOL    HW119055   5.527   6.620   0.692
 6052SOL    HW219056   5.514   6.770   0.631
 6053SOL     OW19057   4.016   2.560   6.053
 6053SOL    HW119058   4.068   2.615   5.987
 6053SOL    HW219059   4.009   2.609   6.139
 6054SOL     OW19060   4.154   4.582   0.707
 6054SOL    HW119061   4.203   4.669   0.708
 6054SOL    HW219062   4.125   4.558   0.799
 6055SOL     OW19063   3.637   4.662   0.274
 6055SOL    HW119064   3.667   4.745   0.226
 6055SOL    HW219065   3.549   4.679   0.317
 6056SOL     OW19066   5.874   4.955   4.912
 6056SOL    HW119067   5.961   5.001   4.899
 6056SOL    HW219068   5.889   4.857   4.928
 6057SOL     OW19069   5.154   0.333   3.263
 6057SOL    HW119070   5.245   0.374   3.271
 6057SOL    HW219071   5.106   0.342   3.349
 6058SOL     OW19072   5.519   2.156   6.175
 6058SOL    HW119073   5.585   2.081   6.180
 6058SOL    HW219074   5.429   2.120   6.151
 6059SOL     OW19075   4.473   4.621   0.302
 6059SOL    HW119076   4.480   4.656   0.395
 6059SOL    HW219077   4.521   4.683   0.239
 6060SOL     OW19078   2.661   3.413   0.080
 6060SOL    HW119079   2.711   3.454   0.157
 6060SOL    HW219080   2.629   3.322   0.106
 6061SOL     OW19081   3.419   4.983   0.125
 6061SOL    HW119082   3.385   4.933   0.046
 6061SOL    HW219083   3.342   5.017   0.179
 6062SOL     OW19084   2.173   2.678   0.440
 6062SOL    HW119085   2.116   2.759   0.424
 6062SOL    HW219086   2.113   2.598   0.451
 6063SOL     OW19087   3.583   4.995   5.911
 6063SOL    HW119088   3.637   5.037   5.984
 6063SOL    HW219089   3.622   4.906   5.887
 6064SOL     OW19090   0.012   6.167   0.751
 6064SOL    HW119091   0.037   6.182   0.847
 6064SOL    HW219092   0.060   6.087   0.716
 6065SOL     OW19093   1.199   6.038   2.225
 6065SOL    HW119094   1.268   6.045   2.154
 6065SOL    HW219095   1.171   5.942   2.235
 6066SOL     OW19096   4.430   6.511   3.266
 6066SOL    HW119097   4.377   6.549   3.342
 6066SOL    HW219098   4.518   6.557   3.261
 6067SOL     OW19099   5.822   0.561   6.079
 6067SOL    HW119100   5.847   0.539   6.173
 6067SOL    HW219101   5.898   0.607   6.034
 6068SOL     OW19102   4.513   1.515   5.554
 6068SOL    HW119103   4.437   1.450   5.546
 6068SOL    HW219104   4.477   1.608   5.553
 6069SOL     OW19105   6.839   3.542   6.373
 6069SOL    HW119106   6.930   3.499   6.376
 6069SOL    HW219107   6.771   3.474   6.348
 6070SOL     OW19108   2.749   1.590   1.467
 6070SOL    HW119109   2.720   1.656   1.536
 6070SOL    HW219110   2.673   1.530   1.443
 6071SOL     OW19111   6.049   0.054   5.438
 6071SOL    HW119112   5.962   0.033   5.483
 6071SOL    HW219113   6.057   0.001   5.354
 6072SOL     OW19114   0.229   2.888   0.374
 6072SOL    HW119115   0.134   2.870   0.399
 6072SOL    HW219116   0.267   2.959   0.434
 6073SOL     OW19117   4.987   2.775   0.617
 6073SOL    HW119118   5.028   2.715   0.547
 6073SOL    HW219119   5.033   2.864   0.616
 6074SOL     OW19120   1.038   6.268   2.278
 6074SOL    HW119121   1.089   6.194   2.235
 6074SOL    HW219122   0.961   6.229   2.330
 6075SOL     OW19123   4.860   6.528   6.412
 6075SOL    HW119124   4.833   6.586   6.489
 6075SOL    HW219125   4.861   6.582   6.328
 6076SOL     OW19126   1.533   4.616   4.044
 6076SOL    HW119127   1.589   4.678   4.099
 6076SOL    HW219128   1.481   4.669   3.977
 6077SOL     OW19129   6.023   6.449   2.136
 6077SOL    HW119130   5.927   6.460   2.163
 6077SOL    HW219131   6.077   6.420   2.215
 6078SOL     OW19132   4.338   3.522   0.161
 6078SOL    HW119133   4.311   3.426   0.169
 6078SOL    HW219134   4.276   3.570   0.099
 6079SOL     OW19135   3.703   4.345   6.215
 6079SOL    HW119136   3.699   4.445   6.227
 6079SOL    HW219137   3.670   4.300   6.298
 6080SOL     OW19138   0.342   4.827   6.815
 6080SOL    HW119139   0.282   4.779   6.750
 6080SOL    HW219140   0.343   4.778   6.902
 6081SOL     OW19141   1.513   3.190   4.499
 6081SOL    HW119142   1.579   3.258   4.532
 6081SOL    HW219143   1.518   3.108   4.556
 6082SOL     OW19144   4.125   1.616   0.478
 6082SOL    HW119145   4.086   1.708   0.478
 6082SOL    HW219146   4.073   1.557   0.416
 6083SOL     OW19147   4.735   6.865   6.323
 6083SOL    HW119148   4.825   6.863   6.367
 6083SOL    HW219149   4.734   6.798   6.248
 6084SOL     OW19150   0.629   6.939   2.672
 6084SOL    HW119151   0.611   6.912   2.767
 6084SOL    HW219152   0.542   6.942   2.622
 6085SOL     OW19153   0.594   6.243   0.666
 6085SOL    HW119154   0.518   6.274   0.610
 6085SOL    HW219155   0.679   6.283   0.632
 6086SOL     OW19156   3.149   3.807   6.307
 6086SOL    HW119157   3.117   3.784   6.215
 6086SOL    HW219158   3.160   3.723   6.360
 6087SOL     OW19159   5.098   6.338   1.048
 6087SOL    HW119160   5.120   6.435   1.035
 6087SOL    HW219161   5.086   6.294   0.959
 6088SOL     OW19162   4.969   6.740   3.750
 6088SOL    HW119163   5.035   6.711   3.681
 6088SOL    HW219164   4.989   6.834   3.778
 6089SOL     OW19165   6.312   3.252   3.292
 6089SOL    HW119166   6.363   3.301   3.363
 6089SOL    HW219167   6.316   3.305   3.207
 6090SOL     OW19168   4.134   6.642   4.265
 6090SOL    HW119169   4.096   6.726   4.305
 6090SOL    HW219170   4.147   6.655   4.166
 6091SOL     OW19171   2.664   0.969   1.239
 6091SOL    HW119172   2.592   0.916   1.284
 6091SOL    HW219173   2.702   1.035   1.304
 6092SOL     OW19174   4.487   6.252   1.438
 6092SOL    HW119175   4.532   6.336   1.471
 6092SOL    HW219176   4.517   6.175   1.494
 6093SOL     OW19177   2.518   1.599   2.258
 6093SOL    HW119178   2.600   1.562   2.302
 6093SOL    HW219179   2.499   1.690   2.294
 6094SOL     OW19180   0.570   6.469   4.810
 6094SOL    HW119181   0.494   6.507   4.758
 6094SOL    HW219182   0.635   6.543   4.832
 6095SOL     OW19183   4.236   5.937   0.437
 6095SOL    HW119184   4.209   5.960   0.343
 6095SOL    HW219185   4.158   5.952   0.498
 6096SOL     OW19186   6.129   6.340   2.355
 6096SOL    HW119187   6.095   6.358   2.447
 6096SOL    HW219188   6.223   6.374   2.346
 6097SOL     OW19189   1.949   6.318   2.583
 6097SOL    HW119190   1.993   6.252   2.522
 6097SOL    HW219191   2.008   6.334   2.663
 6098SOL     OW19192   6.386   1.216   4.908
 6098SOL    HW119193   6.391   1.180   5.001
 6098SOL    HW219194   6.428   1.307   4.905
 6099SOL     OW19195   4.295   6.866   6.311
 6099SOL    HW119196   4.241   6.943   6.277
 6099SOL    HW219197   4.384   6.866   6.265
 6100SOL     OW19198   0.124   5.801   4.421
 6100SOL    HW119199   0.165   5.842   4.339
 6100SOL    HW219200   0.103   5.705   4.404
 6101SOL     OW19201   6.262   2.334   1.564
 6101SOL    HW119202   6.194   2.261   1.553
 6101SOL    HW219203   6.353   2.297   1.544
 6102SOL     OW19204   4.424   0.331   2.519
 6102SOL    HW119205   4.411   0.281   2.434
 6102SOL    HW219206   4.373   0.286   2.593
 6103SOL     OW19207   0.017   1.142   1.399
 6103SOL    HW119208   0.008   1.110   1.304
 6103SOL    HW219209   0.055   1.069   1.455
 6104SOL     OW19210   6.327   1.235   4.566
 6104SOL    HW119211   6.398   1.214   4.634
 6104SOL    HW219212   6.280   1.320   4.592
 6105SOL     OW19213   2.893   5.497   5.630
 6105SOL    HW119214   2.846   5.552   5.560
 6105SOL    HW219215   2.859   5.524   5.720
 6106SOL     OW19216   6.543   4.605   0.140
 6106SOL    HW119217   6.468   4.635   0.199
 6106SOL    HW219218   6.624   4.661   0.158
 6107SOL     OW19219   4.696   4.751   5.326
 6107SOL    HW119220   4.665   4.746   5.421
 6107SOL    HW219221   4.635   4.695   5.268
 6108SOL     OW19222   1.863   1.740   1.173
 6108SOL    HW119223   1.784   1.796   1.197
 6108SOL    HW219224   1.863   1.722   1.074
 6109SOL     OW19225   6.234   6.630   3.300
 6109SOL    HW119226   6.200   6.551   3.350
 6109SOL    HW219227   6.233   6.611   3.202
 6110SOL     OW19228   1.942   1.648   5.196
 6110SOL    HW119229   2.016   1.591   5.233
 6110SOL    HW219230   1.977   1.701   5.119
 6111SOL     OW19231   2.057   4.159   1.599
 6111SOL    HW119232   2.006   4.094   1.543
 6111SOL    HW219233   2.073   4.243   1.546
 6112SOL     OW19234   4.697   0.477   2.499
 6112SOL    HW119235   4.696   0.551   2.431
 6112SOL    HW219236   4.604   0.447   2.516
 6113SOL     OW19237   2.401   5.567   0.088
 6113SOL    HW119238   2.443   5.478   0.103
 6113SOL    HW219239   2.458   5.620   0.025
 6114SOL     OW19240   5.579   1.644   0.089
 6114SOL    HW119241   5.498   1.702   0.099
 6114SOL    HW219242   5.659   1.701   0.071
 6115SOL     OW19243   0.728   0.694   5.126
 6115SOL    HW119244   0.743   0.735   5.036
 6115SOL    HW219245   0.646   0.637   5.123
 6116SOL     OW19246   4.691   1.968   5.028
 6116SOL    HW119247   4.758   1.981   4.954
 6116SOL    HW219248   4.717   1.888   5.082
 6117SOL     OW19249   1.457   1.636   2.191
 6117SOL    HW119250   1.435   1.570   2.120
 6117SOL    HW219251   1.426   1.727   2.164
 6118SOL     OW19252   6.156   0.583   7.005
 6118SOL    HW119253   6.210   0.610   6.925
 6118SOL    HW219254   6.069   0.633   7.006
 6119SOL     OW19255   6.708   1.804   0.993
 6119SOL    HW119256   6.624   1.834   0.947
 6119SOL    HW219257   6.695   1.711   1.028
 6120SOL     OW19258   1.787   0.995   5.490
 6120SOL    HW119259   1.778   0.993   5.391
 6120SOL    HW219260   1.808   0.903   5.524
 6121SOL     OW19261   0.345   3.150   5.061
 6121SOL    HW119262   0.283   3.202   5.120
 6121SOL    HW219263   0.314   3.157   4.966
 6122SOL     OW19264   5.161   5.630   5.513
 6122SOL    HW119265   5.185   5.610   5.608
 6122SOL    HW219266   5.066   5.662   5.509
 6123SOL     OW19267   5.783   1.611   5.695
 6123SOL    HW119268   5.766   1.527   5.645
 6123SOL    HW219269   5.877   1.610   5.731
 6124SOL     OW19270   2.243   6.751   4.035
 6124SOL    HW119271   2.193   6.677   3.990
 6124SOL    HW219272   2.323   6.713   4.083
 6125SOL     OW19273   1.649   2.401   6.514
 6125SOL    HW119274   1.597   2.448   6.443
 6125SOL    HW219275   1.747   2.416   6.497
 6126SOL     OW19276   6.490   3.233   5.139
 6126SOL    HW119277   6.407   3.279   5.106
 6126SOL    HW219278   6.565   3.250   5.074
 6127SOL     OW19279   3.641   1.866   1.625
 6127SOL    HW119280   3.658   1.816   1.540
 6127SOL    HW219281   3.560   1.829   1.670
 6128SOL     OW19282   5.728   6.278   0.595
 6128SOL    HW119283   5.701   6.266   0.500
 6128SOL    HW219284   5.825   6.256   0.605
 6129SOL     OW19285   2.045   4.887   2.931
 6129SOL    HW119286   2.061   4.792   2.958
 6129SOL    HW219287   2.008   4.938   3.008
 6130SOL     OW19288   4.932   2.777   1.202
 6130SOL    HW119289   4.900   2.872   1.198
 6130SOL    HW219290   4.911   2.732   1.115
 6131SOL     OW19291   0.113   1.988   2.277
 6131SOL    HW119292   0.032   1.986   2.337
 6131SOL    HW219293   0.154   2.079   2.279
 6132SOL     OW19294   3.133   1.826   6.543
 6132SOL    HW119295   3.079   1.894   6.593
 6132SOL    HW219296   3.197   1.872   6.482
 6133SOL     OW19297   1.725   2.265   3.762
 6133SOL    HW119298   1.786   2.255   3.840
 6133SOL    HW219299   1.667   2.346   3.776
 6134SOL     OW19300   4.947   6.374   5.808
 6134SOL    HW119301   5.000   6.375   5.723
 6134SOL    HW219302   5.000   6.415   5.882
 6135SOL     OW19303   6.150   0.322   0.052
 6135SOL    HW119304   6.240   0.279   0.057
 6135SOL    HW219305   6.159   0.416   0.019
 6136SOL     OW19306   1.163   2.735   2.092
 6136SOL    HW119307   1.195   2.682   2.171
 6136SOL    HW219308   1.159   2.676   2.012
 6137SOL     OW19309   6.635   4.103   2.350
 6137SOL    HW119310   6.665   4.119   2.256
 6137SOL    HW219311   6.716   4.102   2.410
 6138SOL     OW19312   2.946   0.205   2.091
 6138SOL    HW119313   2.959   0.155   2.006
 6138SOL    HW219314   2.880   0.279   2.077
 6139SOL     OW19315   1.852   6.955   5.786
 6139SOL    HW119316   1.939   6.907   5.793
 6139SOL    HW219317   1.784   6.911   5.845
 6140SOL     OW19318   1.777   0.599   3.655
 6140SOL    HW119319   1.680   0.596   3.632
 6140SOL    HW219320   1.791   0.553   3.743
 6141SOL     OW19321   0.193   0.205   5.793
 6141SOL    HW119322   0.249   0.175   5.870
 6141SOL    HW219323   0.193   0.304   5.788
 6142SOL     OW19324   0.388   0.497   0.347
 6142SOL    HW119325   0.476   0.519   0.306
 6142SOL    HW219326   0.378   0.397   0.353
 6143SOL     OW19327   6.152   3.857   6.372
 6143SOL    HW119328   6.098   3.780   6.406
 6143SOL    HW219329   6.201   3.900   6.448
 6144SOL     OW19330   4.706   4.803   2.679
 6144SOL    HW119331   4.716   4.711   2.643
 6144SOL    HW219332   4.679   4.798   2.775
 6145SOL     OW19333   4.913   3.449   4.590
 6145SOL    HW119334   4.925   3.530   4.648
 6145SOL    HW219335   4.946   3.470   4.498
 6146SOL     OW19336   4.964   0.470   4.726
 6146SOL    HW119337   4.926   0.398   4.784
 6146SOL    HW219338   5.060   0.449   4.705
 6147SOL     OW19339   2.173   2.356   4.048
 6147SOL    HW119340   2.229   2.321   4.124
 6147SOL    HW219341   2.144   2.449   4.069
 6148SOL     OW19342   3.615   5.492   6.972
 6148SOL    HW119343   3.697   5.437   6.990
 6148SOL    HW219344   3.626   5.542   6.887
 6149SOL     OW19345   2.718   6.981   1.930
 6149SOL    HW119346   2.686   6.902   1.982
 6149SOL    HW219347   2.680   0.043   1.968
 6150SOL     OW19348   6.365   4.249   6.560
 6150SOL    HW119349   6.346   4.335   6.513
 6150SOL    HW219350   6.441   4.261   6.624
 6151SOL     OW19351   4.517   4.584   4.354
 6151SOL    HW119352   4.502   4.492   4.316
 6151SOL    HW219353   4.515   4.651   4.280
 6152SOL     OW19354   0.409   4.589   4.100
 6152SOL    HW119355   0.443   4.580   4.194
 6152SOL    HW219356   0.482   4.564   4.036
 6153SOL     OW19357   4.713   5.188   1.089
 6153SOL    HW119358   4.689   5.283   1.066
 6153SOL    HW219359   4.778   5.187   1.164
 6154SOL     OW19360   5.937   3.151   2.217
 6154SOL    HW119361   5.845   3.112   2.216
 6154SOL    HW219362   5.978   3.135   2.307
 6155SOL     OW19363   2.669   0.680   2.720
 6155SOL    HW119364   2.570   0.685   2.729
 6155SOL    HW219365   2.710   0.763   2.757
 6156SOL     OW19366   4.939   4.586   1.617
 6156SOL    HW119367   4.935   4.572   1.518
 6156SOL    HW219368   4.996   4.665   1.638
 6157SOL     OW19369   1.223   2.403   2.680
 6157SOL    HW119370   1.169   2.384   2.598
 6157SOL    HW219371   1.252   2.317   2.722
 6158SOL     OW19372   2.690   2.637   5.381
 6158SOL    HW119373   2.634   2.667   5.305
 6158SOL    HW219374   2.698   2.537   5.379
 6159SOL     OW19375   5.790   2.028   0.157
 6159SOL    HW119376   5.763   2.123   0.142
 6159SOL    HW219377   5.850   2.023   0.236
 6160SOL     OW19378   0.925   6.887   6.948
 6160SOL    HW119379   0.949   6.814   7.011
 6160SOL    HW219380   1.005   6.943   6.928
 6161SOL     OW19381   4.822   2.416   6.613
 6161SOL    HW119382   4.865   2.505   6.624
 6161SOL    HW219383   4.892   2.346   6.603
 6162SOL     OW19384   6.655   5.421   2.643
 6162SOL    HW119385   6.601   5.424   2.727
 6162SOL    HW219386   6.679   5.514   2.615
 6163SOL     OW19387   5.594   6.593   3.135
 6163SOL    HW119388   5.572   6.563   3.228
 6163SOL    HW219389   5.587   6.515   3.073
 6164SOL     OW19390   4.053   3.230   4.245
 6164SOL    HW119391   3.961   3.193   4.231
 6164SOL    HW219392   4.071   3.238   4.343
 6165SOL     OW19393   4.156   1.984   0.558
 6165SOL    HW119394   4.103   1.931   0.492
 6165SOL    HW219395   4.095   2.036   0.617
 6166SOL     OW19396   0.477   2.493   0.121
 6166SOL    HW119397   0.506   2.399   0.138
 6166SOL    HW219398   0.511   2.524   0.033
 6167SOL     OW19399   1.303   3.419   3.418
 6167SOL    HW119400   1.338   3.403   3.510
 6167SOL    HW219401   1.205   3.436   3.422
 6168SOL     OW19402   0.512   2.750   4.203
 6168SOL    HW119403   0.516   2.843   4.240
 6168SOL    HW219404   0.420   2.731   4.171
 6169SOL     OW19405   1.938   0.066   0.369
 6169SOL    HW119406   1.866   0.031   0.429
 6169SOL    HW219407   1.980   7.011   0.319
 6170SOL     OW19408   3.825   4.238   0.061
 6170SOL    HW119409   3.773   4.299   0.120
 6170SOL    HW219410   3.819   4.269   6.988
 6171SOL     OW19411   1.171   4.810   2.629
 6171SOL    HW119412   1.179   4.874   2.706
 6171SOL    HW219413   1.254   4.814   2.574
 6172SOL     OW19414   1.200   6.832   2.874
 6172SOL    HW119415   1.139   6.906   2.902
 6172SOL    HW219416   1.164   6.788   2.792
 6173SOL     OW19417   0.927   4.475   3.053
 6173SOL    HW119418   0.981   4.558   3.060
 6173SOL    HW219419   0.855   4.487   2.985
 6174SOL     OW19420   5.707   5.415   2.691
 6174SOL    HW119421   5.631   5.428   2.755
 6174SOL    HW219422   5.684   5.340   2.629
 6175SOL     OW19423   4.988   0.416   2.684
 6175SOL    HW119424   5.007   0.496   2.742
 6175SOL    HW219425   5.013   0.333   2.734
 6176SOL     OW19426   5.856   2.993   6.165
 6176SOL    HW119427   5.851   2.992   6.265
 6176SOL    HW219428   5.901   2.909   6.134
 6177SOL     OW19429   5.613   2.313   1.499
 6177SOL    HW119430   5.697   2.285   1.453
 6177SOL    HW219431   5.544   2.337   1.431
 6178SOL     OW19432   5.298   3.738   0.767
 6178SOL    HW119433   5.249   3.682   0.833
 6178SOL    HW219434   5.232   3.787   0.710
 6179SOL     OW19435   0.636   2.745   5.369
 6179SOL    HW119436   0.618   2.779   5.461
 6179SOL    HW219437   0.635   2.822   5.305
 6180SOL     OW19438   3.849   6.881   1.246
 6180SOL    HW119439   3.823   6.971   1.281
 6180SOL    HW219440   3.838   6.813   1.318
 6181SOL     OW19441   4.889   6.287   6.651
 6181SOL    HW119442   4.847   6.197   6.663
 6181SOL    HW219443   4.885   6.338   6.737
 6182SOL     OW19444   5.218   5.549   5.752
 6182SOL    HW119445   5.252   5.455   5.748
 6182SOL    HW219446   5.204   5.575   5.848
 6183SOL     OW19447   2.576   6.881   3.016
 6183SOL    HW119448   2.669   6.912   2.994
 6183SOL    HW219449   2.564   6.787   2.983
 6184SOL     OW19450   1.173   0.460   6.624
 6184SOL    HW119451   1.127   0.467   6.536
 6184SOL    HW219452   1.272   0.458   6.610
 6185SOL     OW19453   6.856   3.812   6.385
 6185SOL    HW119454   6.764   3.852   6.395
 6185SOL    HW219455   6.847   3.714   6.366
 6186SOL     OW19456   5.661   0.226   3.702
 6186SOL    HW119457   5.712   0.178   3.774
 6186SOL    HW219458   5.578   0.266   3.741
 6187SOL     OW19459   4.251   4.824   4.105
 6187SOL    HW119460   4.213   4.820   4.013
 6187SOL    HW219461   4.346   4.791   4.103
 6188SOL     OW19462   3.003   6.367   1.622
 6188SOL    HW119463   3.020   6.441   1.557
 6188SOL    HW219464   2.912   6.330   1.606
 6189SOL     OW19465   5.270   5.427   3.272
 6189SOL    HW119466   5.220   5.359   3.326
 6189SOL    HW219467   5.236   5.519   3.294
 6190SOL     OW19468   5.158   2.491   6.588
 6190SOL    HW119469   5.084   2.558   6.595
 6190SOL    HW219470   5.202   2.498   6.499
 6191SOL     OW19471   5.618   1.700   6.792
 6191SOL    HW119472   5.658   1.753   6.867
 6191SOL    HW219473   5.650   1.605   6.798
 6192SOL     OW19474   2.545   3.275   0.766
 6192SOL    HW119475   2.445   3.271   0.758
 6192SOL    HW219476   2.571   3.244   0.858
 6193SOL     OW19477   5.602   0.288   1.809
 6193SOL    HW119478   5.523   0.262   1.865
 6193SOL    HW219479   5.627   0.383   1.828
 6194SOL     OW19480   2.430   0.618   0.753
 6194SOL    HW119481   2.528   0.637   0.746
 6194SOL    HW219482   2.379   0.704   0.743
 6195SOL     OW19483   3.625   6.658   6.107
 6195SOL    HW119484   3.560   6.583   6.095
 6195SOL    HW219485   3.652   6.663   6.203
 6196SOL     OW19486   1.334   2.284   5.980
 6196SOL    HW119487   1.415   2.260   6.033
 6196SOL    HW219488   1.362   2.322   5.892
 6197SOL     OW19489   2.882   3.828   1.200
 6197SOL    HW119490   2.965   3.773   1.212
 6197SOL    HW219491   2.888   3.878   1.113
 6198SOL     OW19492   3.787   4.861   2.369
 6198SOL    HW119493   3.711   4.841   2.431
 6198SOL    HW219494   3.752   4.882   2.278
 6199SOL     OW19495   1.494   0.263   0.711
 6199SOL    HW119496   1.478   0.172   0.750
 6199SOL    HW219497   1.558   0.313   0.769
 6200SOL     OW19498   3.219   1.084   6.596
 6200SOL    HW119499   3.163   1.068   6.515
 6200SOL    HW219500   3.316   1.074   6.573
 6201SOL     OW19501   2.134   3.641   5.534
 6201SOL    HW119502   2.193   3.633   5.454
 6201SOL    HW219503   2.068   3.715   5.520
 6202SOL     OW19504   2.909   1.818   1.350
 6202SOL    HW119505   2.878   1.910   1.325
 6202SOL    HW219506   2.841   1.776   1.410
 6203SOL     OW19507   5.001   1.263   4.801
 6203SOL    HW119508   4.932   1.314   4.852
 6203SOL    HW219509   4.956   1.200   4.737
 6204SOL     OW19510   1.396   5.874   5.248
 6204SOL    HW119511   1.472   5.842   5.304
 6204SOL    HW219512   1.366   5.800   5.187
 6205SOL     OW19513   4.843   5.473   6.547
 6205SOL    HW119514   4.934   5.509   6.529
 6205SOL    HW219515   4.774   5.538   6.514
 6206SOL     OW19516   6.246   0.736   2.170
 6206SOL    HW119517   6.186   0.695   2.238
 6206SOL    HW219518   6.208   0.824   2.141
 6207SOL     OW19519   0.994   3.990   4.855
 6207SOL    HW119520   1.063   3.945   4.912
 6207SOL    HW219521   1.038   4.029   4.774
 6208SOL     OW19522   6.385   0.329   5.995
 6208SOL    HW119523   6.320   0.312   5.921
 6208SOL    HW219524   6.474   0.289   5.972
 6209SOL     OW19525   4.746   6.512   0.289
 6209SOL    HW119526   4.790   6.602   0.280
 6209SOL    HW219527   4.811   6.441   0.263
 6210SOL     OW19528   5.681   4.289   3.291
 6210SOL    HW119529   5.675   4.236   3.207
 6210SOL    HW219530   5.655   4.384   3.273
 6211SOL     OW19531   2.715   0.807   5.472
 6211SOL    HW119532   2.666   0.774   5.391
 6211SOL    HW219533   2.810   0.774   5.469
 6212SOL     OW19534   6.422   6.346   3.728
 6212SOL    HW119535   6.516   6.366   3.701
 6212SOL    HW219536   6.372   6.307   3.651
 6213SOL     OW19537   5.926   0.632   6.709
 6213SOL    HW119538   5.991   0.569   6.751
 6213SOL    HW219539   5.848   0.645   6.770
 6214SOL     OW19540   5.990   4.894   2.646
 6214SOL    HW119541   6.028   4.804   2.665
 6214SOL    HW219542   6.031   4.932   2.564
 6215SOL     OW19543   3.104   2.820   0.872
 6215SOL    HW119544   3.159   2.834   0.790
 6215SOL    HW219545   3.163   2.826   0.953
 6216SOL     OW19546   5.818   1.737   2.391
 6216SOL    HW119547   5.817   1.663   2.458
 6216SOL    HW219548   5.841   1.823   2.436
 6217SOL     OW19549   4.551   2.422   1.132
 6217SOL    HW119550   4.601   2.384   1.210
 6217SOL    HW219551   4.573   2.519   1.122
 6218SOL     OW19552   2.442   4.932   4.754
 6218SOL    HW119553   2.478   4.980   4.834
 6218SOL    HW219554   2.362   4.879   4.780
 6219SOL     OW19555   1.088   2.051   4.793
 6219SOL    HW119556   1.153   2.045   4.869
 6219SOL    HW219557   1.137   2.041   4.707
 6220SOL     OW19558   2.137   4.980   5.277
 6220SOL    HW119559   2.126   4.884   5.303
 6220SOL    HW219560   2.165   5.033   5.356
 6221SOL     OW19561   4.024   5.346   4.613
 6221SOL    HW119562   4.042   5.308   4.704
 6221SOL    HW219563   4.054   5.441   4.609
 6222SOL     OW19564   6.852   6.833   1.868
 6222SOL    HW119565   6.880   6.827   1.773
 6222SOL    HW219566   6.840   6.929   1.894
 6223SOL     OW19567   5.387   4.134   4.709
 6223SOL    HW119568   5.447   4.055   4.717
 6223SOL    HW219569   5.436   4.216   4.741
 6224SOL     OW19570   2.077   1.274   5.494
 6224SOL    HW119571   2.080   1.318   5.584
 6224SOL    HW219572   2.056   1.177   5.505
 6225SOL     OW19573   3.628   3.457   0.662
 6225SOL    HW119574   3.589   3.548   0.677
 6225SOL    HW219575   3.712   3.448   0.716
 6226SOL     OW19576   5.442   0.931   4.544
 6226SOL    HW119577   5.491   0.850   4.574
 6226SOL    HW219578   5.434   0.930   4.444
 6227SOL     OW19579   3.404   4.204   5.790
 6227SOL    HW119580   3.362   4.163   5.872
 6227SOL    HW219581   3.473   4.271   5.817
 6228SOL     OW19582   6.737   1.158   3.114
 6228SOL    HW119583   6.665   1.219   3.081
 6228SOL    HW219584   6.807   1.211   3.161
 6229SOL     OW19585   2.468   2.073   2.930
 6229SOL    HW119586   2.397   2.077   3.001
 6229SOL    HW219587   2.552   2.113   2.965
 6230SOL     OW19588   2.463   1.865   3.994
 6230SOL    HW119589   2.442   1.814   4.077
 6230SOL    HW219590   2.383   1.919   3.967
 6231SOL     OW19591   0.291   5.296   1.314
 6231SOL    HW119592   0.309   5.390   1.285
 6231SOL    HW219593   0.226   5.297   1.390
 6232SOL     OW19594   7.017   0.578   0.531
 6232SOL    HW119595   7.012   0.617   0.439
 6232SOL    HW219596   0.080   0.608   0.576
 6233SOL     OW19597   4.841   1.691   6.383
 6233SOL    HW119598   4.789   1.670   6.300
 6233SOL    HW219599   4.895   1.612   6.410
 6234SOL     OW19600   2.003   2.243   4.366
 6234SOL    HW119601   1.934   2.214   4.432
 6234SOL    HW219602   1.969   2.323   4.317
 6235SOL     OW19603   2.063   0.279   2.729
 6235SOL    HW119604   2.038   0.374   2.749
 6235SOL    HW219605   2.111   0.241   2.808
 6236SOL     OW19606   0.571   5.209   0.946
 6236SOL    HW119607   0.485   5.256   0.966
 6236SOL    HW219608   0.625   5.201   1.030
 6237SOL     OW19609   4.575   6.527   0.806
 6237SOL    HW119610   4.623   6.546   0.721
 6237SOL    HW219611   4.628   6.561   0.883
 6238SOL     OW19612   5.064   5.481   1.875
 6238SOL    HW119613   5.134   5.475   1.946
 6238SOL    HW219614   5.024   5.390   1.860
 6239SOL     OW19615   2.794   6.836   2.704
 6239SOL    HW119616   2.785   6.835   2.604
 6239SOL    HW219617   2.841   6.753   2.734
 6240SOL     OW19618   1.867   3.223   0.355
 6240SOL    HW119619   1.941   3.204   0.290
 6240SOL    HW219620   1.820   3.138   0.378
 6241SOL     OW19621   2.724   0.554   1.538
 6241SOL    HW119622   2.786   0.549   1.459
 6241SOL    HW219623   2.739   0.475   1.597
 6242SOL     OW19624   4.993   1.506   3.747
 6242SOL    HW119625   5.052   1.440   3.701
 6242SOL    HW219626   5.031   1.598   3.734
 6243SOL     OW19627   5.660   6.922   4.273
 6243SOL    HW119628   5.605   6.921   4.189
 6243SOL    HW219629   5.636   6.844   4.330
 6244SOL     OW19630   2.719   2.340   2.701
 6244SOL    HW119631   2.633   2.353   2.651
 6244SOL    HW219632   2.780   2.281   2.647
 6245SOL     OW19633   3.190   4.781   1.450
 6245SOL    HW119634   3.107   4.728   1.432
 6245SOL    HW219635   3.268   4.738   1.406
 6246SOL     OW19636   2.501   2.032   6.128
 6246SOL    HW119637   2.563   1.954   6.141
 6246SOL    HW219638   2.445   2.017   6.046
 6247SOL     OW19639   0.636   6.850   3.732
 6247SOL    HW119640   0.541   6.875   3.751
 6247SOL    HW219641   0.661   6.771   3.786
 6248SOL     OW19642   0.884   4.548   1.383
 6248SOL    HW119643   0.863   4.554   1.481
 6248SOL    HW219644   0.890   4.640   1.345
 6249SOL     OW19645   0.005   4.095   0.139
 6249SOL    HW119646   6.928   4.097   0.123
 6249SOL    HW219647   0.041   4.188   0.137
 6250SOL     OW19648   6.631   6.253   0.023
 6250SOL    HW119649   6.701   6.199   6.999
 6250SOL    HW219650   6.662   6.348   0.032
 6251SOL     OW19651   4.353   1.301   0.952
 6251SOL    HW119652   4.324   1.390   0.916
 6251SOL    HW219653   4.452   1.295   0.949
 6252SOL     OW19654   2.955   5.077   5.127
 6252SOL    HW119655   2.996   4.987   5.117
 6252SOL    HW219656   3.024   5.142   5.162
 6253SOL     OW19657   2.570   4.214   1.779
 6253SOL    HW119658   2.489   4.245   1.828
 6253SOL    HW219659   2.628   4.292   1.756
 6254SOL     OW19660   5.681   0.203   0.357
 6254SOL    HW119661   5.767   0.253   0.360
 6254SOL    HW219662   5.683   0.129   0.424
 6255SOL     OW19663   0.483   1.106   1.910
 6255SOL    HW119664   0.570   1.074   1.946
 6255SOL    HW219665   0.498   1.186   1.852
 6256SOL     OW19666   3.913   5.158   2.669
 6256SOL    HW119667   3.862   5.157   2.583
 6256SOL    HW219668   3.889   5.077   2.723
 6257SOL     OW19669   5.796   2.522   0.925
 6257SOL    HW119670   5.864   2.562   0.864
 6257SOL    HW219671   5.749   2.447   0.879
 6258SOL     OW19672   4.414   1.199   1.942
 6258SOL    HW119673   4.443   1.149   2.024
 6258SOL    HW219674   4.333   1.155   1.903
 6259SOL     OW19675   2.931   2.319   1.500
 6259SOL    HW119676   3.011   2.372   1.473
 6259SOL    HW219677   2.878   2.370   1.568
 6260SOL     OW19678   3.951   4.024   0.508
 6260SOL    HW119679   4.026   3.986   0.453
 6260SOL    HW219680   3.864   3.987   0.475
 6261SOL     OW19681   3.792   0.569   0.582
 6261SOL    HW119682   3.707   0.611   0.615
 6261SOL    HW219683   3.867   0.635   0.590
 6262SOL     OW19684   1.314   4.734   0.244
 6262SOL    HW119685   1.216   4.754   0.239
 6262SOL    HW219686   1.350   4.719   0.153
 6263SOL     OW19687   6.839   6.855   0.400
 6263SOL    HW119688   6.922   6.813   0.437
 6263SOL    HW219689   6.862   6.944   0.360
 6264SOL     OW19690   2.616   2.050   0.912
 6264SOL    HW119691   2.615   1.969   0.970
 6264SOL    HW219692   2.671   2.122   0.956
 6265SOL     OW19693   4.080   4.455   0.947
 6265SOL    HW119694   4.021   4.444   1.028
 6265SOL    HW219695   4.145   4.379   0.943
 6266SOL     OW19696   3.369   0.932   3.450
 6266SOL    HW119697   3.323   0.845   3.433
 6266SOL    HW219698   3.367   0.953   3.548
 6267SOL     OW19699   2.793   0.258   0.172
 6267SOL    HW119700   2.723   0.329   0.163
 6267SOL    HW219701   2.883   0.296   0.152
 6268SOL     OW19702   2.998   5.092   2.895
 6268SOL    HW119703   2.938   5.115   2.971
 6268SOL    HW219704   3.006   4.992   2.887
 6269SOL     OW19705   5.773   6.033   2.114
 6269SOL    HW119706   5.767   6.036   2.214
 6269SOL    HW219707   5.832   5.957   2.086
 6270SOL     OW19708   1.365   1.288   5.023
 6270SOL    HW119709   1.389   1.375   5.066
 6270SOL    HW219710   1.371   1.297   4.924
 6271SOL     OW19711   0.226   2.040   6.626
 6271SOL    HW119712   0.273   1.955   6.652
 6271SOL    HW219713   0.242   2.110   6.696
 6272SOL     OW19714   2.535   2.523   4.298
 6272SOL    HW119715   2.437   2.540   4.287
 6272SOL    HW219716   2.586   2.588   4.241
 6273SOL     OW19717   2.270   1.518   1.662
 6273SOL    HW119718   2.317   1.434   1.638
 6273SOL    HW219719   2.251   1.571   1.580
 6274SOL     OW19720   3.219   5.703   6.653
 6274SOL    HW119721   3.235   5.730   6.748
 6274SOL    HW219722   3.162   5.772   6.608
 6275SOL     OW19723   2.331   0.132   4.849
 6275SOL    HW119724   2.349   0.083   4.764
 6275SOL    HW219725   2.365   0.226   4.842
 6276SOL     OW19726   0.971   5.586   3.627
 6276SOL    HW119727   0.894   5.542   3.674
 6276SOL    HW219728   1.048   5.523   3.623
 6277SOL     OW19729   5.332   2.598   2.743
 6277SOL    HW119730   5.249   2.622   2.693
 6277SOL    HW219731   5.405   2.661   2.718
 6278SOL     OW19732   4.460   0.265   4.249
 6278SOL    HW119733   4.427   0.170   4.246
 6278SOL    HW219734   4.470   0.294   4.344
 6279SOL     OW19735   3.751   1.614   1.017
 6279SOL    HW119736   3.738   1.575   1.108
 6279SOL    HW219737   3.748   1.713   1.022
 6280SOL     OW19738   0.086   3.652   5.937
 6280SOL    HW119739   0.166   3.626   5.882
 6280SOL    HW219740   0.048   3.738   5.902
 6281SOL     OW19741   2.172   0.419   5.226
 6281SOL    HW119742   2.097   0.458   5.173
 6281SOL    HW219743   2.159   0.439   5.323
 6282SOL     OW19744   1.910   0.133   4.377
 6282SOL    HW119745   1.833   0.150   4.438
 6282SOL    HW219746   1.890   0.171   4.286
 6283SOL     OW19747   0.030   2.419   5.339
 6283SOL    HW119748   0.009   2.514   5.363
 6283SOL    HW219749   0.125   2.413   5.309
 6284SOL     OW19750   1.534   4.801   5.635
 6284SOL    HW119751   1.597   4.739   5.589
 6284SOL    HW219752   1.441   4.764   5.631
 6285SOL     OW19753   1.172   2.904   3.988
 6285SOL    HW119754   1.140   2.986   3.940
 6285SOL    HW219755   1.261   2.877   3.951
 6286SOL     OW19756   5.369   1.357   3.354
 6286SOL    HW119757   5.344   1.445   3.312
 6286SOL    HW219758   5.462   1.363   3.391
 6287SOL     OW19759   4.915   3.802   2.160
 6287SOL    HW119760   4.831   3.828   2.113
 6287SOL    HW219761   4.994   3.844   2.115
 6288SOL     OW19762   5.274   3.550   0.143
 6288SOL    HW119763   5.297   3.591   0.231
 6288SOL    HW219764   5.226   3.463   0.158
 6289SOL     OW19765   1.930   1.940   3.821
 6289SOL    HW119766   1.955   2.037   3.813
 6289SOL    HW219767   1.948   1.894   3.735
 6290SOL     OW19768   4.992   4.230   3.868
 6290SOL    HW119769   4.907   4.225   3.921
 6290SOL    HW219770   5.020   4.138   3.841
 6291SOL     OW19771   3.776   3.600   2.975
 6291SOL    HW119772   3.869   3.631   2.953
 6291SOL    HW219773   3.780   3.515   3.027
 6292SOL     OW19774   0.821   1.750   2.791
 6292SOL    HW119775   0.824   1.665   2.843
 6292SOL    HW219776   0.854   1.825   2.848
 6293SOL     OW19777   5.148   0.233   6.985
 6293SOL    HW119778   5.245   0.228   6.961
 6293SOL    HW219779   5.136   0.199   0.057
 6294SOL     OW19780   3.425   5.294   2.696
 6294SOL    HW119781   3.361   5.244   2.754
 6294SOL    HW219782   3.519   5.279   2.728
 6295SOL     OW19783   5.561   5.913   5.579
 6295SOL    HW119784   5.525   5.919   5.486
 6295SOL    HW219785   5.520   5.835   5.626
 6296SOL     OW19786   7.018   0.659   3.492
 6296SOL    HW119787   6.935   0.710   3.516
 6296SOL    HW219788   0.019   0.675   3.396
 6297SOL     OW19789   5.313   6.194   5.694
 6297SOL    HW119790   5.306   6.137   5.775
 6297SOL    HW219791   5.401   6.177   5.649
 6298SOL     OW19792   0.465   3.444   5.175
 6298SOL    HW119793   0.366   3.436   5.176
 6298SOL    HW219794   0.504   3.376   5.113
 6299SOL     OW19795   6.188   2.793   6.397
 6299SOL    HW119796   6.218   2.883   6.366
 6299SOL    HW219797   6.241   2.766   6.477
 6300SOL     OW19798   4.735   0.861   4.489
 6300SOL    HW119799   4.639   0.886   4.498
 6300SOL    HW219800   4.759   0.795   4.561
 6301SOL     OW19801   3.055   6.525   1.135
 6301SOL    HW119802   3.048   6.511   1.233
 6301SOL    HW219803   3.052   6.623   1.115
 6302SOL     OW19804   1.976   0.788   3.675
 6302SOL    HW119805   1.905   0.720   3.656
 6302SOL    HW219806   1.962   0.826   3.767
 6303SOL     OW19807   2.319   6.672   4.750
 6303SOL    HW119808   2.244   6.712   4.696
 6303SOL    HW219809   2.398   6.658   4.691
 6304SOL     OW19810   2.676   1.274   0.338
 6304SOL    HW119811   2.774   1.284   0.351
 6304SOL    HW219812   2.652   1.177   0.338
 6305SOL     OW19813   0.136   6.821   1.377
 6305SOL    HW119814   0.099   6.793   1.288
 6305SOL    HW219815   0.173   6.741   1.424
 6306SOL     OW19816   6.819   2.783   3.812
 6306SOL    HW119817   6.907   2.737   3.813
 6306SOL    HW219818   6.746   2.714   3.818
 6307SOL     OW19819   2.570   5.129   6.351
 6307SOL    HW119820   2.546   5.164   6.442
 6307SOL    HW219821   2.489   5.089   6.308
 6308SOL     OW19822   2.842   1.787   4.986
 6308SOL    HW119823   2.828   1.811   5.082
 6308SOL    HW219824   2.850   1.871   4.932
 6309SOL     OW19825   5.336   2.381   4.034
 6309SOL    HW119826   5.428   2.402   4.000
 6309SOL    HW219827   5.333   2.287   4.067
 6310SOL     OW19828   1.318   4.830   5.149
 6310SOL    HW119829   1.362   4.747   5.112
 6310SOL    HW219830   1.353   4.848   5.241
 6311SOL     OW19831   6.160   0.168   5.112
 6311SOL    HW119832   6.257   0.189   5.113
 6311SOL    HW219833   6.145   0.077   5.151
 6312SOL     OW19834   4.252   5.136   6.308
 6312SOL    HW119835   4.261   5.049   6.260
 6312SOL    HW219836   4.342   5.171   6.330
 6313SOL     OW19837   1.908   5.499   3.354
 6313SOL    HW119838   1.914   5.550   3.440
 6313SOL    HW219839   2.000   5.475   3.323
 6314SOL     OW19840   2.532   5.753   2.791
 6314SOL    HW119841   2.604   5.822   2.781
 6314SOL    HW219842   2.520   5.732   2.888
 6315SOL     OW19843   3.521   3.599   0.196
 6315SOL    HW119844   3.592   3.664   0.171
 6315SOL    HW219845   3.464   3.579   0.117
 6316SOL     OW19846   4.603   1.926   5.752
 6316SOL    HW119847   4.528   1.865   5.780
 6316SOL    HW219848   4.567   2.018   5.741
 6317SOL     OW19849   5.106   0.027   2.752
 6317SOL    HW119850   5.064   0.089   2.819
 6317SOL    HW219851   5.056   0.034   2.666
 6318SOL     OW19852   1.983   2.031   5.379
 6318SOL    HW119853   1.940   2.021   5.289
 6318SOL    HW219854   2.065   2.089   5.371
 6319SOL     OW19855   1.006   2.418   3.393
 6319SOL    HW119856   1.019   2.327   3.353
 6319SOL    HW219857   1.088   2.473   3.377
 6320SOL     OW19858   5.552   3.627   3.047
 6320SOL    HW119859   5.560   3.616   3.146
 6320SOL    HW219860   5.613   3.700   3.016
 6321SOL     OW19861   3.093   5.381   0.501
 6321SOL    HW119862   3.130   5.336   0.419
 6321SOL    HW219863   3.030   5.454   0.474
 6322SOL     OW19864   1.486   1.269   6.828
 6322SOL    HW119865   1.488   1.172   6.852
 6322SOL    HW219866   1.553   1.287   6.756
 6323SOL     OW19867   3.729   2.605   1.394
 6323SOL    HW119868   3.828   2.623   1.393
 6323SOL    HW219869   3.706   2.548   1.473
 6324SOL     OW19870   4.027   0.799   5.702
 6324SOL    HW119871   4.010   0.896   5.681
 6324SOL    HW219872   3.990   0.778   5.792
 6325SOL     OW19873   0.818   2.850   2.086
 6325SOL    HW119874   0.851   2.940   2.059
 6325SOL    HW219875   0.718   2.849   2.082
 6326SOL     OW19876   5.351   5.671   1.504
 6326SOL    HW119877   5.331   5.676   1.602
 6326SOL    HW219878   5.385   5.760   1.473
 6327SOL     OW19879   5.484   5.939   5.316
 6327SOL    HW119880   5.468   6.000   5.238
 6327SOL    HW219881   5.415   5.867   5.317
 6328SOL     OW19882   2.179   3.849   0.241
 6328SOL    HW119883   2.132   3.821   0.157
 6328SOL    HW219884   2.238   3.775   0.273
 6329SOL     OW19885   1.653   1.151   3.747
 6329SOL    HW119886   1.700   1.150   3.659
 6329SOL    HW219887   1.703   1.210   3.811
 6330SOL     OW19888   4.424   0.788   0.268
 6330SOL    HW119889   4.479   0.871   0.273
 6330SOL    HW219890   4.352   0.800   0.199
 6331SOL     OW19891   6.426   1.483   1.204
 6331SOL    HW119892   6.499   1.527   1.151
 6331SOL    HW219893   6.446   1.494   1.301
 6332SOL     OW19894   5.964   5.930   1.097
 6332SOL    HW119895   5.992   5.968   1.008
 6332SOL    HW219896   5.877   5.882   1.086
 6333SOL     OW19897   3.525   5.052   3.564
 6333SOL    HW119898   3.584   5.017   3.638
 6333SOL    HW219899   3.539   4.996   3.482
 6334SOL     OW19900   2.153   0.230   2.324
 6334SOL    HW119901   2.056   0.214   2.343
 6334SOL    HW219902   2.193   0.148   2.282
 6335SOL     OW19903   6.688   0.976   6.554
 6335SOL    HW119904   6.597   1.010   6.576
 6335SOL    HW219905   6.706   0.893   6.607
 6336SOL     OW19906   0.414   2.625   4.736
 6336SOL    HW119907   0.489   2.651   4.676
 6336SOL    HW219908   0.442   2.637   4.832
 6337SOL     OW19909   5.004   3.454   6.026
 6337SOL    HW119910   5.019   3.507   5.942
 6337SOL    HW219911   5.012   3.357   6.006
 6338SOL     OW19912   3.360   1.879   3.049
 6338SOL    HW119913   3.334   1.838   2.962
 6338SOL    HW219914   3.423   1.818   3.097
 6339SOL     OW19915   0.682   2.253   3.376
 6339SOL    HW119916   0.682   2.162   3.335
 6339SOL    HW219917   0.591   2.274   3.411
 6340SOL     OW19918   2.789   5.921   3.775
 6340SOL    HW119919   2.809   5.823   3.771
 6340SOL    HW219920   2.713   5.943   3.714
 6341SOL     OW19921   6.777   4.494   3.211
 6341SOL    HW119922   6.822   4.530   3.129
 6341SOL    HW219923   6.748   4.400   3.194
 6342SOL     OW19924   1.967   2.286   2.165
 6342SOL    HW119925   2.023   2.339   2.101
 6342SOL    HW219926   1.872   2.318   2.161
 6343SOL     OW19927   3.918   2.113   6.478
 6343SOL    HW119928   3.835   2.148   6.521
 6343SOL    HW219929   3.911   2.122   6.378
 6344SOL     OW19930   0.235   3.878   4.688
 6344SOL    HW119931   0.167   3.916   4.750
 6344SOL    HW219932   0.312   3.841   4.741
 6345SOL     OW19933   3.207   1.834   1.886
 6345SOL    HW119934   3.119   1.837   1.838
 6345SOL    HW219935   3.200   1.774   1.965
 6346SOL     OW19936   0.172   3.906   2.990
 6346SOL    HW119937   0.157   3.909   3.089
 6346SOL    HW219938   0.186   3.811   2.961
 6347SOL     OW19939   2.732   0.232   0.844
 6347SOL    HW119940   2.701   0.292   0.771
 6347SOL    HW219941   2.700   0.139   0.827
 6348SOL     OW19942   0.963   2.993   4.464
 6348SOL    HW119943   1.006   2.960   4.380
 6348SOL    HW219944   1.024   2.974   4.542
 6349SOL     OW19945   2.895   0.515   1.050
 6349SOL    HW119946   2.850   0.599   1.080
 6349SOL    HW219947   2.903   0.515   0.951
 6350SOL     OW19948   1.957   6.190   2.155
 6350SOL    HW119949   2.002   6.278   2.173
 6350SOL    HW219950   1.859   6.205   2.140
 6351SOL     OW19951   0.200   1.689   1.946
 6351SOL    HW119952   0.213   1.779   1.988
 6351SOL    HW219953   0.145   1.699   1.864
 6352SOL     OW19954   1.694   5.180   2.802
 6352SOL    HW119955   1.764   5.159   2.734
 6352SOL    HW219956   1.710   5.127   2.884
 6353SOL     OW19957   0.797   6.982   0.202
 6353SOL    HW119958   0.836   6.957   0.114
 6353SOL    HW219959   0.757   6.901   0.245
 6354SOL     OW19960   1.040   0.061   2.544
 6354SOL    HW119961   1.117   0.124   2.557
 6354SOL    HW219962   1.068   7.007   2.485
 6355SOL     OW19963   1.441   2.908   3.233
 6355SOL    HW119964   1.539   2.910   3.215
 6355SOL    HW219965   1.391   2.896   3.148
 6356SOL     OW19966   3.790   4.922   0.820
 6356SOL    HW119967   3.816   4.834   0.777
 6356SOL    HW219968   3.868   4.984   0.815
 6357SOL     OW19969   4.506   2.603   0.541
 6357SOL    HW119970   4.450   2.620   0.622
 6357SOL    HW219971   4.510   2.686   0.485
 6358SOL     OW19972   0.033   2.209   4.114
 6358SOL    HW119973   0.058   2.113   4.129
 6358SOL    HW219974   0.024   2.255   4.202
 6359SOL     OW19975   0.294   0.405   5.488
 6359SOL    HW119976   0.254   0.400   5.580
 6359SOL    HW219977   0.293   0.314   5.446
 6360SOL     OW19978   2.629   4.924   4.100
 6360SOL    HW119979   2.569   4.866   4.156
 6360SOL    HW219980   2.613   5.020   4.124
 6361SOL     OW19981   4.114   6.257   5.966
 6361SOL    HW119982   4.043   6.214   6.022
 6361SOL    HW219983   4.075   6.336   5.919
 6362SOL     OW19984   6.035   5.077   0.011
 6362SOL    HW119985   6.102   5.149   0.027
 6362SOL    HW219986   6.034   5.015   0.089
 6363SOL     OW19987   1.843   5.597   4.241
 6363SOL    HW119988   1.902   5.557   4.171
 6363SOL    HW219989   1.811   5.525   4.302
 6364SOL     OW19990   2.509   2.617   5.892
 6364SOL    HW119991   2.486   2.587   5.984
 6364SOL    HW219992   2.578   2.690   5.896
 6365SOL     OW19993   4.650   6.652   3.586
 6365SOL    HW119994   4.553   6.674   3.592
 6365SOL    HW219995   4.660   6.556   3.561
 6366SOL     OW19996   0.693   5.301   5.140
 6366SOL    HW119997   0.751   5.273   5.063
 6366SOL    HW219998   0.637   5.223   5.169
 6367SOL     OW19999   5.381   0.500   3.343
 6367SOL    HW120000   5.475   0.507   3.310
 6367SOL    HW220001   5.329   0.579   3.312
 6368SOL     OW20002   2.772   6.897   4.130
 6368SOL    HW120003   2.855   6.937   4.169
 6368SOL    HW220004   2.699   6.899   4.198
 6369SOL     OW20005   2.316   5.087   3.626
 6369SOL    HW120006   2.329   4.994   3.659
 6369SOL    HW220007   2.220   5.114   3.637
 6370SOL     OW20008   6.512   1.899   1.247
 6370SOL    HW120009   6.420   1.920   1.279
 6370SOL    HW220010   6.512   1.895   1.147
 6371SOL     OW20011   4.810   2.976   2.518
 6371SOL    HW120012   4.788   2.881   2.497
 6371SOL    HW220013   4.785   3.034   2.440
 6372SOL     OW20014   3.708   6.302   2.175
 6372SOL    HW120015   3.720   6.339   2.267
 6372SOL    HW220016   3.701   6.203   2.180
 6373SOL     OW20017   4.494   3.981   5.740
 6373SOL    HW120018   4.495   4.071   5.697
 6373SOL    HW220019   4.424   3.923   5.696
 6374SOL     OW20020   3.068   3.202   3.104
 6374SOL    HW120021   3.127   3.283   3.100
 6374SOL    HW220022   3.004   3.211   3.180
 6375SOL     OW20023   1.525   0.437   3.033
 6375SOL    HW120024   1.451   0.473   3.090
 6375SOL    HW220025   1.565   0.357   3.077
 6376SOL     OW20026   6.512   2.434   4.622
 6376SOL    HW120027   6.586   2.501   4.621
 6376SOL    HW220028   6.469   2.432   4.531
 6377SOL     OW20029   0.148   1.002   4.859
 6377SOL    HW120030   0.244   0.979   4.877
 6377SOL    HW220031   0.098   1.006   4.945
 6378SOL     OW20032   4.843   4.013   4.301
 6378SOL    HW120033   4.850   3.929   4.354
 6378SOL    HW220034   4.883   3.999   4.210
 6379SOL     OW20035   2.370   4.228   3.889
 6379SOL    HW120036   2.470   4.225   3.886
 6379SOL    HW220037   2.340   4.247   3.982
 6380SOL     OW20038   0.461   1.275   5.916
 6380SOL    HW120039   0.368   1.263   5.951
 6380SOL    HW220040   0.524   1.219   5.969
 6381SOL     OW20041   3.189   3.606   2.899
 6381SOL    HW120042   3.145   3.689   2.865
 6381SOL    HW220043   3.172   3.530   2.835
 6382SOL     OW20044   0.837   3.062   5.930
 6382SOL    HW120045   0.858   2.984   5.872
 6382SOL    HW220046   0.738   3.066   5.947
 6383SOL     OW20047   2.865   1.973   4.335
 6383SOL    HW120048   2.827   1.905   4.273
 6383SOL    HW220049   2.856   2.064   4.295
 6384SOL     OW20050   6.311   5.303   3.060
 6384SOL    HW120051   6.382   5.321   2.992
 6384SOL    HW220052   6.342   5.336   3.149
 6385SOL     OW20053   0.247   5.446   4.336
 6385SOL    HW120054   0.267   5.352   4.364
 6385SOL    HW220055   0.149   5.464   4.351
 6386SOL     OW20056   2.838   5.174   0.729
 6386SOL    HW120057   2.825   5.257   0.674
 6386SOL    HW220058   2.749   5.140   0.759
 6387SOL     OW20059   0.241   1.739   5.265
 6387SOL    HW120060   0.228   1.642   5.285
 6387SOL    HW220061   0.226   1.792   5.349
 6388SOL     OW20062   3.334   4.869   1.986
 6388SOL    HW120063   3.277   4.804   1.935
 6388SOL    HW220064   3.429   4.839   1.985
 6389SOL     OW20065   1.315   5.872   2.988
 6389SOL    HW120066   1.363   5.789   3.017
 6389SOL    HW220067   1.369   5.919   2.918
 6390SOL     OW20068   0.627   2.814   3.627
 6390SOL    HW120069   0.576   2.841   3.545
 6390SOL    HW220070   0.579   2.739   3.673
 6391SOL     OW20071   2.767   2.466   0.182
 6391SOL    HW120072   2.846   2.526   0.171
 6391SOL    HW220073   2.733   2.473   0.276
 6392SOL     OW20074   1.395   6.828   3.509
 6392SOL    HW120075   1.314   6.867   3.466
 6392SOL    HW220076   1.380   6.730   3.526
 6393SOL     OW20077   5.754   6.602   0.576
 6393SOL    HW120078   5.836   6.547   0.561
 6393SOL    HW220079   5.719   6.635   0.489
 6394SOL     OW20080   2.227   4.992   0.454
 6394SOL    HW120081   2.130   5.016   0.459
 6394SOL    HW220082   2.268   5.036   0.374
 6395SOL     OW20083   6.226   1.025   1.045
 6395SOL    HW120084   6.231   1.071   0.956
 6395SOL    HW220085   6.249   1.091   1.117
 6396SOL     OW20086   4.853   3.237   5.631
 6396SOL    HW120087   4.890   3.171   5.566
 6396SOL    HW220088   4.833   3.190   5.718
 6397SOL     OW20089   0.239   2.256   6.792
 6397SOL    HW120090   0.196   2.340   6.825
 6397SOL    HW220091   0.311   2.228   6.856
 6398SOL     OW20092   2.864   1.917   1.880
 6398SOL    HW120093   2.820   1.877   1.799
 6398SOL    HW220094   2.815   2.000   1.907
 6399SOL     OW20095   1.860   5.969   6.899
 6399SOL    HW120096   1.891   5.875   6.885
 6399SOL    HW220097   1.833   6.008   6.812
 6400SOL     OW20098   2.951   5.669   3.446
 6400SOL    HW120099   2.940   5.603   3.372
 6400SOL    HW220100   3.009   5.629   3.517
 6401SOL     OW20101   0.367   4.356   3.605
 6401SOL    HW120102   0.428   4.293   3.652
 6401SOL    HW220103   0.350   4.325   3.512
 6402SOL     OW20104   2.564   0.739   3.038
 6402SOL    HW120105   2.636   0.748   2.969
 6402SOL    HW220106   2.504   0.819   3.035
 6403SOL     OW20107   1.198   4.422   6.691
 6403SOL    HW120108   1.215   4.415   6.593
 6403SOL    HW220109   1.285   4.430   6.740
 6404SOL     OW20110   4.454   1.887   3.235
 6404SOL    HW120111   4.488   1.893   3.329
 6404SOL    HW220112   4.367   1.838   3.234
 6405SOL     OW20113   2.496   1.736   2.670
 6405SOL    HW120114   2.526   1.830   2.653
 6405SOL    HW220115   2.396   1.731   2.662
 6406SOL     OW20116   2.389   1.202   3.932
 6406SOL    HW120117   2.479   1.212   3.890
 6406SOL    HW220118   2.356   1.109   3.920
 6407SOL     OW20119   3.552   5.843   5.363
 6407SOL    HW120120   3.636   5.843   5.309
 6407SOL    HW220121   3.559   5.776   5.437
 6408SOL     OW20122   5.577   1.228   6.398
 6408SOL    HW120123   5.493   1.174   6.398
 6408SOL    HW220124   5.613   1.233   6.305
 6409SOL     OW20125   6.667   3.336   3.158
 6409SOL    HW120126   6.593   3.403   3.162
 6409SOL    HW220127   6.647   3.260   3.221
 6410SOL     OW20128   1.609   1.637   0.420
 6410SOL    HW120129   1.577   1.732   0.420
 6410SOL    HW220130   1.697   1.632   0.373
 6411SOL     OW20131   0.767   1.442   3.601
 6411SOL    HW120132   0.682   1.465   3.553
 6411SOL    HW220133   0.797   1.351   3.573
 6412SOL     OW20134   6.683   3.047   5.551
 6412SOL    HW120135   6.647   3.047   5.645
 6412SOL    HW220136   6.631   3.112   5.495
 6413SOL     OW20137   6.743   4.676   1.357
 6413SOL    HW120138   6.768   4.681   1.260
 6413SOL    HW220139   6.775   4.590   1.395
 6414SOL     OW20140   6.688   0.277   1.483
 6414SOL    HW120141   6.619   0.328   1.535
 6414SOL    HW220142   6.643   0.205   1.431
 6415SOL     OW20143   1.386   2.004   1.900
 6415SOL    HW120144   1.353   2.098   1.896
 6415SOL    HW220145   1.315   1.942   1.869
 6416SOL     OW20146   1.311   0.179   6.720
 6416SOL    HW120147   1.402   0.155   6.688
 6416SOL    HW220148   1.290   0.273   6.692
 6417SOL     OW20149   0.602   0.216   3.729
 6417SOL    HW120150   0.600   0.288   3.798
 6417SOL    HW220151   0.694   0.210   3.690
 6418SOL     OW20152   0.471   5.760   2.285
 6418SOL    HW120153   0.561   5.718   2.282
 6418SOL    HW220154   0.469   5.837   2.220
 6419SOL     OW20155   3.683   5.004   1.809
 6419SOL    HW120156   3.674   4.918   1.859
 6419SOL    HW220157   3.779   5.031   1.806
 6420SOL     OW20158   2.641   4.001   6.230
 6420SOL    HW120159   2.586   4.065   6.177
 6420SOL    HW220160   2.718   3.970   6.174
 6421SOL     OW20161   5.110   0.837   1.060
 6421SOL    HW120162   5.085   0.864   1.153
 6421SOL    HW220163   5.204   0.865   1.041
 6422SOL     OW20164   7.017   1.458   3.429
 6422SOL    HW120165   6.967   1.389   3.377
 6422SOL    HW220166   0.091   1.460   3.399
 6423SOL     OW20167   5.436   3.367   0.917
 6423SOL    HW120168   5.346   3.324   0.928
 6423SOL    HW220169   5.483   3.327   0.839
 6424SOL     OW20170   6.614   3.946   6.386
 6424SOL    HW120171   6.648   4.037   6.408
 6424SOL    HW220172   6.574   3.948   6.294
 6425SOL     OW20173   0.373   4.545   2.320
 6425SOL    HW120174   0.332   4.634   2.298
 6425SOL    HW220175   0.473   4.553   2.314
 6426SOL     OW20176   1.349   2.265   3.362
 6426SOL    HW120177   1.388   2.350   3.328
 6426SOL    HW220178   1.374   2.253   3.458
 6427SOL     OW20179   1.432   3.436   5.613
 6427SOL    HW120180   1.358   3.385   5.569
 6427SOL    HW220181   1.399   3.528   5.635
 6428SOL     OW20182   6.677   3.505   1.852
 6428SOL    HW120183   6.640   3.537   1.765
 6428SOL    HW220184   6.694   3.407   1.847
 6429SOL     OW20185   1.552   0.759   4.231
 6429SOL    HW120186   1.574   0.661   4.236
 6429SOL    HW220187   1.636   0.812   4.242
 6430SOL     OW20188   5.598   1.546   1.415
 6430SOL    HW120189   5.549   1.461   1.434
 6430SOL    HW220190   5.644   1.578   1.498
 6431SOL     OW20191   4.960   6.798   3.042
 6431SOL    HW120192   5.033   6.802   2.973
 6431SOL    HW220193   4.991   6.742   3.119
 6432SOL     OW20194   5.185   3.295   0.905
 6432SOL    HW120195   5.143   3.376   0.946
 6432SOL    HW220196   5.146   3.280   0.814
 6433SOL     OW20197   2.801   4.391   1.453
 6433SOL    HW120198   2.769   4.402   1.548
 6433SOL    HW220199   2.796   4.294   1.428
 6434SOL     OW20200   1.327   3.830   0.599
 6434SOL    HW120201   1.230   3.818   0.621
 6434SOL    HW220202   1.339   3.832   0.500
 6435SOL     OW20203   4.328   4.873   6.487
 6435SOL    HW120204   4.410   4.918   6.450
 6435SOL    HW220205   4.346   4.776   6.499
 6436SOL     OW20206   1.804   3.055   3.527
 6436SOL    HW120207   1.822   3.103   3.441
 6436SOL    HW220208   1.727   2.992   3.515
 6437SOL     OW20209   1.303   6.948   0.064
 6437SOL    HW120210   1.397   6.941   0.096
 6437SOL    HW220211   1.240   6.941   0.142
 6438SOL     OW20212   1.158   3.701   3.661
 6438SOL    HW120213   1.089   3.628   3.663
 6438SOL    HW220214   1.240   3.670   3.710
 6439SOL     OW20215   1.225   6.701   0.993
 6439SOL    HW120216   1.268   6.631   1.050
 6439SOL    HW220217   1.171   6.762   1.051
 6440SOL     OW20218   1.284   1.480   2.647
 6440SOL    HW120219   1.316   1.526   2.564
 6440SOL    HW220220   1.185   1.465   2.640
 6441SOL     OW20221   2.152   1.103   3.158
 6441SOL    HW120222   2.201   1.043   3.221
 6441SOL    HW220223   2.193   1.194   3.161
 6442SOL     OW20224   2.160   2.446   4.523
 6442SOL    HW120225   2.126   2.356   4.495
 6442SOL    HW220226   2.253   2.436   4.559
 6443SOL     OW20227   3.061   3.097   0.741
 6443SOL    HW120228   3.150   3.082   0.697
 6443SOL    HW220229   2.989   3.057   0.685
 6444SOL     OW20230   0.502   1.479   3.113
 6444SOL    HW120231   0.572   1.517   3.052
 6444SOL    HW220232   0.464   1.552   3.169
 6445SOL     OW20233   4.018   2.808   5.338
 6445SOL    HW120234   4.073   2.727   5.316
 6445SOL    HW220235   3.982   2.799   5.431
 6446SOL     OW20236   6.566   1.269   6.984
 6446SOL    HW120237   6.571   1.315   6.895
 6446SOL    HW220238   6.473   1.274   7.019
 6447SOL     OW20239   1.929   6.682   2.139
 6447SOL    HW120240   2.022   6.703   2.108
 6447SOL    HW220241   1.932   6.653   2.235
 6448SOL     OW20242   6.370   2.911   3.082
 6448SOL    HW120243   6.271   2.917   3.073
 6448SOL    HW220244   6.413   2.913   2.991
 6449SOL     OW20245   3.387   3.463   1.344
 6449SOL    HW120246   3.308   3.430   1.292
 6449SOL    HW220247   3.467   3.407   1.323
 6450SOL     OW20248   6.194   3.772   1.501
 6450SOL    HW120249   6.134   3.704   1.543
 6450SOL    HW220250   6.206   3.751   1.404
 6451SOL     OW20251   2.392   6.363   5.569
 6451SOL    HW120252   2.464   6.333   5.506
 6451SOL    HW220253   2.408   6.458   5.595
 6452SOL     OW20254   3.147   6.847   4.247
 6452SOL    HW120255   3.070   6.908   4.226
 6452SOL    HW220256   3.174   6.798   4.165
 6453SOL     OW20257   1.412   6.381   6.854
 6453SOL    HW120258   1.392   6.477   6.833
 6453SOL    HW220259   1.433   6.332   6.769
 6454SOL     OW20260   3.008   1.528   4.459
 6454SOL    HW120261   2.916   1.515   4.423
 6454SOL    HW220262   3.003   1.561   4.553
 6455SOL     OW20263   6.913   2.874   5.101
 6455SOL    HW120264   6.830   2.896   5.152
 6455SOL    HW220265   6.987   2.935   5.127
 6456SOL     OW20266   0.688   0.844   2.917
 6456SOL    HW120267   0.655   0.750   2.925
 6456SOL    HW220268   0.768   0.856   2.976
 6457SOL     OW20269   6.440   2.548   1.884
 6457SOL    HW120270   6.437   2.521   1.980
 6457SOL    HW220271   6.354   2.593   1.859
 6458SOL     OW20272   1.416   5.638   3.077
 6458SOL    HW120273   1.326   5.620   3.117
 6458SOL    HW220274   1.486   5.628   3.148
 6459SOL     OW20275   6.366   4.536   0.636
 6459SOL    HW120276   6.441   4.561   0.575
 6459SOL    HW220277   6.286   4.510   0.582
 6460SOL     OW20278   3.538   4.532   6.628
 6460SOL    HW120279   3.494   4.497   6.711
 6460SOL    HW220280   3.618   4.477   6.607
 6461SOL     OW20281   3.509   4.953   5.080
 6461SOL    HW120282   3.488   4.872   5.134
 6461SOL    HW220283   3.487   5.035   5.133
 6462SOL     OW20284   1.879   3.295   5.141
 6462SOL    HW120285   1.844   3.289   5.235
 6462SOL    HW220286   1.822   3.356   5.088
 6463SOL     OW20287   2.412   4.602   6.104
 6463SOL    HW120288   2.433   4.508   6.080
 6463SOL    HW220289   2.371   4.606   6.195
 6464SOL     OW20290   0.578   5.353   3.611
 6464SOL    HW120291   0.642   5.372   3.685
 6464SOL    HW220292   0.512   5.428   3.604
 6465SOL     OW20293   5.775   1.674   3.856
 6465SOL    HW120294   5.778   1.703   3.952
 6465SOL    HW220295   5.821   1.742   3.799
 6466SOL     OW20296   0.308   2.678   5.283
 6466SOL    HW120297   0.293   2.581   5.300
 6466SOL    HW220298   0.319   2.725   5.371
 6467SOL     OW20299   2.683   1.478   6.788
 6467SOL    HW120300   2.679   1.402   6.853
 6467SOL    HW220301   2.759   1.538   6.812
 6468SOL     OW20302   4.824   6.062   1.293
 6468SOL    HW120303   4.852   6.069   1.389
 6468SOL    HW220304   4.902   6.081   1.234
 6469SOL     OW20305   6.792   0.395   5.505
 6469SOL    HW120306   6.713   0.347   5.469
 6469SOL    HW220307   6.856   0.330   5.546
 6470SOL     OW20308   5.867   6.729   5.982
 6470SOL    HW120309   5.863   6.632   5.959
 6470SOL    HW220310   5.920   6.778   5.912
 6471SOL     OW20311   6.836   4.837   0.105
 6471SOL    HW120312   6.881   4.755   0.071
 6471SOL    HW220313   6.872   4.917   0.056
 6472SOL     OW20314   1.093   6.641   1.625
 6472SOL    HW120315   1.111   6.632   1.527
 6472SOL    HW220316   1.130   6.562   1.674
 6473SOL     OW20317   1.815   1.458   6.361
 6473SOL    HW120318   1.820   1.474   6.460
 6473SOL    HW220319   1.771   1.536   6.316
 6474SOL     OW20320   1.183   3.580   5.740
 6474SOL    HW120321   1.205   3.562   5.836
 6474SOL    HW220322   1.250   3.642   5.701
 6475SOL     OW20323   5.307   6.589   3.979
 6475SOL    HW120324   5.403   6.566   3.998
 6475SOL    HW220325   5.283   6.673   4.028
 6476SOL     OW20326   4.533   4.493   2.915
 6476SOL    HW120327   4.556   4.539   2.829
 6476SOL    HW220328   4.469   4.550   2.966
 6477SOL     OW20329   6.686   5.450   0.266
 6477SOL    HW120330   6.635   5.529   0.232
 6477SOL    HW220331   6.636   5.366   0.244
 6478SOL     OW20332   4.527   6.197   1.802
 6478SOL    HW120333   4.497   6.127   1.867
 6478SOL    HW220334   4.448   6.234   1.754
 6479SOL     OW20335   4.605   5.318   2.314
 6479SOL    HW120336   4.562   5.409   2.315
 6479SOL    HW220337   4.534   5.248   2.303
 6480SOL     OW20338   2.833   3.091   6.722
 6480SOL    HW120339   2.805   3.094   6.818
 6480SOL    HW220340   2.752   3.083   6.664
 6481SOL     OW20341   3.663   0.743   1.202
 6481SOL    HW120342   3.642   0.647   1.221
 6481SOL    HW220343   3.590   0.783   1.147
 6482SOL     OW20344   6.637   6.923   0.037
 6482SOL    HW120345   6.631   6.951   6.963
 6482SOL    HW220346   6.574   6.847   0.053
 6483SOL     OW20347   1.470   6.637   2.189
 6483SOL    HW120348   1.391   6.698   2.191
 6483SOL    HW220349   1.475   6.585   2.274
 6484SOL     OW20350   5.046   0.455   2.426
 6484SOL    HW120351   4.983   0.461   2.505
 6484SOL    HW220352   5.028   0.371   2.376
 6485SOL     OW20353   1.665   2.675   3.496
 6485SOL    HW120354   1.765   2.674   3.502
 6485SOL    HW220355   1.634   2.767   3.471
 6486SOL     OW20356   1.396   3.629   3.765
 6486SOL    HW120357   1.401   3.615   3.864
 6486SOL    HW220358   1.398   3.541   3.718
 6487SOL     OW20359   6.183   6.928   4.271
 6487SOL    HW120360   6.200   0.003   4.252
 6487SOL    HW220361   6.084   6.913   4.277
 6488SOL     OW20362   2.887   5.466   6.060
 6488SOL    HW120363   2.981   5.432   6.064
 6488SOL    HW220364   2.853   5.483   6.153
 6489SOL     OW20365   1.590   2.154   6.001
 6489SOL    HW120366   1.595   2.098   5.918
 6489SOL    HW220367   1.677   2.201   6.015
 6490SOL     OW20368   3.655   2.115   0.419
 6490SOL    HW120369   3.592   2.177   0.466
 6490SOL    HW220370   3.748   2.128   0.453
 6491SOL     OW20371   4.407   1.513   6.400
 6491SOL    HW120372   4.483   1.530   6.337
 6491SOL    HW220373   4.440   1.518   6.495
 6492SOL     OW20374   6.284   6.428   0.409
 6492SOL    HW120375   6.236   6.438   0.322
 6492SOL    HW220376   6.346   6.350   0.404
 6493SOL     OW20377   2.038   6.887   6.515
 6493SOL    HW120378   2.083   6.924   6.434
 6493SOL    HW220379   2.100   6.826   6.564
 6494SOL     OW20380   1.047   0.580   3.489
 6494SOL    HW120381   1.059   0.582   3.589
 6494SOL    HW220382   1.008   0.492   3.462
 6495SOL     OW20383   5.329   4.683   2.767
 6495SOL    HW120384   5.236   4.679   2.731
 6495SOL    HW220385   5.391   4.715   2.696
 6496SOL     OW20386   0.797   6.596   2.091
 6496SOL    HW120387   0.767   6.627   2.001
 6496SOL    HW220388   0.892   6.623   2.106
 6497SOL     OW20389   1.861   4.289   0.216
 6497SOL    HW120390   1.911   4.203   0.218
 6497SOL    HW220391   1.892   4.348   0.291
 6498SOL     OW20392   2.150   3.891   4.628
 6498SOL    HW120393   2.204   3.974   4.613
 6498SOL    HW220394   2.132   3.879   4.725
 6499SOL     OW20395   4.701   1.262   4.578
 6499SOL    HW120396   4.706   1.199   4.655
 6499SOL    HW220397   4.742   1.219   4.497
 6500SOL     OW20398   5.328   4.534   3.503
 6500SOL    HW120399   5.315   4.528   3.404
 6500SOL    HW220400   5.338   4.442   3.541
 6501SOL     OW20401   5.859   3.896   0.969
 6501SOL    HW120402   5.806   3.936   0.894
 6501SOL    HW220403   5.861   3.796   0.960
 6502SOL     OW20404   1.035   4.788   3.447
 6502SOL    HW120405   0.989   4.876   3.462
 6502SOL    HW220406   0.972   4.725   3.401
 6503SOL     OW20407   5.617   6.681   4.409
 6503SOL    HW120408   5.563   6.651   4.488
 6503SOL    HW220409   5.699   6.624   4.402
 6504SOL     OW20410   3.349   1.004   0.658
 6504SOL    HW120411   3.445   0.988   0.639
 6504SOL    HW220412   3.293   0.959   0.588
 6505SOL     OW20413   5.763   4.498   0.906
 6505SOL    HW120414   5.741   4.414   0.856
 6505SOL    HW220415   5.782   4.476   1.002
 6506SOL     OW20416   1.686   3.653   0.785
 6506SOL    HW120417   1.622   3.593   0.833
 6506SOL    HW220418   1.657   3.748   0.795
 6507SOL     OW20419   2.231   6.198   1.429
 6507SOL    HW120420   2.156   6.230   1.487
 6507SOL    HW220421   2.318   6.228   1.466
 6508SOL     OW20422   2.314   2.001   3.470
 6508SOL    HW120423   2.297   1.945   3.551
 6508SOL    HW220424   2.391   1.963   3.418
 6509SOL     OW20425   1.483   2.541   4.576
 6509SOL    HW120426   1.420   2.585   4.512
 6509SOL    HW220427   1.432   2.511   4.657
 6510SOL     OW20428   6.335   5.176   6.825
 6510SOL    HW120429   6.276   5.131   6.891
 6510SOL    HW220430   6.416   5.120   6.808
 6511SOL     OW20431   6.587   6.691   5.704
 6511SOL    HW120432   6.535   6.776   5.708
 6511SOL    HW220433   6.533   6.621   5.657
 6512SOL     OW20434   4.797   6.842   2.620
 6512SOL    HW120435   4.748   6.919   2.661
 6512SOL    HW220436   4.885   6.873   2.585
 6513SOL     OW20437   4.407   6.198   3.635
 6513SOL    HW120438   4.405   6.160   3.728
 6513SOL    HW220439   4.409   6.124   3.569
 6514SOL     OW20440   4.155   0.345   3.890
 6514SOL    HW120441   4.076   0.399   3.920
 6514SOL    HW220442   4.126   0.281   3.819
 6515SOL     OW20443   0.120   6.428   4.977
 6515SOL    HW120444   0.165   6.518   4.968
 6515SOL    HW220445   0.030   6.432   4.935
 6516SOL     OW20446   0.971   2.035   5.969
 6516SOL    HW120447   0.892   2.074   5.921
 6516SOL    HW220448   0.981   2.081   6.058
 6517SOL     OW20449   0.764   1.380   0.183
 6517SOL    HW120450   0.757   1.391   0.282
 6517SOL    HW220451   0.674   1.357   0.146
 6518SOL     OW20452   0.378   6.192   1.205
 6518SOL    HW120453   0.381   6.097   1.235
 6518SOL    HW220454   0.426   6.201   1.118
 6519SOL     OW20455   2.304   1.723   4.148
 6519SOL    HW120456   2.233   1.653   4.136
 6519SOL    HW220457   2.375   1.687   4.209
 6520SOL     OW20458   6.317   5.784   2.077
 6520SOL    HW120459   6.383   5.816   2.144
 6520SOL    HW220460   6.243   5.734   2.123
 6521SOL     OW20461   1.003   1.756   4.948
 6521SOL    HW120462   0.998   1.716   4.857
 6521SOL    HW220463   0.910   1.770   4.983
 6522SOL     OW20464   2.396   5.571   6.421
 6522SOL    HW120465   2.427   5.571   6.516
 6522SOL    HW220466   2.373   5.664   6.394
 6523SOL     OW20467   1.852   1.594   6.627
 6523SOL    HW120468   1.829   1.597   6.724
 6523SOL    HW220469   1.790   1.653   6.576
 6524SOL     OW20470   3.814   3.423   3.205
 6524SOL    HW120471   3.905   3.381   3.197
 6524SOL    HW220472   3.790   3.435   3.301
 6525SOL     OW20473   0.646   2.823   2.956
 6525SOL    HW120474   0.673   2.808   3.051
 6525SOL    HW220475   0.553   2.859   2.953
 6526SOL     OW20476   1.320   5.684   5.031
 6526SOL    HW120477   1.225   5.693   5.062
 6526SOL    HW220478   1.324   5.617   4.956
 6527SOL     OW20479   1.014   6.732   4.567
 6527SOL    HW120480   0.961   6.647   4.572
 6527SOL    HW220481   1.064   6.745   4.652
 6528SOL     OW20482   0.348   1.526   4.721
 6528SOL    HW120483   0.250   1.547   4.715
 6528SOL    HW220484   0.390   1.585   4.790
 6529SOL     OW20485   6.433   1.755   1.876
 6529SOL    HW120486   6.401   1.824   1.941
 6529SOL    HW220487   6.480   1.681   1.926
 6530SOL     OW20488   6.786   2.061   0.407
 6530SOL    HW120489   6.807   2.159   0.397
 6530SOL    HW220490   6.823   2.028   0.494
 6531SOL     OW20491   5.542   3.124   3.923
 6531SOL    HW120492   5.554   3.218   3.956
 6531SOL    HW220493   5.459   3.120   3.866
 6532SOL     OW20494   6.710   1.243   6.536
 6532SOL    HW120495   6.719   1.144   6.547
 6532SOL    HW220496   6.789   1.289   6.576
 6533SOL     OW20497   4.958   6.764   0.864
 6533SOL    HW120498   4.916   6.837   0.810
 6533SOL    HW220499   4.895   6.736   0.937
 6534SOL     OW20500   2.659   3.854   1.363
 6534SOL    HW120501   2.660   3.954   1.371
 6534SOL    HW220502   2.736   3.825   1.307
 6535SOL     OW20503   0.733   3.548   5.766
 6535SOL    HW120504   0.799   3.532   5.692
 6535SOL    HW220505   0.782   3.572   5.850
 6536SOL     OW20506   5.893   1.734   0.204
 6536SOL    HW120507   5.928   1.755   0.113
 6536SOL    HW220508   5.909   1.811   0.265
 6537SOL     OW20509   0.610   6.742   0.319
 6537SOL    HW120510   0.576   6.742   0.225
 6537SOL    HW220511   0.661   6.658   0.337
 6538SOL     OW20512   3.200   4.028   0.018
 6538SOL    HW120513   3.146   3.974   0.083
 6538SOL    HW220514   3.297   4.019   0.040
 6539SOL     OW20515   2.471   1.659   6.776
 6539SOL    HW120516   2.538   1.587   6.759
 6539SOL    HW220517   2.484   1.733   6.710
 6540SOL     OW20518   3.063   0.928   4.766
 6540SOL    HW120519   3.037   1.007   4.709
 6540SOL    HW220520   3.083   0.850   4.706
 6541SOL     OW20521   2.511   2.270   5.811
 6541SOL    HW120522   2.563   2.316   5.883
 6541SOL    HW220523   2.573   2.243   5.737
 6542SOL     OW20524   6.872   4.695   3.350
 6542SOL    HW120525   6.941   4.683   3.421
 6542SOL    HW220526   6.852   4.606   3.307
 6543SOL     OW20527   5.843   6.326   6.683
 6543SOL    HW120528   5.835   6.275   6.597
 6543SOL    HW220529   5.883   6.267   6.753
 6544SOL     OW20530   6.804   5.908   4.080
 6544SOL    HW120531   6.748   5.989   4.065
 6544SOL    HW220532   6.900   5.933   4.085
 6545SOL     OW20533   4.965   1.592   5.932
 6545SOL    HW120534   5.062   1.597   5.956
 6545SOL    HW220535   4.955   1.596   5.833
 6546SOL     OW20536   2.846   5.015   5.832
 6546SOL    HW120537   2.848   5.112   5.808
 6546SOL    HW220538   2.766   4.997   5.890
 6547SOL     OW20539   5.035   2.664   6.927
 6547SOL    HW120540   4.971   2.670   7.004
 6547SOL    HW220541   5.118   2.617   6.956
 6548SOL     OW20542   6.291   4.158   5.561
 6548SOL    HW120543   6.335   4.244   5.585
 6548SOL    HW220544   6.333   4.084   5.613
 6549SOL     OW20545   3.967   2.115   0.725
 6549SOL    HW120546   3.869   2.131   0.732
 6549SOL    HW220547   4.012   2.151   0.807
 6550SOL     OW20548   0.806   5.699   3.447
 6550SOL    HW120549   0.881   5.651   3.493
 6550SOL    HW220550   0.758   5.635   3.387
 6551SOL     OW20551   1.793   4.569   1.965
 6551SOL    HW120552   1.763   4.655   1.924
 6551SOL    HW220553   1.841   4.587   2.051
 6552SOL     OW20554   2.677   4.843   5.612
 6552SOL    HW120555   2.714   4.927   5.650
 6552SOL    HW220556   2.751   4.777   5.598
 6553SOL     OW20557   0.240   3.139   2.425
 6553SOL    HW120558   0.330   3.177   2.447
 6553SOL    HW220559   0.177   3.156   2.501
 6554SOL     OW20560   6.265   1.926   5.884
 6554SOL    HW120561   6.229   1.984   5.810
 6554SOL    HW220562   6.259   1.830   5.857
 6555SOL     OW20563   1.649   1.195   1.835
 6555SOL    HW120564   1.695   1.222   1.919
 6555SOL    HW220565   1.594   1.113   1.852
 6556SOL     OW20566   3.698   5.730   4.768
 6556SOL    HW120567   3.667   5.750   4.675
 6556SOL    HW220568   3.637   5.662   4.809
 6557SOL     OW20569   6.024   5.371   0.947
 6557SOL    HW120570   5.935   5.333   0.976
 6557SOL    HW220571   6.043   5.341   0.854
 6558SOL     OW20572   5.910   5.849   6.773
 6558SOL    HW120573   5.857   5.795   6.839
 6558SOL    HW220574   5.873   5.941   6.767
 6559SOL     OW20575   4.888   4.022   1.231
 6559SOL    HW120576   4.964   3.999   1.291
 6559SOL    HW220577   4.909   4.107   1.182
 6560SOL     OW20578   4.047   2.779   0.606
 6560SOL    HW120579   4.026   2.814   0.515
 6560SOL    HW220580   4.140   2.740   0.607
 6561SOL     OW20581   4.092   3.723   3.204
 6561SOL    HW120582   4.082   3.658   3.280
 6561SOL    HW220583   4.117   3.813   3.240
 6562SOL     OW20584   6.421   4.794   5.898
 6562SOL    HW120585   6.343   4.855   5.889
 6562SOL    HW220586   6.392   4.700   5.880
 6563SOL     OW20587   0.757   5.739   1.552
 6563SOL    HW120588   0.833   5.687   1.590
 6563SOL    HW220589   0.781   5.773   1.461
 6564SOL     OW20590   1.461   4.474   1.708
 6564SOL    HW120591   1.496   4.559   1.670
 6564SOL    HW220592   1.397   4.432   1.644
 6565SOL     OW20593   0.132   2.995   5.147
 6565SOL    HW120594   0.178   2.956   5.067
 6565SOL    HW220595   0.191   2.985   5.228
 6566SOL     OW20596   3.307   6.655   0.882
 6566SOL    HW120597   3.319   6.747   0.919
 6566SOL    HW220598   3.323   6.587   0.954
 6567SOL     OW20599   5.495   2.683   0.636
 6567SOL    HW120600   5.567   2.717   0.576
 6567SOL    HW220601   5.463   2.757   0.695
 6568SOL     OW20602   4.481   4.556   1.934
 6568SOL    HW120603   4.455   4.462   1.912
 6568SOL    HW220604   4.568   4.556   1.984
 6569SOL     OW20605   1.901   4.498   0.018
 6569SOL    HW120606   1.975   4.439   7.008
 6569SOL    HW220607   1.858   4.457   0.099
 6570SOL     OW20608   5.665   1.632   1.928
 6570SOL    HW120609   5.707   1.691   1.996
 6570SOL    HW220610   5.571   1.662   1.910
 6571SOL     OW20611   2.683   6.111   3.990
 6571SOL    HW120612   2.690   6.208   3.968
 6571SOL    HW220613   2.704   6.056   3.910
 6572SOL     OW20614   6.878   4.277   5.681
 6572SOL    HW120615   6.830   4.189   5.679
 6572SOL    HW220616   6.827   4.341   5.738
 6573SOL     OW20617   2.750   1.453   2.341
 6573SOL    HW120618   2.798   1.480   2.256
 6573SOL    HW220619   2.739   1.354   2.343
 6574SOL     OW20620   2.731   4.901   3.087
 6574SOL    HW120621   2.751   4.886   2.990
 6574SOL    HW220622   2.716   4.998   3.103
 6575SOL     OW20623   0.934   1.528   2.171
 6575SOL    HW120624   0.886   1.576   2.245
 6575SOL    HW220625   1.031   1.555   2.172
 6576SOL     OW20626   1.119   5.928   6.462
 6576SOL    HW120627   1.160   5.983   6.535
 6576SOL    HW220628   1.035   5.885   6.495
 6577SOL     OW20629   0.603   1.895   3.870
 6577SOL    HW120630   0.552   1.961   3.814
 6577SOL    HW220631   0.701   1.903   3.849
 6578SOL     OW20632   6.449   5.531   3.850
 6578SOL    HW120633   6.434   5.443   3.896
 6578SOL    HW220634   6.395   5.602   3.894
 6579SOL     OW20635   6.343   4.242   3.124
 6579SOL    HW120636   6.439   4.265   3.112
 6579SOL    HW220637   6.325   4.222   3.221
 6580SOL     OW20638   5.355   1.208   2.022
 6580SOL    HW120639   5.418   1.279   1.989
 6580SOL    HW220640   5.329   1.150   1.945
 6581SOL     OW20641   4.005   2.404   6.621
 6581SOL    HW120642   4.084   2.356   6.582
 6581SOL    HW220643   3.963   2.346   6.691
 6582SOL     OW20644   6.724   6.814   2.712
 6582SOL    HW120645   6.624   6.815   2.710
 6582SOL    HW220646   6.758   6.766   2.631
 6583SOL     OW20647   5.316   0.963   5.850
 6583SOL    HW120648   5.217   0.949   5.852
 6583SOL    HW220649   5.359   0.901   5.916
 6584SOL     OW20650   6.184   1.900   0.072
 6584SOL    HW120651   6.099   1.862   0.036
 6584SOL    HW220652   6.224   1.962   0.004
 6585SOL     OW20653   0.777   1.809   6.620
 6585SOL    HW120654   0.744   1.749   6.547
 6585SOL    HW220655   0.843   1.759   6.676
 6586SOL     OW20656   6.395   1.973   6.135
 6586SOL    HW120657   6.340   2.001   6.056
 6586SOL    HW220658   6.440   1.886   6.114
 6587SOL     OW20659   1.945   5.871   3.587
 6587SOL    HW120660   2.036   5.892   3.550
 6587SOL    HW220661   1.879   5.938   3.552
 6588SOL     OW20662   1.718   3.137   6.854
 6588SOL    HW120663   1.797   3.192   6.826
 6588SOL    HW220664   1.635   3.193   6.847
 6589SOL     OW20665   4.759   1.179   6.025
 6589SOL    HW120666   4.770   1.191   5.926
 6589SOL    HW220667   4.813   1.248   6.073
 6590SOL     OW20668   0.220   0.955   5.394
 6590SOL    HW120669   0.299   1.013   5.376
 6590SOL    HW220670   0.238   0.898   5.474
 6591SOL     OW20671   6.270   6.908   3.379
 6591SOL    HW120672   6.226   6.916   3.468
 6591SOL    HW220673   6.241   6.822   3.335
 6592SOL     OW20674   5.008   6.608   4.251
 6592SOL    HW120675   5.081   6.591   4.317
 6592SOL    HW220676   4.928   6.644   4.298
 6593SOL     OW20677   3.518   1.883   3.410
 6593SOL    HW120678   3.549   1.806   3.464
 6593SOL    HW220679   3.480   1.850   3.323
 6594SOL     OW20680   4.907   0.503   7.020
 6594SOL    HW120681   5.004   0.500   0.024
 6594SOL    HW220682   4.859   0.426   0.039
 6595SOL     OW20683   1.573   3.902   0.827
 6595SOL    HW120684   1.491   3.896   0.884
 6595SOL    HW220685   1.558   3.968   0.754
 6596SOL     OW20686   4.309   6.976   5.146
 6596SOL    HW120687   4.344   6.915   5.075
 6596SOL    HW220688   4.253   6.923   5.210
 6597SOL     OW20689   0.194   6.020   4.737
 6597SOL    HW120690   0.206   5.921   4.740
 6597SOL    HW220691   0.098   6.043   4.753
 6598SOL     OW20692   1.769   5.891   5.203
 6598SOL    HW120693   1.861   5.925   5.219
 6598SOL    HW220694   1.715   5.962   5.156
 6599SOL     OW20695   4.403   5.382   5.986
 6599SOL    HW120696   4.313   5.384   6.029
 6599SOL    HW220697   4.400   5.322   5.906
 6600SOL     OW20698   4.648   5.902   3.970
 6600SOL    HW120699   4.732   5.865   3.930
 6600SOL    HW220700   4.604   5.964   3.905
 6601SOL     OW20701   0.648   0.543   0.248
 6601SOL    HW120702   0.612   0.517   0.158
 6601SOL    HW220703   0.739   0.504   0.260
 6602SOL     OW20704   6.791   1.216   1.502
 6602SOL    HW120705   6.879   1.184   1.466
 6602SOL    HW220706   6.805   1.300   1.554
 6603SOL     OW20707   2.124   3.656   3.127
 6603SOL    HW120708   2.116   3.676   3.225
 6603SOL    HW220709   2.211   3.692   3.093
 6604SOL     OW20710   3.027   5.263   2.684
 6604SOL    HW120711   3.024   5.201   2.762
 6604SOL    HW220712   2.934   5.295   2.664
 6605SOL     OW20713   5.555   5.814   6.975
 6605SOL    HW120714   5.647   5.777   6.991
 6605SOL    HW220715   5.523   5.786   6.884
 6606SOL     OW20716   5.614   0.847   2.259
 6606SOL    HW120717   5.607   0.947   2.265
 6606SOL    HW220718   5.552   0.814   2.188
 6607SOL     OW20719   2.078   1.254   1.880
 6607SOL    HW120720   2.163   1.296   1.910
 6607SOL    HW220721   2.001   1.309   1.910
 6608SOL     OW20722   5.536   3.731   3.980
 6608SOL    HW120723   5.534   3.799   3.907
 6608SOL    HW220724   5.449   3.682   3.982
 6609SOL     OW20725   5.265   0.909   6.438
 6609SOL    HW120726   5.215   0.842   6.383
 6609SOL    HW220727   5.202   0.983   6.463
 6610SOL     OW20728   2.542   0.830   0.542
 6610SOL    HW120729   2.464   0.769   0.532
 6610SOL    HW220730   2.515   0.911   0.593
 6611SOL     OW20731   5.998   2.318   3.309
 6611SOL    HW120732   6.002   2.278   3.401
 6611SOL    HW220733   5.977   2.416   3.316
 6612SOL     OW20734   1.545   6.466   0.243
 6612SOL    HW120735   1.500   6.551   0.213
 6612SOL    HW220736   1.618   6.489   0.308
 6613SOL     OW20737   4.955   5.147   2.434
 6613SOL    HW120738   4.970   5.057   2.474
 6613SOL    HW220739   5.043   5.188   2.410
 6614SOL     OW20740   5.143   5.495   6.247
 6614SOL    HW120741   5.241   5.511   6.251
 6614SOL    HW220742   5.097   5.545   6.321
 6615SOL     OW20743   0.625   3.935   5.492
 6615SOL    HW120744   0.652   3.976   5.404
 6615SOL    HW220745   0.669   3.845   5.501
 6616SOL     OW20746   5.237   1.395   5.173
 6616SOL    HW120747   5.264   1.322   5.110
 6616SOL    HW220748   5.300   1.472   5.164
 6617SOL     OW20749   2.900   6.758   4.611
 6617SOL    HW120750   2.885   6.660   4.614
 6617SOL    HW220751   2.844   6.803   4.681
 6618SOL     OW20752   1.075   4.602   2.190
 6618SOL    HW120753   1.096   4.678   2.128
 6618SOL    HW220754   0.990   4.558   2.161
 6619SOL     OW20755   4.667   5.903   3.233
 6619SOL    HW120756   4.573   5.932   3.214
 6619SOL    HW220757   4.731   5.971   3.196
 6620SOL     OW20758   1.143   2.868   6.077
 6620SOL    HW120759   1.230   2.850   6.123
 6620SOL    HW220760   1.140   2.964   6.049
 6621SOL     OW20761   2.676   4.458   0.150
 6621SOL    HW120762   2.667   4.415   0.060
 6621SOL    HW220763   2.694   4.556   0.138
 6622SOL     OW20764   6.102   5.894   0.443
 6622SOL    HW120765   6.136   5.981   0.478
 6622SOL    HW220766   6.045   5.850   0.512
 6623SOL     OW20767   3.320   2.868   2.399
 6623SOL    HW120768   3.276   2.909   2.319
 6623SOL    HW220769   3.296   2.771   2.404
 6624SOL     OW20770   4.394   5.534   4.406
 6624SOL    HW120771   4.391   5.558   4.503
 6624SOL    HW220772   4.376   5.615   4.351
 6625SOL     OW20773   6.550   0.275   6.506
 6625SOL    HW120774   6.512   0.337   6.438
 6625SOL    HW220775   6.543   0.181   6.473
 6626SOL     OW20776   3.197   5.368   3.382
 6626SOL    HW120777   3.263   5.391   3.311
 6626SOL    HW220778   3.240   5.309   3.450
 6627SOL     OW20779   1.687   0.807   6.719
 6627SOL    HW120780   1.765   0.817   6.658
 6627SOL    HW220781   1.602   0.828   6.670
 6628SOL     OW20782   4.239   5.743   2.646
 6628SOL    HW120783   4.296   5.814   2.606
 6628SOL    HW220784   4.187   5.697   2.574
 6629SOL     OW20785   3.622   5.689   1.042
 6629SOL    HW120786   3.719   5.686   1.068
 6629SOL    HW220787   3.612   5.664   0.946
 6630SOL     OW20788   3.187   1.946   0.203
 6630SOL    HW120789   3.220   1.927   0.295
 6630SOL    HW220790   3.258   1.920   0.137
 6631SOL     OW20791   4.971   0.775   2.343
 6631SOL    HW120792   5.050   0.774   2.282
 6631SOL    HW220793   4.981   0.704   2.413
 6632SOL     OW20794   0.007   0.717   0.290
 6632SOL    HW120795   0.055   0.804   0.296
 6632SOL    HW220796   0.037   0.668   0.208
 6633SOL     OW20797   1.854   6.381   0.730
 6633SOL    HW120798   1.825   6.306   0.790
 6633SOL    HW220799   1.814   6.368   0.639
 6634SOL     OW20800   6.325   2.784   5.767
 6634SOL    HW120801   6.396   2.717   5.788
 6634SOL    HW220802   6.298   2.832   5.851
 6635SOL     OW20803   4.596   5.149   3.980
 6635SOL    HW120804   4.594   5.218   4.053
 6635SOL    HW220805   4.669   5.084   3.999
 6636SOL     OW20806   1.604   2.654   4.327
 6636SOL    HW120807   1.579   2.630   4.421
 6636SOL    HW220808   1.573   2.581   4.265
 6637SOL     OW20809   0.381   6.971   0.610
 6637SOL    HW120810   0.358   6.880   0.576
 6637SOL    HW220811   0.475   6.993   0.585
 6638SOL     OW20812   2.183   6.199   5.629
 6638SOL    HW120813   2.154   6.135   5.558
 6638SOL    HW220814   2.250   6.263   5.592
 6639SOL     OW20815   5.944   4.949   6.793
 6639SOL    HW120816   5.962   5.011   6.870
 6639SOL    HW220817   5.996   4.865   6.806
 6640SOL     OW20818   6.673   2.033   3.642
 6640SOL    HW120819   6.772   2.042   3.636
 6640SOL    HW220820   6.648   1.936   3.634
 6641SOL     OW20821   2.051   4.055   6.192
 6641SOL    HW120822   2.127   4.015   6.141
 6641SOL    HW220823   2.086   4.125   6.255
 6642SOL     OW20824   0.942   6.104   6.116
 6642SOL    HW120825   0.886   6.040   6.168
 6642SOL    HW220826   0.924   6.091   6.018
 6643SOL     OW20827   5.845   4.212   6.190
 6643SOL    HW120828   5.807   4.285   6.247
 6643SOL    HW220829   5.822   4.123   6.230
 6644SOL     OW20830   2.968   4.834   1.969
 6644SOL    HW120831   2.896   4.806   1.906
 6644SOL    HW220832   2.939   4.817   2.063
 6645SOL     OW20833   0.010   4.756   5.910
 6645SOL    HW120834   0.061   4.769   5.825
 6645SOL    HW220835   6.938   4.791   5.899
 6646SOL     OW20836   2.918   5.788   4.093
 6646SOL    HW120837   2.939   5.886   4.098
 6646SOL    HW220838   2.840   5.768   4.151
 6647SOL     OW20839   3.255   1.009   2.106
 6647SOL    HW120840   3.348   0.971   2.105
 6647SOL    HW220841   3.215   1.002   2.014
 6648SOL     OW20842   4.763   5.965   2.434
 6648SOL    HW120843   4.700   5.890   2.412
 6648SOL    HW220844   4.711   6.043   2.469
 6649SOL     OW20845   4.587   1.839   6.406
 6649SOL    HW120846   4.680   1.803   6.403
 6649SOL    HW220847   4.533   1.796   6.334
 6650SOL     OW20848   4.077   1.183   4.111
 6650SOL    HW120849   4.007   1.111   4.112
 6650SOL    HW220850   4.057   1.249   4.183
 6651SOL     OW20851   0.631   2.619   6.897
 6651SOL    HW120852   0.589   2.562   6.826
 6651SOL    HW220853   0.729   2.601   6.900
 6652SOL     OW20854   0.434   5.949   1.813
 6652SOL    HW120855   0.399   6.042   1.802
 6652SOL    HW220856   0.398   5.891   1.740
 6653SOL     OW20857   4.032   3.891   3.773
 6653SOL    HW120858   3.935   3.915   3.771
 6653SOL    HW220859   4.057   3.862   3.866
 6654SOL     OW20860   2.237   3.260   1.693
 6654SOL    HW120861   2.180   3.194   1.743
 6654SOL    HW220862   2.284   3.320   1.759
 6655SOL     OW20863   3.065   6.737   1.841
 6655SOL    HW120864   3.046   6.646   1.877
 6655SOL    HW220865   3.080   6.732   1.742
 6656SOL     OW20866   6.697   0.962   1.550
 6656SOL    HW120867   6.691   0.927   1.456
 6656SOL    HW220868   6.728   1.056   1.548
 6657SOL     OW20869   3.390   6.547   6.837
 6657SOL    HW120870   3.387   6.509   6.930
 6657SOL    HW220871   3.485   6.567   6.812
 6658SOL     OW20872   6.125   1.483   4.897
 6658SOL    HW120873   6.026   1.478   4.884
 6658SOL    HW220874   6.170   1.472   4.808
 6659SOL     OW20875   2.373   3.658   0.359
 6659SOL    HW120876   2.414   3.728   0.417
 6659SOL    HW220877   2.344   3.580   0.414
 6660SOL     OW20878   6.865   6.754   2.489
 6660SOL    HW120879   6.826   6.733   2.399
 6660SOL    HW220880   6.925   6.680   2.518
 6661SOL     OW20881   6.917   5.262   4.009
 6661SOL    HW120882   6.990   5.326   3.983
 6661SOL    HW220883   6.832   5.289   3.965
 6662SOL     OW20884   2.518   1.855   0.188
 6662SOL    HW120885   2.498   1.784   0.120
 6662SOL    HW220886   2.514   1.814   0.280
 6663SOL     OW20887   0.440   5.937   2.068
 6663SOL    HW120888   0.438   5.937   1.968
 6663SOL    HW220889   0.357   5.982   2.103
 6664SOL     OW20890   1.609   0.856   2.371
 6664SOL    HW120891   1.632   0.760   2.387
 6664SOL    HW220892   1.626   0.909   2.455
 6665SOL     OW20893   1.765   5.826   2.952
 6665SOL    HW120894   1.758   5.728   2.971
 6665SOL    HW220895   1.822   5.839   2.870
 6666SOL     OW20896   6.216   1.143   5.866
 6666SOL    HW120897   6.256   1.051   5.872
 6666SOL    HW220898   6.254   1.201   5.938
 6667SOL     OW20899   6.997   5.484   5.165
 6667SOL    HW120900   0.055   5.446   5.117
 6667SOL    HW220901   6.993   5.582   5.149
 6668SOL     OW20902   0.902   4.432   2.061
 6668SOL    HW120903   0.803   4.446   2.071
 6668SOL    HW220904   0.924   4.412   1.966
 6669SOL     OW20905   1.967   5.854   3.182
 6669SOL    HW120906   1.941   5.876   3.276
 6669SOL    HW220907   1.894   5.881   3.119
 6670SOL     OW20908   3.236   4.940   6.390
 6670SOL    HW120909   3.219   4.920   6.293
 6670SOL    HW220910   3.277   5.031   6.399
 6671SOL     OW20911   6.518   3.714   6.066
 6671SOL    HW120912   6.545   3.627   6.106
 6671SOL    HW220913   6.499   3.702   5.968
 6672SOL     OW20914   1.092   0.598   5.418
 6672SOL    HW120915   1.189   0.624   5.424
 6672SOL    HW220916   1.065   0.595   5.322
 6673SOL     OW20917   5.063   5.026   1.922
 6673SOL    HW120918   4.993   4.971   1.967
 6673SOL    HW220919   5.110   5.082   1.990
 6674SOL     OW20920   0.946   6.513   5.038
 6674SOL    HW120921   0.927   6.444   5.107
 6674SOL    HW220922   1.007   6.583   5.076
 6675SOL     OW20923   5.879   4.542   0.397
 6675SOL    HW120924   5.906   4.638   0.385
 6675SOL    HW220925   5.802   4.537   0.460
 6676SOL     OW20926   0.881   2.721   5.664
 6676SOL    HW120927   0.860   2.646   5.727
 6676SOL    HW220928   0.961   2.772   5.698
 6677SOL     OW20929   0.394   3.202   0.359
 6677SOL    HW120930   0.418   3.291   0.320
 6677SOL    HW220931   0.368   3.139   0.285
 6678SOL     OW20932   0.884   2.787   6.112
 6678SOL    HW120933   0.984   2.796   6.107
 6678SOL    HW220934   0.855   2.706   6.061
 6679SOL     OW20935   1.492   2.658   4.954
 6679SOL    HW120936   1.544   2.736   4.920
 6679SOL    HW220937   1.554   2.584   4.977
 6680SOL     OW20938   3.756   6.692   6.375
 6680SOL    HW120939   3.739   6.787   6.401
 6680SOL    HW220940   3.850   6.668   6.398
 6681SOL     OW20941   5.237   5.385   0.444
 6681SOL    HW120942   5.289   5.343   0.518
 6681SOL    HW220943   5.184   5.462   0.479
 6682SOL     OW20944   0.586   5.490   2.583
 6682SOL    HW120945   0.652   5.543   2.530
 6682SOL    HW220946   0.512   5.459   2.523
 6683SOL     OW20947   4.730   1.729   5.153
 6683SOL    HW120948   4.798   1.697   5.087
 6683SOL    HW220949   4.764   1.714   5.246
 6684SOL     OW20950   1.275   0.169   2.363
 6684SOL    HW120951   1.366   0.129   2.372
 6684SOL    HW220952   1.284   0.268   2.350
 6685SOL     OW20953   5.653   3.384   6.312
 6685SOL    HW120954   5.567   3.338   6.291
 6685SOL    HW220955   5.659   3.469   6.260
 6686SOL     OW20956   5.895   3.934   3.808
 6686SOL    HW120957   5.811   3.936   3.754
 6686SOL    HW220958   5.973   3.963   3.751
 6687SOL     OW20959   1.411   1.435   1.049
 6687SOL    HW120960   1.396   1.531   1.074
 6687SOL    HW220961   1.480   1.395   1.110
 6688SOL     OW20962   0.350   4.443   2.577
 6688SOL    HW120963   0.329   4.440   2.480
 6688SOL    HW220964   0.265   4.439   2.630
 6689SOL     OW20965   5.172   4.167   6.996
 6689SOL    HW120966   5.262   4.205   7.018
 6689SOL    HW220967   5.121   4.152   0.059
 6690SOL     OW20968   2.060   3.376   1.263
 6690SOL    HW120969   2.128   3.430   1.214
 6690SOL    HW220970   2.085   3.279   1.257
 6691SOL     OW20971   2.704   5.553   1.692
 6691SOL    HW120972   2.733   5.649   1.692
 6691SOL    HW220973   2.714   5.515   1.600
 6692SOL     OW20974   3.053   4.364   5.315
 6692SOL    HW120975   2.993   4.306   5.370
 6692SOL    HW220976   2.999   4.432   5.267
 6693SOL     OW20977   4.481   3.682   5.515
 6693SOL    HW120978   4.520   3.653   5.602
 6693SOL    HW220979   4.463   3.602   5.457
 6694SOL     OW20980   4.651   6.236   0.614
 6694SOL    HW120981   4.702   6.158   0.652
 6694SOL    HW220982   4.678   6.320   0.662
 6695SOL     OW20983   0.974   1.668   6.738
 6695SOL    HW120984   1.046   1.724   6.778
 6695SOL    HW220985   0.961   1.586   6.792
 6696SOL     OW20986   1.998   3.495   1.811
 6696SOL    HW120987   2.077   3.483   1.872
 6696SOL    HW220988   1.959   3.405   1.789
 6697SOL     OW20989   4.344   1.599   2.886
 6697SOL    HW120990   4.285   1.671   2.850
 6697SOL    HW220991   4.421   1.640   2.935
 6698SOL     OW20992   3.888   3.294   6.594
 6698SOL    HW120993   3.850   3.362   6.530
 6698SOL    HW220994   3.818   3.227   6.617
 6699SOL     OW20995   2.343   4.949   6.996
 6699SOL    HW120996   2.382   4.859   6.980
 6699SOL    HW220997   2.245   4.940   7.014
 6700SOL     OW20998   0.162   6.173   0.981
 6700SOL    HW120999   0.258   6.152   0.963
 6700SOL    HW221000   0.154   6.224   1.067
 6701SOL     OW21001   0.394   1.567   0.584
 6701SOL    HW121002   0.478   1.617   0.567
 6701SOL    HW221003   0.407   1.505   0.662
 6702SOL     OW21004   2.354   1.459   0.979
 6702SOL    HW121005   2.451   1.470   1.000
 6702SOL    HW221006   2.341   1.461   0.880
 6703SOL     OW21007   6.981   1.644   6.604
 6703SOL    HW121008   6.948   1.669   6.513
 6703SOL    HW221009   7.003   1.727   6.655
 6704SOL     OW21010   4.571   2.578   2.619
 6704SOL    HW121011   4.533   2.670   2.613
 6704SOL    HW221012   4.600   2.559   2.713
 6705SOL     OW21013   6.172   2.197   1.081
 6705SOL    HW121014   6.138   2.189   0.988
 6705SOL    HW221015   6.270   2.219   1.080
 6706SOL     OW21016   0.799   4.118   6.469
 6706SOL    HW121017   0.800   4.035   6.413
 6706SOL    HW221018   0.885   4.125   6.519
 6707SOL     OW21019   0.821   5.376   3.765
 6707SOL    HW121020   0.888   5.384   3.838
 6707SOL    HW221021   0.805   5.279   3.745
 6708SOL     OW21022   2.439   6.115   2.077
 6708SOL    HW121023   2.414   6.204   2.038
 6708SOL    HW221024   2.358   6.056   2.080
 6709SOL     OW21025   4.207   1.053   1.856
 6709SOL    HW121026   4.213   0.962   1.815
 6709SOL    HW221027   4.113   1.071   1.883
 6710SOL     OW21028   3.337   2.562   7.020
 6710SOL    HW121029   3.420   2.569   0.054
 6710SOL    HW221030   3.290   2.650   7.019
 6711SOL     OW21031   4.092   3.854   0.343
 6711SOL    HW121032   4.025   3.792   0.302
 6711SOL    HW221033   4.137   3.907   0.271
 6712SOL     OW21034   3.511   6.193   0.443
 6712SOL    HW121035   3.497   6.146   0.356
 6712SOL    HW221036   3.560   6.133   0.507
 6713SOL     OW21037   1.492   2.460   1.937
 6713SOL    HW121038   1.541   2.522   1.999
 6713SOL    HW221039   1.536   2.371   1.937
 6714SOL     OW21040   5.742   0.565   3.964
 6714SOL    HW121041   5.819   0.575   3.902
 6714SOL    HW221042   5.661   0.607   3.923
 6715SOL     OW21043   0.341   1.079   0.802
 6715SOL    HW121044   0.309   1.172   0.783
 6715SOL    HW221045   0.263   1.019   0.815
 6716SOL     OW21046   2.276   5.454   1.506
 6716SOL    HW121047   2.339   5.494   1.572
 6716SOL    HW221048   2.233   5.527   1.453
 6717SOL     OW21049   4.511   2.253   0.328
 6717SOL    HW121050   4.528   2.325   0.261
 6717SOL    HW221051   4.597   2.211   0.355
 6718SOL     OW21052   3.040   0.522   0.498
 6718SOL    HW121053   3.117   0.544   0.437
 6718SOL    HW221054   2.996   0.438   0.468
 6719SOL     OW21055   0.008   6.306   5.747
 6719SOL    HW121056   6.944   6.357   5.762
 6719SOL    HW221057   0.084   6.357   5.788
 6720SOL     OW21058   1.893   5.431   1.259
 6720SOL    HW121059   1.904   5.358   1.327
 6720SOL    HW221060   1.826   5.404   1.191
 6721SOL     OW21061   5.367   6.676   3.702
 6721SOL    HW121062   5.330   6.767   3.722
 6721SOL    HW221063   5.364   6.620   3.785
 6722SOL     OW21064   4.446   3.183   6.647
 6722SOL    HW121065   4.400   3.229   6.722
 6722SOL    HW221066   4.384   3.116   6.606
 6723SOL     OW21067   3.678   6.722   3.448
 6723SOL    HW121068   3.695   6.801   3.506
 6723SOL    HW221069   3.685   6.639   3.502
 6724SOL     OW21070   3.142   4.638   5.342
 6724SOL    HW121071   3.194   4.554   5.327
 6724SOL    HW221072   3.047   4.624   5.317
 6725SOL     OW21073   0.876   5.287   2.671
 6725SOL    HW121074   0.867   5.386   2.678
 6725SOL    HW221075   0.915   5.262   2.582
 6726SOL     OW21076   2.752   2.265   3.859
 6726SOL    HW121077   2.692   2.299   3.931
 6726SOL    HW221078   2.732   2.313   3.773
 6727SOL     OW21079   4.025   3.299   6.226
 6727SOL    HW121080   4.082   3.322   6.305
 6727SOL    HW221081   4.066   3.222   6.177
 6728SOL     OW21082   3.992   1.743   3.802
 6728SOL    HW121083   4.048   1.704   3.875
 6728SOL    HW221084   3.911   1.686   3.788
 6729SOL     OW21085   5.582   1.009   2.988
 6729SOL    HW121086   5.636   1.089   3.016
 6729SOL    HW221087   5.503   0.999   3.048
 6730SOL     OW21088   2.384   1.179   0.026
 6730SOL    HW121089   2.402   1.250   0.094
 6730SOL    HW221090   2.366   1.222   6.959
 6731SOL     OW21091   2.393   5.163   1.679
 6731SOL    HW121092   2.304   5.151   1.723
 6731SOL    HW221093   2.464   5.170   1.749
 6732SOL     OW21094   2.906   5.656   0.801
 6732SOL    HW121095   2.890   5.581   0.737
 6732SOL    HW221096   3.004   5.661   0.822
 6733SOL     OW21097   5.633   6.028   4.896
 6733SOL    HW121098   5.694   5.984   4.961
 6733SOL    HW221099   5.606   6.118   4.930
 6734SOL     OW21100   2.497   3.270   5.619
 6734SOL    HW121101   2.487   3.277   5.519
 6734SOL    HW221102   2.470   3.179   5.649
 6735SOL     OW21103   6.652   5.479   5.570
 6735SOL    HW121104   6.575   5.498   5.631
 6735SOL    HW221105   6.712   5.559   5.565
 6736SOL     OW21106   1.990   3.319   2.050
 6736SOL    HW121107   2.009   3.223   2.026
 6736SOL    HW221108   2.074   3.372   2.042
 6737SOL     OW21109   1.954   0.857   1.874
 6737SOL    HW121110   1.958   0.846   1.775
 6737SOL    HW221111   2.045   0.880   1.909
 6738SOL     OW21112   3.493   0.877   2.483
 6738SOL    HW121113   3.545   0.814   2.541
 6738SOL    HW221114   3.461   0.953   2.539
 6739SOL     OW21115   3.780   6.352   4.524
 6739SOL    HW121116   3.724   6.270   4.535
 6739SOL    HW221117   3.746   6.406   4.447
 6740SOL     OW21118   1.265   1.483   4.269
 6740SOL    HW121119   1.267   1.430   4.185
 6740SOL    HW221120   1.206   1.437   4.336
 6741SOL     OW21121   6.599   0.001   6.487
 6741SOL    HW121122   6.582   6.937   6.438
 6741SOL    HW221123   6.690   0.036   6.464
 6742SOL     OW21124   6.323   5.505   5.300
 6742SOL    HW121125   6.310   5.551   5.388
 6742SOL    HW221126   6.240   5.514   5.245
 6743SOL     OW21127   4.536   3.367   1.313
 6743SOL    HW121128   4.440   3.394   1.319
 6743SOL    HW221129   4.543   3.279   1.265
 6744SOL     OW21130   4.529   4.512   5.626
 6744SOL    HW121131   4.477   4.567   5.692
 6744SOL    HW221132   4.625   4.510   5.653
 6745SOL     OW21133   1.227   4.623   4.264
 6745SOL    HW121134   1.313   4.587   4.298
 6745SOL    HW221135   1.245   4.688   4.190
 6746SOL     OW21136   0.325   1.997   0.936
 6746SOL    HW121137   0.354   1.911   0.978
 6746SOL    HW221138   0.225   2.004   0.941
 6747SOL     OW21139   5.428   6.158   5.142
 6747SOL    HW121140   5.453   6.227   5.074
 6747SOL    HW221141   5.342   6.184   5.186
 6748SOL     OW21142   0.998   0.154   2.247
 6748SOL    HW121143   1.009   0.234   2.188
 6748SOL    HW221144   1.078   0.146   2.307
 6749SOL     OW21145   4.337   6.839   6.966
 6749SOL    HW121146   4.269   6.881   0.005
 6749SOL    HW221147   4.415   6.900   6.956
 6750SOL     OW21148   2.754   3.016   5.360
 6750SOL    HW121149   2.712   2.956   5.429
 6750SOL    HW221150   2.686   3.041   5.292
 6751SOL     OW21151   2.759   1.982   5.189
 6751SOL    HW121152   2.661   1.994   5.170
 6751SOL    HW221153   2.811   2.053   5.143
 6752SOL     OW21154   6.162   2.174   0.501
 6752SOL    HW121155   6.250   2.186   0.547
 6752SOL    HW221156   6.177   2.137   0.410
 6753SOL     OW21157   4.672   2.344   6.379
 6753SOL    HW121158   4.715   2.335   6.468
 6753SOL    HW221159   4.650   2.254   6.343
 6754SOL     OW21160   6.347   0.747   6.837
 6754SOL    HW121161   6.353   0.808   6.758
 6754SOL    HW221162   6.438   0.720   6.866
 6755SOL     OW21163   4.999   1.917   3.875
 6755SOL    HW121164   5.040   1.862   3.802
 6755SOL    HW221165   4.899   1.915   3.867
 6756SOL     OW21166   5.281   5.061   4.390
 6756SOL    HW121167   5.197   5.064   4.444
 6756SOL    HW221168   5.261   5.025   4.299
 6757SOL     OW21169   5.836   5.783   2.030
 6757SOL    HW121170   5.773   5.735   1.969
 6757SOL    HW221171   5.926   5.791   1.987
 6758SOL     OW21172   4.704   2.366   2.162
 6758SOL    HW121173   4.780   2.431   2.165
 6758SOL    HW221174   4.622   2.411   2.127
 6759SOL     OW21175   0.328   4.627   3.054
 6759SOL    HW121176   0.253   4.574   3.094
 6759SOL    HW221177   0.305   4.650   2.959
 6760SOL     OW21178   6.617   3.904   4.357
 6760SOL    HW121179   6.561   3.920   4.438
 6760SOL    HW221180   6.594   3.971   4.287
 6761SOL     OW21181   5.153   3.154   6.200
 6761SOL    HW121182   5.225   3.220   6.180
 6761SOL    HW221183   5.115   3.120   6.113
 6762SOL     OW21184   6.418   4.710   4.140
 6762SOL    HW121185   6.492   4.767   4.174
 6762SOL    HW221186   6.435   4.687   4.044
 6763SOL     OW21187   5.951   6.279   5.996
 6763SOL    HW121188   6.015   6.353   6.015
 6763SOL    HW221189   5.857   6.313   6.009
 6764SOL     OW21190   2.208   4.097   6.577
 6764SOL    HW121191   2.195   4.176   6.517
 6764SOL    HW221192   2.288   4.045   6.547
 6765SOL     OW21193   5.552   4.940   2.580
 6765SOL    HW121194   5.614   4.877   2.532
 6765SOL    HW221195   5.590   4.962   2.670
 6766SOL     OW21196   1.864   0.692   5.823
 6766SOL    HW121197   1.920   0.620   5.864
 6766SOL    HW221198   1.893   0.781   5.858
 6767SOL     OW21199   6.733   2.761   6.608
 6767SOL    HW121200   6.767   2.850   6.640
 6767SOL    HW221201   6.811   2.701   6.589
 6768SOL     OW21202   0.095   0.140   4.826
 6768SOL    HW121203   0.078   0.231   4.864
 6768SOL    HW221204   0.094   0.073   4.900
 6769SOL     OW21205   1.863   3.068   6.094
 6769SOL    HW121206   1.802   3.127   6.041
 6769SOL    HW221207   1.880   3.110   6.184
 6770SOL     OW21208   0.744   1.374   3.279
 6770SOL    HW121209   0.649   1.391   3.254
 6770SOL    HW221210   0.776   1.447   3.340
 6771SOL     OW21211   4.221   1.923   3.022
 6771SOL    HW121212   4.222   1.872   3.108
 6771SOL    HW221213   4.305   1.977   3.014
 6772SOL     OW21214   6.859   1.032   1.181
 6772SOL    HW121215   6.808   0.955   1.221
 6772SOL    HW221216   6.938   0.998   1.132
 6773SOL     OW21217   1.601   6.382   1.550
 6773SOL    HW121218   1.529   6.447   1.527
 6773SOL    HW221219   1.638   6.343   1.466
 6774SOL     OW21220   2.562   2.344   5.505
 6774SOL    HW121221   2.593   2.369   5.413
 6774SOL    HW221222   2.608   2.401   5.572
 6775SOL     OW21223   0.606   2.086   4.691
 6775SOL    HW121224   0.691   2.037   4.712
 6775SOL    HW221225   0.595   2.163   4.754
 6776SOL     OW21226   3.672   4.075   3.031
 6776SOL    HW121227   3.597   4.031   3.081
 6776SOL    HW221228   3.759   4.046   3.070
 6777SOL     OW21229   5.821   5.731   0.005
 6777SOL    HW121230   5.899   5.748   0.065
 6777SOL    HW221231   5.816   5.634   7.004
 6778SOL     OW21232   5.953   5.644   2.289
 6778SOL    HW121233   5.948   5.707   2.212
 6778SOL    HW221234   5.888   5.569   2.275
 6779SOL     OW21235   5.040   3.177   5.950
 6779SOL    HW121236   5.103   3.150   5.877
 6779SOL    HW221237   4.957   3.121   5.946
 6780SOL     OW21238   3.274   2.112   3.174
 6780SOL    HW121239   3.307   2.023   3.142
 6780SOL    HW221240   3.319   2.185   3.123
 6781SOL     OW21241   6.872   1.731   3.563
 6781SOL    HW121242   6.902   1.636   3.556
 6781SOL    HW221243   6.933   1.780   3.626
 6782SOL     OW21244   6.566   1.415   3.213
 6782SOL    HW121245   6.494   1.484   3.204
 6782SOL    HW221246   6.544   1.354   3.289
 6783SOL     OW21247   1.160   4.611   5.731
 6783SOL    HW121248   1.152   4.693   5.674
 6783SOL    HW221249   1.254   4.602   5.763
 6784SOL     OW21250   2.445   3.849   1.694
 6784SOL    HW121251   2.413   3.917   1.627
 6784SOL    HW221252   2.388   3.767   1.686
 6785SOL     OW21253   5.257   5.317   4.312
 6785SOL    HW121254   5.285   5.223   4.330
 6785SOL    HW221255   5.165   5.319   4.274
 6786SOL     OW21256   5.843   1.597   6.160
 6786SOL    HW121257   5.934   1.602   6.119
 6786SOL    HW221258   5.774   1.599   6.088
 6787SOL     OW21259   3.465   2.228   6.893
 6787SOL    HW121260   3.535   2.216   6.823
 6787SOL    HW221261   3.475   2.157   6.962
 6788SOL     OW21262   0.350   4.121   2.137
 6788SOL    HW121263   0.277   4.084   2.080
 6788SOL    HW221264   0.339   4.087   2.231
 6789SOL     OW21265   4.843   4.501   3.308
 6789SOL    HW121266   4.859   4.599   3.310
 6789SOL    HW221267   4.829   4.468   3.402
 6790SOL     OW21268   0.729   5.059   6.079
 6790SOL    HW121269   0.769   5.145   6.111
 6790SOL    HW221270   0.802   5.001   6.042
 6791SOL     OW21271   2.825   0.206   3.065
 6791SOL    HW121272   2.854   0.120   3.022
 6791SOL    HW221273   2.846   0.204   3.162
 6792SOL     OW21274   3.929   0.026   5.230
 6792SOL    HW121275   3.944   0.093   5.157
 6792SOL    HW221276   3.845   0.050   5.279
 6793SOL     OW21277   1.883   3.222   6.317
 6793SOL    HW121278   1.926   3.272   6.392
 6793SOL    HW221279   1.836   3.286   6.257
 6794SOL     OW21280   5.698   1.854   5.257
 6794SOL    HW121281   5.689   1.950   5.232
 6794SOL    HW221282   5.610   1.808   5.245
 6795SOL     OW21283   1.089   0.385   1.462
 6795SOL    HW121284   1.071   0.472   1.508
 6795SOL    HW221285   1.171   0.394   1.406
 6796SOL     OW21286   6.150   1.942   2.923
 6796SOL    HW121287   6.078   2.010   2.907
 6796SOL    HW221288   6.181   1.906   2.835
 6797SOL     OW21289   0.767   2.652   1.485
 6797SOL    HW121290   0.731   2.712   1.413
 6797SOL    HW221291   0.841   2.596   1.448
 6798SOL     OW21292   5.723   0.059   1.970
 6798SOL    HW121293   5.795   0.125   1.992
 6798SOL    HW221294   5.634   0.105   1.975
 6799SOL     OW21295   6.814   0.421   3.586
 6799SOL    HW121296   6.865   0.506   3.587
 6799SOL    HW221297   6.724   0.435   3.628
 6800SOL     OW21298   6.300   2.792   1.316
 6800SOL    HW121299   6.307   2.732   1.397
 6800SOL    HW221300   6.358   2.872   1.329
 6801SOL     OW21301   1.067   6.878   6.599
 6801SOL    HW121302   1.087   6.813   6.672
 6801SOL    HW221303   1.091   6.971   6.630
 6802SOL     OW21304   3.426   4.922   2.264
 6802SOL    HW121305   3.371   5.001   2.289
 6802SOL    HW221306   3.429   4.913   2.165
 6803SOL     OW21307   5.437   4.899   5.976
 6803SOL    HW121308   5.409   4.888   5.881
 6803SOL    HW221309   5.361   4.873   6.037
 6804SOL     OW21310   3.727   4.909   2.751
 6804SOL    HW121311   3.689   4.944   2.837
 6804SOL    HW221312   3.652   4.896   2.686
 6805SOL     OW21313   0.162   4.915   4.791
 6805SOL    HW121314   0.068   4.930   4.760
 6805SOL    HW221315   0.222   4.981   4.744
 6806SOL     OW21316   6.695   2.649   1.787
 6806SOL    HW121317   6.609   2.616   1.828
 6806SOL    HW221318   6.687   2.647   1.687
 6807SOL     OW21319   3.534   4.149   1.916
 6807SOL    HW121320   3.472   4.122   1.989
 6807SOL    HW221321   3.482   4.189   1.841
 6808SOL     OW21322   3.059   1.206   4.387
 6808SOL    HW121323   3.043   1.286   4.329
 6808SOL    HW221324   3.156   1.201   4.410
 6809SOL     OW21325   5.713   3.538   0.135
 6809SOL    HW121326   5.730   3.474   0.060
 6809SOL    HW221327   5.631   3.592   0.114
 6810SOL     OW21328   2.703   0.645   4.926
 6810SOL    HW121329   2.788   0.690   4.954
 6810SOL    HW221330   2.721   0.549   4.906
 6811SOL     OW21331   6.371   1.372   0.349
 6811SOL    HW121332   6.360   1.286   0.300
 6811SOL    HW221333   6.368   1.448   0.284
 6812SOL     OW21334   3.813   4.297   5.225
 6812SOL    HW121335   3.756   4.283   5.144
 6812SOL    HW221336   3.785   4.232   5.296
 6813SOL     OW21337   6.269   3.414   2.376
 6813SOL    HW121338   6.358   3.459   2.365
 6813SOL    HW221339   6.240   3.374   2.289
 6814SOL     OW21340   5.955   0.751   6.479
 6814SOL    HW121341   5.942   0.729   6.575
 6814SOL    HW221342   5.990   0.844   6.470
 6815SOL     OW21343   1.254   4.948   5.775
 6815SOL    HW121344   1.284   4.884   5.845
 6815SOL    HW221345   1.242   5.039   5.815
 6816SOL     OW21346   0.109   0.352   3.408
 6816SOL    HW121347   0.154   0.379   3.323
 6816SOL    HW221348   0.047   0.425   3.438
 6817SOL     OW21349   4.064   2.038   1.442
 6817SOL    HW121350   4.040   2.011   1.349
 6817SOL    HW221351   4.001   2.109   1.473
 6818SOL     OW21352   1.411   6.796   5.657
 6818SOL    HW121353   1.482   6.838   5.601
 6818SOL    HW221354   1.331   6.777   5.600
 6819SOL     OW21355   4.720   4.184   2.268
 6819SOL    HW121356   4.729   4.269   2.320
 6819SOL    HW221357   4.645   4.193   2.202
 6820SOL     OW21358   3.328   5.119   1.812
 6820SOL    HW121359   3.239   5.146   1.775
 6820SOL    HW221360   3.325   5.022   1.837
 6821SOL     OW21361   3.931   2.458   5.358
 6821SOL    HW121362   3.848   2.512   5.347
 6821SOL    HW221363   4.002   2.494   5.297
 6822SOL     OW21364   6.227   2.983   5.948
 6822SOL    HW121365   6.266   3.071   5.975
 6822SOL    HW221366   6.127   2.991   5.943
 6823SOL     OW21367   6.747   2.172   5.057
 6823SOL    HW121368   6.776   2.179   4.961
 6823SOL    HW221369   6.657   2.130   5.062
 6824SOL     OW21370   1.236   0.240   5.595
 6824SOL    HW121371   1.316   0.185   5.616
 6824SOL    HW221372   1.157   0.205   5.645
 6825SOL     OW21373   4.654   4.316   0.914
 6825SOL    HW121374   4.700   4.350   0.996
 6825SOL    HW221375   4.576   4.375   0.892
 6826SOL     OW21376   6.367   6.315   3.992
 6826SOL    HW121377   6.394   6.319   3.896
 6826SOL    HW221378   6.271   6.288   3.998
 6827SOL     OW21379   5.166   6.082   4.987
 6827SOL    HW121380   5.239   6.023   4.952
 6827SOL    HW221381   5.118   6.124   4.910
 6828SOL     OW21382   2.824   2.197   2.476
 6828SOL    HW121383   2.881   2.175   2.555
 6828SOL    HW221384   2.872   2.174   2.391
 6829SOL     OW21385   4.269   6.964   3.277
 6829SOL    HW121386   4.292   0.012   3.345
 6829SOL    HW221387   4.350   6.908   3.259
 6830SOL     OW21388   4.986   4.768   3.338
 6830SOL    HW121389   5.081   4.798   3.350
 6830SOL    HW221390   4.952   4.801   3.250
 6831SOL     OW21391   1.857   2.333   6.035
 6831SOL    HW121392   1.804   2.388   5.969
 6831SOL    HW221393   1.930   2.285   5.986
 6832SOL     OW21394   3.116   2.553   6.586
 6832SOL    HW121395   3.199   2.497   6.584
 6832SOL    HW221396   3.044   2.503   6.633
 6833SOL     OW21397   3.875   5.517   5.817
 6833SOL    HW121398   3.866   5.434   5.872
 6833SOL    HW221399   3.852   5.496   5.721
 6834SOL     OW21400   6.442   6.074   0.126
 6834SOL    HW121401   6.496   6.142   0.077
 6834SOL    HW221402   6.460   5.983   0.089
 6835SOL     OW21403   2.848   1.160   5.559
 6835SOL    HW121404   2.752   1.130   5.559
 6835SOL    HW221405   2.898   1.113   5.487
 6836SOL     OW21406   2.204   4.344   6.431
 6836SOL    HW121407   2.231   4.427   6.481
 6836SOL    HW221408   2.185   4.367   6.336
 6837SOL     OW21409   0.276   0.890   2.298
 6837SOL    HW121410   0.361   0.930   2.331
 6837SOL    HW221411   0.259   0.920   2.204
 6838SOL     OW21412   3.066   4.042   4.969
 6838SOL    HW121413   3.001   4.114   4.991
 6838SOL    HW221414   3.018   3.954   4.966
 6839SOL     OW21415   6.542   3.421   4.298
 6839SOL    HW121416   6.578   3.332   4.325
 6839SOL    HW221417   6.507   3.417   4.205
 6840SOL     OW21418   2.710   6.850   4.792
 6840SOL    HW121419   2.712   6.790   4.873
 6840SOL    HW221420   2.740   6.942   4.818
 6841SOL     OW21421   4.700   5.773   1.156
 6841SOL    HW121422   4.708   5.852   1.217
 6841SOL    HW221423   4.620   5.719   1.182
 6842SOL     OW21424   0.510   3.400   4.890
 6842SOL    HW121425   0.536   3.374   4.797
 6842SOL    HW221426   0.419   3.441   4.889
 6843SOL     OW21427   3.909   2.248   1.779
 6843SOL    HW121428   3.882   2.152   1.778
 6843SOL    HW221429   3.830   2.304   1.808
 6844SOL     OW21430   4.295   5.641   4.020
 6844SOL    HW121431   4.395   5.643   4.024
 6844SOL    HW221432   4.261   5.575   4.086
 6845SOL     OW21433   4.356   4.536   1.081
 6845SOL    HW121434   4.396   4.513   0.993
 6845SOL    HW221435   4.352   4.454   1.138
 6846SOL     OW21436   3.187   3.376   2.716
 6846SOL    HW121437   3.187   3.429   2.631
 6846SOL    HW221438   3.280   3.368   2.751
 6847SOL     OW21439   5.466   3.369   2.215
 6847SOL    HW121440   5.482   3.424   2.133
 6847SOL    HW221441   5.368   3.357   2.229
 6848SOL     OW21442   0.274   6.715   3.505
 6848SOL    HW121443   0.241   6.742   3.596
 6848SOL    HW221444   0.285   6.796   3.448
 6849SOL     OW21445   3.607   6.677   3.753
 6849SOL    HW121446   3.562   6.749   3.700
 6849SOL    HW221447   3.679   6.718   3.810
 6850SOL     OW21448   5.390   2.737   1.900
 6850SOL    HW121449   5.477   2.784   1.882
 6850SOL    HW221450   5.327   2.753   1.825
 6851SOL     OW21451   1.243   5.882   5.492
 6851SOL    HW121452   1.157   5.841   5.461
 6851SOL    HW221453   1.311   5.874   5.420
 6852SOL     OW21454   0.340   4.843   2.369
 6852SOL    HW121455   0.347   4.797   2.458
 6852SOL    HW221456   0.421   4.900   2.355
 6853SOL     OW21457   6.629   3.713   5.567
 6853SOL    HW121458   6.712   3.656   5.572
 6853SOL    HW221459   6.576   3.701   5.651
 6854SOL     OW21460   6.652   1.424   6.072
 6854SOL    HW121461   6.679   1.486   6.146
 6854SOL    HW221462   6.658   1.330   6.104
 6855SOL     OW21463   3.230   5.908   1.555
 6855SOL    HW121464   3.222   5.886   1.458
 6855SOL    HW221465   3.308   5.859   1.593
 6856SOL     OW21466   0.216   3.898   5.302
 6856SOL    HW121467   0.241   3.915   5.397
 6856SOL    HW221468   0.298   3.897   5.246
 6857SOL     OW21469   4.298   1.996   5.653
 6857SOL    HW121470   4.288   2.092   5.681
 6857SOL    HW221471   4.225   1.942   5.695
 6858SOL     OW21472   3.721   2.974   4.853
 6858SOL    HW121473   3.721   2.924   4.939
 6858SOL    HW221474   3.779   3.055   4.861
 6859SOL     OW21475   3.968   6.796   1.593
 6859SOL    HW121476   4.016   6.777   1.507
 6859SOL    HW221477   3.939   6.891   1.595
 6860SOL     OW21478   4.837   4.297   0.124
 6860SOL    HW121479   4.935   4.290   0.140
 6860SOL    HW221480   4.791   4.324   0.208
 6861SOL     OW21481   6.601   4.671   0.503
 6861SOL    HW121482   6.584   4.751   0.444
 6861SOL    HW221483   6.688   4.684   0.550
 6862SOL     OW21484   3.641   5.739   4.138
 6862SOL    HW121485   3.654   5.642   4.159
 6862SOL    HW221486   3.554   5.751   4.091
 6863SOL     OW21487   6.945   3.007   4.283
 6863SOL    HW121488   6.954   3.105   4.264
 6863SOL    HW221489   6.854   2.975   4.256
 6864SOL     OW21490   4.379   6.178   4.276
 6864SOL    HW121491   4.304   6.132   4.229
 6864SOL    HW221492   4.466   6.141   4.243
 6865SOL     OW21493   6.739   4.235   4.057
 6865SOL    HW121494   6.830   4.273   4.068
 6865SOL    HW221495   6.685   4.293   3.996
 6866SOL     OW21496   6.971   3.434   2.267
 6866SOL    HW121497   6.980   3.334   2.272
 6866SOL    HW221498   6.894   3.457   2.207
 6867SOL     OW21499   2.228   4.110   2.454
 6867SOL    HW121500   2.220   4.011   2.454
 6867SOL    HW221501   2.205   4.146   2.364
 6868SOL     OW21502   1.625   5.402   5.637
 6868SOL    HW121503   1.671   5.479   5.680
 6868SOL    HW221504   1.693   5.337   5.603
 6869SOL     OW21505   5.876   3.403   5.275
 6869SOL    HW121506   5.844   3.322   5.323
 6869SOL    HW221507   5.976   3.397   5.264
 6870SOL     OW21508   5.109   3.724   3.437
 6870SOL    HW121509   5.165   3.703   3.517
 6870SOL    HW221510   5.107   3.823   3.423
 6871SOL     OW21511   5.307   6.400   1.785
 6871SOL    HW121512   5.353   6.413   1.698
 6871SOL    HW221513   5.373   6.369   1.854
 6872SOL     OW21514   2.944   3.131   6.310
 6872SOL    HW121515   3.019   3.191   6.339
 6872SOL    HW221516   2.868   3.138   6.374
 6873SOL     OW21517   5.495   4.317   5.829
 6873SOL    HW121518   5.471   4.261   5.908
 6873SOL    HW221519   5.561   4.387   5.857
 6874SOL     OW21520   0.930   2.344   5.651
 6874SOL    HW121521   0.937   2.355   5.552
 6874SOL    HW221522   1.021   2.356   5.693
 6875SOL     OW21523   3.275   2.061   3.929
 6875SOL    HW121524   3.272   2.093   4.023
 6875SOL    HW221525   3.210   1.986   3.917
 6876SOL     OW21526   3.438   6.063   6.755
 6876SOL    HW121527   3.428   6.053   6.656
 6876SOL    HW221528   3.519   6.119   6.775
 6877SOL     OW21529   2.644   4.309   6.947
 6877SOL    HW121530   2.694   4.232   6.906
 6877SOL    HW221531   2.651   4.389   6.887
 6878SOL     OW21532   2.012   1.398   4.955
 6878SOL    HW121533   2.045   1.473   4.899
 6878SOL    HW221534   2.033   1.416   5.051
 6879SOL     OW21535   1.341   2.901   5.766
 6879SOL    HW121536   1.398   2.980   5.790
 6879SOL    HW221537   1.359   2.826   5.829
 6880SOL     OW21538   1.719   4.345   5.071
 6880SOL    HW121539   1.652   4.346   5.146
 6880SOL    HW221540   1.728   4.438   5.034
 6881SOL     OW21541   6.903   4.012   1.022
 6881SOL    HW121542   6.837   4.038   1.092
 6881SOL    HW221543   6.920   4.090   0.961
 6882SOL     OW21544   1.599   7.009   5.276
 6882SOL    HW121545   1.660   6.998   5.198
 6882SOL    HW221546   1.547   6.925   5.290
 6883SOL     OW21547   3.623   6.494   2.003
 6883SOL    HW121548   3.657   6.444   2.082
 6883SOL    HW221549   3.677   6.470   1.922
 6884SOL     OW21550   2.607   4.625   3.344
 6884SOL    HW121551   2.704   4.650   3.336
 6884SOL    HW221552   2.550   4.705   3.325
 6885SOL     OW21553   2.534   5.345   4.387
 6885SOL    HW121554   2.509   5.387   4.300
 6885SOL    HW221555   2.630   5.365   4.408
 6886SOL     OW21556   5.695   1.696   2.890
 6886SOL    HW121557   5.734   1.783   2.921
 6886SOL    HW221558   5.606   1.712   2.848
 6887SOL     OW21559   5.718   0.660   4.846
 6887SOL    HW121560   5.810   0.696   4.860
 6887SOL    HW221561   5.704   0.580   4.905
 6888SOL     OW21562   5.483   6.379   4.299
 6888SOL    HW121563   5.518   6.322   4.374
 6888SOL    HW221564   5.385   6.363   4.289
 6889SOL     OW21565   1.012   4.043   6.214
 6889SOL    HW121566   1.093   4.095   6.242
 6889SOL    HW221567   0.954   4.100   6.156
 6890SOL     OW21568   2.031   0.727   0.514
 6890SOL    HW121569   2.049   0.757   0.608
 6890SOL    HW221570   1.978   0.642   0.516
 6891SOL     OW21571   2.490   4.746   4.249
 6891SOL    HW121572   2.482   4.658   4.201
 6891SOL    HW221573   2.501   4.729   4.347
 6892SOL     OW21574   4.007   0.730   4.333
 6892SOL    HW121575   3.977   0.728   4.429
 6892SOL    HW221576   4.093   0.679   4.324
 6893SOL     OW21577   5.247   5.462   2.062
 6893SOL    HW121578   5.319   5.521   2.099
 6893SOL    HW221579   5.274   5.366   2.074
 6894SOL     OW21580   6.574   4.659   6.393
 6894SOL    HW121581   6.642   4.612   6.338
 6894SOL    HW221582   6.573   4.756   6.369
 6895SOL     OW21583   3.667   6.194   6.811
 6895SOL    HW121584   3.737   6.184   6.883
 6895SOL    HW221585   3.707   6.242   6.733
 6896SOL     OW21586   4.129   0.310   2.703
 6896SOL    HW121587   4.079   0.328   2.618
 6896SOL    HW221588   4.065   0.274   2.772
 6897SOL     OW21589   3.262   2.856   0.654
 6897SOL    HW121590   3.258   2.758   0.635
 6897SOL    HW221591   3.342   2.876   0.710
 6898SOL     OW21592   4.295   2.327   2.263
 6898SOL    HW121593   4.267   2.238   2.299
 6898SOL    HW221594   4.214   2.382   2.244
 6899SOL     OW21595   5.011   6.038   6.984
 6899SOL    HW121596   4.912   6.036   6.990
 6899SOL    HW221597   5.040   5.992   6.900
 6900SOL     OW21598   4.305   0.875   5.709
 6900SOL    HW121599   4.326   0.846   5.802
 6900SOL    HW221600   4.215   0.841   5.682
 6901SOL     OW21601   1.154   0.940   6.308
 6901SOL    HW121602   1.153   1.021   6.367
 6901SOL    HW221603   1.068   0.935   6.257
 6902SOL     OW21604   6.788   5.813   0.687
 6902SOL    HW121605   6.756   5.849   0.775
 6902SOL    HW221606   6.715   5.822   0.620
 6903SOL     OW21607   4.862   3.489   0.814
 6903SOL    HW121608   4.921   3.533   0.882
 6903SOL    HW221609   4.769   3.527   0.822
 6904SOL     OW21610   0.237   1.529   3.383
 6904SOL    HW121611   0.249   1.521   3.482
 6904SOL    HW221612   0.297   1.463   3.337
 6905SOL     OW21613   5.765   6.379   0.960
 6905SOL    HW121614   5.838   6.430   1.005
 6905SOL    HW221615   5.757   6.288   1.001
 6906SOL     OW21616   4.512   0.631   3.667
 6906SOL    HW121617   4.433   0.626   3.606
 6906SOL    HW221618   4.482   0.646   3.761
 6907SOL     OW21619   3.860   1.669   1.348
 6907SOL    HW121620   3.944   1.623   1.376
 6907SOL    HW221621   3.797   1.603   1.309
 6908SOL     OW21622   1.312   6.569   6.550
 6908SOL    HW121623   1.220   6.603   6.529
 6908SOL    HW221624   1.341   6.506   6.478
 6909SOL     OW21625   3.799   4.032   6.659
 6909SOL    HW121626   3.718   4.023   6.602
 6909SOL    HW221627   3.841   3.942   6.672
 6910SOL     OW21628   6.776   1.519   2.163
 6910SOL    HW121629   6.825   1.432   2.174
 6910SOL    HW221630   6.842   1.593   2.152
 6911SOL     OW21631   3.774   1.089   4.816
 6911SOL    HW121632   3.778   0.993   4.789
 6911SOL    HW221633   3.741   1.096   4.910
 6912SOL     OW21634   4.709   5.294   0.739
 6912SOL    HW121635   4.630   5.236   0.761
 6912SOL    HW221636   4.786   5.268   0.799
 6913SOL     OW21637   5.213   5.165   5.389
 6913SOL    HW121638   5.142   5.105   5.351
 6913SOL    HW221639   5.240   5.131   5.479
 6914SOL     OW21640   6.183   4.865   0.869
 6914SOL    HW121641   6.198   4.801   0.944
 6914SOL    HW221642   6.172   4.814   0.784
 6915SOL     OW21643   0.720   5.534   1.158
 6915SOL    HW121644   0.773   5.559   1.077
 6915SOL    HW221645   0.719   5.611   1.222
 6916SOL     OW21646   6.582   1.923   0.260
 6916SOL    HW121647   6.615   1.830   0.242
 6916SOL    HW221648   6.646   1.969   0.322
 6917SOL     OW21649   4.330   6.429   6.180
 6917SOL    HW121650   4.399   6.444   6.250
 6917SOL    HW221651   4.242   6.406   6.222
 6918SOL     OW21652   1.926   2.995   3.852
 6918SOL    HW121653   1.884   3.082   3.878
 6918SOL    HW221654   1.985   3.008   3.772
 6919SOL     OW21655   1.983   6.471   3.247
 6919SOL    HW121656   1.914   6.542   3.265
 6919SOL    HW221657   2.054   6.507   3.187
 6920SOL     OW21658   5.200   6.312   4.244
 6920SOL    HW121659   5.171   6.363   4.163
 6920SOL    HW221660   5.167   6.359   4.327
 6921SOL     OW21661   0.450   0.397   3.041
 6921SOL    HW121662   0.536   0.448   3.044
 6921SOL    HW221663   0.395   0.429   2.964
 6922SOL     OW21664   2.238   6.493   0.274
 6922SOL    HW121665   2.328   6.453   0.262
 6922SOL    HW221666   2.228   6.525   0.369
 6923SOL     OW21667   5.188   0.378   3.887
 6923SOL    HW121668   5.088   0.385   3.892
 6923SOL    HW221669   5.227   0.401   3.976
 6924SOL     OW21670   0.447   5.799   1.085
 6924SOL    HW121671   0.379   5.835   1.021
 6924SOL    HW221672   0.446   5.699   1.081
 6925SOL     OW21673   5.102   5.723   2.203
 6925SOL    HW121674   5.118   5.632   2.165
 6925SOL    HW221675   5.184   5.753   2.253
 6926SOL     OW21676   2.888   3.494   4.650
 6926SOL    HW121677   2.958   3.520   4.583
 6926SOL    HW221678   2.803   3.470   4.602
 6927SOL     OW21679   4.413   3.933   6.035
 6927SOL    HW121680   4.325   3.979   6.023
 6927SOL    HW221681   4.460   3.930   5.947
 6928SOL     OW21682   5.390   0.430   6.520
 6928SOL    HW121683   5.415   0.523   6.545
 6928SOL    HW221684   5.315   0.399   6.578
 6929SOL     OW21685   3.737   5.226   6.899
 6929SOL    HW121686   3.770   5.158   6.963
 6929SOL    HW221687   3.652   5.194   6.856
 6930SOL     OW21688   0.659   0.016   3.486
 6930SOL    HW121689   0.637   6.962   3.548
 6930SOL    HW221690   0.729   0.074   3.528
 6931SOL     OW21691   1.817   1.334   1.379
 6931SOL    HW121692   1.903   1.376   1.352
 6931SOL    HW221693   1.835   1.248   1.428
 6932SOL     OW21694   2.828   2.466   0.795
 6932SOL    HW121695   2.823   2.493   0.891
 6932SOL    HW221696   2.737   2.439   0.763
 6933SOL     OW21697   3.655   6.359   5.866
 6933SOL    HW121698   3.734   6.420   5.879
 6933SOL    HW221699   3.688   6.269   5.839
 6934SOL     OW21700   5.708   3.182   6.853
 6934SOL    HW121701   5.715   3.124   6.934
 6934SOL    HW221702   5.612   3.195   6.829
 6935SOL     OW21703   4.105   5.499   3.400
 6935SOL    HW121704   4.058   5.540   3.322
 6935SOL    HW221705   4.181   5.557   3.428
 6936SOL     OW21706   1.577   4.171   1.082
 6936SOL    HW121707   1.517   4.097   1.051
 6936SOL    HW221708   1.626   4.141   1.164
 6937SOL     OW21709   3.992   7.012   5.612
 6937SOL    HW121710   4.030   6.920   5.625
 6937SOL    HW221711   3.911   7.007   5.554
 6938SOL     OW21712   4.748   2.264   5.292
 6938SOL    HW121713   4.795   2.349   5.268
 6938SOL    HW221714   4.650   2.275   5.274
 6939SOL     OW21715   0.591   4.387   2.722
 6939SOL    HW121716   0.594   4.288   2.734
 6939SOL    HW221717   0.524   4.410   2.652
 6940SOL     OW21718   4.890   1.063   4.665
 6940SOL    HW121719   4.908   1.005   4.744
 6940SOL    HW221720   4.859   1.006   4.589
 6941SOL     OW21721   3.863   3.044   3.372
 6941SOL    HW121722   3.779   3.099   3.373
 6941SOL    HW221723   3.915   3.064   3.289
 6942SOL     OW21724   0.029   2.067   6.974
 6942SOL    HW121725   6.980   2.052   0.022
 6942SOL    HW221726   0.004   2.144   6.916
 6943SOL     OW21727   4.805   5.971   6.116
 6943SOL    HW121728   4.844   5.888   6.076
 6943SOL    HW221729   4.873   6.015   6.174
 6944SOL     OW21730   1.408   6.300   5.967
 6944SOL    HW121731   1.397   6.201   5.968
 6944SOL    HW221732   1.322   6.344   5.993
 6945SOL     OW21733   5.562   3.016   6.028
 6945SOL    HW121734   5.657   3.009   6.058
 6945SOL    HW221735   5.557   3.000   5.929
 6946SOL     OW21736   5.101   4.444   2.638
 6946SOL    HW121737   5.166   4.465   2.565
 6946SOL    HW221738   5.034   4.378   2.605
 6947SOL     OW21739   3.828   6.505   2.994
 6947SOL    HW121740   3.775   6.583   3.026
 6947SOL    HW221741   3.771   6.445   2.939
 6948SOL     OW21742   4.175   1.062   5.549
 6948SOL    HW121743   4.194   1.051   5.452
 6948SOL    HW221744   4.230   0.998   5.602
 6949SOL     OW21745   5.336   0.275   2.477
 6949SOL    HW121746   5.431   0.285   2.505
 6949SOL    HW221747   5.281   0.349   2.516
 6950SOL     OW21748   2.251   0.257   3.004
 6950SOL    HW121749   2.335   0.205   2.987
 6950SOL    HW221750   2.202   0.216   3.080
 6951SOL     OW21751   6.273   5.297   6.257
 6951SOL    HW121752   6.197   5.340   6.307
 6951SOL    HW221753   6.337   5.256   6.322
 6952SOL     OW21754   0.561   4.781   4.692
 6952SOL    HW121755   0.640   4.720   4.696
 6952SOL    HW221756   0.588   4.867   4.648
 6953SOL     OW21757   4.939   1.430   5.032
 6953SOL    HW121758   5.017   1.367   5.024
 6953SOL    HW221759   4.960   1.516   4.987
 6954SOL     OW21760   0.317   3.936   3.440
 6954SOL    HW121761   0.411   3.922   3.409
 6954SOL    HW221762   0.258   3.866   3.400
 6955SOL     OW21763   0.108   5.809   1.948
 6955SOL    HW121764   0.009   5.816   1.955
 6955SOL    HW221765   0.150   5.893   1.983
 6956SOL     OW21766   3.689   4.798   1.534
 6956SOL    HW121767   3.612   4.852   1.569
 6956SOL    HW221768   3.760   4.860   1.499
 6957SOL     OW21769   0.586   4.634   0.797
 6957SOL    HW121770   0.683   4.643   0.819
 6957SOL    HW221771   0.534   4.701   0.850
 6958SOL     OW21772   2.802   3.625   6.740
 6958SOL    HW121773   2.893   3.660   6.763
 6958SOL    HW221774   2.739   3.701   6.730
 6959SOL     OW21775   2.753   0.837   4.331
 6959SOL    HW121776   2.687   0.912   4.339
 6959SOL    HW221777   2.838   0.871   4.290
 6960SOL     OW21778   0.651   4.669   6.507
 6960SOL    HW121779   0.711   4.603   6.553
 6960SOL    HW221780   0.685   4.762   6.524
 6961SOL     OW21781   0.014   0.610   2.837
 6961SOL    HW121782   0.066   0.651   2.761
 6961SOL    HW221783   6.979   0.535   2.802
 6962SOL     OW21784   4.597   4.112   1.184
 6962SOL    HW121785   4.684   4.084   1.224
 6962SOL    HW221786   4.585   4.211   1.197
 6963SOL     OW21787   6.988   5.176   1.786
 6963SOL    HW121788   6.918   5.150   1.720
 6963SOL    HW221789   7.008   5.274   1.777
 6964SOL     OW21790   4.223   5.751   5.435
 6964SOL    HW121791   4.193   5.823   5.374
 6964SOL    HW221792   4.190   5.769   5.528
 6965SOL     OW21793   6.736   2.838   5.859
 6965SOL    HW121794   6.818   2.862   5.807
 6965SOL    HW221795   6.677   2.919   5.868
 6966SOL     OW21796   4.653   2.787   4.019
 6966SOL    HW121797   4.733   2.759   4.072
 6966SOL    HW221798   4.632   2.882   4.039
 6967SOL     OW21799   1.829   0.961   5.959
 6967SOL    HW121800   1.867   1.008   6.038
 6967SOL    HW221801   1.730   0.972   5.958
 6968SOL     OW21802   5.281   6.130   2.079
 6968SOL    HW121803   5.355   6.196   2.092
 6968SOL    HW221804   5.193   6.176   2.092
 6969SOL     OW21805   3.091   2.353   1.214
 6969SOL    HW121806   3.104   2.255   1.227
 6969SOL    HW221807   3.135   2.403   1.289
 6970SOL     OW21808   4.872   4.509   6.958
 6970SOL    HW121809   4.829   4.501   6.868
 6970SOL    HW221810   4.818   4.457   0.003
 6971SOL     OW21811   5.027   0.364   1.100
 6971SOL    HW121812   4.990   0.454   1.078
 6971SOL    HW221813   4.981   0.329   1.182
 6972SOL     OW21814   5.975   5.196   4.253
 6972SOL    HW121815   6.005   5.233   4.341
 6972SOL    HW221816   5.883   5.160   4.261
 6973SOL     OW21817   1.492   4.370   3.015
 6973SOL    HW121818   1.396   4.365   2.989
 6973SOL    HW221819   1.545   4.405   2.937
 6974SOL     OW21820   3.463   3.801   4.471
 6974SOL    HW121821   3.525   3.858   4.417
 6974SOL    HW221822   3.438   3.719   4.418
 6975SOL     OW21823   3.693   0.771   5.899
 6975SOL    HW121824   3.778   0.813   5.932
 6975SOL    HW221825   3.706   0.738   5.806
 6976SOL     OW21826   1.891   4.670   6.145
 6976SOL    HW121827   1.827   4.739   6.111
 6976SOL    HW221828   1.871   4.649   6.240
 6977SOL     OW21829   3.208   2.134   2.875
 6977SOL    HW121830   3.214   2.046   2.922
 6977SOL    HW221831   3.281   2.141   2.808
 6978SOL     OW21832   6.361   0.705   1.910
 6978SOL    HW121833   6.339   0.718   2.007
 6978SOL    HW221834   6.324   0.781   1.857
 6979SOL     OW21835   0.320   4.993   2.648
 6979SOL    HW121836   0.326   5.036   2.738
 6979SOL    HW221837   0.359   4.901   2.653
 6980SOL     OW21838   3.421   1.019   4.662
 6980SOL    HW121839   3.381   1.047   4.575
 6980SOL    HW221840   3.484   0.943   4.647
 6981SOL     OW21841   2.225   5.694   0.501
 6981SOL    HW121842   2.158   5.640   0.450
 6981SOL    HW221843   2.179   5.767   0.551
 6982SOL     OW21844   0.531   0.540   4.963
 6982SOL    HW121845   0.464   0.473   4.931
 6982SOL    HW221846   0.516   0.626   4.915
 6983SOL     OW21847   6.559   0.430   4.454
 6983SOL    HW121848   6.615   0.450   4.534
 6983SOL    HW221849   6.553   0.330   4.441
 6984SOL     OW21850   1.354   0.828   6.190
 6984SOL    HW121851   1.319   0.735   6.204
 6984SOL    HW221852   1.291   0.893   6.232
 6985SOL     OW21853   4.969   5.940   2.058
 6985SOL    HW121854   4.961   6.015   2.123
 6985SOL    HW221855   4.988   5.855   2.107
 6986SOL     OW21856   2.429   6.628   5.628
 6986SOL    HW121857   2.478   6.707   5.592
 6986SOL    HW221858   2.410   6.642   5.725
 6987SOL     OW21859   0.548   3.644   6.614
 6987SOL    HW121860   0.461   3.694   6.616
 6987SOL    HW221861   0.623   3.705   6.640
 6988SOL     OW21862   5.109   0.984   3.928
 6988SOL    HW121863   5.121   1.070   3.879
 6988SOL    HW221864   5.136   0.908   3.869
 6989SOL     OW21865   1.597   2.435   4.146
 6989SOL    HW121866   1.518   2.374   4.160
 6989SOL    HW221867   1.679   2.380   4.132
 6990SOL     OW21868   3.649   3.281   6.892
 6990SOL    HW121869   3.555   3.310   6.872
 6990SOL    HW221870   3.661   3.274   6.991
 6991SOL     OW21871   3.225   4.251   5.591
 6991SOL    HW121872   3.252   4.207   5.505
 6991SOL    HW221873   3.293   4.229   5.661
 6992SOL     OW21874   5.569   6.759   3.557
 6992SOL    HW121875   5.476   6.767   3.591
 6992SOL    HW221876   5.590   6.838   3.499
 6993SOL     OW21877   0.289   0.188   3.224
 6993SOL    HW121878   0.203   0.203   3.175
 6993SOL    HW221879   0.355   0.259   3.198
 6994SOL     OW21880   1.065   3.099   6.315
 6994SOL    HW121881   1.143   3.060   6.365
 6994SOL    HW221882   1.088   3.107   6.218
 6995SOL     OW21883   6.591   5.756   3.233
 6995SOL    HW121884   6.621   5.671   3.276
 6995SOL    HW221885   6.672   5.808   3.203
 6996SOL     OW21886   2.184   0.120   5.230
 6996SOL    HW121887   2.097   0.124   5.278
 6996SOL    HW221888   2.220   0.213   5.218
 6997SOL     OW21889   4.804   0.500   5.185
 6997SOL    HW121890   4.776   0.596   5.189
 6997SOL    HW221891   4.772   0.453   5.267
 6998SOL     OW21892   0.836   2.746   3.437
 6998SOL    HW121893   0.772   2.777   3.509
 6998SOL    HW221894   0.906   2.688   3.478
 6999SOL     OW21895   3.321   1.828   5.494
 6999SOL    HW121896   3.358   1.884   5.420
 6999SOL    HW221897   3.223   1.817   5.482
 7000SOL     OW21898   0.607   6.480   3.000
 7000SOL    HW121899   0.570   6.498   2.909
 7000SOL    HW221900   0.673   6.405   2.995
 7001SOL     OW21901   2.368   2.538   5.643
 7001SOL    HW121902   2.369   2.606   5.717
 7001SOL    HW221903   2.380   2.447   5.682
 7002SOL     OW21904   1.778   4.818   3.480
 7002SOL    HW121905   1.737   4.908   3.465
 7002SOL    HW221906   1.707   4.748   3.477
 7003SOL     OW21907   2.452   5.983   0.966
 7003SOL    HW121908   2.453   5.885   0.988
 7003SOL    HW221909   2.413   5.996   0.875
 7004SOL     OW21910   1.441   4.382   0.989
 7004SOL    HW121911   1.523   4.328   1.010
 7004SOL    HW221912   1.411   4.362   0.895
 7005SOL     OW21913   5.054   6.119   5.522
 7005SOL    HW121914   5.150   6.120   5.549
 7005SOL    HW221915   4.997   6.133   5.603
 7006SOL     OW21916   4.368   4.736   4.820
 7006SOL    HW121917   4.355   4.684   4.736
 7006SOL    HW221918   4.343   4.679   4.899
 7007SOL     OW21919   4.628   5.215   3.137
 7007SOL    HW121920   4.714   5.191   3.092
 7007SOL    HW221921   4.555   5.153   3.106
 7008SOL     OW21922   1.016   4.891   3.907
 7008SOL    HW121923   0.950   4.821   3.879
 7008SOL    HW221924   0.967   4.971   3.940
 7009SOL     OW21925   0.624   4.477   2.114
 7009SOL    HW121926   0.639   4.565   2.159
 7009SOL    HW221927   0.532   4.475   2.074
 7010SOL     OW21928   3.286   4.649   5.769
 7010SOL    HW121929   3.369   4.660   5.715
 7010SOL    HW221930   3.263   4.736   5.814
 7011SOL     OW21931   2.671   0.799   5.838
 7011SOL    HW121932   2.761   0.820   5.799
 7011SOL    HW221933   2.601   0.846   5.785
 7012SOL     OW21934   1.013   1.103   1.739
 7012SOL    HW121935   1.106   1.069   1.732
 7012SOL    HW221936   0.988   1.150   1.654
 7013SOL     OW21937   1.134   0.729   2.059
 7013SOL    HW121938   1.059   0.713   2.123
 7013SOL    HW221939   1.136   0.654   1.992
 7014SOL     OW21940   2.900   4.173   1.243
 7014SOL    HW121941   2.833   4.139   1.177
 7014SOL    HW221942   2.883   4.131   1.332
 7015SOL     OW21943   5.575   2.608   2.472
 7015SOL    HW121944   5.526   2.541   2.416
 7015SOL    HW221945   5.630   2.561   2.540
 7016SOL     OW21946   4.176   5.181   1.108
 7016SOL    HW121947   4.220   5.195   1.196
 7016SOL    HW221948   4.235   5.214   1.035
 7017SOL     OW21949   3.489   1.347   3.382
 7017SOL    HW121950   3.400   1.338   3.425
 7017SOL    HW221951   3.487   1.302   3.292
 7018SOL     OW21952   0.349   4.642   4.608
 7018SOL    HW121953   0.278   4.609   4.671
 7018SOL    HW221954   0.429   4.672   4.661
 7019SOL     OW21955   2.255   6.051   0.059
 7019SOL    HW121956   2.300   6.070   6.994
 7019SOL    HW221957   2.237   5.953   0.066
 7020SOL     OW21958   6.043   6.683   6.305
 7020SOL    HW121959   5.956   6.635   6.313
 7020SOL    HW221960   6.027   6.779   6.282
 7021SOL     OW21961   2.702   1.599   6.252
 7021SOL    HW121962   2.625   1.568   6.197
 7021SOL    HW221963   2.717   1.697   6.237
 7022SOL     OW21964   5.424   4.567   0.418
 7022SOL    HW121965   5.398   4.498   0.351
 7022SOL    HW221966   5.436   4.655   0.373
 7023SOL     OW21967   6.041   3.663   2.697
 7023SOL    HW121968   6.093   3.702   2.621
 7023SOL    HW221969   6.025   3.734   2.765
 7024SOL     OW21970   1.258   5.979   0.651
 7024SOL    HW121971   1.180   5.994   0.711
 7024SOL    HW221972   1.246   5.892   0.601
 7025SOL     OW21973   2.838   2.287   6.454
 7025SOL    HW121974   2.745   2.288   6.491
 7025SOL    HW221975   2.887   2.209   6.492
 7026SOL     OW21976   4.425   1.856   0.525
 7026SOL    HW121977   4.334   1.897   0.520
 7026SOL    HW221978   4.464   1.871   0.616
 7027SOL     OW21979   4.299   6.829   4.535
 7027SOL    HW121980   4.297   6.853   4.632
 7027SOL    HW221981   4.245   6.746   4.520
 7028SOL     OW21982   3.366   0.555   4.378
 7028SOL    HW121983   3.433   0.495   4.334
 7028SOL    HW221984   3.318   0.608   4.308
 7029SOL     OW21985   3.942   0.839   5.962
 7029SOL    HW121986   3.970   0.785   6.041
 7029SOL    HW221987   3.994   0.924   5.960
 7030SOL     OW21988   1.334   3.356   4.360
 7030SOL    HW121989   1.384   3.301   4.428
 7030SOL    HW221990   1.351   3.453   4.377
 7031SOL     OW21991   1.796   5.978   4.031
 7031SOL    HW121992   1.743   5.893   4.037
 7031SOL    HW221993   1.868   5.968   3.963
 7032SOL     OW21994   5.956   1.612   2.159
 7032SOL    HW121995   5.908   1.539   2.111
 7032SOL    HW221996   5.891   1.668   2.210
 7033SOL     OW21997   7.008   0.933   3.858
 7033SOL    HW121998   6.975   0.934   3.953
 7033SOL    HW221999   0.074   0.885   3.853
 7034SOL     OW22000   6.922   6.278   2.881
 7034SOL    HW122001   6.903   6.290   2.979
 7034SOL    HW222002   6.911   6.365   2.834
 7035SOL     OW22003   6.501   5.848   2.269
 7035SOL    HW122004   6.448   5.923   2.308
 7035SOL    HW222005   6.523   5.782   2.340
 7036SOL     OW22006   0.338   4.829   2.079
 7036SOL    HW122007   0.287   4.903   2.035
 7036SOL    HW222008   0.353   4.851   2.175
 7037SOL     OW22009   1.638   6.484   6.340
 7037SOL    HW122010   1.643   6.577   6.377
 7037SOL    HW222011   1.651   6.418   6.414
 7038SOL     OW22012   0.844   4.385   4.074
 7038SOL    HW122013   0.887   4.295   4.073
 7038SOL    HW222014   0.747   4.376   4.050
 7039SOL     OW22015   3.553   1.492   7.010
 7039SOL    HW122016   3.469   1.495   0.042
 7039SOL    HW222017   3.599   1.581   7.016
 7040SOL     OW22018   5.025   1.944   6.100
 7040SOL    HW122019   4.949   2.005   6.077
 7040SOL    HW222020   5.003   1.891   6.181
 7041SOL     OW22021   2.011   1.951   2.577
 7041SOL    HW122022   1.969   2.022   2.520
 7041SOL    HW222023   2.034   1.872   2.521
 7042SOL     OW22024   2.930   6.929   6.882
 7042SOL    HW122025   2.917   6.868   6.804
 7042SOL    HW222026   2.968   6.878   6.959
 7043SOL     OW22027   2.715   1.469   2.945
 7043SOL    HW122028   2.653   1.483   2.868
 7043SOL    HW222029   2.746   1.558   2.980
 7044SOL     OW22030   4.624   5.156   2.762
 7044SOL    HW122031   4.646   5.072   2.813
 7044SOL    HW222032   4.678   5.232   2.799
 7045SOL     OW22033   5.607   5.464   1.166
 7045SOL    HW122034   5.624   5.393   1.235
 7045SOL    HW222035   5.638   5.553   1.202
 7046SOL     OW22036   3.780   0.459   5.139
 7046SOL    HW122037   3.734   0.394   5.200
 7046SOL    HW222038   3.879   0.451   5.151
 7047SOL     OW22039   1.411   0.949   4.414
 7047SOL    HW122040   1.395   1.018   4.344
 7047SOL    HW222041   1.495   0.970   4.464
 7048SOL     OW22042   6.386   5.872   0.352
 7048SOL    HW122043   6.311   5.878   0.419
 7048SOL    HW222044   6.381   5.948   0.288
 7049SOL     OW22045   2.686   1.563   0.692
 7049SOL    HW122046   2.784   1.550   0.673
 7049SOL    HW222047   2.634   1.488   0.650
 7050SOL     OW22048   4.029   3.757   4.477
 7050SOL    HW122049   4.102   3.806   4.428
 7050SOL    HW222050   4.031   3.660   4.451
 7051SOL     OW22051   0.260   6.715   2.388
 7051SOL    HW122052   0.297   6.798   2.430
 7051SOL    HW222053   0.332   6.646   2.381
 7052SOL     OW22054   0.029   1.950   3.706
 7052SOL    HW122055   0.096   1.904   3.647
 7052SOL    HW222056   0.013   2.042   3.671
 7053SOL     OW22057   0.652   4.747   6.232
 7053SOL    HW122058   0.665   4.657   6.275
 7053SOL    HW222059   0.644   4.735   6.133
 7054SOL     OW22060   6.951   6.514   1.527
 7054SOL    HW122061   6.907   6.426   1.509
 7054SOL    HW222062   6.888   6.588   1.501
 7055SOL     OW22063   4.036   0.184   4.297
 7055SOL    HW122064   4.056   0.279   4.273
 7055SOL    HW222065   3.937   0.170   4.300
 7056SOL     OW22066   5.268   4.711   4.249
 7056SOL    HW122067   5.172   4.722   4.275
 7056SOL    HW222068   5.297   4.617   4.268
 7057SOL     OW22069   0.343   5.532   3.564
 7057SOL    HW122070   0.291   5.595   3.506
 7057SOL    HW222071   0.285   5.454   3.588
 7058SOL     OW22072   1.125   5.150   5.491
 7058SOL    HW122073   1.061   5.082   5.526
 7058SOL    HW222074   1.218   5.116   5.501
 7059SOL     OW22075   1.469   0.430   2.522
 7059SOL    HW122076   1.394   0.453   2.460
 7059SOL    HW222077   1.433   0.416   2.614
 7060SOL     OW22078   3.213   6.339   1.951
 7060SOL    HW122079   3.284   6.373   2.013
 7060SOL    HW222080   3.256   6.291   1.875
 7061SOL     OW22081   0.564   0.801   2.426
 7061SOL    HW122082   0.566   0.900   2.417
 7061SOL    HW222083   0.555   0.776   2.523
 7062SOL     OW22084   5.738   2.316   5.013
 7062SOL    HW122085   5.660   2.323   4.950
 7062SOL    HW222086   5.744   2.400   5.067
 7063SOL     OW22087   3.332   6.454   1.088
 7063SOL    HW122088   3.250   6.474   1.141
 7063SOL    HW222089   3.314   6.378   1.026
 7064SOL     OW22090   3.725   2.387   1.164
 7064SOL    HW122091   3.696   2.474   1.203
 7064SOL    HW222092   3.718   2.316   1.234
 7065SOL     OW22093   4.969   3.948   1.714
 7065SOL    HW122094   5.059   3.947   1.670
 7065SOL    HW222095   4.902   3.986   1.651
 7066SOL     OW22096   3.611   6.749   0.995
 7066SOL    HW122097   3.618   6.651   0.975
 7066SOL    HW222098   3.567   6.796   0.919
 7067SOL     OW22099   0.324   3.636   5.718
 7067SOL    HW122100   0.366   3.721   5.749
 7067SOL    HW222101   0.392   3.562   5.717
 7068SOL     OW22102   2.108   1.319   4.003
 7068SOL    HW122103   2.110   1.413   4.036
 7068SOL    HW222104   2.202   1.285   3.991
 7069SOL     OW22105   0.946   4.637   4.988
 7069SOL    HW122106   0.863   4.584   4.969
 7069SOL    HW222107   0.970   4.691   4.908
 7070SOL     OW22108   5.929   5.417   4.891
 7070SOL    HW122109   6.023   5.383   4.888
 7070SOL    HW222110   5.866   5.342   4.873
 7071SOL     OW22111   1.394   6.308   5.193
 7071SOL    HW122112   1.484   6.348   5.212
 7071SOL    HW222113   1.406   6.221   5.146
 7072SOL     OW22114   0.604   6.742   6.649
 7072SOL    HW122115   0.701   6.720   6.638
 7072SOL    HW222116   0.551   6.688   6.584
 7073SOL     OW22117   0.992   0.154   5.717
 7073SOL    HW122118   1.032   0.077   5.766
 7073SOL    HW222119   0.915   0.191   5.769
 7074SOL     OW22120   3.178   1.788   1.252
 7074SOL    HW122121   3.195   1.703   1.202
 7074SOL    HW222122   3.094   1.779   1.306
 7075SOL     OW22123   1.633   5.995   3.160
 7075SOL    HW122124   1.658   5.930   3.088
 7075SOL    HW222125   1.704   6.064   3.169
 7076SOL     OW22126   2.852   2.678   6.583
 7076SOL    HW122127   2.846   2.760   6.526
 7076SOL    HW222128   2.947   2.654   6.598
 7077SOL     OW22129   2.453   5.629   5.536
 7077SOL    HW122130   2.361   5.669   5.539
 7077SOL    HW222131   2.520   5.702   5.550
 7078SOL     OW22132   5.848   0.884   3.323
 7078SOL    HW122133   5.901   0.928   3.251
 7078SOL    HW222134   5.816   0.952   3.389
 7079SOL     OW22135   6.231   6.122   5.864
 7079SOL    HW122136   6.157   6.121   5.932
 7079SOL    HW222137   6.222   6.043   5.804
 7080SOL     OW22138   4.626   1.697   4.050
 7080SOL    HW122139   4.670   1.710   4.139
 7080SOL    HW222140   4.527   1.694   4.062
 7081SOL     OW22141   3.566   1.543   5.355
 7081SOL    HW122142   3.651   1.595   5.361
 7081SOL    HW222143   3.581   1.462   5.298
 7082SOL     OW22144   5.435   0.808   6.062
 7082SOL    HW122145   5.391   0.724   6.093
 7082SOL    HW222146   5.462   0.863   6.142
 7083SOL     OW22147   3.275   6.864   6.701
 7083SOL    HW122148   3.368   6.829   6.684
 7083SOL    HW222149   3.211   6.787   6.703
 7084SOL     OW22150   6.670   6.192   6.236
 7084SOL    HW122151   6.648   6.192   6.139
 7084SOL    HW222152   6.630   6.111   6.280
 7085SOL     OW22153   1.941   2.082   1.965
 7085SOL    HW122154   1.857   2.029   1.959
 7085SOL    HW222155   1.928   2.159   2.027
 7086SOL     OW22156   5.541   0.314   6.346
 7086SOL    HW122157   5.481   0.363   6.410
 7086SOL    HW222158   5.630   0.299   6.390
 7087SOL     OW22159   1.370   3.253   4.120
 7087SOL    HW122160   1.358   3.284   4.214
 7087SOL    HW222161   1.425   3.170   4.118
 7088SOL     OW22162   6.019   3.535   4.774
 7088SOL    HW122163   6.050   3.600   4.844
 7088SOL    HW222164   5.957   3.469   4.817
 7089SOL     OW22165   2.945   1.960   0.006
 7089SOL    HW122166   2.966   1.998   6.937
 7089SOL    HW222167   3.027   1.962   0.063
 7090SOL     OW22168   2.505   2.205   5.169
 7090SOL    HW122169   2.429   2.268   5.184
 7090SOL    HW222170   2.492   2.123   5.226
 7091SOL     OW22171   6.792   0.197   0.391
 7091SOL    HW122172   6.882   0.153   0.385
 7091SOL    HW222173   6.796   0.272   0.457
 7092SOL     OW22174   3.438   3.824   1.251
 7092SOL    HW122175   3.365   3.765   1.285
 7092SOL    HW222176   3.526   3.778   1.258
 7093SOL     OW22177   3.244   4.101   4.785
 7093SOL    HW122178   3.173   4.089   4.853
 7093SOL    HW222179   3.202   4.121   4.696
 7094SOL     OW22180   0.824   0.232   5.514
 7094SOL    HW122181   0.895   0.203   5.578
 7094SOL    HW222182   0.845   0.196   5.423
 7095SOL     OW22183   0.631   3.163   6.358
 7095SOL    HW122184   0.691   3.172   6.278
 7095SOL    HW222185   0.537   3.147   6.327
 7096SOL     OW22186   4.440   2.203   3.623
 7096SOL    HW122187   4.343   2.194   3.601
 7096SOL    HW222188   4.494   2.147   3.560
 7097SOL     OW22189   0.079   0.904   1.517
 7097SOL    HW122190   0.026   0.832   1.472
 7097SOL    HW222191   0.174   0.874   1.529
 7098SOL     OW22192   2.088   6.281   6.334
 7098SOL    HW122193   2.183   6.258   6.355
 7098SOL    HW222194   2.069   6.375   6.362
 7099SOL     OW22195   0.908   1.203   6.300
 7099SOL    HW122196   0.948   1.202   6.391
 7099SOL    HW222197   0.980   1.205   6.231
 7100SOL     OW22198   5.290   3.719   1.120
 7100SOL    HW122199   5.316   3.632   1.163
 7100SOL    HW222200   5.361   3.787   1.136
 7101SOL     OW22201   2.981   0.413   5.508
 7101SOL    HW122202   2.973   0.389   5.411
 7101SOL    HW222203   2.947   0.506   5.522
 7102SOL     OW22204   3.970   1.563   0.761
 7102SOL    HW122205   3.954   1.654   0.722
 7102SOL    HW222206   3.968   1.569   0.860
 7103SOL     OW22207   3.321   6.471   0.286
 7103SOL    HW122208   3.415   6.487   0.253
 7103SOL    HW222209   3.308   6.519   0.374
 7104SOL     OW22210   1.152   1.964   3.064
 7104SOL    HW122211   1.249   1.947   3.078
 7104SOL    HW222212   1.115   2.014   3.142
 7105SOL     OW22213   3.454   3.675   4.851
 7105SOL    HW122214   3.542   3.667   4.805
 7105SOL    HW222215   3.468   3.710   4.944
 7106SOL     OW22216   3.641   2.857   5.100
 7106SOL    HW122217   3.717   2.909   5.139
 7106SOL    HW222218   3.616   2.782   5.161
 7107SOL     OW22219   2.464   2.305   0.388
 7107SOL    HW122220   2.415   2.359   0.320
 7107SOL    HW222221   2.537   2.360   0.428
 7108SOL     OW22222   5.476   6.672   1.413
 7108SOL    HW122223   5.552   6.675   1.349
 7108SOL    HW222224   5.408   6.606   1.381
 7109SOL     OW22225   3.585   0.328   6.428
 7109SOL    HW122226   3.630   0.363   6.346
 7109SOL    HW222227   3.544   0.239   6.409
 7110SOL     OW22228   4.821   5.351   4.331
 7110SOL    HW122229   4.883   5.279   4.299
 7110SOL    HW222230   4.812   5.346   4.430
 7111SOL     OW22231   2.245   2.992   4.369
 7111SOL    HW122232   2.181   3.036   4.431
 7111SOL    HW222233   2.210   2.996   4.275
 7112SOL     OW22234   1.131   6.664   3.658
 7112SOL    HW122235   1.143   6.570   3.626
 7112SOL    HW222236   1.091   6.719   3.585
 7113SOL     OW22237   3.647   3.612   4.271
 7113SOL    HW122238   3.684   3.519   4.274
 7113SOL    HW222239   3.550   3.610   4.298
 7114SOL     OW22240   4.347   1.114   1.563
 7114SOL    HW122241   4.419   1.111   1.493
 7114SOL    HW222242   4.374   1.059   1.642
 7115SOL     OW22243   4.809   1.633   1.417
 7115SOL    HW122244   4.854   1.722   1.422
 7115SOL    HW222245   4.737   1.635   1.348
 7116SOL     OW22246   5.197   4.045   3.136
 7116SOL    HW122247   5.226   4.138   3.159
 7116SOL    HW222248   5.277   3.988   3.117
 7117SOL     OW22249   6.326   6.572   2.222
 7117SOL    HW122250   6.385   6.626   2.280
 7117SOL    HW222251   6.364   6.480   2.210
 7118SOL     OW22252   6.046   3.491   1.089
 7118SOL    HW122253   6.043   3.391   1.086
 7118SOL    HW222254   5.971   3.528   1.034
 7119SOL     OW22255   6.505   1.237   3.416
 7119SOL    HW122256   6.564   1.160   3.440
 7119SOL    HW222257   6.422   1.203   3.372
 7120SOL     OW22258   4.498   1.375   3.540
 7120SOL    HW122259   4.566   1.427   3.591
 7120SOL    HW222260   4.406   1.404   3.567
 7121SOL     OW22261   2.781   6.638   3.584
 7121SOL    HW122262   2.854   6.592   3.533
 7121SOL    HW222263   2.692   6.608   3.549
 7122SOL     OW22264   6.723   0.783   6.799
 7122SOL    HW122265   6.675   0.768   6.885
 7122SOL    HW222266   6.789   0.709   6.784
 7123SOL     OW22267   3.289   5.007   1.206
 7123SOL    HW122268   3.200   4.971   1.235
 7123SOL    HW222269   3.284   5.036   1.110
 7124SOL     OW22270   0.259   5.072   0.121
 7124SOL    HW122271   0.253   5.150   0.184
 7124SOL    HW222272   0.217   4.992   0.164
 7125SOL     OW22273   6.660   6.206   2.450
 7125SOL    HW122274   6.566   6.173   2.440
 7125SOL    HW222275   6.679   6.274   2.379
 7126SOL     OW22276   0.983   4.693   0.605
 7126SOL    HW122277   1.064   4.690   0.547
 7126SOL    HW222278   0.927   4.771   0.579
 7127SOL     OW22279   3.733   6.338   4.195
 7127SOL    HW122280   3.710   6.432   4.220
 7127SOL    HW222281   3.652   6.293   4.157
 7128SOL     OW22282   3.397   4.092   1.199
 7128SOL    HW122283   3.410   3.993   1.210
 7128SOL    HW222284   3.416   4.138   1.286
 7129SOL     OW22285   2.370   6.911   1.948
 7129SOL    HW122286   2.450   6.870   1.993
 7129SOL    HW222287   2.363   6.876   1.855
 7130SOL     OW22288   2.259   4.667   3.932
 7130SOL    HW122289   2.198   4.614   3.873
 7130SOL    HW222290   2.347   4.620   3.939
 7131SOL     OW22291   2.771   0.882   2.885
 7131SOL    HW122292   2.776   0.979   2.864
 7131SOL    HW222293   2.857   0.838   2.859
 7132SOL     OW22294   3.926   3.949   3.092
 7132SOL    HW122295   3.977   3.866   3.071
 7132SOL    HW222296   3.915   3.957   3.191
 7133SOL     OW22297   5.251   4.839   3.408
 7133SOL    HW122298   5.335   4.884   3.376
 7133SOL    HW222299   5.275   4.753   3.452
 7134SOL     OW22300   6.117   5.133   4.034
 7134SOL    HW122301   6.061   5.164   4.111
 7134SOL    HW222302   6.139   5.036   4.046
 7135SOL     OW22303   1.059   1.653   5.404
 7135SOL    HW122304   1.098   1.743   5.423
 7135SOL    HW222305   1.033   1.609   5.490
 7136SOL     OW22306   1.779   1.365   0.592
 7136SOL    HW122307   1.800   1.445   0.648
 7136SOL    HW222308   1.837   1.366   0.510
 7137SOL     OW22309   4.488   0.695   4.625
 7137SOL    HW122310   4.521   0.602   4.610
 7137SOL    HW222311   4.561   0.751   4.663
 7138SOL     OW22312   2.347   4.002   1.502
 7138SOL    HW122313   2.312   4.095   1.499
 7138SOL    HW222314   2.366   3.970   1.409
 7139SOL     OW22315   4.628   2.990   1.383
 7139SOL    HW122316   4.590   3.002   1.474
 7139SOL    HW222317   4.586   3.056   1.320
 7140SOL     OW22318   6.068   4.260   5.337
 7140SOL    HW122319   6.152   4.311   5.349
 7140SOL    HW222320   6.070   4.178   5.395
 7141SOL     OW22321   3.043   6.691   0.849
 7141SOL    HW122322   3.022   6.757   0.920
 7141SOL    HW222323   3.135   6.654   0.864
 7142SOL     OW22324   4.083   6.494   3.914
 7142SOL    HW122325   4.140   6.545   3.978
 7142SOL    HW222326   3.995   6.540   3.904
 7143SOL     OW22327   1.280   3.780   6.156
 7143SOL    HW122328   1.350   3.846   6.182
 7143SOL    HW222329   1.247   3.732   6.238
 7144SOL     OW22330   0.911   1.607   3.341
 7144SOL    HW122331   0.963   1.611   3.426
 7144SOL    HW222332   0.961   1.553   3.274
 7145SOL     OW22333   4.981   0.007   6.890
 7145SOL    HW122334   5.056   7.013   6.826
 7145SOL    HW222335   5.011   7.009   6.983
 7146SOL     OW22336   3.055   5.549   0.096
 7146SOL    HW122337   2.960   5.576   0.111
 7146SOL    HW222338   3.065   5.512   0.003
 7147SOL     OW22339   0.051   0.461   3.066
 7147SOL    HW122340   0.043   0.521   2.986
 7147SOL    HW222341   0.143   0.470   3.105
 7148SOL     OW22342   1.302   0.542   1.607
 7148SOL    HW122343   1.321   0.449   1.575
 7148SOL    HW222344   1.305   0.605   1.530
 7149SOL     OW22345   6.223   1.142   3.374
 7149SOL    HW122346   6.230   1.064   3.311
 7149SOL    HW222347   6.140   1.193   3.354
 7150SOL     OW22348   6.223   2.725   6.723
 7150SOL    HW122349   6.305   2.781   6.714
 7150SOL    HW222350   6.174   2.752   6.806
 7151SOL     OW22351   2.926   5.925   1.813
 7151SOL    HW122352   2.841   5.954   1.856
 7151SOL    HW222353   2.995   5.997   1.823
 7152SOL     OW22354   1.619   2.624   3.951
 7152SOL    HW122355   1.568   2.576   3.879
 7152SOL    HW222356   1.611   2.572   4.037
 7153SOL     OW22357   4.140   1.601   3.952
 7153SOL    HW122358   4.101   1.510   3.935
 7153SOL    HW222359   4.230   1.607   3.909
 7154SOL     OW22360   4.564   5.657   4.098
 7154SOL    HW122361   4.620   5.731   4.061
 7154SOL    HW222362   4.507   5.692   4.172
 7155SOL     OW22363   1.475   0.339   1.664
 7155SOL    HW122364   1.548   0.360   1.598
 7155SOL    HW222365   1.501   0.372   1.754
 7156SOL     OW22366   6.677   5.192   4.755
 7156SOL    HW122367   6.757   5.198   4.696
 7156SOL    HW222368   6.706   5.202   4.851
 7157SOL     OW22369   5.020   5.172   0.723
 7157SOL    HW122370   5.014   5.129   0.813
 7157SOL    HW222371   5.057   5.264   0.732
 7158SOL     OW22372   6.828   6.721   3.189
 7158SOL    HW122373   6.922   6.745   3.215
 7158SOL    HW222374   6.770   6.723   3.270
 7159SOL     OW22375   0.811   5.405   0.311
 7159SOL    HW122376   0.739   5.366   0.253
 7159SOL    HW222377   0.818   5.351   0.395
 7160SOL     OW22378   6.181   0.857   1.773
 7160SOL    HW122379   6.113   0.784   1.772
 7160SOL    HW222380   6.136   0.944   1.794
 7161SOL     OW22381   3.488   3.197   4.187
 7161SOL    HW122382   3.477   3.098   4.191
 7161SOL    HW222383   3.585   3.220   4.194
 7162SOL     OW22384   3.451   4.923   3.899
 7162SOL    HW122385   3.542   4.897   3.867
 7162SOL    HW222386   3.444   5.023   3.900
 7163SOL     OW22387   3.139   0.308   3.224
 7163SOL    HW122388   3.234   0.340   3.230
 7163SOL    HW222389   3.115   0.291   3.129
 7164SOL     OW22390   2.063   1.039   2.892
 7164SOL    HW122391   2.102   1.071   2.978
 7164SOL    HW222392   2.136   1.003   2.833
 7165SOL     OW22393   5.352   1.020   0.981
 7165SOL    HW122394   5.446   0.993   0.960
 7165SOL    HW222395   5.350   1.117   1.004
 7166SOL     OW22396   5.319   5.090   0.536
 7166SOL    HW122397   5.274   5.037   0.608
 7166SOL    HW222398   5.348   5.178   0.572
 7167SOL     OW22399   4.871   3.147   4.988
 7167SOL    HW122400   4.916   3.191   4.910
 7167SOL    HW222401   4.914   3.179   5.073
 7168SOL     OW22402   0.989   0.412   3.802
 7168SOL    HW122403   0.997   0.404   3.902
 7168SOL    HW222404   0.932   0.491   3.779
 7169SOL     OW22405   1.817   2.775   5.410
 7169SOL    HW122406   1.811   2.829   5.495
 7169SOL    HW222407   1.732   2.723   5.399
 7170SOL     OW22408   6.043   5.208   3.787
 7170SOL    HW122409   5.971   5.150   3.748
 7170SOL    HW222410   6.081   5.163   3.868
 7171SOL     OW22411   4.513   3.175   5.497
 7171SOL    HW122412   4.557   3.249   5.445
 7171SOL    HW222413   4.494   3.207   5.590
 7172SOL     OW22414   1.563   6.902   0.074
 7172SOL    HW122415   1.631   6.829   0.075
 7172SOL    HW222416   1.602   6.986   0.112
 7173SOL     OW22417   0.038   6.292   5.448
 7173SOL    HW122418   0.033   6.254   5.540
 7173SOL    HW222419   0.105   6.367   5.446
 7174SOL     OW22420   1.972   5.266   6.863
 7174SOL    HW122421   1.881   5.285   6.899
 7174SOL    HW222422   1.975   5.288   6.765
 7175SOL     OW22423   5.849   3.965   6.892
 7175SOL    HW122424   5.935   3.939   6.849
 7175SOL    HW222425   5.825   4.058   6.865
 7176SOL     OW22426   5.995   4.320   1.214
 7176SOL    HW122427   5.995   4.226   1.181
 7176SOL    HW222428   5.906   4.362   1.195
 7177SOL     OW22429   1.082   5.178   2.875
 7177SOL    HW122430   1.036   5.201   2.789
 7177SOL    HW222431   1.053   5.240   2.947
 7178SOL     OW22432   0.661   2.586   5.141
 7178SOL    HW122433   0.750   2.541   5.150
 7178SOL    HW222434   0.633   2.624   5.229
 7179SOL     OW22435   2.588   4.254   5.701
 7179SOL    HW122436   2.653   4.250   5.625
 7179SOL    HW222437   2.533   4.171   5.703
 7180SOL     OW22438   0.906   5.986   2.073
 7180SOL    HW122439   0.817   5.956   2.036
 7180SOL    HW222440   0.891   6.047   2.150
 7181SOL     OW22441   4.756   0.303   1.240
 7181SOL    HW122442   4.806   0.253   1.311
 7181SOL    HW222443   4.731   0.394   1.274
 7182SOL     OW22444   2.521   4.127   5.369
 7182SOL    HW122445   2.462   4.199   5.405
 7182SOL    HW222446   2.475   4.079   5.294
 7183SOL     OW22447   1.419   4.879   3.222
 7183SOL    HW122448   1.409   4.974   3.193
 7183SOL    HW222449   1.442   4.822   3.143
 7184SOL     OW22450   2.389   6.436   4.257
 7184SOL    HW122451   2.297   6.396   4.254
 7184SOL    HW222452   2.394   6.513   4.194
 7185SOL     OW22453   4.314   2.889   6.977
 7185SOL    HW122454   4.372   2.969   6.969
 7185SOL    HW222455   4.232   2.912   0.008
 7186SOL     OW22456   6.666   6.025   5.512
 7186SOL    HW122457   6.741   6.043   5.576
 7186SOL    HW222458   6.579   6.026   5.562
 7187SOL     OW22459   1.916   4.098   2.055
 7187SOL    HW122460   1.964   4.121   1.970
 7187SOL    HW222461   1.964   4.023   2.101
 7188SOL     OW22462   5.025   1.659   2.220
 7188SOL    HW122463   5.121   1.668   2.193
 7188SOL    HW222464   4.976   1.606   2.151
 7189SOL     OW22465   0.443   1.667   5.597
 7189SOL    HW122466   0.346   1.667   5.622
 7189SOL    HW222467   0.498   1.661   5.680
 7190SOL     OW22468   5.417   4.225   3.367
 7190SOL    HW122469   5.414   4.129   3.341
 7190SOL    HW222470   5.511   4.259   3.358
 7191SOL     OW22471   1.540   3.745   2.157
 7191SOL    HW122472   1.559   3.653   2.192
 7191SOL    HW222473   1.603   3.767   2.083
 7192SOL     OW22474   2.599   4.425   5.925
 7192SOL    HW122475   2.618   4.512   5.879
 7192SOL    HW222476   2.612   4.350   5.861
 7193SOL     OW22477   4.275   2.303   4.239
 7193SOL    HW122478   4.287   2.360   4.158
 7193SOL    HW222479   4.178   2.297   4.262
 7194SOL     OW22480   2.263   2.033   1.715
 7194SOL    HW122481   2.304   2.023   1.624
 7194SOL    HW222482   2.332   2.065   1.779
 7195SOL     OW22483   1.114   5.458   1.002
 7195SOL    HW122484   1.151   5.369   0.975
 7195SOL    HW222485   1.167   5.531   0.959
 7196SOL     OW22486   2.952   3.672   2.272
 7196SOL    HW122487   3.034   3.727   2.289
 7196SOL    HW222488   2.901   3.713   2.196
 7197SOL     OW22489   6.861   2.042   5.260
 7197SOL    HW122490   6.858   2.107   5.336
 7197SOL    HW222491   6.839   2.090   5.175
 7198SOL     OW22492   1.259   6.210   6.624
 7198SOL    HW122493   1.248   6.306   6.596
 7198SOL    HW222494   1.333   6.169   6.571
 7199SOL     OW22495   6.738   6.655   2.948
 7199SOL    HW122496   6.755   6.723   2.876
 7199SOL    HW222497   6.807   6.665   3.020
 7200SOL     OW22498   1.857   0.981   0.951
 7200SOL    HW122499   1.849   0.951   1.046
 7200SOL    HW222500   1.933   1.045   0.942
 7201SOL     OW22501   1.865   3.791   4.140
 7201SOL    HW122502   1.852   3.692   4.134
 7201SOL    HW222503   1.957   3.810   4.175
 7202SOL     OW22504   3.758   0.946   6.907
 7202SOL    HW122505   3.665   0.983   6.907
 7202SOL    HW222506   3.763   0.869   6.844
 7203SOL     OW22507   5.518   1.216   6.845
 7203SOL    HW122508   5.503   1.241   6.941
 7203SOL    HW222509   5.439   1.242   6.791
 7204SOL     OW22510   5.720   1.232   3.378
 7204SOL    HW122511   5.812   1.271   3.373
 7204SOL    HW222512   5.683   1.221   3.286
 7205SOL     OW22513   2.048   4.911   2.423
 7205SOL    HW122514   2.102   4.965   2.358
 7205SOL    HW222515   2.062   4.814   2.404
 7206SOL     OW22516   6.524   0.940   0.949
 7206SOL    HW122517   6.552   1.032   0.921
 7206SOL    HW222518   6.424   0.935   0.953
 7207SOL     OW22519   3.291   6.884   1.203
 7207SOL    HW122520   3.377   6.864   1.251
 7207SOL    HW222521   3.312   6.932   1.118
 7208SOL     OW22522   3.317   0.135   5.694
 7208SOL    HW122523   3.235   0.156   5.640
 7208SOL    HW222524   3.358   0.221   5.726
 7209SOL     OW22525   3.576   3.474   4.621
 7209SOL    HW122526   3.621   3.436   4.541
 7209SOL    HW222527   3.595   3.572   4.627
 7210SOL     OW22528   4.636   0.927   3.918
 7210SOL    HW122529   4.612   0.859   3.988
 7210SOL    HW222530   4.558   0.987   3.901
 7211SOL     OW22531   1.579   5.222   3.663
 7211SOL    HW122532   1.606   5.316   3.682
 7211SOL    HW222533   1.586   5.167   3.746
 7212SOL     OW22534   6.058   6.429   4.232
 7212SOL    HW122535   6.020   6.501   4.174
 7212SOL    HW222536   6.015   6.342   4.209
 7213SOL     OW22537   6.205   0.853   5.443
 7213SOL    HW122538   6.170   0.838   5.536
 7213SOL    HW222539   6.262   0.935   5.442
 7214SOL     OW22540   1.766   5.141   5.013
 7214SOL    HW122541   1.769   5.150   4.913
 7214SOL    HW222542   1.677   5.171   5.047
 7215SOL     OW22543   0.729   3.799   3.655
 7215SOL    HW122544   0.721   3.862   3.732
 7215SOL    HW222545   0.802   3.830   3.594
 7216SOL     OW22546   2.632   0.470   0.117
 7216SOL    HW122547   2.566   0.544   0.128
 7216SOL    HW222548   2.652   0.457   0.020
 7217SOL     OW22549   0.924   3.131   2.453
 7217SOL    HW122550   0.938   3.043   2.406
 7217SOL    HW222551   0.991   3.140   2.527
 7218SOL     OW22552   4.929   2.634   5.475
 7218SOL    HW122553   4.957   2.543   5.502
 7218SOL    HW222554   4.836   2.652   5.508
 7219SOL     OW22555   4.231   0.721   2.508
 7219SOL    HW122556   4.238   0.714   2.408
 7219SOL    HW222557   4.223   0.817   2.535
 7220SOL     OW22558   6.341   1.371   2.854
 7220SOL    HW122559   6.440   1.373   2.842
 7220SOL    HW222560   6.318   1.328   2.941
 7221SOL     OW22561   5.222   4.800   6.114
 7221SOL    HW122562   5.152   4.861   6.152
 7221SOL    HW222563   5.183   4.709   6.103
 7222SOL     OW22564   0.084   5.950   1.566
 7222SOL    HW122565   0.098   6.025   1.502
 7222SOL    HW222566   7.008   5.944   1.589
 7223SOL     OW22567   3.650   1.312   5.842
 7223SOL    HW122568   3.660   1.212   5.843
 7223SOL    HW222569   3.733   1.354   5.806
 7224SOL     OW22570   5.382   6.980   4.640
 7224SOL    HW122571   5.327   6.976   4.723
 7224SOL    HW222572   5.464   0.013   4.657
 7225SOL     OW22573   2.155   6.642   6.732
 7225SOL    HW122574   2.090   6.585   6.783
 7225SOL    HW222575   2.207   6.699   6.796
 7226SOL     OW22576   0.490   6.390   0.451
 7226SOL    HW122577   0.427   6.369   0.375
 7226SOL    HW222578   0.575   6.427   0.414
 7227SOL     OW22579   0.061   2.444   6.834
 7227SOL    HW122580   6.994   2.408   6.863
 7227SOL    HW222581   0.096   2.507   6.903
 7228SOL     OW22582   0.912   0.732   2.240
 7228SOL    HW122583   0.927   0.795   2.316
 7228SOL    HW222584   0.888   0.642   2.276
 7229SOL     OW22585   0.773   0.582   3.783
 7229SOL    HW122586   0.711   0.592   3.706
 7229SOL    HW222587   0.727   0.530   3.856
 7230SOL     OW22588   5.012   4.248   3.551
 7230SOL    HW122589   5.008   4.186   3.473
 7230SOL    HW222590   5.104   4.287   3.558
 7231SOL     OW22591   6.086   0.978   6.395
 7231SOL    HW122592   6.018   1.041   6.432
 7231SOL    HW222593   6.057   0.947   6.305
 7232SOL     OW22594   4.614   4.935   2.011
 7232SOL    HW122595   4.579   4.935   2.105
 7232SOL    HW222596   4.708   4.901   2.011
 7233SOL     OW22597   7.004   2.434   6.102
 7233SOL    HW122598   6.976   2.526   6.072
 7233SOL    HW222599   0.082   2.427   6.098
 7234SOL     OW22600   6.090   2.121   1.521
 7234SOL    HW122601   6.001   2.147   1.484
 7234SOL    HW222602   6.092   2.023   1.538
 7235SOL     OW22603   5.509   3.700   5.206
 7235SOL    HW122604   5.522   3.767   5.279
 7235SOL    HW222605   5.595   3.688   5.156
 7236SOL     OW22606   3.758   0.218   2.702
 7236SOL    HW122607   3.659   0.227   2.710
 7236SOL    HW222608   3.803   0.292   2.753
 7237SOL     OW22609   5.741   5.642   5.798
 7237SOL    HW122610   5.674   5.700   5.843
 7237SOL    HW222611   5.814   5.619   5.863
 7238SOL     OW22612   2.064   1.650   1.786
 7238SOL    HW122613   2.108   1.661   1.875
 7238SOL    HW222614   2.122   1.592   1.728
 7239SOL     OW22615   2.923   1.592   1.818
 7239SOL    HW122616   3.007   1.540   1.799
 7239SOL    HW222617   2.924   1.678   1.767
 7240SOL     OW22618   2.808   4.318   0.353
 7240SOL    HW122619   2.840   4.357   0.439
 7240SOL    HW222620   2.761   4.388   0.300
 7241SOL     OW22621   3.561   6.795   4.752
 7241SOL    HW122622   3.607   6.884   4.751
 7241SOL    HW222623   3.628   6.723   4.731
 7242SOL     OW22624   5.653   4.579   6.195
 7242SOL    HW122625   5.727   4.549   6.254
 7242SOL    HW222626   5.632   4.675   6.214
 7243SOL     OW22627   0.428   5.676   0.166
 7243SOL    HW122628   0.391   5.625   0.089
 7243SOL    HW222629   0.429   5.774   0.145
 7244SOL     OW22630   6.095   1.301   1.472
 7244SOL    HW122631   6.125   1.219   1.520
 7244SOL    HW222632   6.088   1.283   1.374
 7245SOL     OW22633   6.859   1.547   3.958
 7245SOL    HW122634   6.910   1.489   4.022
 7245SOL    HW222635   6.902   1.544   3.868
 7246SOL     OW22636   6.855   6.203   5.957
 7246SOL    HW122637   6.945   6.219   5.917
 7246SOL    HW222638   6.832   6.277   6.019
 7247SOL     OW22639   3.228   5.471   2.690
 7247SOL    HW122640   3.317   5.434   2.661
 7247SOL    HW222641   3.164   5.396   2.705
 7248SOL     OW22642   3.468   0.705   4.605
 7248SOL    HW122643   3.447   0.695   4.507
 7248SOL    HW222644   3.566   0.692   4.619
 7249SOL     OW22645   6.342   5.174   0.408
 7249SOL    HW122646   6.273   5.130   0.465
 7249SOL    HW222647   6.429   5.125   0.417
 7250SOL     OW22648   3.037   4.796   6.071
 7250SOL    HW122649   2.993   4.721   6.021
 7250SOL    HW222650   2.977   4.827   6.145
 7251SOL     OW22651   5.757   0.256   4.863
 7251SOL    HW122652   5.849   0.245   4.901
 7251SOL    HW222653   5.701   0.308   4.927
 7252SOL     OW22654   4.026   3.196   5.096
 7252SOL    HW122655   4.110   3.249   5.104
 7252SOL    HW222656   3.947   3.254   5.117
 7253SOL     OW22657   5.095   5.940   1.253
 7253SOL    HW122658   5.170   5.992   1.293
 7253SOL    HW222659   5.078   5.858   1.308
 7254SOL     OW22660   4.870   6.192   4.812
 7254SOL    HW122661   4.890   6.107   4.764
 7254SOL    HW222662   4.778   6.224   4.787
 7255SOL     OW22663   3.283   3.769   2.565
 7255SOL    HW122664   3.234   3.853   2.542
 7255SOL    HW222665   3.347   3.788   2.639
 7256SOL     OW22666   4.467   5.027   4.277
 7256SOL    HW122667   4.436   4.946   4.228
 7256SOL    HW222668   4.513   5.000   4.361
 7257SOL     OW22669   6.001   3.807   2.952
 7257SOL    HW122670   5.907   3.833   2.974
 7257SOL    HW222671   6.062   3.881   2.979
 7258SOL     OW22672   3.382   6.681   4.415
 7258SOL    HW122673   3.307   6.667   4.350
 7258SOL    HW222674   3.345   6.708   4.504
 7259SOL     OW22675   2.243   5.345   6.035
 7259SOL    HW122676   2.172   5.294   6.084
 7259SOL    HW222677   2.332   5.302   6.053
 7260SOL     OW22678   3.554   2.019   2.221
 7260SOL    HW122679   3.481   1.984   2.164
 7260SOL    HW222680   3.607   2.087   2.170
 7261SOL     OW22681   1.490   4.082   1.820
 7261SOL    HW122682   1.506   3.997   1.869
 7261SOL    HW222683   1.540   4.156   1.864
 7262SOL     OW22684   5.789   1.486   5.189
 7262SOL    HW122685   5.803   1.401   5.139
 7262SOL    HW222686   5.849   1.557   5.152
 7263SOL     OW22687   3.065   6.096   2.000
 7263SOL    HW122688   3.126   6.055   2.068
 7263SOL    HW222689   3.098   6.187   1.976
 7264SOL     OW22690   0.758   0.283   5.821
 7264SOL    HW122691   0.751   0.360   5.885
 7264SOL    HW222692   0.703   0.302   5.740
 7265SOL     OW22693   4.228   4.917   6.052
 7265SOL    HW122694   4.199   4.891   5.960
 7265SOL    HW222695   4.326   4.936   6.052
 7266SOL     OW22696   5.409   0.784   2.091
 7266SOL    HW122697   5.342   0.724   2.048
 7266SOL    HW222698   5.364   0.868   2.121
 7267SOL     OW22699   6.928   4.008   3.831
 7267SOL    HW122700   6.927   3.962   3.920
 7267SOL    HW222701   0.001   4.027   3.805
 7268SOL     OW22702   3.077   6.902   1.344
 7268SOL    HW122703   3.021   6.984   1.329
 7268SOL    HW222704   3.154   6.901   1.281
 7269SOL     OW22705   1.547   6.655   1.918
 7269SOL    HW122706   1.505   6.690   1.834
 7269SOL    HW222707   1.480   6.657   1.992
 7270SOL     OW22708   3.353   1.079   2.636
 7270SOL    HW122709   3.341   1.067   2.735
 7270SOL    HW222710   3.435   1.134   2.619
 7271SOL     OW22711   6.734   3.886   3.310
 7271SOL    HW122712   6.700   3.928   3.226
 7271SOL    HW222713   6.754   3.789   3.293
 7272SOL     OW22714   5.656   2.509   1.693
 7272SOL    HW122715   5.654   2.429   1.634
 7272SOL    HW222716   5.605   2.489   1.777
 7273SOL     OW22717   5.327   4.472   6.730
 7273SOL    HW122718   5.245   4.418   6.712
 7273SOL    HW222719   5.302   4.569   6.736
 7274SOL     OW22720   6.690   4.990   5.572
 7274SOL    HW122721   6.784   5.022   5.562
 7274SOL    HW222722   6.666   4.933   5.493
 7275SOL     OW22723   6.147   6.633   0.975
 7275SOL    HW122724   6.048   6.650   0.972
 7275SOL    HW222725   6.180   6.612   0.882
 7276SOL     OW22726   2.574   2.030   3.311
 7276SOL    HW122727   2.558   2.083   3.395
 7276SOL    HW222728   2.654   2.066   3.264
 7277SOL     OW22729   5.546   1.639   4.716
 7277SOL    HW122730   5.587   1.687   4.638
 7277SOL    HW222731   5.455   1.676   4.734
 7278SOL     OW22732   2.953   1.362   3.042
 7278SOL    HW122733   2.856   1.348   3.022
 7278SOL    HW222734   2.982   1.449   3.003
 7279SOL     OW22735   4.934   5.068   0.944
 7279SOL    HW122736   4.851   5.091   0.996
 7279SOL    HW222737   5.010   5.054   1.008
 7280SOL     OW22738   5.930   2.270   5.452
 7280SOL    HW122739   5.879   2.215   5.386
 7280SOL    HW222740   5.962   2.354   5.408
 7281SOL     OW22741   4.558   5.796   2.359
 7281SOL    HW122742   4.517   5.717   2.404
 7281SOL    HW222743   4.540   5.792   2.261
 7282SOL     OW22744   6.375   4.146   2.401
 7282SOL    HW122745   6.324   4.147   2.315
 7282SOL    HW222746   6.471   4.123   2.383
 7283SOL     OW22747   4.159   4.730   2.985
 7283SOL    HW122748   4.150   4.810   3.044
 7283SOL    HW222749   4.102   4.742   2.904
 7284SOL     OW22750   6.792   1.475   3.073
 7284SOL    HW122751   6.786   1.575   3.071
 7284SOL    HW222752   6.713   1.438   3.123
 7285SOL     OW22753   4.966   2.912   1.869
 7285SOL    HW122754   4.922   2.942   1.954
 7285SOL    HW222755   4.898   2.869   1.810
 7286SOL     OW22756   6.957   1.104   2.646
 7286SOL    HW122757   6.954   1.013   2.604
 7286SOL    HW222758   0.030   1.133   2.658
 7287SOL     OW22759   1.505   2.526   3.332
 7287SOL    HW122760   1.527   2.596   3.264
 7287SOL    HW222761   1.567   2.534   3.409
 7288SOL     OW22762   2.647   1.944   2.546
 7288SOL    HW122763   2.701   1.919   2.465
 7288SOL    HW222764   2.708   1.963   2.622
 7289SOL     OW22765   6.349   1.192   1.259
 7289SOL    HW122766   6.379   1.183   1.353
 7289SOL    HW222767   6.406   1.259   1.212
 7290SOL     OW22768   3.391   1.529   5.556
 7290SOL    HW122769   3.334   1.611   5.567
 7290SOL    HW222770   3.449   1.539   5.475
 7291SOL     OW22771   3.834   1.084   0.600
 7291SOL    HW122772   3.869   1.088   0.507
 7291SOL    HW222773   3.851   1.172   0.645
 7292SOL     OW22774   2.766   0.243   2.632
 7292SOL    HW122775   2.723   0.332   2.641
 7292SOL    HW222776   2.762   0.194   2.720
 7293SOL     OW22777   0.474   1.439   4.142
 7293SOL    HW122778   0.378   1.466   4.149
 7293SOL    HW222779   0.522   1.503   4.082
 7294SOL     OW22780   3.760   6.390   2.443
 7294SOL    HW122781   3.764   6.489   2.432
 7294SOL    HW222782   3.845   6.358   2.484
 7295SOL     OW22783   6.444   5.363   1.988
 7295SOL    HW122784   6.535   5.404   1.993
 7295SOL    HW222785   6.412   5.367   1.893
 7296SOL     OW22786   4.916   4.556   1.904
 7296SOL    HW122787   4.911   4.512   1.814
 7296SOL    HW222788   4.951   4.491   1.971
 7297SOL     OW22789   4.101   6.676   1.349
 7297SOL    HW122790   4.125   6.600   1.289
 7297SOL    HW222791   4.184   6.712   1.392
 7298SOL     OW22792   4.052   5.401   6.674
 7298SOL    HW122793   4.112   5.371   6.747
 7298SOL    HW222794   3.973   5.341   6.669
 7299SOL     OW22795   1.381   2.759   6.167
 7299SOL    HW122796   1.421   2.712   6.088
 7299SOL    HW222797   1.388   2.700   6.247
 7300SOL     OW22798   0.649   5.021   2.047
 7300SOL    HW122799   0.724   5.087   2.053
 7300SOL    HW222800   0.675   4.946   1.986
 7301SOL     OW22801   4.776   1.544   5.508
 7301SOL    HW122802   4.794   1.637   5.475
 7301SOL    HW222803   4.677   1.531   5.518
 7302SOL     OW22804   5.451   1.485   6.219
 7302SOL    HW122805   5.492   1.470   6.129
 7302SOL    HW222806   5.368   1.540   6.209
 7303SOL     OW22807   2.648   1.707   2.006
 7303SOL    HW122808   2.607   1.648   2.076
 7303SOL    HW222809   2.598   1.695   1.920
 7304SOL     OW22810   2.898   5.413   1.201
 7304SOL    HW122811   2.967   5.358   1.247
 7304SOL    HW222812   2.918   5.510   1.214
 7305SOL     OW22813   6.443   1.208   0.793
 7305SOL    HW122814   6.347   1.223   0.819
 7305SOL    HW222815   6.466   1.268   0.717
 7306SOL     OW22816   0.666   2.464   1.212
 7306SOL    HW122817   0.607   2.396   1.169
 7306SOL    HW222818   0.678   2.542   1.151
 7307SOL     OW22819   2.492   0.132   1.259
 7307SOL    HW122820   2.393   0.121   1.250
 7307SOL    HW222821   2.514   0.160   1.353
 7308SOL     OW22822   4.831   1.300   2.916
 7308SOL    HW122823   4.903   1.369   2.908
 7308SOL    HW222824   4.757   1.335   2.973
 7309SOL     OW22825   2.279   4.747   3.520
 7309SOL    HW122826   2.308   4.769   3.427
 7309SOL    HW222827   2.289   4.649   3.536
 7310SOL     OW22828   2.733   2.759   6.000
 7310SOL    HW122829   2.824   2.720   6.011
 7310SOL    HW222830   2.703   2.801   6.085
 7311SOL     OW22831   0.091   6.676   6.743
 7311SOL    HW122832   0.134   6.626   6.667
 7311SOL    HW222833   0.118   6.633   6.829
 7312SOL     OW22834   6.182   1.695   3.952
 7312SOL    HW122835   6.154   1.790   3.967
 7312SOL    HW222836   6.239   1.689   3.871
 7313SOL     OW22837   2.862   0.510   2.639
 7313SOL    HW122838   2.863   0.517   2.539
 7313SOL    HW222839   2.780   0.554   2.675
 7314SOL     OW22840   0.094   3.847   6.438
 7314SOL    HW122841   7.016   3.841   6.432
 7314SOL    HW222842   0.134   3.834   6.347
 7315SOL     OW22843   1.645   4.957   2.525
 7315SOL    HW122844   1.714   4.941   2.595
 7315SOL    HW222845   1.682   5.017   2.454
 7316SOL     OW22846   2.923   2.477   1.068
 7316SOL    HW122847   2.934   2.570   1.106
 7316SOL    HW222848   2.985   2.415   1.115
 7317SOL     OW22849   3.640   1.521   0.322
 7317SOL    HW122850   3.697   1.519   0.404
 7317SOL    HW222851   3.659   1.441   0.266
 7318SOL     OW22852   4.222   6.285   1.032
 7318SOL    HW122853   4.231   6.283   1.131
 7318SOL    HW222854   4.312   6.275   0.990
 7319SOL     OW22855   5.522   5.203   6.738
 7319SOL    HW122856   5.570   5.291   6.740
 7319SOL    HW222857   5.589   5.129   6.744
 7320SOL     OW22858   0.349   2.575   1.259
 7320SOL    HW122859   0.432   2.623   1.287
 7320SOL    HW222860   0.349   2.564   1.160
 7321SOL     OW22861   1.398   0.973   6.954
 7321SOL    HW122862   1.333   0.906   6.919
 7321SOL    HW222863   1.349   1.044   7.005
 7322SOL     OW22864   0.844   2.243   2.861
 7322SOL    HW122865   0.880   2.315   2.921
 7322SOL    HW222866   0.786   2.284   2.791
 7323SOL     OW22867   1.217   2.876   1.341
 7323SOL    HW122868   1.232   2.824   1.426
 7323SOL    HW222869   1.300   2.926   1.318
 7324SOL     OW22870   5.553   5.052   3.060
 7324SOL    HW122871   5.603   5.117   3.117
 7324SOL    HW222872   5.455   5.061   3.078
 7325SOL     OW22873   4.378   0.794   5.980
 7325SOL    HW122874   4.453   0.847   6.019
 7325SOL    HW222875   4.297   0.804   6.037
 7326SOL     OW22876   3.506   0.274   0.365
 7326SOL    HW122877   3.507   0.320   0.277
 7326SOL    HW222878   3.592   0.292   0.414
 7327SOL     OW22879   0.687   4.244   3.020
 7327SOL    HW122880   0.709   4.213   2.928
 7327SOL    HW222881   0.592   4.275   3.023
 7328SOL     OW22882   4.759   5.120   4.790
 7328SOL    HW122883   4.759   5.115   4.890
 7328SOL    HW222884   4.807   5.041   4.752
 7329SOL     OW22885   3.160   3.710   1.348
 7329SOL    HW122886   3.142   3.636   1.284
 7329SOL    HW222887   3.100   3.701   1.427
 7330SOL     OW22888   2.825   3.294   1.892
 7330SOL    HW122889   2.728   3.271   1.878
 7330SOL    HW222890   2.864   3.324   1.805
 7331SOL     OW22891   5.529   2.117   2.526
 7331SOL    HW122892   5.483   2.185   2.584
 7331SOL    HW222893   5.556   2.159   2.440
 7332SOL     OW22894   3.044   5.695   5.805
 7332SOL    HW122895   2.952   5.673   5.837
 7332SOL    HW222896   3.097   5.610   5.795
 7333SOL     OW22897   0.714   1.142   0.528
 7333SOL    HW122898   0.680   1.109   0.616
 7333SOL    HW222899   0.794   1.088   0.501
 7334SOL     OW22900   2.659   0.190   4.213
 7334SOL    HW122901   2.706   0.217   4.298
 7334SOL    HW222902   2.616   0.101   4.226
 7335SOL     OW22903   6.415   3.258   1.971
 7335SOL    HW122904   6.506   3.246   1.930
 7335SOL    HW222905   6.409   3.206   2.056
 7336SOL     OW22906   1.937   0.248   1.671
 7336SOL    HW122907   2.013   0.184   1.667
 7336SOL    HW222908   1.924   0.279   1.765
 7337SOL     OW22909   2.314   1.602   3.366
 7337SOL    HW122910   2.388   1.661   3.333
 7337SOL    HW222911   2.279   1.639   3.452
 7338SOL     OW22912   5.746   3.173   1.459
 7338SOL    HW122913   5.736   3.167   1.360
 7338SOL    HW222914   5.658   3.157   1.503
 7339SOL     OW22915   6.470   5.541   4.229
 7339SOL    HW122916   6.562   5.577   4.220
 7339SOL    HW222917   6.470   5.443   4.207
 7340SOL     OW22918   2.538   6.626   0.819
 7340SOL    HW122919   2.467   6.643   0.887
 7340SOL    HW222920   2.628   6.645   0.858
 7341SOL     OW22921   6.233   5.367   4.202
 7341SOL    HW122922   6.209   5.453   4.245
 7341SOL    HW222923   6.150   5.315   4.181
 7342SOL     OW22924   0.947   5.349   1.299
 7342SOL    HW122925   0.953   5.425   1.235
 7342SOL    HW222926   1.012   5.278   1.273
 7343SOL     OW22927   5.241   3.417   2.420
 7343SOL    HW122928   5.232   3.364   2.504
 7343SOL    HW222929   5.197   3.369   2.344
 7344SOL     OW22930   2.125   1.009   7.019
 7344SOL    HW122931   2.148   0.925   0.048
 7344SOL    HW222932   2.206   1.066   7.010
 7345SOL     OW22933   3.934   5.423   0.139
 7345SOL    HW122934   3.964   5.462   0.226
 7345SOL    HW222935   4.012   5.385   0.091
 7346SOL     OW22936   3.955   4.655   1.761
 7346SOL    HW122937   4.040   4.641   1.711
 7346SOL    HW222938   3.974   4.704   1.847
 7347SOL     OW22939   6.026   2.148   3.500
 7347SOL    HW122940   6.079   2.120   3.420
 7347SOL    HW222941   5.978   2.069   3.538
 7348SOL     OW22942   0.616   2.362   3.752
 7348SOL    HW122943   0.533   2.340   3.804
 7348SOL    HW222944   0.686   2.293   3.770
 7349SOL     OW22945   3.768   1.497   0.555
 7349SOL    HW122946   3.815   1.412   0.534
 7349SOL    HW222947   3.833   1.561   0.597
 7350SOL     OW22948   2.351   0.701   2.756
 7350SOL    HW122949   2.317   0.644   2.831
 7350SOL    HW222950   2.326   0.796   2.773
 7351SOL     OW22951   3.644   4.684   6.966
 7351SOL    HW122952   3.738   4.663   6.938
 7351SOL    HW222953   3.646   4.738   0.028
 7352SOL     OW22954   6.440   1.028   2.870
 7352SOL    HW122955   6.519   1.089   2.874
 7352SOL    HW222956   6.471   0.934   2.851
 7353SOL     OW22957   5.043   2.735   4.794
 7353SOL    HW122958   5.002   2.826   4.799
 7353SOL    HW222959   5.138   2.743   4.764
 7354SOL     OW22960   6.019   4.574   5.698
 7354SOL    HW122961   6.049   4.579   5.602
 7354SOL    HW222962   5.920   4.587   5.703
 7355SOL     OW22963   1.770   4.820   2.201
 7355SOL    HW122964   1.714   4.758   2.145
 7355SOL    HW222965   1.711   4.889   2.242
 7356SOL     OW22966   6.057   1.564   5.785
 7356SOL    HW122967   6.066   1.465   5.783
 7356SOL    HW222968   6.065   1.597   5.879
 7357SOL     OW22969   6.864   1.719   0.084
 7357SOL    HW122970   6.855   1.621   0.104
 7357SOL    HW222971   6.925   1.761   0.152
 7358SOL     OW22972   2.919   0.725   4.020
 7358SOL    HW122973   2.883   0.817   4.002
 7358SOL    HW222974   2.852   0.673   4.072
 7359SOL     OW22975   3.534   2.983   3.529
 7359SOL    HW122976   3.587   3.061   3.497
 7359SOL    HW222977   3.570   2.952   3.616
 7360SOL     OW22978   0.122   2.917   5.477
 7360SOL    HW122979   0.176   2.974   5.416
 7360SOL    HW222980   0.161   2.920   5.569
 7361SOL     OW22981   5.128   6.618   2.388
 7361SOL    HW122982   5.052   6.672   2.354
 7361SOL    HW222983   5.194   6.677   2.434
 7362SOL     OW22984   1.839   6.038   5.939
 7362SOL    HW122985   1.873   6.106   6.004
 7362SOL    HW222986   1.906   6.024   5.866
 7363SOL     OW22987   5.045   2.987   6.415
 7363SOL    HW122988   5.123   2.931   6.442
 7363SOL    HW222989   5.076   3.063   6.358
 7364SOL     OW22990   4.702   6.819   1.973
 7364SOL    HW122991   4.759   6.769   2.038
 7364SOL    HW222992   4.753   6.833   1.888
 7365SOL     OW22993   3.512   0.874   2.199
 7365SOL    HW122994   3.535   0.793   2.144
 7365SOL    HW222995   3.516   0.850   2.296
 7366SOL     OW22996   0.595   5.258   0.239
 7366SOL    HW122997   0.500   5.237   0.261
 7366SOL    HW222998   0.631   5.190   0.175
 7367SOL     OW22999   4.966   3.578   6.948
 7367SOL    HW123000   4.976   3.522   6.866
 7367SOL    HW223001   4.989   3.524   0.007
 7368SOL     OW23002   3.190   4.122   3.804
 7368SOL    HW123003   3.149   4.058   3.740
 7368SOL    HW223004   3.151   4.213   3.789
 7369SOL     OW23005   4.047   2.891   0.031
 7369SOL    HW123006   3.978   2.936   0.088
 7369SOL    HW223007   4.002   2.829   6.988
 7370SOL     OW23008   2.199   5.923   1.481
 7370SOL    HW123009   2.108   5.882   1.488
 7370SOL    HW223010   2.190   6.019   1.453
 7371SOL     OW23011   2.696   5.367   4.850
 7371SOL    HW123012   2.617   5.313   4.821
 7371SOL    HW223013   2.774   5.306   4.865
 7372SOL     OW23014   3.230   6.577   6.075
 7372SOL    HW123015   3.312   6.534   6.038
 7372SOL    HW223016   3.151   6.553   6.019
 7373SOL     OW23017   3.927   0.758   1.319
 7373SOL    HW123018   3.866   0.763   1.398
 7373SOL    HW223019   3.873   0.743   1.236
 7374SOL     OW23020   1.051   2.913   5.778
 7374SOL    HW123021   1.032   2.990   5.839
 7374SOL    HW223022   1.145   2.918   5.747
 7375SOL     OW23023   1.418   0.313   3.548
 7375SOL    HW123024   1.389   0.269   3.632
 7375SOL    HW223025   1.491   0.260   3.505
 7376SOL     OW23026   2.453   4.008   5.692
 7376SOL    HW123027   2.463   3.928   5.750
 7376SOL    HW223028   2.413   3.982   5.604
 7377SOL     OW23029   4.489   4.679   0.620
 7377SOL    HW123030   4.576   4.699   0.666
 7377SOL    HW223031   4.451   4.763   0.581
 7378SOL     OW23032   6.587   1.364   5.213
 7378SOL    HW123033   6.614   1.429   5.143
 7378SOL    HW223034   6.664   1.349   5.276
 7379SOL     OW23035   2.890   1.457   2.090
 7379SOL    HW123036   2.927   1.484   2.001
 7379SOL    HW223037   2.846   1.368   2.082
 7380SOL     OW23038   6.931   3.448   6.075
 7380SOL    HW123039   6.985   3.425   6.156
 7380SOL    HW223040   6.976   3.522   6.024
 7381SOL     OW23041   5.361   2.178   1.163
 7381SOL    HW123042   5.331   2.195   1.256
 7381SOL    HW223043   5.452   2.217   1.150
 7382SOL     OW23044   0.128   5.876   3.843
 7382SOL    HW123045   0.194   5.804   3.824
 7382SOL    HW223046   0.047   5.864   3.785
 7383SOL     OW23047   0.139   5.551   3.333
 7383SOL    HW123048   0.130   5.624   3.400
 7383SOL    HW223049   0.110   5.464   3.374
 7384SOL     OW23050   5.463   0.474   2.043
 7384SOL    HW123051   5.541   0.469   2.105
 7384SOL    HW223052   5.388   0.419   2.080
 7385SOL     OW23053   4.556   6.497   1.497
 7385SOL    HW123054   4.627   6.538   1.555
 7385SOL    HW223055   4.565   6.532   1.404
 7386SOL     OW23056   0.505   2.425   5.603
 7386SOL    HW123057   0.566   2.436   5.525
 7386SOL    HW223058   0.458   2.337   5.596
 7387SOL     OW23059   4.003   5.901   3.371
 7387SOL    HW123060   3.917   5.877   3.415
 7387SOL    HW223061   4.079   5.885   3.434
 7388SOL     OW23062   6.705   4.925   3.985
 7388SOL    HW123063   6.670   4.970   3.903
 7388SOL    HW223064   6.796   4.960   4.006
 7389SOL     OW23065   1.158   3.753   6.421
 7389SOL    HW123066   1.155   3.830   6.485
 7389SOL    HW223067   1.199   3.674   6.466
 7390SOL     OW23068   2.291   6.451   5.274
 7390SOL    HW123069   2.247   6.522   5.220
 7390SOL    HW223070   2.283   6.474   5.371
 7391SOL     OW23071   6.111   3.066   6.552
 7391SOL    HW123072   6.083   3.111   6.467
 7391SOL    HW223073   6.210   3.051   6.550
 7392SOL     OW23074   2.238   4.615   4.211
 7392SOL    HW123075   2.280   4.694   4.256
 7392SOL    HW223076   2.226   4.635   4.114
 7393SOL     OW23077   0.602   3.798   1.922
 7393SOL    HW123078   0.701   3.810   1.924
 7393SOL    HW223079   0.566   3.803   2.016
 7394SOL     OW23080   3.359   4.243   6.213
 7394SOL    HW123081   3.297   4.171   6.183
 7394SOL    HW223082   3.349   4.256   6.312
 7395SOL     OW23083   1.619   6.839   0.675
 7395SOL    HW123084   1.528   6.857   0.639
 7395SOL    HW223085   1.613   6.774   0.751
 7396SOL     OW23086   0.731   0.025   6.557
 7396SOL    HW123087   0.760   6.952   6.546
 7396SOL    HW223088   0.768   0.061   6.643
 7397SOL     OW23089   6.133   5.267   4.691
 7397SOL    HW123090   6.232   5.258   4.686
 7397SOL    HW223091   6.100   5.318   4.611
 7398SOL     OW23092   4.112   4.927   3.156
 7398SOL    HW123093   4.053   4.981   3.216
 7398SOL    HW223094   4.200   4.911   3.202
 7399SOL     OW23095   5.059   3.796   5.634
 7399SOL    HW123096   5.151   3.759   5.623
 7399SOL    HW223097   5.062   3.875   5.695
 7400SOL     OW23098   2.290   5.122   6.687
 7400SOL    HW123099   2.283   5.158   6.780
 7400SOL    HW223100   2.374   5.156   6.644
 7401SOL     OW23101   6.444   1.948   4.068
 7401SOL    HW123102   6.447   1.888   3.988
 7401SOL    HW223103   6.536   1.973   4.094
 7402SOL     OW23104   2.621   0.356   3.657
 7402SOL    HW123105   2.708   0.322   3.691
 7402SOL    HW223106   2.611   0.333   3.560
 7403SOL     OW23107   1.651   3.256   2.398
 7403SOL    HW123108   1.608   3.174   2.437
 7403SOL    HW223109   1.599   3.337   2.424
 7404SOL     OW23110   1.458   0.965   1.888
 7404SOL    HW123111   1.549   0.928   1.908
 7404SOL    HW223112   1.395   0.942   1.962
 7405SOL     OW23113   2.222   4.906   6.009
 7405SOL    HW123114   2.205   4.827   5.950
 7405SOL    HW223115   2.140   4.926   6.062
 7406SOL     OW23116   0.430   5.131   1.623
 7406SOL    HW123117   0.451   5.204   1.688
 7406SOL    HW223118   0.336   5.099   1.638
 7407SOL     OW23119   2.118   6.891   6.253
 7407SOL    HW123120   2.048   6.911   6.184
 7407SOL    HW223121   2.164   6.976   6.279
 7408SOL     OW23122   1.123   4.141   5.208
 7408SOL    HW123123   1.169   4.054   5.191
 7408SOL    HW223124   1.025   4.131   5.192
 7409SOL     OW23125   2.944   5.244   5.477
 7409SOL    HW123126   2.951   5.330   5.528
 7409SOL    HW223127   2.865   5.193   5.508
 7410SOL     OW23128   6.601   4.909   0.856
 7410SOL    HW123129   6.544   4.917   0.774
 7410SOL    HW223130   6.574   4.979   0.922
 7411SOL     OW23131   4.126   6.502   4.843
 7411SOL    HW123132   4.139   6.570   4.915
 7411SOL    HW223133   4.052   6.440   4.869
 7412SOL     OW23134   0.987   1.745   0.286
 7412SOL    HW123135   0.953   1.699   0.204
 7412SOL    HW223136   0.983   1.844   0.273
 7413SOL     OW23137   6.992   3.217   4.626
 7413SOL    HW123138   0.044   3.245   4.564
 7413SOL    HW223139   6.932   3.294   4.645
 7414SOL     OW23140   6.640   6.236   3.059
 7414SOL    HW123141   6.606   6.318   3.014
 7414SOL    HW223142   6.735   6.250   3.087
 7415SOL     OW23143   2.039   2.086   3.386
 7415SOL    HW123144   2.137   2.070   3.398
 7415SOL    HW223145   2.010   2.161   3.444
 7416SOL     OW23146   4.534   6.829   4.391
 7416SOL    HW123147   4.476   6.816   4.471
 7416SOL    HW223148   4.488   6.793   4.310
 7417SOL     OW23149   0.791   6.041   0.461
 7417SOL    HW123150   0.874   6.094   0.477
 7417SOL    HW223151   0.749   6.070   0.375
 7418SOL     OW23152   1.959   3.720   0.769
 7418SOL    HW123153   1.978   3.724   0.671
 7418SOL    HW223154   1.862   3.699   0.782
 7419SOL     OW23155   6.469   0.821   5.232
 7419SOL    HW123156   6.469   0.921   5.232
 7419SOL    HW223157   6.465   0.788   5.137
 7420SOL     OW23158   0.170   6.068   2.033
 7420SOL    HW123159   0.208   6.159   2.043
 7420SOL    HW223160   0.071   6.070   2.052
 7421SOL     OW23161   3.866   3.443   0.853
 7421SOL    HW123162   3.813   3.515   0.897
 7421SOL    HW223163   3.859   3.358   0.907
 7422SOL     OW23164   0.700   3.456   0.427
 7422SOL    HW123165   0.709   3.384   0.358
 7422SOL    HW223166   0.609   3.497   0.420
 7423SOL     OW23167   2.114   6.082   6.682
 7423SOL    HW123168   2.081   6.147   6.613
 7423SOL    HW223169   2.135   6.132   6.766
 7424SOL     OW23170   5.664   1.521   4.373
 7424SOL    HW123171   5.671   1.612   4.413
 7424SOL    HW223172   5.629   1.528   4.279
 7425SOL     OW23173   3.534   5.820   6.247
 7425SOL    HW123174   3.588   5.742   6.215
 7425SOL    HW223175   3.595   5.896   6.268
 7426SOL     OW23176   0.974   1.403   6.552
 7426SOL    HW123177   0.955   1.497   6.525
 7426SOL    HW223178   0.902   1.370   6.613
 7427SOL     OW23179   4.214   5.427   4.211
 7427SOL    HW123180   4.234   5.453   4.305
 7427SOL    HW223181   4.246   5.334   4.194
 7428SOL     OW23182   3.719   2.182   5.559
 7428SOL    HW123183   3.649   2.129   5.607
 7428SOL    HW223184   3.702   2.177   5.461
 7429SOL     OW23185   6.513   6.726   3.570
 7429SOL    HW123186   6.425   6.677   3.571
 7429SOL    HW223187   6.531   6.759   3.478
 7430SOL     OW23188   6.583   4.039   5.137
 7430SOL    HW123189   6.485   4.019   5.141
 7430SOL    HW223190   6.631   3.963   5.094
 7431SOL     OW23191   1.290   4.097   2.218
 7431SOL    HW123192   1.264   4.186   2.181
 7431SOL    HW223193   1.303   4.104   2.317
 7432SOL     OW23194   0.481   6.873   5.627
 7432SOL    HW123195   0.498   6.970   5.610
 7432SOL    HW223196   0.467   6.825   5.540
 7433SOL     OW23197   6.167   5.613   1.000
 7433SOL    HW123198   6.099   5.540   1.003
 7433SOL    HW223199   6.251   5.579   0.956
 7434SOL     OW23200   4.330   0.942   6.339
 7434SOL    HW123201   4.359   1.026   6.294
 7434SOL    HW223202   4.384   0.865   6.306
 7435SOL     OW23203   2.631   6.020   0.047
 7435SOL    HW123204   2.641   6.082   0.125
 7435SOL    HW223205   2.679   6.059   6.990
 7436SOL     OW23206   5.201   2.466   0.389
 7436SOL    HW123207   5.223   2.485   0.484
 7436SOL    HW223208   5.150   2.380   0.383
 7437SOL     OW23209   0.523   5.690   5.857
 7437SOL    HW123210   0.564   5.654   5.773
 7437SOL    HW223211   0.474   5.775   5.837
 7438SOL     OW23212   6.810   4.818   1.838
 7438SOL    HW123213   6.878   4.791   1.906
 7438SOL    HW223214   6.738   4.749   1.834
 7439SOL     OW23215   1.203   6.916   3.343
 7439SOL    HW123216   1.217   6.872   3.254
 7439SOL    HW223217   1.119   6.881   3.384
 7440SOL     OW23218   1.729   1.972   4.040
 7440SOL    HW123219   1.784   1.926   3.969
 7440SOL    HW223220   1.635   1.938   4.035
 7441SOL     OW23221   5.705   0.499   3.638
 7441SOL    HW123222   5.783   0.508   3.699
 7441SOL    HW223223   5.674   0.404   3.635
 7442SOL     OW23224   1.696   1.256   0.232
 7442SOL    HW123225   1.632   1.242   0.308
 7442SOL    HW223226   1.720   1.167   0.193
 7443SOL     OW23227   0.180   1.126   0.277
 7443SOL    HW123228   0.137   1.070   0.349
 7443SOL    HW223229   0.266   1.162   0.311
 7444SOL     OW23230   0.168   3.059   5.774
 7444SOL    HW123231   0.244   2.995   5.783
 7444SOL    HW223232   0.176   3.130   5.843
 7445SOL     OW23233   5.542   2.159   1.764
 7445SOL    HW123234   5.546   2.190   1.669
 7445SOL    HW223235   5.631   2.122   1.791
 7446SOL     OW23236   0.125   3.680   0.799
 7446SOL    HW123237   0.025   3.687   0.796
 7446SOL    HW223238   0.152   3.619   0.873
 7447SOL     OW23239   0.575   3.856   5.976
 7447SOL    HW123240   0.544   3.924   6.043
 7447SOL    HW223241   0.562   3.764   6.013
 7448SOL     OW23242   6.764   6.447   6.098
 7448SOL    HW123243   6.761   6.535   6.049
 7448SOL    HW223244   6.689   6.443   6.164
 7449SOL     OW23245   5.835   1.990   2.517
 7449SOL    HW123246   5.758   1.951   2.567
 7449SOL    HW223247   5.802   2.060   2.454
 7450SOL     OW23248   4.475   1.134   3.123
 7450SOL    HW123249   4.521   1.211   3.078
 7450SOL    HW223250   4.494   1.138   3.222
 7451SOL     OW23251   2.096   0.261   3.985
 7451SOL    HW123252   2.046   0.341   3.953
 7451SOL    HW223253   2.164   0.289   4.053
 7452SOL     OW23254   1.967   6.112   5.032
 7452SOL    HW123255   1.873   6.087   5.009
 7452SOL    HW223256   2.024   6.029   5.031
 7453SOL     OW23257   6.010   6.071   5.096
 7453SOL    HW123258   6.053   6.119   5.173
 7453SOL    HW223259   5.926   6.027   5.127
 7454SOL     OW23260   0.779   3.636   1.081
 7454SOL    HW123261   0.732   3.553   1.110
 7454SOL    HW223262   0.797   3.632   0.983
 7455SOL     OW23263   4.929   2.483   0.120
 7455SOL    HW123264   4.918   2.439   0.209
 7455SOL    HW223265   4.870   2.563   0.116
 7456SOL     OW23266   1.706   3.423   4.941
 7456SOL    HW123267   1.630   3.482   4.913
 7456SOL    HW223268   1.714   3.346   4.878
 7457SOL     OW23269   6.033   0.706   6.005
 7457SOL    HW123270   6.092   0.626   6.008
 7457SOL    HW223271   6.084   0.784   5.967
 7458SOL     OW23272   2.589   1.335   0.582
 7458SOL    HW123273   2.591   1.242   0.619
 7458SOL    HW223274   2.624   1.334   0.488
 7459SOL     OW23275   4.217   0.720   4.600
 7459SOL    HW123276   4.316   0.713   4.614
 7459SOL    HW223277   4.193   0.814   4.580
 7460SOL     OW23278   0.705   4.403   7.010
 7460SOL    HW123279   0.771   4.400   0.063
 7460SOL    HW223280   0.718   4.487   6.957
 7461SOL     OW23281   5.305   1.088   4.293
 7461SOL    HW123282   5.275   1.168   4.345
 7461SOL    HW223283   5.387   1.112   4.241
 7462SOL     OW23284   2.103   1.552   2.280
 7462SOL    HW123285   2.140   1.465   2.313
 7462SOL    HW223286   2.103   1.619   2.354
 7463SOL     OW23287   3.778   3.843   2.787
 7463SOL    HW123288   3.851   3.817   2.851
 7463SOL    HW223289   3.815   3.849   2.695
 7464SOL     OW23290   5.388   6.233   0.894
 7464SOL    HW123291   5.451   6.227   0.817
 7464SOL    HW223292   5.296   6.258   0.861
 7465SOL     OW23293   2.705   0.313   1.694
 7465SOL    HW123294   2.700   0.311   1.794
 7465SOL    HW223295   2.800   0.307   1.665
 7466SOL     OW23296   0.793   0.702   0.029
 7466SOL    HW123297   0.847   0.693   0.112
 7466SOL    HW223298   0.834   0.771   6.990
 7467SOL     OW23299   6.809   1.469   0.714
 7467SOL    HW123300   6.814   1.497   0.618
 7467SOL    HW223301   6.738   1.522   0.760
 7468SOL     OW23302   6.055   2.567   2.831
 7468SOL    HW123303   6.153   2.574   2.812
 7468SOL    HW223304   6.012   2.656   2.815
 7469SOL     OW23305   1.439   1.109   1.312
 7469SOL    HW123306   1.347   1.079   1.337
 7469SOL    HW223307   1.456   1.200   1.348
 7470SOL     OW23308   6.781   2.458   2.625
 7470SOL    HW123309   6.831   2.428   2.544
 7470SOL    HW223310   6.699   2.507   2.597
 7471SOL     OW23311   5.884   6.121   5.754
 7471SOL    HW123312   5.791   6.089   5.769
 7471SOL    HW223313   5.913   6.179   5.830
 7472SOL     OW23314   3.760   6.896   3.238
 7472SOL    HW123315   3.859   6.882   3.242
 7472SOL    HW223316   3.726   6.916   3.330
 7473SOL     OW23317   0.053   3.371   3.949
 7473SOL    HW123318   6.977   3.369   3.926
 7473SOL    HW223319   0.064   3.369   4.048
 7474SOL     OW23320   3.928   0.909   3.153
 7474SOL    HW123321   3.979   0.867   3.078
 7474SOL    HW223322   3.992   0.955   3.215
 7475SOL     OW23323   3.652   1.274   1.039
 7475SOL    HW123324   3.738   1.237   1.005
 7475SOL    HW223325   3.620   1.346   0.978
 7476SOL     OW23326   4.158   6.609   4.593
 7476SOL    HW123327   4.210   6.560   4.523
 7476SOL    HW223328   4.163   6.559   4.679
 7477SOL     OW23329   4.247   2.092   4.014
 7477SOL    HW123330   4.180   2.024   4.043
 7477SOL    HW223331   4.305   2.118   4.091
 7478SOL     OW23332   1.090   4.844   0.874
 7478SOL    HW123333   1.009   4.901   0.867
 7478SOL    HW223334   1.064   4.748   0.864
 7479SOL     OW23335   4.706   0.655   6.870
 7479SOL    HW123336   4.671   0.736   6.919
 7479SOL    HW223337   4.782   0.616   6.922
 7480SOL     OW23338   6.585   5.302   1.336
 7480SOL    HW123339   6.657   5.286   1.268
 7480SOL    HW223340   6.520   5.226   1.333
 7481SOL     OW23341   5.662   5.316   0.487
 7481SOL    HW123342   5.717   5.392   0.451
 7481SOL    HW223343   5.587   5.297   0.424
 7482SOL     OW23344   4.944   0.555   2.957
 7482SOL    HW123345   4.844   0.549   2.961
 7482SOL    HW223346   4.977   0.615   3.031
 7483SOL     OW23347   3.410   0.503   5.250
 7483SOL    HW123348   3.422   0.566   5.326
 7483SOL    HW223349   3.379   0.414   5.285
 7484SOL     OW23350   1.865   6.938   2.503
 7484SOL    HW123351   1.800   6.864   2.519
 7484SOL    HW223352   1.820   0.004   2.522
 7485SOL     OW23353   2.335   6.142   6.454
 7485SOL    HW123354   2.335   6.210   6.526
 7485SOL    HW223355   2.358   6.052   6.493
 7486SOL     OW23356   2.575   6.841   5.503
 7486SOL    HW123357   2.529   6.890   5.429
 7486SOL    HW223358   2.595   6.904   5.577
 7487SOL     OW23359   3.551   6.155   4.106
 7487SOL    HW123360   3.540   6.126   4.011
 7487SOL    HW223361   3.552   6.075   4.166
 7488SOL     OW23362   3.784   0.586   6.259
 7488SOL    HW123363   3.864   0.636   6.225
 7488SOL    HW223364   3.702   0.642   6.247
 7489SOL     OW23365   5.304   3.638   3.654
 7489SOL    HW123366   5.370   3.563   3.664
 7489SOL    HW223367   5.233   3.629   3.724
 7490SOL     OW23368   5.168   1.273   1.171
 7490SOL    HW123369   5.265   1.293   1.156
 7490SOL    HW223370   5.117   1.359   1.177
 7491SOL     OW23371   6.720   5.641   6.971
 7491SOL    HW123372   6.709   5.674   6.878
 7491SOL    HW223373   6.817   5.643   6.996
 7492SOL     OW23374   1.648   2.831   4.766
 7492SOL    HW123375   1.635   2.881   4.680
 7492SOL    HW223376   1.731   2.775   4.759
 7493SOL     OW23377   4.872   3.718   6.664
 7493SOL    HW123378   4.922   3.635   6.685
 7493SOL    HW223379   4.774   3.702   6.676
 7494SOL     OW23380   5.275   0.457   1.849
 7494SOL    HW123381   5.349   0.453   1.916
 7494SOL    HW223382   5.308   0.422   1.761
 7495SOL     OW23383   1.315   2.059   1.280
 7495SOL    HW123384   1.354   2.143   1.315
 7495SOL    HW223385   1.224   2.045   1.320
 7496SOL     OW23386   0.599   4.982   6.322
 7496SOL    HW123387   0.629   5.031   6.241
 7496SOL    HW223388   0.618   4.884   6.311
 7497SOL     OW23389   1.658   4.207   2.057
 7497SOL    HW123390   1.750   4.174   2.036
 7497SOL    HW223391   1.612   4.142   2.117
 7498SOL     OW23392   4.179   1.767   4.335
 7498SOL    HW123393   4.091   1.810   4.356
 7498SOL    HW223394   4.210   1.716   4.415
 7499SOL     OW23395   5.181   6.515   4.438
 7499SOL    HW123396   5.117   6.545   4.509
 7499SOL    HW223397   5.260   6.472   4.481
 7500SOL     OW23398   5.204   5.262   1.396
 7500SOL    HW123399   5.168   5.334   1.338
 7500SOL    HW223400   5.286   5.223   1.355
 7501SOL     OW23401   0.182   4.454   4.039
 7501SOL    HW123402   0.257   4.510   4.074
 7501SOL    HW223403   0.184   4.456   3.939
 7502SOL     OW23404   2.646   1.399   5.148
 7502SOL    HW123405   2.637   1.377   5.051
 7502SOL    HW223406   2.737   1.374   5.180
 7503SOL     OW23407   3.052   2.146   6.879
 7503SOL    HW123408   3.127   2.195   6.923
 7503SOL    HW223409   2.966   2.195   6.894
 7504SOL     OW23410   4.042   6.333   3.111
 7504SOL    HW123411   3.960   6.368   3.065
 7504SOL    HW223412   4.031   6.236   3.131
 7505SOL     OW23413   1.709   1.565   5.388
 7505SOL    HW123414   1.739   1.651   5.347
 7505SOL    HW223415   1.616   1.577   5.425
 7506SOL     OW23416   3.951   1.573   2.575
 7506SOL    HW123417   3.947   1.504   2.648
 7506SOL    HW223418   3.920   1.532   2.489
 7507SOL     OW23419   0.708   6.225   5.833
 7507SOL    HW123420   0.661   6.179   5.908
 7507SOL    HW223421   0.796   6.179   5.816
 7508SOL     OW23422   5.598   0.257   2.561
 7508SOL    HW123423   5.607   0.157   2.554
 7508SOL    HW223424   5.689   0.298   2.566
 7509SOL     OW23425   4.634   4.103   6.201
 7509SOL    HW123426   4.688   4.098   6.285
 7509SOL    HW223427   4.552   4.047   6.211
 7510SOL     OW23428   3.889   3.976   4.794
 7510SOL    HW123429   3.818   4.045   4.806
 7510SOL    HW223430   3.978   4.016   4.813
 7511SOL     OW23431   0.913   0.867   1.665
 7511SOL    HW123432   0.966   0.808   1.604
 7511SOL    HW223433   0.966   0.948   1.687
 7512SOL     OW23434   2.228   2.730   2.224
 7512SOL    HW123435   2.141   2.733   2.176
 7512SOL    HW223436   2.225   2.792   2.303
 7513SOL     OW23437   1.527   2.096   6.997
 7513SOL    HW123438   1.594   2.126   0.043
 7513SOL    HW223439   1.516   2.167   6.927
 7514SOL     OW23440   2.577   5.383   3.042
 7514SOL    HW123441   2.553   5.391   3.139
 7514SOL    HW223442   2.506   5.425   2.986
 7515SOL     OW23443   6.902   6.198   2.598
 7515SOL    HW123444   6.806   6.184   2.577
 7515SOL    HW223445   6.912   6.224   2.694
 7516SOL     OW23446   0.288   0.936   3.325
 7516SOL    HW123447   0.211   0.904   3.270
 7516SOL    HW223448   0.299   0.877   3.405
 7517SOL     OW23449   0.206   3.665   1.358
 7517SOL    HW123450   0.173   3.707   1.442
 7517SOL    HW223451   0.269   3.591   1.380
 7518SOL     OW23452   4.605   5.378   4.153
 7518SOL    HW123453   4.680   5.347   4.213
 7518SOL    HW223454   4.585   5.474   4.172
 7519SOL     OW23455   2.038   5.935   3.894
 7519SOL    HW123456   1.999   5.924   3.803
 7519SOL    HW223457   2.109   5.866   3.909
 7520SOL     OW23458   1.410   6.561   3.890
 7520SOL    HW123459   1.473   6.511   3.830
 7520SOL    HW223460   1.451   6.648   3.917
 7521SOL     OW23461   4.445   4.241   5.570
 7521SOL    HW123462   4.474   4.333   5.596
 7521SOL    HW223463   4.443   4.235   5.470
 7522SOL     OW23464   2.154   0.951   1.389
 7522SOL    HW123465   2.202   0.925   1.305
 7522SOL    HW223466   2.215   0.941   1.467
 7523SOL     OW23467   5.774   0.289   6.484
 7523SOL    HW123468   5.851   0.315   6.542
 7523SOL    HW223469   5.715   0.225   6.532
 7524SOL     OW23470   0.627   1.667   5.409
 7524SOL    HW123471   0.712   1.693   5.456
 7524SOL    HW223472   0.555   1.653   5.476
 7525SOL     OW23473   0.767   0.784   0.390
 7525SOL    HW123474   0.738   0.699   0.344
 7525SOL    HW223475   0.732   0.785   0.483
 7526SOL     OW23476   3.620   2.844   4.648
 7526SOL    HW123477   3.615   2.747   4.670
 7526SOL    HW223478   3.664   2.893   4.723
 7527SOL     OW23479   5.572   4.607   3.646
 7527SOL    HW123480   5.497   4.567   3.594
 7527SOL    HW223481   5.602   4.544   3.717
 7528SOL     OW23482   5.929   2.849   6.946
 7528SOL    HW123483   5.919   2.910   0.003
 7528SOL    HW223484   5.998   2.780   6.965
 7529SOL     OW23485   3.427   1.456   5.838
 7529SOL    HW123486   3.500   1.389   5.848
 7529SOL    HW223487   3.432   1.499   5.748
 7530SOL     OW23488   0.812   4.112   1.976
 7530SOL    HW123489   0.850   4.019   1.972
 7530SOL    HW223490   0.825   4.149   2.068
 7531SOL     OW23491   4.135   1.758   3.563
 7531SOL    HW123492   4.076   1.749   3.643
 7531SOL    HW223493   4.139   1.854   3.535
 7532SOL     OW23494   5.319   5.474   2.524
 7532SOL    HW123495   5.411   5.467   2.486
 7532SOL    HW223496   5.319   5.535   2.602
 7533SOL     OW23497   3.836   1.151   4.405
 7533SOL    HW123498   3.830   1.184   4.311
 7533SOL    HW223499   3.788   1.213   4.466
 7534SOL     OW23500   4.960   6.547   4.583
 7534SOL    HW123501   4.953   6.453   4.549
 7534SOL    HW223502   4.872   6.592   4.574
 7535SOL     OW23503   3.160   2.540   5.614
 7535SOL    HW123504   3.118   2.570   5.527
 7535SOL    HW223505   3.090   2.494   5.669
 7536SOL     OW23506   4.523   5.929   4.525
 7536SOL    HW123507   4.536   5.843   4.576
 7536SOL    HW223508   4.612   5.971   4.508
 7537SOL     OW23509   1.734   4.854   5.998
 7537SOL    HW123510   1.659   4.895   5.946
 7537SOL    HW223511   1.815   4.848   5.940
 7538SOL     OW23512   2.909   3.387   2.599
 7538SOL    HW123513   2.915   3.342   2.689
 7538SOL    HW223514   2.817   3.373   2.562
 7539SOL     OW23515   2.142   2.851   5.018
 7539SOL    HW123516   2.059   2.862   5.073
 7539SOL    HW223517   2.207   2.924   5.040
 7540SOL     OW23518   2.810   1.473   0.123
 7540SOL    HW123519   2.820   1.418   0.207
 7540SOL    HW223520   2.737   1.434   0.067
 7541SOL     OW23521   6.313   2.536   5.423
 7541SOL    HW123522   6.344   2.610   5.363
 7541SOL    HW223523   6.391   2.498   5.473
 7542SOL     OW23524   1.305   6.669   5.872
 7542SOL    HW123525   1.264   6.583   5.840
 7542SOL    HW223526   1.353   6.713   5.796
 7543SOL     OW23527   4.068   3.174   0.346
 7543SOL    HW123528   3.987   3.118   0.331
 7543SOL    HW223529   4.148   3.115   0.354
 7544SOL     OW23530   2.225   1.867   2.731
 7544SOL    HW123531   2.137   1.902   2.699
 7544SOL    HW223532   2.297   1.934   2.711
 7545SOL     OW23533   5.214   6.937   3.411
 7545SOL    HW123534   5.156   6.903   3.484
 7545SOL    HW223535   5.293   6.984   3.450
 7546SOL     OW23536   4.726   0.877   0.043
 7546SOL    HW123537   4.739   0.963   7.015
 7546SOL    HW223538   4.801   0.864   0.108
 7547SOL     OW23539   3.120   0.144   0.481
 7547SOL    HW123540   3.161   0.121   0.393
 7547SOL    HW223541   3.020   0.147   0.472
 7548SOL     OW23542   1.638   2.244   1.914
 7548SOL    HW123543   1.666   2.239   2.010
 7548SOL    HW223544   1.637   2.152   1.875
 7549SOL     OW23545   5.714   2.009   3.088
 7549SOL    HW123546   5.623   2.023   3.127
 7549SOL    HW223547   5.755   2.097   3.067
 7550SOL     OW23548   1.825   5.484   2.655
 7550SOL    HW123549   1.760   5.411   2.635
 7550SOL    HW223550   1.814   5.557   2.588
 7551SOL     OW23551   5.154   3.339   6.525
 7551SOL    HW123552   5.248   3.373   6.538
 7551SOL    HW223553   5.148   3.292   6.437
 7552SOL     OW23554   3.064   4.952   4.397
 7552SOL    HW123555   3.149   4.944   4.345
 7552SOL    HW223556   3.005   5.021   4.355
 7553SOL     OW23557   3.904   5.589   6.077
 7553SOL    HW123558   3.993   5.598   6.122
 7553SOL    HW223559   3.916   5.597   5.978
 7554SOL     OW23560   6.324   0.661   0.473
 7554SOL    HW123561   6.235   0.623   0.495
 7554SOL    HW223562   6.328   0.757   0.502
 7555SOL     OW23563   0.290   6.125   5.539
 7555SOL    HW123564   0.216   6.111   5.474
 7555SOL    HW223565   0.262   6.193   5.607
 7556SOL     OW23566   0.627   2.698   4.499
 7556SOL    HW123567   0.676   2.651   4.426
 7556SOL    HW223568   0.568   2.768   4.460
 7557SOL     OW23569   4.780   3.852   0.315
 7557SOL    HW123570   4.854   3.873   0.251
 7557SOL    HW223571   4.783   3.916   0.391
 7558SOL     OW23572   1.539   3.288   3.199
 7558SOL    HW123573   1.441   3.282   3.181
 7558SOL    HW223574   1.586   3.327   3.120
 7559SOL     OW23575   0.322   4.207   0.853
 7559SOL    HW123576   0.342   4.293   0.899
 7559SOL    HW223577   0.278   4.144   0.917
 7560SOL     OW23578   5.260   6.883   0.492
 7560SOL    HW123579   5.247   6.963   0.551
 7560SOL    HW223580   5.342   6.834   0.521
 7561SOL     OW23581   6.958   2.875   0.404
 7561SOL    HW123582   6.888   2.872   0.333
 7561SOL    HW223583   6.931   2.815   0.480
 7562SOL     OW23584   5.571   6.297   4.943
 7562SOL    HW123585   5.482   6.342   4.935
 7562SOL    HW223586   5.642   6.354   4.901
 7563SOL     OW23587   2.765   0.952   2.481
 7563SOL    HW123588   2.842   0.891   2.501
 7563SOL    HW223589   2.705   0.956   2.560
 7564SOL     OW23590   5.233   6.996   3.144
 7564SOL    HW123591   5.208   7.000   3.241
 7564SOL    HW223592   5.211   0.061   3.100
 7565SOL     OW23593   4.795   4.538   0.293
 7565SOL    HW123594   4.742   4.620   0.312
 7565SOL    HW223595   4.778   4.469   0.363
 7566SOL     OW23596   1.474   5.877   4.262
 7566SOL    HW123597   1.441   5.841   4.350
 7566SOL    HW223598   1.544   5.945   4.278
 7567SOL     OW23599   2.931   4.317   6.955
 7567SOL    HW123600   2.960   4.224   6.977
 7567SOL    HW223601   2.987   4.383   7.005
 7568SOL     OW23602   4.504   5.364   3.653
 7568SOL    HW123603   4.511   5.314   3.567
 7568SOL    HW223604   4.556   5.317   3.724
 7569SOL     OW23605   3.671   6.513   0.811
 7569SOL    HW123606   3.638   6.530   0.718
 7569SOL    HW223607   3.709   6.421   0.817
 7570SOL     OW23608   6.209   5.580   3.442
 7570SOL    HW123609   6.110   5.596   3.440
 7570SOL    HW223610   6.233   5.527   3.523
 7571SOL     OW23611   5.461   4.357   2.121
 7571SOL    HW123612   5.489   4.306   2.202
 7571SOL    HW223613   5.470   4.299   2.040
 7572SOL     OW23614   3.193   1.253   4.838
 7572SOL    HW123615   3.291   1.267   4.853
 7572SOL    HW223616   3.147   1.245   4.927
 7573SOL     OW23617   1.691   6.049   4.276
 7573SOL    HW123618   1.715   6.136   4.318
 7573SOL    HW223619   1.752   6.031   4.198
 7574SOL     OW23620   5.130   6.338   2.949
 7574SOL    HW123621   5.076   6.413   2.910
 7574SOL    HW223622   5.148   6.356   3.046
 7575SOL     OW23623   3.854   1.667   5.329
 7575SOL    HW123624   3.917   1.745   5.336
 7575SOL    HW223625   3.893   1.597   5.269
 7576SOL     OW23626   6.402   2.984   0.520
 7576SOL    HW123627   6.501   2.995   0.521
 7576SOL    HW223628   6.369   2.985   0.425
 7577SOL     OW23629   5.996   0.536   5.057
 7577SOL    HW123630   5.931   0.539   5.134
 7577SOL    HW223631   5.971   0.605   4.989
 7578SOL     OW23632   2.411   4.988   4.469
 7578SOL    HW123633   2.503   5.002   4.433
 7578SOL    HW223634   2.414   4.987   4.569
 7579SOL     OW23635   3.793   1.987   2.502
 7579SOL    HW123636   3.695   1.981   2.522
 7579SOL    HW223637   3.808   2.054   2.430
 7580SOL     OW23638   1.877   4.185   2.537
 7580SOL    HW123639   1.925   4.228   2.460
 7580SOL    HW223640   1.935   4.112   2.574
 7581SOL     OW23641   5.657   0.536   0.698
 7581SOL    HW123642   5.611   0.523   0.785
 7581SOL    HW223643   5.755   0.521   0.709
 7582SOL     OW23644   2.939   0.943   1.078
 7582SOL    HW123645   2.893   0.855   1.083
 7582SOL    HW223646   2.906   1.002   1.152
 7583SOL     OW23647   5.596   3.744   2.478
 7583SOL    HW123648   5.508   3.791   2.491
 7583SOL    HW223649   5.649   3.792   2.409
 7584SOL     OW23650   2.741   6.843   1.209
 7584SOL    HW123651   2.706   6.825   1.301
 7584SOL    HW223652   2.831   6.886   1.216
 7585SOL     OW23653   1.810   5.006   6.256
 7585SOL    HW123654   1.809   5.104   6.237
 7585SOL    HW223655   1.749   4.959   6.193
 7586SOL     OW23656   3.318   0.866   2.826
 7586SOL    HW123657   3.266   0.889   2.908
 7586SOL    HW223658   3.256   0.863   2.747
 7587SOL     OW23659   0.649   1.808   6.103
 7587SOL    HW123660   0.655   1.709   6.087
 7587SOL    HW223661   0.714   1.834   6.174
 7588SOL     OW23662   6.989   4.487   2.478
 7588SOL    HW123663   6.991   4.443   2.388
 7588SOL    HW223664   6.970   4.585   2.466
 7589SOL     OW23665   6.085   5.345   0.665
 7589SOL    HW123666   6.026   5.312   0.591
 7589SOL    HW223667   6.145   5.271   0.696
 7590SOL     OW23668   1.809   1.194   6.292
 7590SOL    HW123669   1.717   1.155   6.290
 7590SOL    HW223670   1.804   1.288   6.326
 7591SOL     OW23671   6.949   4.702   0.305
 7591SOL    HW123672   7.021   4.661   0.249
 7591SOL    HW223673   6.910   4.781   0.258
 7592SOL     OW23674   5.343   5.383   6.831
 7592SOL    HW123675   5.399   5.303   6.810
 7592SOL    HW223676   5.256   5.377   6.781
 7593SOL     OW23677   5.367   2.100   6.919
 7593SOL    HW123678   5.290   2.109   6.983
 7593SOL    HW223679   5.428   2.178   6.930
 7594SOL     OW23680   1.340   5.916   3.764
 7594SOL    HW123681   1.367   5.820   3.761
 7594SOL    HW223682   1.240   5.923   3.771
 7595SOL     OW23683   6.718   3.208   6.806
 7595SOL    HW123684   6.629   3.254   6.815
 7595SOL    HW223685   6.790   3.277   6.799
 7596SOL     OW23686   5.135   4.814   1.633
 7596SOL    HW123687   5.227   4.852   1.647
 7596SOL    HW223688   5.081   4.878   1.578
 7597SOL     OW23689   3.701   5.401   1.859
 7597SOL    HW123690   3.766   5.435   1.792
 7597SOL    HW223691   3.627   5.468   1.871
 7598SOL     OW23692   6.991   1.058   3.641
 7598SOL    HW123693   0.062   1.090   3.621
 7598SOL    HW223694   6.988   1.021   3.734
 7599SOL     OW23695   6.466   1.825   2.937
 7599SOL    HW123696   6.499   1.919   2.924
 7599SOL    HW223697   6.402   1.802   2.864
 7600SOL     OW23698   2.367   1.339   1.464
 7600SOL    HW123699   2.450   1.362   1.413
 7600SOL    HW223700   2.288   1.343   1.403
 7601SOL     OW23701   1.957   6.206   4.307
 7601SOL    HW123702   2.018   6.177   4.233
 7601SOL    HW223703   2.006   6.203   4.394
 7602SOL     OW23704   0.475   3.805   4.401
 7602SOL    HW123705   0.406   3.852   4.455
 7602SOL    HW223706   0.558   3.861   4.396
 7603SOL     OW23707   1.400   6.550   1.466
 7603SOL    HW123708   1.341   6.617   1.420
 7603SOL    HW223709   1.370   6.458   1.443
 7604SOL     OW23710   4.394   6.032   5.285
 7604SOL    HW123711   4.447   6.085   5.219
 7604SOL    HW223712   4.367   5.945   5.244
 7605SOL     OW23713   6.569   4.318   0.155
 7605SOL    HW123714   6.540   4.309   0.250
 7605SOL    HW223715   6.559   4.413   0.126
 7606SOL     OW23716   5.950   2.446   2.589
 7606SOL    HW123717   6.002   2.494   2.660
 7606SOL    HW223718   6.011   2.383   2.540
 7607SOL     OW23719   4.844   0.242   6.859
 7607SOL    HW123720   4.914   0.312   6.853
 7607SOL    HW223721   4.886   0.152   6.873
 7608SOL     OW23722   2.967   3.753   3.855
 7608SOL    HW123723   2.948   3.786   3.948
 7608SOL    HW223724   3.048   3.694   3.857
 7609SOL     OW23725   0.922   3.342   4.141
 7609SOL    HW123726   0.841   3.399   4.127
 7609SOL    HW223727   0.895   3.245   4.139
 7610SOL     OW23728   5.521   0.213   0.641
 7610SOL    HW123729   5.448   0.260   0.691
 7610SOL    HW223730   5.601   0.204   0.700
 7611SOL     OW23731   1.346   1.969   0.115
 7611SOL    HW123732   1.257   1.941   0.081
 7611SOL    HW223733   1.391   2.028   0.048
 7612SOL     OW23734   3.902   1.824   3.338
 7612SOL    HW123735   3.822   1.776   3.371
 7612SOL    HW223736   3.907   1.914   3.381
 7613SOL     OW23737   5.027   1.113   1.723
 7613SOL    HW123738   5.054   1.117   1.627
 7613SOL    HW223739   4.930   1.132   1.732
 7614SOL     OW23740   4.148   2.415   0.984
 7614SOL    HW123741   4.184   2.381   0.897
 7614SOL    HW223742   4.059   2.372   1.003
 7615SOL     OW23743   3.911   4.799   6.496
 7615SOL    HW123744   3.822   4.772   6.459
 7615SOL    HW223745   3.977   4.806   6.421
 7616SOL     OW23746   6.518   3.575   3.065
 7616SOL    HW123747   6.520   3.669   3.032
 7616SOL    HW223748   6.426   3.537   3.054
 7617SOL     OW23749   3.371   4.940   3.143
 7617SOL    HW123750   3.417   4.939   3.054
 7617SOL    HW223751   3.302   5.014   3.144
 7618SOL     OW23752   2.037   2.366   6.659
 7618SOL    HW123753   2.119   2.319   6.624
 7618SOL    HW223754   2.057   2.463   6.670
 7619SOL     OW23755   6.216   3.671   5.560
 7619SOL    HW123756   6.181   3.578   5.564
 7619SOL    HW223757   6.163   3.729   5.621
 7620SOL     OW23758   3.373   6.843   1.552
 7620SOL    HW123759   3.444   6.856   1.621
 7620SOL    HW223760   3.355   6.929   1.505
 7621SOL     OW23761   2.260   0.571   1.388
 7621SOL    HW123762   2.203   0.510   1.333
 7621SOL    HW223763   2.356   0.546   1.377
 7622SOL     OW23764   4.417   3.026   0.660
 7622SOL    HW123765   4.405   2.930   0.685
 7622SOL    HW223766   4.356   3.082   0.717
 7623SOL     OW23767   4.662   0.378   5.425
 7623SOL    HW123768   4.629   0.323   5.349
 7623SOL    HW223769   4.757   0.353   5.446
 7624SOL     OW23770   0.696   0.930   3.275
 7624SOL    HW123771   0.622   0.864   3.260
 7624SOL    HW223772   0.760   0.928   3.198
 7625SOL     OW23773   4.987   0.958   0.862
 7625SOL    HW123774   4.898   0.921   0.838
 7625SOL    HW223775   5.021   0.913   0.945
 7626SOL     OW23776   1.697   6.415   4.576
 7626SOL    HW123777   1.651   6.386   4.660
 7626SOL    HW223778   1.796   6.415   4.590
 7627SOL     OW23779   6.497   2.552   0.887
 7627SOL    HW123780   6.496   2.637   0.835
 7627SOL    HW223781   6.468   2.570   0.982
 7628SOL     OW23782   3.393   1.691   0.768
 7628SOL    HW123783   3.457   1.711   0.694
 7628SOL    HW223784   3.329   1.767   0.778
 7629SOL     OW23785   0.017   5.486   2.925
 7629SOL    HW123786   6.991   5.534   2.851
 7629SOL    HW223787   0.020   5.545   3.005
 7630SOL     OW23788   6.426   0.532   2.628
 7630SOL    HW123789   6.378   0.458   2.581
 7630SOL    HW223790   6.475   0.495   2.707
 7631SOL     OW23791   0.283   2.443   3.682
 7631SOL    HW123792   0.270   2.350   3.717
 7631SOL    HW223793   0.308   2.503   3.758
 7632SOL     OW23794   4.838   2.424   0.359
 7632SOL    HW123795   4.774   2.367   0.410
 7632SOL    HW223796   4.794   2.512   0.338
 7633SOL     OW23797   5.618   3.910   6.725
 7633SOL    HW123798   5.702   3.959   6.746
 7633SOL    HW223799   5.541   3.957   6.768
 7634SOL     OW23800   2.193   0.994   1.921
 7634SOL    HW123801   2.159   1.070   1.975
 7634SOL    HW223802   2.204   1.024   1.826
 7635SOL     OW23803   2.716   5.119   5.552
 7635SOL    HW123804   2.624   5.148   5.578
 7635SOL    HW223805   2.711   5.065   5.467
 7636SOL     OW23806   0.804   0.471   4.229
 7636SOL    HW123807   0.823   0.552   4.284
 7636SOL    HW223808   0.846   0.391   4.272
 7637SOL     OW23809   1.380   6.071   4.087
 7637SOL    HW123810   1.355   6.031   3.999
 7637SOL    HW223811   1.412   5.998   4.148
 7638SOL     OW23812   5.311   5.319   1.648
 7638SOL    HW123813   5.227   5.329   1.703
 7638SOL    HW223814   5.287   5.285   1.557
 7639SOL     OW23815   0.794   1.409   5.725
 7639SOL    HW123816   0.863   1.398   5.653
 7639SOL    HW223817   0.804   1.499   5.767
 7640SOL     OW23818   2.501   1.868   0.488
 7640SOL    HW123819   2.595   1.871   0.523
 7640SOL    HW223820   2.441   1.830   0.558
 7641SOL     OW23821   6.001   4.018   2.397
 7641SOL    HW123822   6.035   4.098   2.447
 7641SOL    HW223823   5.906   4.033   2.371
 7642SOL     OW23824   2.325   1.845   2.300
 7642SOL    HW123825   2.259   1.914   2.269
 7642SOL    HW223826   2.417   1.882   2.294
 7643SOL     OW23827   4.930   2.850   3.200
 7643SOL    HW123828   5.007   2.904   3.167
 7643SOL    HW223829   4.845   2.885   3.162
 7644SOL     OW23830   6.909   3.340   2.588
 7644SOL    HW123831   6.883   3.346   2.685
 7644SOL    HW223832   6.827   3.319   2.534
 7645SOL     OW23833   4.232   4.357   0.169
 7645SOL    HW123834   4.225   4.384   0.265
 7645SOL    HW223835   4.218   4.438   0.111
 7646SOL     OW23836   2.216   1.911   1.969
 7646SOL    HW123837   2.314   1.933   1.972
 7646SOL    HW223838   2.172   1.964   1.897
 7647SOL     OW23839   2.750   4.022   1.711
 7647SOL    HW123840   2.677   4.063   1.765
 7647SOL    HW223841   2.731   3.925   1.697
 7648SOL     OW23842   4.474   1.113   3.830
 7648SOL    HW123843   4.377   1.130   3.845
 7648SOL    HW223844   4.523   1.200   3.828
 7649SOL     OW23845   2.993   0.660   2.008
 7649SOL    HW123846   2.982   0.749   2.052
 7649SOL    HW223847   3.052   0.670   1.928
 7650SOL     OW23848   6.050   3.841   1.844
 7650SOL    HW123849   5.970   3.797   1.886
 7650SOL    HW223850   6.020   3.916   1.785
 7651SOL     OW23851   3.342   1.261   6.753
 7651SOL    HW123852   3.356   1.341   6.695
 7651SOL    HW223853   3.283   1.196   6.706
 7652SOL     OW23854   0.266   3.745   2.666
 7652SOL    HW123855   0.351   3.729   2.716
 7652SOL    HW223856   0.249   3.668   2.605
 7653SOL     OW23857   2.401   2.340   1.658
 7653SOL    HW123858   2.469   2.413   1.665
 7653SOL    HW223859   2.427   2.276   1.586
 7654SOL     OW23860   4.816   3.736   3.530
 7654SOL    HW123861   4.755   3.781   3.465
 7654SOL    HW223862   4.900   3.709   3.484
 7655SOL     OW23863   3.676   6.317   5.017
 7655SOL    HW123864   3.691   6.261   5.099
 7655SOL    HW223865   3.578   6.329   5.002
 7656SOL     OW23866   6.908   6.020   5.655
 7656SOL    HW123867   6.973   5.945   5.662
 7656SOL    HW223868   6.929   6.090   5.723
 7657SOL     OW23869   3.441   1.472   4.003
 7657SOL    HW123870   3.441   1.560   4.049
 7657SOL    HW223871   3.401   1.481   3.912
 7658SOL     OW23872   4.131   1.027   6.042
 7658SOL    HW123873   4.192   1.085   6.097
 7658SOL    HW223874   4.075   1.085   5.983
 7659SOL     OW23875   5.779   6.789   0.813
 7659SOL    HW123876   5.806   6.875   0.769
 7659SOL    HW223877   5.722   6.736   0.751
 7660SOL     OW23878   5.750   5.696   3.215
 7660SOL    HW123879   5.752   5.639   3.133
 7660SOL    HW223880   5.656   5.706   3.248
 7661SOL     OW23881   6.565   2.779   3.477
 7661SOL    HW123882   6.601   2.839   3.548
 7661SOL    HW223883   6.482   2.734   3.510
 7662SOL     OW23884   1.152   4.823   2.011
 7662SOL    HW123885   1.243   4.787   2.029
 7662SOL    HW223886   1.148   4.862   1.919
 7663SOL     OW23887   0.062   4.485   6.004
 7663SOL    HW123888   0.027   4.577   5.985
 7663SOL    HW223889   0.154   4.491   6.042
 7664SOL     OW23890   2.339   5.262   3.400
 7664SOL    HW123891   2.273   5.336   3.415
 7664SOL    HW223892   2.327   5.192   3.470
 7665SOL     OW23893   2.605   6.982   4.556
 7665SOL    HW123894   2.618   6.927   4.638
 7665SOL    HW223895   2.514   0.001   4.558
 7666SOL     OW23896   1.567   0.844   1.113
 7666SOL    HW123897   1.588   0.940   1.091
 7666SOL    HW223898   1.572   0.831   1.212
 7667SOL     OW23899   4.534   0.016   6.998
 7667SOL    HW123900   4.523   0.087   6.928
 7667SOL    HW223901   4.604   0.045   0.042
 7668SOL     OW23902   3.873   4.315   1.098
 7668SOL    HW123903   3.793   4.364   1.132
 7668SOL    HW223904   3.880   4.226   1.143
 7669SOL     OW23905   5.068   0.225   4.195
 7669SOL    HW123906   4.982   0.192   4.156
 7669SOL    HW223907   5.055   0.243   4.293
 7670SOL     OW23908   1.460   5.314   0.404
 7670SOL    HW123909   1.489   5.224   0.437
 7670SOL    HW223910   1.527   5.349   0.339
 7671SOL     OW23911   6.351   2.722   3.823
 7671SOL    HW123912   6.414   2.799   3.820
 7671SOL    HW223913   6.258   2.754   3.810
 7672SOL     OW23914   5.704   0.750   3.119
 7672SOL    HW123915   5.652   0.813   3.063
 7672SOL    HW223916   5.750   0.801   3.192
 7673SOL     OW23917   0.912   4.378   0.929
 7673SOL    HW123918   0.909   4.373   1.029
 7673SOL    HW223919   0.960   4.298   0.893
 7674SOL     OW23920   6.126   1.330   5.343
 7674SOL    HW123921   6.080   1.399   5.398
 7674SOL    HW223922   6.177   1.374   5.269
 7675SOL     OW23923   4.431   6.781   3.049
 7675SOL    HW123924   4.501   6.827   3.104
 7675SOL    HW223925   4.442   6.682   3.057
 7676SOL     OW23926   1.321   0.745   0.489
 7676SOL    HW123927   1.242   0.731   0.548
 7676SOL    HW223928   1.405   0.738   0.544
 7677SOL     OW23929   1.478   3.217   2.638
 7677SOL    HW123930   1.422   3.134   2.635
 7677SOL    HW223931   1.420   3.296   2.653
 7678SOL     OW23932   6.460   6.885   0.724
 7678SOL    HW123933   6.508   6.929   0.648
 7678SOL    HW223934   6.483   6.788   0.727
 7679SOL     OW23935   1.001   5.246   4.961
 7679SOL    HW123936   1.058   5.194   5.025
 7679SOL    HW223937   0.917   5.195   4.942
 7680SOL     OW23938   3.618   2.969   0.122
 7680SOL    HW123939   3.637   2.932   0.031
 7680SOL    HW223940   3.519   2.970   0.137
 7681SOL     OW23941   2.790   1.736   0.021
 7681SOL    HW123942   2.832   1.825   0.034
 7681SOL    HW223943   2.826   1.671   0.088
 7682SOL     OW23944   2.865   6.996   2.216
 7682SOL    HW123945   2.889   0.067   2.188
 7682SOL    HW223946   2.768   6.980   2.198
 7683SOL     OW23947   5.421   2.016   3.135
 7683SOL    HW123948   5.361   2.087   3.173
 7683SOL    HW223949   5.366   1.950   3.084
 7684SOL     OW23950   4.183   2.210   5.954
 7684SOL    HW123951   4.098   2.262   5.955
 7684SOL    HW223952   4.223   2.214   5.862
 7685SOL     OW23953   3.577   3.174   0.666
 7685SOL    HW123954   3.488   3.146   0.630
 7685SOL    HW223955   3.589   3.272   0.653
 7686SOL     OW23956   4.511   6.527   4.207
 7686SOL    HW123957   4.569   6.587   4.151
 7686SOL    HW223958   4.474   6.454   4.150
 7687SOL     OW23959   5.127   5.408   5.309
 7687SOL    HW123960   5.142   5.314   5.340
 7687SOL    HW223961   5.123   5.469   5.388
 7688SOL     OW23962   0.174   6.571   4.700
 7688SOL    HW123963   0.103   6.589   4.632
 7688SOL    HW223964   0.263   6.570   4.655
 7689SOL     OW23965   4.813   6.833   4.835
 7689SOL    HW123966   4.897   6.779   4.845
 7689SOL    HW223967   4.775   6.851   4.925
 7690SOL     OW23968   6.318   4.947   3.400
 7690SOL    HW123969   6.311   4.977   3.305
 7690SOL    HW223970   6.392   4.880   3.409
 7691SOL     OW23971   5.279   3.197   4.313
 7691SOL    HW123972   5.227   3.140   4.249
 7691SOL    HW223973   5.312   3.279   4.265
 7692SOL     OW23974   2.027   6.696   1.780
 7692SOL    HW123975   2.041   6.795   1.789
 7692SOL    HW223976   1.943   6.679   1.728
 7693SOL     OW23977   4.168   1.604   6.330
 7693SOL    HW123978   4.252   1.549   6.333
 7693SOL    HW223979   4.098   1.560   6.386
 7694SOL     OW23980   6.878   5.235   4.577
 7694SOL    HW123981   6.896   5.232   4.479
 7694SOL    HW223982   6.910   5.322   4.614
 7695SOL     OW23983   4.320   6.666   1.085
 7695SOL    HW123984   4.279   6.676   0.995
 7695SOL    HW223985   4.344   6.756   1.121
 7696SOL     OW23986   0.073   3.674   5.302
 7696SOL    HW123987   0.092   3.648   5.397
 7696SOL    HW223988   0.117   3.761   5.282
 7697SOL     OW23989   3.138   1.181   2.799
 7697SOL    HW123990   3.156   1.241   2.721
 7697SOL    HW223991   3.042   1.188   2.824
 7698SOL     OW23992   6.537   2.614   5.843
 7698SOL    HW123993   6.544   2.593   5.941
 7698SOL    HW223994   6.606   2.683   5.819
 7699SOL     OW23995   2.973   5.170   6.513
 7699SOL    HW123996   2.993   5.072   6.515
 7699SOL    HW223997   3.023   5.213   6.437
 7700SOL     OW23998   5.257   6.575   5.118
 7700SOL    HW123999   5.287   6.581   5.213
 7700SOL    HW224000   5.201   6.654   5.095
 7701SOL     OW24001   0.180   1.687   4.530
 7701SOL    HW124002   0.157   1.784   4.520
 7701SOL    HW224003   0.269   1.669   4.486
 7702SOL     OW24004   3.133   6.080   5.650
 7702SOL    HW124005   3.054   6.021   5.668
 7702SOL    HW224006   3.196   6.035   5.587
 7703SOL     OW24007   0.601   1.074   6.008
 7703SOL    HW124008   0.611   1.043   5.913
 7703SOL    HW224009   0.543   1.010   6.058
 7704SOL     OW24010   4.297   4.214   6.899
 7704SOL    HW124011   4.389   4.207   6.937
 7704SOL    HW224012   4.230   4.217   6.973
 7705SOL     OW24013   3.343   5.177   5.218
 7705SOL    HW124014   3.386   5.240   5.153
 7705SOL    HW224015   3.249   5.206   5.236
 7706SOL     OW24016   6.670   1.073   5.173
 7706SOL    HW124017   6.744   1.140   5.186
 7706SOL    HW224018   6.584   1.121   5.158
 7707SOL     OW24019   6.629   5.399   6.479
 7707SOL    HW124020   6.578   5.332   6.425
 7707SOL    HW224021   6.647   5.362   6.570
 7708SOL     OW24022   4.633   0.008   4.696
 7708SOL    HW124023   4.687   0.054   4.626
 7708SOL    HW224024   4.694   6.980   4.758
 7709SOL     OW24025   4.062   2.204   2.094
 7709SOL    HW124026   4.070   2.287   2.038
 7709SOL    HW224027   4.031   2.128   2.037
 7710SOL     OW24028   2.182   0.800   0.201
 7710SOL    HW124029   2.097   0.747   0.192
 7710SOL    HW224030   2.241   0.758   0.270
 7711SOL     OW24031   5.164   6.588   5.528
 7711SOL    HW124032   5.242   6.555   5.475
 7711SOL    HW224033   5.080   6.544   5.496
 7712SOL     OW24034   5.810   5.216   0.997
 7712SOL    HW124035   5.877   5.142   0.995
 7712SOL    HW224036   5.753   5.213   0.916
 7713SOL     OW24037   1.826   4.172   6.037
 7713SOL    HW124038   1.784   4.092   5.993
 7713SOL    HW224039   1.916   4.146   6.073
 7714SOL     OW24040   6.356   4.377   4.052
 7714SOL    HW124041   6.409   4.423   3.981
 7714SOL    HW224042   6.407   4.378   4.138
 7715SOL     OW24043   4.898   0.143   1.414
 7715SOL    HW124044   4.808   0.098   1.415
 7715SOL    HW224045   4.970   0.074   1.405
 7716SOL     OW24046   4.369   1.774   3.702
 7716SOL    HW124047   4.288   1.754   3.647
 7716SOL    HW224048   4.354   1.858   3.753
 7717SOL     OW24049   2.813   1.282   5.786
 7717SOL    HW124050   2.894   1.339   5.794
 7717SOL    HW224051   2.804   1.250   5.691
 7718SOL     OW24052   2.772   0.625   3.741
 7718SOL    HW124053   2.869   0.647   3.728
 7718SOL    HW224054   2.756   0.530   3.718
 7719SOL     OW24055   6.822   1.832   4.426
 7719SOL    HW124056   6.788   1.779   4.348
 7719SOL    HW224057   6.829   1.929   4.399
 7720SOL     OW24058   5.786   5.990   1.682
 7720SOL    HW124059   5.870   6.042   1.666
 7720SOL    HW224060   5.771   5.928   1.604
 7721SOL     OW24061   2.218   4.179   2.732
 7721SOL    HW124062   2.148   4.108   2.727
 7721SOL    HW224063   2.268   4.184   2.645
 7722SOL     OW24064   6.719   4.614   3.954
 7722SOL    HW124065   6.680   4.704   3.977
 7722SOL    HW224066   6.796   4.595   4.015
 7723SOL     OW24067   6.600   3.325   0.736
 7723SOL    HW124068   6.574   3.284   0.823
 7723SOL    HW224069   6.518   3.345   0.682
 7724SOL     OW24070   1.194   4.235   1.092
 7724SOL    HW124071   1.157   4.265   1.180
 7724SOL    HW224072   1.269   4.295   1.064
 7725SOL     OW24073   5.765   3.209   4.145
 7725SOL    HW124074   5.716   3.274   4.088
 7725SOL    HW224075   5.742   3.224   4.241
 7726SOL     OW24076   0.563   4.740   3.097
 7726SOL    HW124077   0.475   4.694   3.093
 7726SOL    HW224078   0.606   4.738   3.007
 7727SOL     OW24079   6.494   2.355   2.931
 7727SOL    HW124080   6.592   2.344   2.915
 7727SOL    HW224081   6.452   2.265   2.944
 7728SOL     OW24082   1.999   2.966   3.095
 7728SOL    HW124083   1.987   3.052   3.046
 7728SOL    HW224084   2.004   2.983   3.193
 7729SOL     OW24085   5.304   2.497   0.918
 7729SOL    HW124086   5.273   2.588   0.947
 7729SOL    HW224087   5.290   2.432   0.992
 7730SOL     OW24088   5.372   0.444   2.880
 7730SOL    HW124089   5.371   0.358   2.828
 7730SOL    HW224090   5.288   0.495   2.861
 7731SOL     OW24091   6.020   0.931   7.003
 7731SOL    HW124092   5.998   0.922   6.906
 7731SOL    HW224093   6.117   0.952   7.014
 7732SOL     OW24094   3.813   5.915   0.426
 7732SOL    HW124095   3.891   5.893   0.485
 7732SOL    HW224096   3.745   5.842   0.432
 7733SOL     OW24097   3.713   0.238   1.870
 7733SOL    HW124098   3.618   0.213   1.852
 7733SOL    HW224099   3.716   0.310   1.940
 7734SOL     OW24100   1.689   2.169   3.344
 7734SOL    HW124101   1.665   2.095   3.407
 7734SOL    HW224102   1.606   2.204   3.302
 7735SOL     OW24103   5.335   4.175   6.635
 7735SOL    HW124104   5.294   4.169   6.543
 7735SOL    HW224105   5.265   4.154   6.703
 7736SOL     OW24106   6.024   4.856   0.193
 7736SOL    HW124107   5.972   4.859   0.279
 7736SOL    HW224108   6.121   4.847   0.214
 7737SOL     OW24109   4.872   1.812   0.483
 7737SOL    HW124110   4.830   1.723   0.499
 7737SOL    HW224111   4.832   1.855   0.402
 7738SOL     OW24112   2.806   5.187   0.196
 7738SOL    HW124113   2.894   5.224   0.225
 7738SOL    HW224114   2.749   5.261   0.160
 7739SOL     OW24115   6.840   2.040   1.082
 7739SOL    HW124116   6.802   1.957   1.042
 7739SOL    HW224117   6.801   2.054   1.173
 7740SOL     OW24118   6.959   6.984   3.039
 7740SOL    HW124119   7.018   0.041   3.052
 7740SOL    HW224120   6.908   6.965   3.123
 7741SOL     OW24121   1.622   5.823   4.598
 7741SOL    HW124122   1.646   5.774   4.681
 7741SOL    HW224123   1.700   5.822   4.535
 7742SOL     OW24124   6.463   1.790   3.840
 7742SOL    HW124125   6.502   1.710   3.886
 7742SOL    HW224126   6.511   1.805   3.754
 7743SOL     OW24127   4.702   2.679   4.399
 7743SOL    HW124128   4.629   2.616   4.374
 7743SOL    HW224129   4.752   2.706   4.317
 7744SOL     OW24130   6.665   0.188   3.888
 7744SOL    HW124131   6.582   0.132   3.887
 7744SOL    HW224132   6.642   0.281   3.859
 7745SOL     OW24133   4.170   2.844   6.143
 7745SOL    HW124134   4.184   2.936   6.106
 7745SOL    HW224135   4.082   2.840   6.191
 7746SOL     OW24136   1.406   1.038   0.375
 7746SOL    HW124137   1.369   0.962   0.429
 7746SOL    HW224138   1.487   1.008   0.325
 7747SOL     OW24139   5.320   6.202   1.149
 7747SOL    HW124140   5.355   6.209   1.055
 7747SOL    HW224141   5.226   6.236   1.152
 7748SOL     OW24142   2.926   4.608   5.880
 7748SOL    HW124143   2.996   4.586   5.812
 7748SOL    HW224144   2.894   4.524   5.923
 7749SOL     OW24145   5.279   2.820   5.593
 7749SOL    HW124146   5.225   2.735   5.596
 7749SOL    HW224147   5.328   2.826   5.506
 7750SOL     OW24148   0.242   5.598   2.073
 7750SOL    HW124149   0.192   5.664   2.015
 7750SOL    HW224150   0.289   5.648   2.146
 7751SOL     OW24151   0.956   2.845   2.348
 7751SOL    HW124152   1.037   2.896   2.319
 7751SOL    HW224153   0.901   2.821   2.268
 7752SOL     OW24154   4.312   1.690   4.570
 7752SOL    HW124155   4.382   1.619   4.570
 7752SOL    HW224156   4.354   1.780   4.554
 7753SOL     OW24157   2.949   1.503   5.040
 7753SOL    HW124158   2.937   1.454   5.126
 7753SOL    HW224159   2.920   1.598   5.052
 7754SOL     OW24160   4.816   6.311   1.780
 7754SOL    HW124161   4.723   6.275   1.771
 7754SOL    HW224162   4.820   6.372   1.859
 7755SOL     OW24163   0.502   4.135   5.892
 7755SOL    HW124164   0.554   4.059   5.931
 7755SOL    HW224165   0.565   4.205   5.857
 7756SOL     OW24166   3.015   5.615   1.508
 7756SOL    HW124167   2.990   5.647   1.416
 7756SOL    HW224168   3.101   5.565   1.503
 7757SOL     OW24169   0.311   4.394   2.069
 7757SOL    HW124170   0.327   4.298   2.091
 7757SOL    HW224171   0.316   4.449   2.152
 7758SOL     OW24172   1.606   1.129   5.035
 7758SOL    HW124173   1.637   1.087   4.949
 7758SOL    HW224174   1.661   1.210   5.055
 7759SOL     OW24175   2.619   2.554   6.546
 7759SOL    HW124176   2.707   2.596   6.568
 7759SOL    HW224177   2.586   2.502   6.625
 7760SOL     OW24178   4.241   3.206   0.760
 7760SOL    HW124179   4.213   3.268   0.833
 7760SOL    HW224180   4.211   3.242   0.672
 7761SOL     OW24181   4.750   5.332   4.599
 7761SOL    HW124182   4.746   5.260   4.668
 7761SOL    HW224183   4.669   5.327   4.541
 7762SOL     OW24184   5.995   1.464   2.935
 7762SOL    HW124185   5.916   1.517   2.902
 7762SOL    HW224186   6.074   1.483   2.876
 7763SOL     OW24187   2.279   0.010   4.136
 7763SOL    HW124188   2.373   0.032   4.111
 7763SOL    HW224189   2.246   6.956   4.080
 7764SOL     OW24190   2.791   3.741   5.638
 7764SOL    HW124191   2.718   3.744   5.706
 7764SOL    HW224192   2.764   3.795   5.559
 7765SOL     OW24193   6.817   3.539   5.194
 7765SOL    HW124194   6.849   3.492   5.277
 7765SOL    HW224195   6.717   3.535   5.190
 7766SOL     OW24196   6.215   3.954   6.137
 7766SOL    HW124197   6.171   3.905   6.212
 7766SOL    HW224198   6.209   4.053   6.153
 7767SOL     OW24199   3.038   0.585   3.633
 7767SOL    HW124200   2.994   0.631   3.556
 7767SOL    HW224201   3.057   0.490   3.608
 7768SOL     OW24202   4.411   4.845   3.268
 7768SOL    HW124203   4.506   4.874   3.278
 7768SOL    HW224204   4.387   4.785   3.344
 7769SOL     OW24205   3.721   2.672   5.321
 7769SOL    HW124206   3.661   2.593   5.323
 7769SOL    HW224207   3.777   2.675   5.403
 7770SOL     OW24208   2.132   3.418   4.826
 7770SOL    HW124209   2.186   3.466   4.894
 7770SOL    HW224210   2.181   3.336   4.796
 7771SOL     OW24211   2.577   2.513   6.285
 7771SOL    HW124212   2.609   2.581   6.219
 7771SOL    HW224213   2.609   2.538   6.376
 7772SOL     OW24214   4.918   6.514   1.986
 7772SOL    HW124215   4.860   6.569   2.045
 7772SOL    HW224216   4.925   6.557   1.896
 7773SOL     OW24217   3.457   6.337   0.003
 7773SOL    HW124218   3.512   6.296   6.952
 7773SOL    HW224219   3.516   6.384   0.068
 7774SOL     OW24220   4.230   1.536   2.571
 7774SOL    HW124221   4.134   1.566   2.570
 7774SOL    HW224222   4.290   1.615   2.575
 7775SOL     OW24223   3.071   1.151   0.183
 7775SOL    HW124224   3.056   1.185   0.090
 7775SOL    HW224225   3.014   1.202   0.247
 7776SOL     OW24226   1.731   1.421   4.954
 7776SOL    HW124227   1.681   1.484   5.014
 7776SOL    HW224228   1.827   1.447   4.952
 7777SOL     OW24229   6.243   5.014   3.661
 7777SOL    HW124230   6.263   4.987   3.567
 7777SOL    HW224231   6.155   5.061   3.664
 7778SOL     OW24232   6.813   4.856   2.596
 7778SOL    HW124233   6.728   4.910   2.597
 7778SOL    HW224234   6.883   4.904   2.649
 7779SOL     OW24235   3.943   5.982   2.102
 7779SOL    HW124236   3.947   6.077   2.133
 7779SOL    HW224237   3.864   5.970   2.041
 7780SOL     OW24238   6.160   6.472   4.657
 7780SOL    HW124239   6.117   6.384   4.675
 7780SOL    HW224240   6.213   6.467   4.572
 7781SOL     OW24241   1.374   2.501   0.667
 7781SOL    HW124242   1.389   2.402   0.670
 7781SOL    HW224243   1.295   2.524   0.723
 7782SOL     OW24244   5.693   2.945   4.258
 7782SOL    HW124245   5.725   3.029   4.214
 7782SOL    HW224246   5.599   2.927   4.231
 7783SOL     OW24247   1.509   0.005   4.969
 7783SOL    HW124248   1.524   0.019   5.067
 7783SOL    HW224249   1.545   6.937   4.942
 7784SOL     OW24250   1.687   2.319   2.187
 7784SOL    HW124251   1.642   2.235   2.217
 7784SOL    HW224252   1.667   2.392   2.251
 7785SOL     OW24253   0.798   0.120   2.720
 7785SOL    HW124254   0.747   0.035   2.707
 7785SOL    HW224255   0.871   0.126   2.652
 7786SOL     OW24256   3.988   0.730   6.191
 7786SOL    HW124257   3.982   0.818   6.237
 7786SOL    HW224258   4.062   0.676   6.232
 7787SOL     OW24259   1.836   2.558   1.595
 7787SOL    HW124260   1.831   2.459   1.579
 7787SOL    HW224261   1.805   2.578   1.687
 7788SOL     OW24262   7.015   4.491   1.468
 7788SOL    HW124263   7.009   4.586   1.499
 7788SOL    HW224264   0.004   4.431   1.547
 7789SOL     OW24265   2.930   1.700   5.697
 7789SOL    HW124266   2.953   1.664   5.607
 7789SOL    HW224267   2.950   1.798   5.699
 7790SOL     OW24268   4.458   4.416   1.651
 7790SOL    HW124269   4.472   4.367   1.737
 7790SOL    HW224270   4.533   4.481   1.638
 7791SOL     OW24271   2.506   4.942   1.982
 7791SOL    HW124272   2.576   4.918   2.049
 7791SOL    HW224273   2.529   5.029   1.940
 7792SOL     OW24274   0.469   1.706   2.876
 7792SOL    HW124275   0.553   1.730   2.926
 7792SOL    HW224276   0.489   1.635   2.810
 7793SOL     OW24277   4.700   0.659   6.158
 7793SOL    HW124278   4.701   0.645   6.059
 7793SOL    HW224279   4.751   0.742   6.180
 7794SOL     OW24280   0.653   6.958   3.205
 7794SOL    HW124281   0.668   0.017   3.147
 7794SOL    HW224282   0.660   6.984   3.301
 7795SOL     OW24283   3.164   5.397   6.608
 7795SOL    HW124284   3.221   5.454   6.548
 7795SOL    HW224285   3.110   5.334   6.552
 7796SOL     OW24286   3.941   3.547   6.848
 7796SOL    HW124287   4.011   3.499   6.796
 7796SOL    HW224288   3.851   3.529   6.807
 7797SOL     OW24289   0.950   6.059   2.889
 7797SOL    HW124290   0.905   6.025   2.971
 7797SOL    HW224291   0.913   6.011   2.809
 7798SOL     OW24292   1.522   3.560   0.990
 7798SOL    HW124293   1.504   3.482   1.050
 7798SOL    HW224294   1.459   3.559   0.913
 7799SOL     OW24295   2.150   5.463   3.540
 7799SOL    HW124296   2.060   5.428   3.568
 7799SOL    HW224297   2.147   5.563   3.538
 7800SOL     OW24298   0.761   6.345   1.990
 7800SOL    HW124299   0.797   6.420   2.046
 7800SOL    HW224300   0.713   6.280   2.049
 7801SOL     OW24301   1.192   2.244   2.173
 7801SOL    HW124302   1.099   2.207   2.177
 7801SOL    HW224303   1.236   2.214   2.088
 7802SOL     OW24304   0.070   3.985   4.310
 7802SOL    HW124305   0.014   4.061   4.277
 7802SOL    HW224306   0.015   3.901   4.313
 7803SOL     OW24307   4.090   2.946   5.786
 7803SOL    HW124308   4.005   2.993   5.763
 7803SOL    HW224309   4.167   2.994   5.743
 7804SOL     OW24310   3.341   1.675   5.232
 7804SOL    HW124311   3.379   1.642   5.145
 7804SOL    HW224312   3.404   1.656   5.306
 7805SOL     OW24313   5.463   3.056   0.684
 7805SOL    HW124314   5.450   2.978   0.745
 7805SOL    HW224315   5.435   3.032   0.592
 7806SOL     OW24316   6.716   1.777   5.646
 7806SOL    HW124317   6.728   1.707   5.717
 7806SOL    HW224318   6.633   1.757   5.594
 7807SOL     OW24319   2.102   4.601   5.982
 7807SOL    HW124320   2.199   4.607   6.006
 7807SOL    HW224321   2.047   4.615   6.065
 7808SOL     OW24322   5.192   3.871   2.818
 7808SOL    HW124323   5.134   3.873   2.899
 7808SOL    HW224324   5.135   3.859   2.737
 7809SOL     OW24325   4.884   4.817   3.095
 7809SOL    HW124326   4.831   4.751   3.041
 7809SOL    HW224327   4.978   4.818   3.061
 7810SOL     OW24328   3.543   6.422   5.275
 7810SOL    HW124329   3.530   6.470   5.188
 7810SOL    HW224330   3.555   6.324   5.256
 7811SOL     OW24331   1.572   6.397   3.132
 7811SOL    HW124332   1.505   6.359   3.068
 7811SOL    HW224333   1.653   6.338   3.133
 7812SOL     OW24334   3.060   2.189   5.928
 7812SOL    HW124335   3.036   2.140   6.012
 7812SOL    HW224336   3.159   2.204   5.926
 7813SOL     OW24337   5.790   0.612   0.456
 7813SOL    HW124338   5.744   0.604   0.545
 7813SOL    HW224339   5.798   0.521   0.415
 7814SOL     OW24340   6.550   2.809   1.981
 7814SOL    HW124341   6.601   2.862   1.914
 7814SOL    HW224342   6.452   2.825   1.968
 7815SOL     OW24343   5.893   3.771   5.512
 7815SOL    HW124344   5.940   3.827   5.580
 7815SOL    HW224345   5.858   3.688   5.556
 7816SOL     OW24346   0.695   0.507   5.490
 7816SOL    HW124347   0.731   0.599   5.471
 7816SOL    HW224348   0.766   0.452   5.532
 7817SOL     OW24349   3.088   3.098   6.702
 7817SOL    HW124350   3.090   3.184   6.754
 7817SOL    HW224351   2.994   3.065   6.696
 7818SOL     OW24352   5.669   0.978   3.547
 7818SOL    HW124353   5.596   1.039   3.518
 7818SOL    HW224354   5.635   0.884   3.549
 7819SOL     OW24355   1.801   3.630   3.874
 7819SOL    HW124356   1.733   3.571   3.916
 7819SOL    HW224357   1.889   3.618   3.920
 7820SOL     OW24358   1.673   6.899   6.167
 7820SOL    HW124359   1.728   6.983   6.169
 7820SOL    HW224360   1.686   6.854   6.078
 7821SOL     OW24361   4.886   5.824   6.546
 7821SOL    HW124362   4.810   5.760   6.540
 7821SOL    HW224363   4.859   5.912   6.506
 7822SOL     OW24364   0.501   0.756   4.793
 7822SOL    HW124365   0.444   0.726   4.716
 7822SOL    HW224366   0.489   0.855   4.807
 7823SOL     OW24367   2.261   3.405   5.665
 7823SOL    HW124368   2.344   3.359   5.633
 7823SOL    HW224369   2.250   3.492   5.617
 7824SOL     OW24370   5.722   2.855   3.196
 7824SOL    HW124371   5.795   2.787   3.189
 7824SOL    HW224372   5.654   2.840   3.123
 7825SOL     OW24373   3.448   3.631   2.310
 7825SOL    HW124374   3.529   3.645   2.253
 7825SOL    HW224375   3.470   3.655   2.405
 7826SOL     OW24376   6.568   0.072   1.366
 7826SOL    HW124377   6.468   0.064   1.371
 7826SOL    HW224378   6.605   7.012   1.322
 7827SOL     OW24379   5.063   3.869   1.066
 7827SOL    HW124380   5.015   3.857   1.153
 7827SOL    HW224381   5.157   3.834   1.075
 7828SOL     OW24382   0.938   5.726   0.716
 7828SOL    HW124383   0.893   5.815   0.713
 7828SOL    HW224384   1.033   5.736   0.685
 7829SOL     OW24385   3.768   2.917   2.400
 7829SOL    HW124386   3.700   2.864   2.451
 7829SOL    HW224387   3.757   2.899   2.302
 7830SOL     OW24388   5.912   2.912   6.678
 7830SOL    HW124389   5.920   2.933   6.776
 7830SOL    HW224390   5.988   2.954   6.629
 7831SOL     OW24391   1.899   2.648   6.771
 7831SOL    HW124392   1.834   2.722   6.786
 7831SOL    HW224393   1.854   2.560   6.792
 7832SOL     OW24394   2.744   2.374   5.296
 7832SOL    HW124395   2.732   2.315   5.217
 7832SOL    HW224396   2.840   2.376   5.322
 7833SOL     OW24397   1.341   6.838   0.728
 7833SOL    HW124398   1.310   6.782   0.805
 7833SOL    HW224399   1.261   6.865   0.673
 7834SOL     OW24400   0.245   0.437   1.195
 7834SOL    HW124401   0.186   0.369   1.151
 7834SOL    HW224402   0.341   0.408   1.188
 7835SOL     OW24403   1.942   2.949   5.231
 7835SOL    HW124404   1.884   2.883   5.279
 7835SOL    HW224405   1.887   3.029   5.206
 7836SOL     OW24406   2.153   0.207   0.350
 7836SOL    HW124407   2.199   0.144   0.287
 7836SOL    HW224408   2.058   0.178   0.362
 7837SOL     OW24409   6.283   0.150   3.301
 7837SOL    HW124410   6.270   0.051   3.307
 7837SOL    HW224411   6.361   0.170   3.242
 7838SOL     OW24412   4.059   6.764   3.709
 7838SOL    HW124413   4.031   6.842   3.654
 7838SOL    HW224414   4.142   6.786   3.761
 7839SOL     OW24415   6.203   4.957   4.353
 7839SOL    HW124416   6.181   4.941   4.257
 7839SOL    HW224417   6.244   5.047   4.363
 7840SOL     OW24418   5.320   2.792   5.310
 7840SOL    HW124419   5.295   2.735   5.232
 7840SOL    HW224420   5.410   2.834   5.293
 7841SOL     OW24421   1.197   1.948   6.577
 7841SOL    HW124422   1.270   1.967   6.512
 7841SOL    HW224423   1.219   1.866   6.630
 7842SOL     OW24424   3.111   0.941   3.003
 7842SOL    HW124425   3.066   0.852   3.010
 7842SOL    HW224426   3.054   1.003   2.950
 7843SOL     OW24427   5.319   3.209   1.217
 7843SOL    HW124428   5.254   3.242   1.149
 7843SOL    HW224429   5.272   3.148   1.281
 7844SOL     OW24430   4.570   1.190   4.162
 7844SOL    HW124431   4.492   1.149   4.208
 7844SOL    HW224432   4.649   1.189   4.224
 7845SOL     OW24433   0.235   0.958   4.145
 7845SOL    HW124434   0.291   0.878   4.126
 7845SOL    HW224435   0.294   1.037   4.159
 7846SOL     OW24436   3.410   6.821   2.017
 7846SOL    HW124437   3.310   6.819   2.011
 7846SOL    HW224438   3.448   6.754   1.954
 7847SOL     OW24439   0.023   0.368   0.253
 7847SOL    HW124440   7.015   0.435   0.321
 7847SOL    HW224441   0.116   0.338   0.274
 7848SOL     OW24442   4.789   4.431   0.694
 7848SOL    HW124443   4.715   4.385   0.743
 7848SOL    HW224444   4.877   4.392   0.722
 7849SOL     OW24445   5.795   3.667   5.302
 7849SOL    HW124446   5.828   3.573   5.305
 7849SOL    HW224447   5.825   3.715   5.384
 7850SOL     OW24448   0.510   0.479   4.294
 7850SOL    HW124449   0.598   0.489   4.342
 7850SOL    HW224450   0.455   0.410   4.341
 7851SOL     OW24451   5.719   6.990   6.804
 7851SOL    HW124452   5.698   0.052   6.855
 7851SOL    HW224453   5.761   6.923   6.865
 7852SOL     OW24454   1.979   5.735   6.959
 7852SOL    HW124455   2.022   5.748   0.026
 7852SOL    HW224456   2.048   5.743   6.887
 7853SOL     OW24457   2.265   3.292   0.777
 7853SOL    HW124458   2.223   3.209   0.741
 7853SOL    HW224459   2.195   3.359   0.797
 7854SOL     OW24460   3.388   4.019   2.898
 7854SOL    HW124461   3.469   4.029   2.840
 7854SOL    HW224462   3.407   4.060   2.988
 7855SOL     OW24463   3.801   6.673   5.715
 7855SOL    HW124464   3.739   6.616   5.662
 7855SOL    HW224465   3.750   6.726   5.782
 7856SOL     OW24466   4.824   2.840   6.173
 7856SOL    HW124467   4.902   2.783   6.201
 7856SOL    HW224468   4.745   2.818   6.231
 7857SOL     OW24469   0.528   1.652   5.136
 7857SOL    HW124470   0.542   1.666   5.234
 7857SOL    HW224471   0.438   1.686   5.110
 7858SOL     OW24472   6.079   4.062   3.604
 7858SOL    HW124473   6.066   4.074   3.505
 7858SOL    HW224474   6.033   4.136   3.652
 7859SOL     OW24475   1.177   5.623   6.700
 7859SOL    HW124476   1.110   5.697   6.703
 7859SOL    HW224477   1.130   5.536   6.691
 7860SOL     OW24478   3.457   0.192   1.919
 7860SOL    HW124479   3.417   0.274   1.877
 7860SOL    HW224480   3.438   0.192   2.017
 7861SOL     OW24481   5.579   4.261   0.567
 7861SOL    HW124482   5.635   4.235   0.646
 7861SOL    HW224483   5.543   4.178   0.524
 7862SOL     OW24484   2.879   4.708   1.715
 7862SOL    HW124485   2.789   4.748   1.731
 7862SOL    HW224486   2.898   4.640   1.786
 7863SOL     OW24487   6.857   5.803   1.928
 7863SOL    HW124488   6.837   5.848   1.841
 7863SOL    HW224489   6.771   5.788   1.978
 7864SOL     OW24490   0.783   5.311   4.661
 7864SOL    HW124491   0.818   5.226   4.701
 7864SOL    HW224492   0.727   5.359   4.729
 7865SOL     OW24493   3.358   0.168   2.830
 7865SOL    HW124494   3.412   0.252   2.832
 7865SOL    HW224495   3.328   0.149   2.737
 7866SOL     OW24496   2.799   2.246   4.312
 7866SOL    HW124497   2.737   2.321   4.333
 7866SOL    HW224498   2.873   2.279   4.254
 7867SOL     OW24499   5.243   4.521   2.187
 7867SOL    HW124500   5.326   4.480   2.151
 7867SOL    HW224501   5.223   4.606   2.138
 7868SOL     OW24502   5.105   7.005   0.852
 7868SOL    HW124503   5.060   6.916   0.840
 7868SOL    HW224504   5.147   0.011   0.766
 7869SOL     OW24505   0.202   3.334   2.111
 7869SOL    HW124506   0.249   3.420   2.130
 7869SOL    HW224507   0.176   3.330   2.015
 7870SOL     OW24508   0.062   6.026   4.060
 7870SOL    HW124509   0.132   6.006   4.129
 7870SOL    HW224510   0.092   5.993   3.971
 7871SOL     OW24511   5.456   2.722   3.082
 7871SOL    HW124512   5.455   2.702   3.180
 7871SOL    HW224513   5.414   2.646   3.032
 7872SOL     OW24514   6.608   3.138   3.325
 7872SOL    HW124515   6.554   3.053   3.324
 7872SOL    HW224516   6.683   3.128   3.390
 7873SOL     OW24517   0.353   5.045   5.057
 7873SOL    HW124518   0.352   4.967   4.994
 7873SOL    HW224519   0.266   5.050   5.106
 7874SOL     OW24520   5.540   1.159   0.423
 7874SOL    HW124521   5.627   1.147   0.376
 7874SOL    HW224522   5.499   1.246   0.396
 7875SOL     OW24523   4.745   2.846   6.847
 7875SOL    HW124524   4.790   2.890   6.770
 7875SOL    HW224525   4.686   2.911   6.894
 7876SOL     OW24526   6.585   0.436   3.759
 7876SOL    HW124527   6.496   0.440   3.714
 7876SOL    HW224528   6.609   0.526   3.794
 7877SOL     OW24529   6.884   2.264   2.415
 7877SOL    HW124530   6.916   2.210   2.493
 7877SOL    HW224531   6.948   2.340   2.399
 7878SOL     OW24532   4.815   3.822   1.900
 7878SOL    HW124533   4.787   3.747   1.841
 7878SOL    HW224534   4.883   3.878   1.853
 7879SOL     OW24535   5.243   0.641   4.298
 7879SOL    HW124536   5.212   0.585   4.222
 7879SOL    HW224537   5.304   0.713   4.265
 7880SOL     OW24538   0.471   6.986   6.597
 7880SOL    HW124539   0.553   0.022   6.599
 7880SOL    HW224540   0.496   6.892   6.621
 7881SOL     OW24541   6.943   4.869   3.714
 7881SOL    HW124542   7.007   4.869   3.791
 7881SOL    HW224543   6.914   4.963   3.695
 7882SOL     OW24544   0.361   4.001   2.384
 7882SOL    HW124545   0.376   4.020   2.481
 7882SOL    HW224546   0.321   3.910   2.374
 7883SOL     OW24547   3.737   1.389   3.972
 7883SOL    HW124548   3.653   1.443   3.964
 7883SOL    HW224549   3.714   1.292   3.980
 7884SOL     OW24550   0.348   3.708   3.945
 7884SOL    HW124551   0.257   3.714   3.985
 7884SOL    HW224552   0.396   3.628   3.982
 7885SOL     OW24553   6.177   5.231   3.437
 7885SOL    HW124554   6.190   5.279   3.523
 7885SOL    HW224555   6.252   5.254   3.375
 7886SOL     OW24556   4.770   2.990   3.046
 7886SOL    HW124557   4.789   3.087   3.030
 7886SOL    HW224558   4.755   2.944   2.958
 7887SOL     OW24559   2.365   3.593   0.966
 7887SOL    HW124560   2.412   3.588   0.878
 7887SOL    HW224561   2.268   3.571   0.954
 7888SOL     OW24562   5.944   2.182   4.681
 7888SOL    HW124563   6.005   2.190   4.760
 7888SOL    HW224564   5.995   2.200   4.597
 7889SOL     OW24565   5.358   5.370   0.137
 7889SOL    HW124566   5.339   5.401   0.044
 7889SOL    HW224567   5.302   5.423   0.201
 7890SOL     OW24568   1.350   3.640   4.371
 7890SOL    HW124569   1.311   3.685   4.290
 7890SOL    HW224570   1.304   3.674   4.453
 7891SOL     OW24571   0.083   1.423   4.552
 7891SOL    HW124572   0.120   1.516   4.548
 7891SOL    HW224573   0.123   1.368   4.479
 7892SOL     OW24574   0.415   2.119   5.809
 7892SOL    HW124575   0.371   2.149   5.724
 7892SOL    HW224576   0.345   2.086   5.873
 7893SOL     OW24577   6.203   0.303   0.384
 7893SOL    HW124578   6.192   0.382   0.444
 7893SOL    HW224579   6.300   0.279   0.378
 7894SOL     OW24580   3.143   1.739   5.881
 7894SOL    HW124581   3.048   1.722   5.855
 7894SOL    HW224582   3.159   1.704   5.973
 7895SOL     OW24583   4.452   6.398   3.963
 7895SOL    HW124584   4.430   6.302   3.976
 7895SOL    HW224585   4.420   6.428   3.873
 7896SOL     OW24586   2.796   2.248   1.032
 7896SOL    HW124587   2.867   2.192   0.990
 7896SOL    HW224588   2.837   2.331   1.071
 7897SOL     OW24589   3.529   3.709   0.706
 7897SOL    HW124590   3.449   3.729   0.649
 7897SOL    HW224591   3.503   3.713   0.802
 7898SOL     OW24592   5.274   6.901   3.829
 7898SOL    HW124593   5.237   6.854   3.910
 7898SOL    HW224594   5.214   6.977   3.805
 7899SOL     OW24595   6.073   4.856   3.053
 7899SOL    HW124596   6.008   4.795   3.098
 7899SOL    HW224597   6.025   4.918   2.991
 7900SOL     OW24598   0.696   4.380   1.659
 7900SOL    HW124599   0.785   4.397   1.702
 7900SOL    HW224600   0.624   4.420   1.715
 7901SOL     OW24601   6.465   1.394   6.533
 7901SOL    HW124602   6.553   1.347   6.539
 7901SOL    HW224603   6.416   1.362   6.451
 7902SOL     OW24604   0.980   6.824   3.480
 7902SOL    HW124605   0.900   6.794   3.430
 7902SOL    HW224606   0.952   6.887   3.553
 7903SOL     OW24607   2.874   2.179   5.064
 7903SOL    HW124608   2.974   2.183   5.066
 7903SOL    HW224609   2.841   2.241   4.992
 7904SOL     OW24610   4.822   1.797   2.360
 7904SOL    HW124611   4.893   1.735   2.325
 7904SOL    HW224612   4.738   1.785   2.307
 7905SOL     OW24613   5.583   0.881   0.952
 7905SOL    HW124614   5.645   0.873   0.874
 7905SOL    HW224615   5.617   0.826   1.028
 7906SOL     OW24616   1.985   5.575   0.336
 7906SOL    HW124617   1.970   5.533   0.247
 7906SOL    HW224618   1.910   5.550   0.398
 7907SOL     OW24619   6.465   0.152   2.986
 7907SOL    HW124620   6.416   0.064   2.989
 7907SOL    HW224621   6.433   0.206   2.909
 7908SOL     OW24622   1.011   0.308   6.780
 7908SOL    HW124623   1.069   0.349   6.710
 7908SOL    HW224624   1.044   0.333   6.871
 7909SOL     OW24625   5.727   4.965   1.924
 7909SOL    HW124626   5.775   4.884   1.890
 7909SOL    HW224627   5.770   5.048   1.887
 7910SOL     OW24628   1.633   3.798   0.370
 7910SOL    HW124629   1.537   3.819   0.351
 7910SOL    HW224630   1.678   3.879   0.407
 7911SOL     OW24631   1.025   4.322   0.387
 7911SOL    HW124632   1.105   4.341   0.445
 7911SOL    HW224633   0.945   4.308   0.445
 7912SOL     OW24634   6.001   6.020   0.812
 7912SOL    HW124635   5.971   5.944   0.754
 7912SOL    HW224636   5.982   6.106   0.766
 7913SOL     OW24637   0.827   3.925   1.023
 7913SOL    HW124638   0.886   3.937   0.944
 7913SOL    HW224639   0.806   3.828   1.035
 7914SOL     OW24640   6.451   5.886   4.795
 7914SOL    HW124641   6.507   5.944   4.854
 7914SOL    HW224642   6.489   5.886   4.702
 7915SOL     OW24643   3.713   6.366   2.718
 7915SOL    HW124644   3.707   6.356   2.619
 7915SOL    HW224645   3.622   6.380   2.756
 7916SOL     OW24646   1.660   0.780   4.496
 7916SOL    HW124647   1.676   0.693   4.544
 7916SOL    HW224648   1.587   0.768   4.429
 7917SOL     OW24649   4.592   3.696   1.090
 7917SOL    HW124650   4.521   3.765   1.099
 7917SOL    HW224651   4.623   3.668   1.181
 7918SOL     OW24652   2.170   1.719   4.447
 7918SOL    HW124653   2.136   1.695   4.356
 7918SOL    HW224654   2.229   1.800   4.440
 7919SOL     OW24655   1.825   6.183   3.653
 7919SOL    HW124656   1.796   6.215   3.743
 7919SOL    HW224657   1.827   6.260   3.589
 7920SOL     OW24658   5.227   0.446   0.417
 7920SOL    HW124659   5.326   0.455   0.405
 7920SOL    HW224660   5.202   0.473   0.510
 7921SOL     OW24661   4.711   1.822   1.998
 7921SOL    HW124662   4.806   1.790   2.002
 7921SOL    HW224663   4.680   1.846   2.090
 7922SOL     OW24664   1.559   5.627   1.205
 7922SOL    HW124665   1.531   5.534   1.229
 7922SOL    HW224666   1.480   5.677   1.168
 7923SOL     OW24667   4.867   1.683   0.166
 7923SOL    HW124668   4.769   1.703   0.156
 7923SOL    HW224669   4.915   1.764   0.197
 7924SOL     OW24670   6.404   6.515   1.025
 7924SOL    HW124671   6.305   6.513   1.040
 7924SOL    HW224672   6.442   6.600   1.060
 7925SOL     OW24673   1.685   6.569   0.445
 7925SOL    HW124674   1.730   6.487   0.481
 7925SOL    HW224675   1.650   6.624   0.521
 7926SOL     OW24676   4.647   5.628   6.811
 7926SOL    HW124677   4.572   5.662   6.753
 7926SOL    HW224678   4.633   5.531   6.830
 7927SOL     OW24679   4.684   0.532   2.104
 7927SOL    HW124680   4.664   0.597   2.177
 7927SOL    HW224681   4.599   0.495   2.068
 7928SOL     OW24682   0.064   1.750   3.276
 7928SOL    HW124683   6.988   1.763   3.258
 7928SOL    HW224684   0.076   1.669   3.334
 7929SOL     OW24685   3.970   4.634   5.793
 7929SOL    HW124686   4.022   4.707   5.837
 7929SOL    HW224687   3.987   4.548   5.840
 7930SOL     OW24688   4.395   6.197   5.703
 7930SOL    HW124689   4.447   6.113   5.685
 7930SOL    HW224690   4.300   6.183   5.678
 7931SOL     OW24691   3.616   2.443   0.702
 7931SOL    HW124692   3.694   2.483   0.653
 7931SOL    HW224693   3.594   2.501   0.781
 7932SOL     OW24694   1.451   5.328   2.795
 7932SOL    HW124695   1.541   5.284   2.798
 7932SOL    HW224696   1.462   5.427   2.796
 7933SOL     OW24697   0.334   1.131   6.506
 7933SOL    HW124698   0.343   1.141   6.407
 7933SOL    HW224699   0.401   1.065   6.539
 7934SOL     OW24700   0.894   4.688   1.128
 7934SOL    HW124701   0.990   4.660   1.131
 7934SOL    HW224702   0.848   4.644   1.050
 7935SOL     OW24703   5.029   3.025   3.575
 7935SOL    HW124704   4.948   3.021   3.634
 7935SOL    HW224705   5.086   2.944   3.591
 7936SOL     OW24706   3.314   6.385   4.085
 7936SOL    HW124707   3.270   6.307   4.130
 7936SOL    HW224708   3.387   6.353   4.025
 7937SOL     OW24709   3.795   0.412   0.239
 7937SOL    HW124710   3.801   0.363   0.327
 7937SOL    HW224711   3.794   0.345   0.164
 7938SOL     OW24712   3.821   6.817   4.332
 7938SOL    HW124713   3.887   6.864   4.273
 7938SOL    HW224714   3.865   6.793   4.418
 7939SOL     OW24715   0.671   1.784   3.421
 7939SOL    HW124716   0.619   1.737   3.350
 7939SOL    HW224717   0.767   1.756   3.416
 7940SOL     OW24718   5.040   0.974   2.593
 7940SOL    HW124719   5.123   0.922   2.572
 7940SOL    HW224720   4.965   0.911   2.612
 7941SOL     OW24721   3.564   0.009   1.409
 7941SOL    HW124722   3.546   6.959   1.341
 7941SOL    HW224723   3.536   6.998   1.499
 7942SOL     OW24724   1.341   4.475   1.321
 7942SOL    HW124725   1.376   4.399   1.375
 7942SOL    HW224726   1.417   4.536   1.296
 7943SOL     OW24727   1.292   5.749   6.259
 7943SOL    HW124728   1.218   5.682   6.253
 7943SOL    HW224729   1.277   5.809   6.338
 7944SOL     OW24730   1.775   2.752   0.857
 7944SOL    HW124731   1.848   2.816   0.835
 7944SOL    HW224732   1.719   2.736   0.775
 7945SOL     OW24733   5.579   4.788   3.145
 7945SOL    HW124734   5.569   4.887   3.134
 7945SOL    HW224735   5.671   4.761   3.119
 7946SOL     OW24736   3.937   1.143   5.921
 7946SOL    HW124737   3.967   1.232   5.886
 7946SOL    HW224738   3.902   1.087   5.845
 7947SOL     OW24739   0.488   3.381   6.065
 7947SOL    HW124740   0.489   3.385   5.965
 7947SOL    HW224741   0.571   3.423   6.101
 7948SOL     OW24742   1.251   4.362   2.159
 7948SOL    HW124743   1.318   4.394   2.092
 7948SOL    HW224744   1.180   4.431   2.171
 7949SOL     OW24745   3.633   5.569   6.651
 7949SOL    HW124746   3.583   5.484   6.663
 7949SOL    HW224747   3.622   5.602   6.557
 7950SOL     OW24748   5.308   4.973   5.189
 7950SOL    HW124749   5.355   5.061   5.184
 7950SOL    HW224750   5.226   4.976   5.131
 7951SOL     OW24751   2.732   5.721   3.083
 7951SOL    HW124752   2.748   5.794   3.150
 7951SOL    HW224753   2.641   5.683   3.096
 7952SOL     OW24754   5.500   3.675   6.745
 7952SOL    HW124755   5.403   3.666   6.768
 7952SOL    HW224756   5.522   3.772   6.732
 7953SOL     OW24757   2.250   0.881   1.137
 7953SOL    HW124758   2.210   0.793   1.115
 7953SOL    HW224759   2.252   0.939   1.055
 7954SOL     OW24760   3.492   3.217   6.606
 7954SOL    HW124761   3.580   3.175   6.630
 7954SOL    HW224762   3.465   3.281   6.678
 7955SOL     OW24763   1.587   1.460   0.012
 7955SOL    HW124764   1.621   1.408   0.090
 7955SOL    HW224765   1.548   1.397   6.966
 7956SOL     OW24766   6.027   6.248   0.633
 7956SOL    HW124767   6.079   6.199   0.564
 7956SOL    HW224768   6.073   6.334   0.656
 7957SOL     OW24769   4.744   0.772   5.085
 7957SOL    HW124770   4.795   0.820   5.014
 7957SOL    HW224771   4.669   0.829   5.118
 7958SOL     OW24772   5.608   2.492   0.079
 7958SOL    HW124773   5.671   2.534   0.014
 7958SOL    HW224774   5.656   2.420   0.130
 7959SOL     OW24775   5.927   1.484   6.403
 7959SOL    HW124776   5.934   1.543   6.323
 7959SOL    HW224777   5.838   1.498   6.447
 7960SOL     OW24778   0.980   0.488   5.657
 7960SOL    HW124779   1.002   0.534   5.571
 7960SOL    HW224780   1.004   0.391   5.650
 7961SOL     OW24781   6.442   6.215   0.347
 7961SOL    HW124782   6.451   6.175   0.256
 7961SOL    HW224783   6.531   6.217   0.392
 7962SOL     OW24784   5.526   6.869   5.611
 7962SOL    HW124785   5.589   6.886   5.687
 7962SOL    HW224786   5.434   6.853   5.647
 7963SOL     OW24787   0.295   5.136   4.649
 7963SOL    HW124788   0.305   5.157   4.552
 7963SOL    HW224789   0.385   5.125   4.691
 7964SOL     OW24790   6.495   4.467   2.401
 7964SOL    HW124791   6.565   4.447   2.470
 7964SOL    HW224792   6.503   4.403   2.325
 7965SOL     OW24793   3.519   2.514   6.515
 7965SOL    HW124794   3.469   2.474   6.592
 7965SOL    HW224795   3.593   2.572   6.550
 7966SOL     OW24796   5.015   3.794   5.156
 7966SOL    HW124797   4.990   3.855   5.232
 7966SOL    HW224798   4.937   3.735   5.134
 7967SOL     OW24799   1.485   4.367   2.431
 7967SOL    HW124800   1.553   4.375   2.359
 7967SOL    HW224801   1.408   4.428   2.411
 7968SOL     OW24802   0.241   2.464   4.415
 7968SOL    HW124803   0.207   2.544   4.464
 7968SOL    HW224804   0.333   2.441   4.449
 7969SOL     OW24805   4.996   4.955   6.942
 7969SOL    HW124806   4.975   5.029   6.877
 7969SOL    HW224807   5.037   4.878   6.894
 7970SOL     OW24808   5.689   3.016   2.250
 7970SOL    HW124809   5.748   2.952   2.200
 7970SOL    HW224810   5.596   3.011   2.214
 7971SOL     OW24811   3.103   0.956   0.365
 7971SOL    HW124812   3.018   0.905   0.378
 7971SOL    HW224813   3.098   1.008   0.279
 7972SOL     OW24814   3.520   3.717   2.832
 7972SOL    HW124815   3.463   3.778   2.886
 7972SOL    HW224816   3.616   3.736   2.849
 7973SOL     OW24817   6.147   3.780   2.170
 7973SOL    HW124818   6.225   3.842   2.161
 7973SOL    HW224819   6.141   3.746   2.263
 7974SOL     OW24820   6.655   2.315   6.206
 7974SOL    HW124821   6.718   2.249   6.165
 7974SOL    HW224822   6.598   2.269   6.274
 7975SOL     OW24823   4.922   0.642   1.072
 7975SOL    HW124824   4.980   0.723   1.072
 7975SOL    HW224825   4.841   0.659   1.127
 7976SOL     OW24826   0.812   0.111   6.827
 7976SOL    HW124827   0.883   0.181   6.813
 7976SOL    HW224828   0.855   0.026   6.856
 7977SOL     OW24829   5.928   5.990   2.698
 7977SOL    HW124830   5.965   5.967   2.788
 7977SOL    HW224831   5.990   5.956   2.627
 7978SOL     OW24832   0.510   4.560   1.391
 7978SOL    HW124833   0.547   4.468   1.401
 7978SOL    HW224834   0.423   4.567   1.440
 7979SOL     OW24835   1.608   2.929   4.517
 7979SOL    HW124836   1.696   2.973   4.501
 7979SOL    HW224837   1.573   2.892   4.431
 7980SOL     OW24838   4.185   5.757   6.920
 7980SOL    HW124839   4.210   5.686   6.855
 7980SOL    HW224840   4.100   5.731   6.967
 7981SOL     OW24841   1.450   4.380   2.724
 7981SOL    HW124842   1.371   4.320   2.736
 7981SOL    HW224843   1.471   4.389   2.626
 7982SOL     OW24844   0.057   1.945   5.136
 7982SOL    HW124845   0.134   1.907   5.186
 7982SOL    HW224846   7.003   1.962   5.199
 7983SOL     OW24847   4.873   1.551   2.004
 7983SOL    HW124848   4.779   1.575   2.027
 7983SOL    HW224849   4.883   1.544   1.905
 7984SOL     OW24850   0.522   2.133   2.579
 7984SOL    HW124851   0.563   2.054   2.626
 7984SOL    HW224852   0.580   2.213   2.593
 7985SOL     OW24853   2.502   1.956   5.320
 7985SOL    HW124854   2.482   1.863   5.289
 7985SOL    HW224855   2.462   1.970   5.410
 7986SOL     OW24856   2.783   0.936   3.868
 7986SOL    HW124857   2.743   0.990   3.794
 7986SOL    HW224858   2.860   0.883   3.833
 7987SOL     OW24859   1.333   3.123   0.276
 7987SOL    HW124860   1.371   3.216   0.282
 7987SOL    HW224861   1.291   3.110   0.186
 7988SOL     OW24862   0.160   1.653   0.864
 7988SOL    HW124863   0.159   1.554   0.853
 7988SOL    HW224864   0.245   1.680   0.910
 7989SOL     OW24865   0.421   4.625   0.302
 7989SOL    HW124866   0.322   4.622   0.318
 7989SOL    HW224867   0.469   4.603   0.387
 7990SOL     OW24868   3.826   5.458   5.549
 7990SOL    HW124869   3.923   5.433   5.546
 7990SOL    HW224870   3.777   5.409   5.477
 7991SOL     OW24871   6.281   1.462   5.150
 7991SOL    HW124872   6.227   1.468   5.066
 7991SOL    HW224873   6.353   1.531   5.148
 7992SOL     OW24874   2.619   0.410   0.659
 7992SOL    HW124875   2.666   0.493   0.690
 7992SOL    HW224876   2.595   0.420   0.562
 7993SOL     OW24877   6.677   5.909   1.241
 7993SOL    HW124878   6.734   5.863   1.309
 7993SOL    HW224879   6.587   5.928   1.281
 7994SOL     OW24880   5.764   0.569   2.920
 7994SOL    HW124881   5.783   0.474   2.946
 7994SOL    HW224882   5.734   0.620   3.001
 7995SOL     OW24883   0.310   4.590   1.196
 7995SOL    HW124884   0.287   4.676   1.151
 7995SOL    HW224885   0.393   4.602   1.250
 7996SOL     OW24886   3.494   0.382   2.811
 7996SOL    HW124887   3.417   0.442   2.832
 7996SOL    HW224888   3.580   0.430   2.829
 7997SOL     OW24889   0.809   2.506   0.179
 7997SOL    HW124890   0.858   2.530   0.263
 7997SOL    HW224891   0.875   2.483   0.107
 7998SOL     OW24892   2.362   1.426   0.702
 7998SOL    HW124893   2.443   1.407   0.646
 7998SOL    HW224894   2.283   1.377   0.663
 7999SOL     OW24895   0.774   0.768   4.844
 7999SOL    HW124896   0.679   0.742   4.830
 7999SOL    HW224897   0.778   0.859   4.885
 8000SOL     OW24898   4.903   5.700   6.896
 8000SOL    HW124899   4.926   5.781   6.842
 8000SOL    HW224900   4.809   5.673   6.877
 8001SOL     OW24901   4.519   6.507   1.211
 8001SOL    HW124902   4.442   6.552   1.165
 8001SOL    HW224903   4.529   6.414   1.177
 8002SOL     OW24904   0.989   6.787   5.146
 8002SOL    HW124905   0.937   6.835   5.075
 8002SOL    HW224906   1.053   6.850   5.190
 8003SOL     OW24907   2.677   6.331   2.552
 8003SOL    HW124908   2.638   6.239   2.543
 8003SOL    HW224909   2.747   6.344   2.482
 8004SOL     OW24910   1.234   3.148   3.648
 8004SOL    HW124911   1.208   3.118   3.556
 8004SOL    HW224912   1.152   3.156   3.705
 8005SOL     OW24913   2.930   0.682   3.407
 8005SOL    HW124914   2.852   0.743   3.396
 8005SOL    HW224915   2.933   0.617   3.331
 8006SOL     OW24916   3.454   4.739   5.260
 8006SOL    HW124917   3.385   4.784   5.317
 8006SOL    HW224918   3.467   4.645   5.291
 8007SOL     OW24919   6.104   0.401   6.434
 8007SOL    HW124920   6.088   0.452   6.518
 8007SOL    HW224921   6.121   0.464   6.358
 8008SOL     OW24922   5.267   6.804   6.096
 8008SOL    HW124923   5.319   6.739   6.041
 8008SOL    HW224924   5.300   6.897   6.077
 8009SOL     OW24925   4.718   1.363   6.328
 8009SOL    HW124926   4.710   1.364   6.427
 8009SOL    HW224927   4.813   1.344   6.302
 8010SOL     OW24928   2.386   2.046   5.591
 8010SOL    HW124929   2.486   2.048   5.590
 8010SOL    HW224930   2.352   2.140   5.585
 8011SOL     OW24931   3.745   1.733   1.906
 8011SOL    HW124932   3.737   1.830   1.930
 8011SOL    HW224933   3.813   1.690   1.965
 8012SOL     OW24934   0.076   2.170   5.526
 8012SOL    HW124935   0.017   2.229   5.471
 8012SOL    HW224936   0.020   2.120   5.592
 8013SOL     OW24937   2.704   2.279   2.971
 8013SOL    HW124938   2.788   2.230   2.992
 8013SOL    HW224939   2.708   2.313   2.876
 8014SOL     OW24940   1.862   0.930   2.739
 8014SOL    HW124941   1.896   0.927   2.645
 8014SOL    HW224942   1.939   0.946   2.801
 8015SOL     OW24943   2.427   0.007   5.340
 8015SOL    HW124944   2.340   0.055   5.327
 8015SOL    HW224945   2.478   0.006   5.254
 8016SOL     OW24946   4.248   1.444   4.782
 8016SOL    HW124947   4.342   1.455   4.814
 8016SOL    HW224948   4.245   1.453   4.683
 8017SOL     OW24949   6.434   6.327   1.226
 8017SOL    HW124950   6.416   6.387   1.148
 8017SOL    HW224951   6.508   6.264   1.203
 8018SOL     OW24952   4.043   2.236   0.046
 8018SOL    HW124953   4.121   2.276   7.020
 8018SOL    HW224954   3.966   2.227   7.005
 8019SOL     OW24955   2.453   3.417   1.470
 8019SOL    HW124956   2.427   3.321   1.477
 8019SOL    HW224957   2.545   3.430   1.508
 8020SOL     OW24958   0.251   0.150   5.422
 8020SOL    HW124959   0.335   0.123   5.469
 8020SOL    HW224960   0.249   0.109   5.331
 8021SOL     OW24961   1.266   2.249   1.895
 8021SOL    HW124962   1.319   2.308   1.834
 8021SOL    HW224963   1.185   2.297   1.927
 8022SOL     OW24964   4.646   1.302   1.825
 8022SOL    HW124965   4.623   1.398   1.810
 8022SOL    HW224966   4.573   1.259   1.879
 8023SOL     OW24967   4.680   5.588   2.980
 8023SOL    HW124968   4.598   5.532   2.969
 8023SOL    HW224969   4.694   5.642   2.897
 8024SOL     OW24970   2.143   0.633   6.686
 8024SOL    HW124971   2.106   0.702   6.749
 8024SOL    HW224972   2.094   0.547   6.698
 8025SOL     OW24973   1.779   5.000   1.076
 8025SOL    HW124974   1.711   4.943   1.030
 8025SOL    HW224975   1.756   5.008   1.173
 8026SOL     OW24976   1.024   5.570   6.323
 8026SOL    HW124977   1.051   5.481   6.286
 8026SOL    HW224978   0.956   5.556   6.396
 8027SOL     OW24979   3.239   6.844   0.256
 8027SOL    HW124980   3.159   6.798   0.217
 8027SOL    HW224981   3.297   6.878   0.183
 8028SOL     OW24982   3.154   5.557   5.259
 8028SOL    HW124983   3.152   5.639   5.201
 8028SOL    HW224984   3.226   5.567   5.328
 8029SOL     OW24985   6.434   6.701   0.365
 8029SOL    HW124986   6.430   6.792   0.405
 8029SOL    HW224987   6.360   6.645   0.401
 8030SOL     OW24988   0.835   3.972   0.646
 8030SOL    HW124989   0.799   4.003   0.734
 8030SOL    HW224990   0.797   3.883   0.623
 8031SOL     OW24991   6.632   1.404   2.863
 8031SOL    HW124992   6.693   1.407   2.784
 8031SOL    HW224993   6.683   1.427   2.946
 8032SOL     OW24994   5.446   2.915   1.311
 8032SOL    HW124995   5.492   2.975   1.245
 8032SOL    HW224996   5.473   2.820   1.293
 8033SOL     OW24997   4.617   3.612   0.836
 8033SOL    HW124998   4.550   3.646   0.770
 8033SOL    HW224999   4.594   3.647   0.927
 8034SOL     OW25000   5.977   0.505   5.371
 8034SOL    HW125001   5.971   0.531   5.468
 8034SOL    HW225002   6.066   0.531   5.335
 8035SOL     OW25003   5.840   1.804   3.269
 8035SOL    HW125004   5.933   1.797   3.232
 8035SOL    HW225005   5.779   1.839   3.197
 8036SOL     OW25006   5.921   2.795   3.957
 8036SOL    HW125007   5.845   2.859   3.942
 8036SOL    HW225008   6.003   2.828   3.912
 8037SOL     OW25009   1.071   2.616   5.905
 8037SOL    HW125010   1.133   2.684   5.944
 8037SOL    HW225011   1.118   2.565   5.833
 8038SOL     OW25012   0.409   5.179   2.851
 8038SOL    HW125013   0.498   5.144   2.819
 8038SOL    HW225014   0.419   5.216   2.943
 8039SOL     OW25015   1.189   2.588   5.442
 8039SOL    HW125016   1.249   2.581   5.363
 8039SOL    HW225017   1.098   2.619   5.413
 8040SOL     OW25018   2.333   5.988   5.692
 8040SOL    HW125019   2.257   6.049   5.711
 8040SOL    HW225020   2.366   6.002   5.599
 8041SOL     OW25021   4.135   1.073   3.232
 8041SOL    HW125022   4.155   1.138   3.306
 8041SOL    HW225023   4.147   1.119   3.144
 8042SOL     OW25024   4.006   4.238   5.536
 8042SOL    HW125025   4.019   4.238   5.437
 8042SOL    HW225026   3.930   4.177   5.559
 8043SOL     OW25027   5.354   4.989   6.690
 8043SOL    HW125028   5.420   5.064   6.686
 8043SOL    HW225029   5.348   4.956   6.784
 8044SOL     OW25030   3.100   3.724   1.723
 8044SOL    HW125031   3.116   3.643   1.667
 8044SOL    HW225032   3.081   3.802   1.664
 8045SOL     OW25033   0.351   1.266   2.780
 8045SOL    HW125034   0.425   1.200   2.787
 8045SOL    HW225035   0.285   1.249   2.854
 8046SOL     OW25036   0.481   5.059   2.247
 8046SOL    HW125037   0.537   5.095   2.322
 8046SOL    HW225038   0.541   5.031   2.172
 8047SOL     OW25039   3.553   6.847   6.683
 8047SOL    HW125040   3.588   6.906   6.610
 8047SOL    HW225041   3.612   6.766   6.692
 8048SOL     OW25042   3.891   2.691   6.853
 8048SOL    HW125043   3.986   2.685   6.820
 8048SOL    HW225044   3.881   2.636   6.936
 8049SOL     OW25045   1.478   1.459   0.633
 8049SOL    HW125046   1.536   1.483   0.555
 8049SOL    HW225047   1.466   1.359   0.636
 8050SOL     OW25048   0.696   4.559   6.007
 8050SOL    HW125049   0.773   4.520   6.058
 8050SOL    HW225050   0.665   4.494   5.937
 8051SOL     OW25051   3.901   5.655   3.967
 8051SOL    HW125052   3.948   5.573   4.000
 8051SOL    HW225053   3.830   5.681   4.032
 8052SOL     OW25054   2.127   2.530   2.481
 8052SOL    HW125055   2.141   2.495   2.573
 8052SOL    HW225056   2.183   2.477   2.417
 8053SOL     OW25057   2.387   2.725   6.541
 8053SOL    HW125058   2.457   2.653   6.547
 8053SOL    HW225059   2.297   2.685   6.559
 8054SOL     OW25060   5.031   3.309   5.311
 8054SOL    HW125061   5.070   3.379   5.251
 8054SOL    HW225062   5.073   3.221   5.291
 8055SOL     OW25063   6.610   0.195   6.201
 8055SOL    HW125064   6.533   0.254   6.225
 8055SOL    HW225065   6.690   0.221   6.255
 8056SOL     OW25066   2.506   1.397   4.448
 8056SOL    HW125067   2.575   1.459   4.486
 8056SOL    HW225068   2.416   1.421   4.483
 8057SOL     OW25069   2.642   2.384   2.255
 8057SOL    HW125070   2.669   2.367   2.350
 8057SOL    HW225071   2.722   2.376   2.196
 8058SOL     OW25072   3.276   6.265   2.805
 8058SOL    HW125073   3.278   6.165   2.806
 8058SOL    HW225074   3.362   6.300   2.844
 8059SOL     OW25075   2.709   3.156   6.453
 8059SOL    HW125076   2.675   3.213   6.378
 8059SOL    HW225077   2.635   3.141   6.519
 8060SOL     OW25078   6.369   6.947   5.573
 8060SOL    HW125079   6.334   0.008   5.529
 8060SOL    HW225080   6.419   6.972   5.656
 8061SOL     OW25081   6.624   0.608   2.007
 8061SOL    HW125082   6.653   0.643   2.096
 8061SOL    HW225083   6.526   0.625   1.996
 8062SOL     OW25084   4.290   5.711   5.762
 8062SOL    HW125085   4.372   5.694   5.817
 8062SOL    HW225086   4.265   5.627   5.713
 8063SOL     OW25087   3.780   5.952   3.191
 8063SOL    HW125088   3.865   5.997   3.164
 8063SOL    HW225089   3.782   5.932   3.289
 8064SOL     OW25090   6.029   1.607   0.738
 8064SOL    HW125091   6.085   1.536   0.695
 8064SOL    HW225092   5.992   1.667   0.667
 8065SOL     OW25093   3.154   5.372   5.679
 8065SOL    HW125094   3.090   5.418   5.618
 8065SOL    HW225095   3.212   5.310   5.626
 8066SOL     OW25096   0.262   6.819   4.717
 8066SOL    HW125097   0.247   6.842   4.621
 8066SOL    HW225098   0.228   6.727   4.736
 8067SOL     OW25099   5.189   3.269   3.634
 8067SOL    HW125100   5.271   3.323   3.654
 8067SOL    HW225101   5.177   3.262   3.535
 8068SOL     OW25102   6.358   4.236   1.244
 8068SOL    HW125103   6.305   4.164   1.199
 8068SOL    HW225104   6.424   4.275   1.180
 8069SOL     OW25105   2.476   4.656   2.556
 8069SOL    HW125106   2.510   4.603   2.634
 8069SOL    HW225107   2.514   4.620   2.471
 8070SOL     OW25108   5.313   4.828   6.966
 8070SOL    HW125109   5.286   4.922   6.987
 8070SOL    HW225110   5.287   4.768   0.020
 8071SOL     OW25111   2.715   6.988   5.738
 8071SOL    HW125112   2.654   0.021   5.680
 8071SOL    HW225113   2.810   7.005   5.711
 8072SOL     OW25114   1.723   2.824   6.041
 8072SOL    HW125115   1.697   2.827   5.944
 8072SOL    HW225116   1.779   2.904   6.062
 8073SOL     OW25117   3.883   0.422   6.528
 8073SOL    HW125118   3.821   0.460   6.460
 8073SOL    HW225119   3.832   0.367   6.594
 8074SOL     OW25120   1.633   1.368   6.609
 8074SOL    HW125121   1.572   1.372   6.529
 8074SOL    HW225122   1.702   1.440   6.602
 8075SOL     OW25123   0.881   6.663   0.626
 8075SOL    HW125124   0.938   6.638   0.704
 8075SOL    HW225125   0.792   6.696   0.658
 8076SOL     OW25126   7.010   6.401   0.636
 8076SOL    HW125127   7.006   6.316   0.689
 8076SOL    HW225128   0.066   6.398   0.573
 8077SOL     OW25129   4.057   5.232   0.772
 8077SOL    HW125130   4.044   5.150   0.828
 8077SOL    HW225131   3.982   5.296   0.790
 8078SOL     OW25132   0.290   0.287   2.060
 8078SOL    HW125133   0.379   0.326   2.084
 8078SOL    HW225134   0.249   0.341   1.987
 8079SOL     OW25135   1.502   2.285   5.041
 8079SOL    HW125136   1.447   2.307   5.122
 8079SOL    HW225137   1.570   2.357   5.027
 8080SOL     OW25138   1.187   3.073   2.911
 8080SOL    HW125139   1.216   2.997   2.969
 8080SOL    HW225140   1.109   3.119   2.954
 8081SOL     OW25141   6.564   5.877   4.555
 8081SOL    HW125142   6.650   5.849   4.512
 8081SOL    HW225143   6.504   5.798   4.565
 8082SOL     OW25144   3.872   2.018   2.009
 8082SOL    HW125145   3.807   2.092   2.025
 8082SOL    HW225146   3.871   1.994   1.912
 8083SOL     OW25147   5.915   2.709   4.761
 8083SOL    HW125148   5.881   2.786   4.707
 8083SOL    HW225149   5.876   2.624   4.725
 8084SOL     OW25150   2.925   0.849   6.534
 8084SOL    HW125151   2.829   0.872   6.517
 8084SOL    HW225152   2.958   0.899   6.614
 8085SOL     OW25153   0.789   6.280   4.683
 8085SOL    HW125154   0.754   6.348   4.747
 8085SOL    HW225155   0.850   6.217   4.731
 8086SOL     OW25156   0.024   1.384   1.835
 8086SOL    HW125157   0.076   1.359   1.917
 8086SOL    HW225158   0.018   1.305   1.774
 8087SOL     OW25159   0.890   0.911   0.957
 8087SOL    HW125160   0.895   0.817   0.922
 8087SOL    HW225161   0.920   0.975   0.886
 8088SOL     OW25162   5.649   6.980   5.129
 8088SOL    HW125163   5.621   0.042   5.177
 8088SOL    HW225164   5.580   6.956   5.061
 8089SOL     OW25165   5.082   2.716   5.960
 8089SOL    HW125166   5.174   2.740   5.927
 8089SOL    HW225167   5.083   2.713   6.060
 8090SOL     OW25168   3.903   1.601   5.870
 8090SOL    HW125169   3.863   1.623   5.781
 8090SOL    HW225170   3.836   1.616   5.942
 8091SOL     OW25171   1.680   4.670   4.647
 8091SOL    HW125172   1.721   4.760   4.663
 8091SOL    HW225173   1.740   4.599   4.683
 8092SOL     OW25174   5.012   2.374   5.536
 8092SOL    HW125175   5.101   2.379   5.492
 8092SOL    HW225176   5.005   2.290   5.589
 8093SOL     OW25177   4.328   6.924   2.266
 8093SOL    HW125178   4.334   6.825   2.255
 8093SOL    HW225179   4.288   6.946   2.355
 8094SOL     OW25180   1.485   3.869   3.655
 8094SOL    HW125181   1.450   3.783   3.693
 8094SOL    HW225182   1.435   3.892   3.572
 8095SOL     OW25183   1.100   4.456   5.963
 8095SOL    HW125184   1.099   4.511   5.880
 8095SOL    HW225185   1.032   4.383   5.955
 8096SOL     OW25186   1.156   6.278   1.964
 8096SOL    HW125187   1.225   6.207   1.972
 8096SOL    HW225188   1.072   6.238   1.927
 8097SOL     OW25189   3.986   5.412   5.205
 8097SOL    HW125190   3.975   5.443   5.111
 8097SOL    HW225191   3.963   5.315   5.211
 8098SOL     OW25192   1.128   5.419   5.116
 8098SOL    HW125193   1.122   5.519   5.108
 8098SOL    HW225194   1.056   5.377   5.061
 8099SOL     OW25195   2.449   5.621   3.850
 8099SOL    HW125196   2.540   5.587   3.874
 8099SOL    HW225197   2.392   5.545   3.820
 8100SOL     OW25198   0.064   0.320   6.296
 8100SOL    HW125199   6.994   0.346   6.326
 8100SOL    HW225200   0.132   0.366   6.354
 8101SOL     OW25201   2.651   5.934   1.974
 8101SOL    HW125202   2.634   5.845   2.016
 8101SOL    HW225203   2.590   6.003   2.015
 8102SOL     OW25204   1.379   2.833   4.659
 8102SOL    HW125205   1.383   2.733   4.658
 8102SOL    HW225206   1.444   2.870   4.592
 8103SOL     OW25207   3.567   1.451   2.336
 8103SOL    HW125208   3.508   1.395   2.277
 8103SOL    HW225209   3.542   1.548   2.325
 8104SOL     OW25210   2.305   6.872   0.377
 8104SOL    HW125211   2.235   6.880   0.306
 8104SOL    HW225212   2.276   6.922   0.458
 8105SOL     OW25213   6.591   1.285   2.334
 8105SOL    HW125214   6.625   1.276   2.428
 8105SOL    HW225215   6.653   1.237   2.272
 8106SOL     OW25216   2.464   6.136   4.959
 8106SOL    HW125217   2.425   6.176   4.876
 8106SOL    HW225218   2.399   6.071   4.998
 8107SOL     OW25219   1.623   5.754   5.374
 8107SOL    HW125220   1.680   5.811   5.314
 8107SOL    HW225221   1.635   5.658   5.348
 8108SOL     OW25222   0.119   1.289   0.039
 8108SOL    HW125223   0.190   1.359   0.034
 8108SOL    HW225224   0.157   1.205   0.077
 8109SOL     OW25225   6.459   3.023   0.253
 8109SOL    HW125226   6.505   3.045   0.168
 8109SOL    HW225227   6.435   2.926   0.254
 8110SOL     OW25228   4.177   5.269   0.513
 8110SOL    HW125229   4.134   5.353   0.481
 8110SOL    HW225230   4.146   5.249   0.606
 8111SOL     OW25231   5.809   1.244   3.105
 8111SOL    HW125232   5.878   1.233   3.033
 8111SOL    HW225233   5.755   1.326   3.085
 8112SOL     OW25234   0.631   2.889   5.690
 8112SOL    HW125235   0.615   2.934   5.777
 8112SOL    HW225236   0.695   2.813   5.702
 8113SOL     OW25237   6.105   2.860   0.893
 8113SOL    HW125238   6.106   2.889   0.989
 8113SOL    HW225239   6.180   2.796   0.877
 8114SOL     OW25240   1.876   4.394   1.792
 8114SOL    HW125241   1.917   4.328   1.856
 8114SOL    HW225242   1.842   4.473   1.843
 8115SOL     OW25243   2.473   0.678   0.181
 8115SOL    HW125244   2.403   0.647   0.117
 8115SOL    HW225245   2.484   0.777   0.173
 8116SOL     OW25246   2.961   4.620   1.472
 8116SOL    HW125247   2.925   4.527   1.463
 8116SOL    HW225248   2.949   4.651   1.566
 8117SOL     OW25249   2.981   6.709   3.132
 8117SOL    HW125250   2.959   6.731   3.227
 8117SOL    HW225251   2.990   6.794   3.079
 8118SOL     OW25252   6.275   3.231   0.075
 8118SOL    HW125253   6.345   3.214   0.144
 8118SOL    HW225254   6.229   3.145   0.053
 8119SOL     OW25255   5.810   5.738   6.492
 8119SOL    HW125256   5.819   5.835   6.514
 8119SOL    HW225257   5.886   5.710   6.433
 8120SOL     OW25258   2.036   6.184   0.929
 8120SOL    HW125259   2.096   6.137   0.993
 8120SOL    HW225260   1.992   6.262   0.975
 8121SOL     OW25261   1.288   3.098   2.368
 8121SOL    HW125262   1.244   3.105   2.458
 8121SOL    HW225263   1.222   3.061   2.303
 8122SOL     OW25264   0.944   4.340   2.312
 8122SOL    HW125265   1.006   4.273   2.354
 8122SOL    HW225266   0.949   4.333   2.213
 8123SOL     OW25267   0.377   1.601   5.893
 8123SOL    HW125268   0.415   1.636   5.978
 8123SOL    HW225269   0.387   1.501   5.890
 8124SOL     OW25270   5.759   5.034   4.291
 8124SOL    HW125271   5.680   4.981   4.258
 8124SOL    HW225272   5.835   4.972   4.310
 8125SOL     OW25273   0.759   0.092   2.426
 8125SOL    HW125274   0.782   0.035   2.505
 8125SOL    HW225275   0.843   0.124   2.383
 8126SOL     OW25276   3.795   4.871   4.376
 8126SOL    HW125277   3.699   4.885   4.401
 8126SOL    HW225278   3.853   4.928   4.433
 8127SOL     OW25279   3.299   2.999   0.331
 8127SOL    HW125280   3.217   3.045   0.366
 8127SOL    HW225281   3.308   3.017   0.233
 8128SOL     OW25282   3.314   2.777   1.921
 8128SOL    HW125283   3.405   2.783   1.962
 8128SOL    HW225284   3.245   2.786   1.992
 8129SOL     OW25285   1.414   2.853   0.571
 8129SOL    HW125286   1.462   2.870   0.485
 8129SOL    HW225287   1.461   2.782   0.623
 8130SOL     OW25288   1.329   5.361   6.449
 8130SOL    HW125289   1.394   5.417   6.501
 8130SOL    HW225290   1.310   5.277   6.499
 8131SOL     OW25291   2.290   3.611   1.336
 8131SOL    HW125292   2.354   3.540   1.365
 8131SOL    HW225293   2.332   3.665   1.262
 8132SOL     OW25294   6.755   6.884   4.668
 8132SOL    HW125295   6.766   6.798   4.718
 8132SOL    HW225296   6.845   6.920   4.643
 8133SOL     OW25297   3.346   4.985   0.942
 8133SOL    HW125298   3.331   4.888   0.927
 8133SOL    HW225299   3.304   5.037   0.868
 8134SOL     OW25300   6.066   0.854   5.221
 8134SOL    HW125301   6.141   0.831   5.159
 8134SOL    HW225302   6.102   0.870   5.313
 8135SOL     OW25303   2.428   6.820   1.678
 8135SOL    HW125304   2.520   6.859   1.685
 8135SOL    HW225305   2.433   6.731   1.633
 8136SOL     OW25306   4.417   5.194   2.587
 8136SOL    HW125307   4.343   5.238   2.638
 8136SOL    HW225308   4.504   5.212   2.632
 8137SOL     OW25309   3.975   1.869   4.510
 8137SOL    HW125310   3.990   1.799   4.579
 8137SOL    HW225311   3.882   1.905   4.518
 8138SOL     OW25312   5.347   1.067   1.275
 8138SOL    HW125313   5.383   1.159   1.260
 8138SOL    HW225314   5.304   1.034   1.191
 8139SOL     OW25315   0.908   1.588   2.565
 8139SOL    HW125316   0.873   1.646   2.638
 8139SOL    HW225317   0.861   1.611   2.479
 8140SOL     OW25318   3.829   1.436   3.350
 8140SOL    HW125319   3.900   1.462   3.284
 8140SOL    HW225320   3.755   1.390   3.303
 8141SOL     OW25321   4.225   5.604   4.927
 8141SOL    HW125322   4.283   5.523   4.931
 8141SOL    HW225323   4.205   5.626   4.831
 8142SOL     OW25324   6.111   5.039   0.478
 8142SOL    HW125325   6.162   4.955   0.462
 8142SOL    HW225326   6.034   5.020   0.539
 8143SOL     OW25327   6.115   4.303   5.738
 8143SOL    HW125328   6.146   4.247   5.662
 8143SOL    HW225329   6.047   4.369   5.705
 8144SOL     OW25330   5.345   6.575   6.936
 8144SOL    HW125331   5.272   6.575   7.004
 8144SOL    HW225332   5.346   6.662   6.887
 8145SOL     OW25333   6.209   5.924   2.499
 8145SOL    HW125334   6.164   5.974   2.425
 8145SOL    HW225335   6.165   5.834   2.509
 8146SOL     OW25336   3.397   1.076   5.662
 8146SOL    HW125337   3.412   1.013   5.586
 8146SOL    HW225338   3.342   1.154   5.630
 8147SOL     OW25339   5.131   1.941   4.110
 8147SOL    HW125340   5.154   1.856   4.158
 8147SOL    HW225341   5.081   1.919   4.027
 8148SOL     OW25342   5.765   3.236   3.015
 8148SOL    HW125343   5.770   3.142   2.979
 8148SOL    HW225344   5.679   3.248   3.064
 8149SOL     OW25345   4.387   5.029   3.536
 8149SOL    HW125346   4.391   4.945   3.482
 8149SOL    HW225347   4.314   5.088   3.502
 8150SOL     OW25348   0.902   5.143   6.466
 8150SOL    HW125349   0.897   5.211   6.392
 8150SOL    HW225350   0.998   5.121   6.485
 8151SOL     OW25351   1.291   2.263   5.487
 8151SOL    HW125352   1.221   2.332   5.506
 8151SOL    HW225353   1.288   2.193   5.558
 8152SOL     OW25354   1.750   0.696   3.320
 8152SOL    HW125355   1.837   0.714   3.367
 8152SOL    HW225356   1.676   0.698   3.387
 8153SOL     OW25357   2.776   6.073   0.656
 8153SOL    HW125358   2.703   6.007   0.675
 8153SOL    HW225359   2.771   6.149   0.721
 8154SOL     OW25360   1.917   6.504   3.729
 8154SOL    HW125361   1.876   6.521   3.640
 8154SOL    HW225362   1.847   6.471   3.792
 8155SOL     OW25363   3.227   3.436   3.101
 8155SOL    HW125364   3.289   3.462   3.176
 8155SOL    HW225365   3.235   3.502   3.027
 8156SOL     OW25366   5.782   0.845   5.231
 8156SOL    HW125367   5.882   0.844   5.233
 8156SOL    HW225368   5.747   0.886   5.315
 8157SOL     OW25369   5.697   4.264   6.984
 8157SOL    HW125370   5.719   4.239   6.889
 8157SOL    HW225371   5.723   4.360   6.999
 8158SOL     OW25372   1.552   5.413   2.089
 8158SOL    HW125373   1.452   5.410   2.084
 8158SOL    HW225374   1.585   5.496   2.044
 8159SOL     OW25375   2.069   6.095   2.384
 8159SOL    HW125376   2.154   6.148   2.383
 8159SOL    HW225377   2.008   6.127   2.312
 8160SOL     OW25378   4.183   2.280   1.781
 8160SOL    HW125379   4.168   2.377   1.762
 8160SOL    HW225380   4.096   2.231   1.775
 8161SOL     OW25381   4.827   1.275   6.972
 8161SOL    HW125382   4.779   1.361   6.951
 8161SOL    HW225383   4.872   1.283   0.039
 8162SOL     OW25384   5.286   0.387   1.074
 8162SOL    HW125385   5.319   0.311   1.130
 8162SOL    HW225386   5.187   0.395   1.084
 8163SOL     OW25387   2.273   3.969   5.456
 8163SOL    HW125388   2.315   3.925   5.376
 8163SOL    HW225389   2.187   4.012   5.428
 8164SOL     OW25390   4.447   2.323   1.814
 8164SOL    HW125391   4.514   2.249   1.809
 8164SOL    HW225392   4.354   2.284   1.812
 8165SOL     OW25393   2.227   4.511   1.787
 8165SOL    HW125394   2.167   4.491   1.710
 8165SOL    HW225395   2.199   4.596   1.830
 8166SOL     OW25396   2.761   6.876   1.665
 8166SOL    HW125397   2.835   6.816   1.694
 8166SOL    HW225398   2.726   6.928   1.744
 8167SOL     OW25399   5.995   2.555   4.098
 8167SOL    HW125400   5.969   2.644   4.060
 8167SOL    HW225401   6.048   2.505   4.030
 8168SOL     OW25402   3.652   0.961   3.147
 8168SOL    HW125403   3.751   0.948   3.140
 8168SOL    HW225404   3.606   0.874   3.131
 8169SOL     OW25405   4.230   3.670   6.513
 8169SOL    HW125406   4.322   3.642   6.485
 8169SOL    HW225407   4.217   3.767   6.492
 8170SOL     OW25408   0.880   5.659   4.068
 8170SOL    HW125409   0.957   5.707   4.108
 8170SOL    HW225410   0.851   5.706   3.985
 8171SOL     OW25411   0.636   2.547   5.782
 8171SOL    HW125412   0.708   2.479   5.800
 8171SOL    HW225413   0.580   2.516   5.706
 8172SOL     OW25414   0.497   6.594   1.178
 8172SOL    HW125415   0.540   6.683   1.190
 8172SOL    HW225416   0.528   6.531   1.249
 8173SOL     OW25417   4.288   2.167   6.794
 8173SOL    HW125418   4.297   2.199   6.700
 8173SOL    HW225419   4.232   2.084   6.795
 8174SOL     OW25420   5.739   1.126   2.042
 8174SOL    HW125421   5.703   1.125   2.136
 8174SOL    HW225422   5.702   1.048   1.992
 8175SOL     OW25423   0.660   2.944   6.168
 8175SOL    HW125424   0.600   2.874   6.208
 8175SOL    HW225425   0.743   2.900   6.133
 8176SOL     OW25426   2.584   5.547   2.603
 8176SOL    HW125427   2.571   5.619   2.671
 8176SOL    HW225428   2.495   5.519   2.568
 8177SOL     OW25429   6.793   6.324   5.470
 8177SOL    HW125430   6.779   6.322   5.569
 8177SOL    HW225431   6.890   6.310   5.450
 8178SOL     OW25432   2.326   6.544   6.118
 8178SOL    HW125433   2.408   6.522   6.170
 8178SOL    HW225434   2.258   6.586   6.178
 8179SOL     OW25435   3.354   2.421   0.367
 8179SOL    HW125436   3.261   2.407   0.331
 8179SOL    HW225437   3.415   2.444   0.291
 8180SOL     OW25438   6.250   6.115   4.908
 8180SOL    HW125439   6.220   6.187   4.846
 8180SOL    HW225440   6.180   6.100   4.978
 8181SOL     OW25441   2.665   2.389   3.236
 8181SOL    HW125442   2.689   2.357   3.144
 8181SOL    HW225443   2.745   2.385   3.295
 8182SOL     OW25444   4.164   2.232   5.190
 8182SOL    HW125445   4.153   2.331   5.187
 8182SOL    HW225446   4.115   2.196   5.270
 8183SOL     OW25447   1.277   3.725   4.637
 8183SOL    HW125448   1.331   3.799   4.677
 8183SOL    HW225449   1.323   3.638   4.653
 8184SOL     OW25450   6.733   6.340   5.752
 8184SOL    HW125451   6.672   6.415   5.777
 8184SOL    HW225452   6.752   6.285   5.833
 8185SOL     OW25453   2.614   1.279   2.624
 8185SOL    HW125454   2.581   1.360   2.672
 8185SOL    HW225455   2.635   1.302   2.529
 8186SOL     OW25456   3.538   5.599   5.877
 8186SOL    HW125457   3.596   5.607   5.959
 8186SOL    HW225458   3.555   5.510   5.833
 8187SOL     OW25459   1.880   1.724   4.915
 8187SOL    HW125460   1.821   1.784   4.861
 8187SOL    HW225461   1.973   1.727   4.878
 8188SOL     OW25462   5.776   3.092   3.332
 8188SOL    HW125463   5.755   3.027   3.260
 8188SOL    HW225464   5.840   3.161   3.299
 8189SOL     OW25465   6.006   4.237   2.581
 8189SOL    HW125466   6.082   4.301   2.571
 8189SOL    HW225467   5.922   4.287   2.604
 8190SOL     OW25468   4.980   3.653   3.207
 8190SOL    HW125469   5.008   3.660   3.303
 8190SOL    HW225470   5.005   3.737   3.159
 8191SOL     OW25471   0.828   4.673   3.918
 8191SOL    HW125472   0.910   4.617   3.910
 8191SOL    HW225473   0.803   4.684   4.014
 8192SOL     OW25474   2.019   4.515   1.593
 8192SOL    HW125475   1.972   4.467   1.667
 8192SOL    HW225476   1.981   4.486   1.505
 8193SOL     OW25477   3.788   0.058   5.795
 8193SOL    HW125478   3.740   7.004   5.841
 8193SOL    HW225479   3.863   0.021   5.741
 8194SOL     OW25480   0.271   0.647   0.572
 8194SOL    HW125481   0.331   0.726   0.572
 8194SOL    HW225482   0.293   0.588   0.494
 8195SOL     OW25483   6.693   6.217   0.464
 8195SOL    HW125484   6.710   6.220   0.563
 8195SOL    HW225485   6.750   6.284   0.418
 8196SOL     OW25486   2.644   6.768   6.255
 8196SOL    HW125487   2.620   6.730   6.165
 8196SOL    HW225488   2.696   6.852   6.243
 8197SOL     OW25489   0.622   0.209   6.378
 8197SOL    HW125490   0.660   0.136   6.436
 8197SOL    HW225491   0.529   0.229   6.408
 8198SOL     OW25492   3.347   6.278   3.295
 8198SOL    HW125493   3.349   6.297   3.197
 8198SOL    HW225494   3.424   6.219   3.319
 8199SOL     OW25495   6.939   3.766   0.173
 8199SOL    HW125496   0.016   3.779   0.182
 8199SOL    HW225497   6.892   3.828   0.235
 8200SOL     OW25498   5.025   4.303   0.827
 8200SOL    HW125499   5.012   4.400   0.849
 8200SOL    HW225500   5.123   4.284   0.817
 8201SOL     OW25501   6.159   0.642   3.639
 8201SOL    HW125502   6.198   0.550   3.646
 8201SOL    HW225503   6.111   0.651   3.552
 8202SOL     OW25504   1.596   3.782   3.405
 8202SOL    HW125505   1.500   3.799   3.423
 8202SOL    HW225506   1.605   3.705   3.340
 8203SOL     OW25507   5.745   2.881   1.133
 8203SOL    HW125508   5.678   2.955   1.138
 8203SOL    HW225509   5.776   2.872   1.038
 8204SOL     OW25510   2.959   0.034   1.859
 8204SOL    HW125511   3.019   6.978   1.847
 8204SOL    HW225512   2.866   0.002   1.878
 8205SOL     OW25513   5.933   5.293   2.419
 8205SOL    HW125514   5.847   5.284   2.470
 8205SOL    HW225515   5.987   5.210   2.432
 8206SOL     OW25516   4.700   2.030   4.176
 8206SOL    HW125517   4.736   1.937   4.185
 8206SOL    HW225518   4.603   2.030   4.200
 8207SOL     OW25519   2.362   5.975   0.313
 8207SOL    HW125520   2.326   6.031   0.387
 8207SOL    HW225521   2.374   6.032   0.231
 8208SOL     OW25522   1.538   4.698   6.734
 8208SOL    HW125523   1.606   4.707   6.808
 8208SOL    HW225524   1.478   4.779   6.735
 8209SOL     OW25525   0.401   0.024   5.174
 8209SOL    HW125526   0.304   0.015   5.152
 8209SOL    HW225527   0.434   0.112   5.140
 8210SOL     OW25528   2.813   1.803   6.727
 8210SOL    HW125529   2.745   1.867   6.690
 8210SOL    HW225530   2.808   1.803   6.827
 8211SOL     OW25531   3.010   3.348   4.331
 8211SOL    HW125532   2.961   3.359   4.245
 8211SOL    HW225533   3.052   3.435   4.357
 8212SOL     OW25534   2.937   0.239   1.062
 8212SOL    HW125535   2.886   0.205   0.983
 8212SOL    HW225536   2.940   0.339   1.060
 8213SOL     OW25537   4.508   4.086   1.681
 8213SOL    HW125538   4.433   4.020   1.678
 8213SOL    HW225539   4.484   4.162   1.742
 8214SOL     OW25540   4.437   5.790   4.302
 8214SOL    HW125541   4.499   5.841   4.361
 8214SOL    HW225542   4.375   5.852   4.255
 8215SOL     OW25543   3.995   6.892   0.350
 8215SOL    HW125544   4.021   6.796   0.339
 8215SOL    HW225545   4.076   6.950   0.338
 8216SOL     OW25546   5.733   4.784   1.296
 8216SOL    HW125547   5.680   4.700   1.282
 8216SOL    HW225548   5.755   4.794   1.393
 8217SOL     OW25549   2.976   6.370   3.844
 8217SOL    HW125550   2.997   6.278   3.877
 8217SOL    HW225551   2.877   6.382   3.839
 8218SOL     OW25552   2.792   0.104   4.445
 8218SOL    HW125553   2.805   0.184   4.502
 8218SOL    HW225554   2.726   0.042   4.487
 8219SOL     OW25555   3.999   3.409   1.199
 8219SOL    HW125556   4.047   3.362   1.273
 8219SOL    HW225557   3.928   3.350   1.161
 8220SOL     OW25558   3.898   3.447   4.157
 8220SOL    HW125559   3.893   3.525   4.094
 8220SOL    HW225560   3.970   3.385   4.127
 8221SOL     OW25561   5.634   3.858   3.332
 8221SOL    HW125562   5.541   3.871   3.298
 8221SOL    HW225563   5.699   3.870   3.257
 8222SOL     OW25564   6.495   3.364   0.299
 8222SOL    HW125565   6.520   3.405   0.211
 8222SOL    HW225566   6.504   3.264   0.292
 8223SOL     OW25567   1.140   6.128   5.397
 8223SOL    HW125568   1.182   6.206   5.443
 8223SOL    HW225569   1.191   6.045   5.422
 8224SOL     OW25570   5.586   1.807   0.674
 8224SOL    HW125571   5.546   1.717   0.692
 8224SOL    HW225572   5.529   1.878   0.716
 8225SOL     OW25573   5.634   1.893   6.978
 8225SOL    HW125574   5.543   1.907   7.018
 8225SOL    HW225575   5.703   1.932   0.017
 8226SOL     OW25576   4.258   6.974   0.362
 8226SOL    HW125577   4.248   6.991   0.264
 8226SOL    HW225578   4.286   0.037   0.408
 8227SOL     OW25579   4.969   2.467   2.811
 8227SOL    HW125580   5.024   2.530   2.866
 8227SOL    HW225581   5.024   2.435   2.734
 8228SOL     OW25582   2.371   0.085   4.563
 8228SOL    HW125583   2.377   0.185   4.564
 8228SOL    HW225584   2.288   0.057   4.514
 8229SOL     OW25585   4.718   4.067   0.791
 8229SOL    HW125586   4.691   4.147   0.844
 8229SOL    HW225587   4.741   3.992   0.852
 8230SOL     OW25588   5.791   0.535   6.347
 8230SOL    HW125589   5.769   0.460   6.409
 8230SOL    HW225590   5.852   0.600   6.394
 8231SOL     OW25591   2.513   1.809   2.953
 8231SOL    HW125592   2.442   1.747   2.921
 8231SOL    HW225593   2.515   1.891   2.895
 8232SOL     OW25594   3.716   5.472   3.196
 8232SOL    HW125595   3.738   5.554   3.143
 8232SOL    HW225596   3.747   5.484   3.291
 8233SOL     OW25597   0.062   1.229   6.337
 8233SOL    HW125598   0.049   1.257   6.432
 8233SOL    HW225599   0.128   1.289   6.292
 8234SOL     OW25600   0.984   2.302   0.835
 8234SOL    HW125601   0.986   2.331   0.739
 8234SOL    HW225602   1.078   2.300   0.871
 8235SOL     OW25603   1.101   6.379   1.183
 8235SOL    HW125604   1.194   6.413   1.171
 8235SOL    HW225605   1.066   6.407   1.272
 8236SOL     OW25606   0.995   6.089   1.742
 8236SOL    HW125607   0.914   6.042   1.710
 8236SOL    HW225608   1.061   6.022   1.776
 8237SOL     OW25609   4.317   5.095   6.843
 8237SOL    HW125610   4.304   5.105   6.744
 8237SOL    HW225611   4.251   5.028   6.878
 8238SOL     OW25612   1.039   4.736   0.180
 8238SOL    HW125613   1.015   4.697   0.091
 8238SOL    HW225614   0.975   4.810   0.202
 8239SOL     OW25615   1.664   1.674   5.109
 8239SOL    HW125616   1.756   1.683   5.072
 8239SOL    HW225617   1.597   1.674   5.034
 8240SOL     OW25618   3.207   3.314   4.787
 8240SOL    HW125619   3.191   3.319   4.689
 8240SOL    HW225620   3.189   3.222   4.820
 8241SOL     OW25621   1.989   4.405   5.825
 8241SOL    HW125622   2.060   4.463   5.865
 8241SOL    HW225623   2.032   4.330   5.774
 8242SOL     OW25624   0.877   2.883   2.829
 8242SOL    HW125625   0.871   2.982   2.841
 8242SOL    HW225626   0.794   2.840   2.864
 8243SOL     OW25627   1.166   5.920   4.202
 8243SOL    HW125628   1.251   5.972   4.196
 8243SOL    HW225629   1.145   5.879   4.113
 8244SOL     OW25630   0.628   1.409   4.381
 8244SOL    HW125631   0.686   1.328   4.389
 8244SOL    HW225632   0.607   1.425   4.284
 8245SOL     OW25633   5.342   1.794   3.331
 8245SOL    HW125634   5.390   1.790   3.418
 8245SOL    HW225635   5.373   1.874   3.279
 8246SOL     OW25636   1.888   4.871   6.490
 8246SOL    HW125637   1.960   4.939   6.503
 8246SOL    HW225638   1.843   4.887   6.401
 8247SOL     OW25639   2.944   5.414   3.309
 8247SOL    HW125640   2.865   5.390   3.366
 8247SOL    HW225641   3.028   5.397   3.360
 8248SOL     OW25642   6.735   5.133   2.900
 8248SOL    HW125643   6.816   5.141   2.958
 8248SOL    HW225644   6.762   5.132   2.804
 8249SOL     OW25645   3.341   1.812   6.092
 8249SOL    HW125646   3.359   1.844   5.999
 8249SOL    HW225647   3.254   1.849   6.124
 8250SOL     OW25648   1.159   1.507   0.013
 8250SOL    HW125649   1.244   1.559   0.029
 8250SOL    HW225650   1.081   1.567   0.027
 8251SOL     OW25651   0.966   2.303   4.765
 8251SOL    HW125652   0.903   2.322   4.840
 8251SOL    HW225653   0.992   2.206   4.766
 8252SOL     OW25654   1.047   2.525   6.366
 8252SOL    HW125655   1.066   2.511   6.269
 8252SOL    HW225656   0.974   2.593   6.377
 8253SOL     OW25657   4.524   6.030   0.373
 8253SOL    HW125658   4.510   6.110   0.431
 8253SOL    HW225659   4.442   5.973   0.374
 8254SOL     OW25660   5.412   4.772   6.451
 8254SOL    HW125661   5.442   4.781   6.546
 8254SOL    HW225662   5.319   4.809   6.442
 8255SOL     OW25663   1.614   0.198   5.990
 8255SOL    HW125664   1.613   0.284   6.040
 8255SOL    HW225665   1.522   0.158   5.988
 8256SOL     OW25666   1.372   5.409   5.243
 8256SOL    HW125667   1.376   5.374   5.337
 8256SOL    HW225668   1.282   5.389   5.204
 8257SOL     OW25669   5.435   3.928   3.130
 8257SOL    HW125670   5.459   3.957   3.038
 8257SOL    HW225671   5.423   3.828   3.132
 8258SOL     OW25672   6.958   3.420   1.626
 8258SOL    HW125673   6.935   3.517   1.629
 8258SOL    HW225674   6.893   3.372   1.566
 8259SOL     OW25675   5.402   1.769   4.396
 8259SOL    HW125676   5.487   1.821   4.399
 8259SOL    HW225677   5.398   1.708   4.476
 8260SOL     OW25678   4.287   1.556   0.873
 8260SOL    HW125679   4.230   1.634   0.844
 8260SOL    HW225680   4.291   1.553   0.973
 8261SOL     OW25681   5.902   0.672   2.529
 8261SOL    HW125682   5.819   0.725   2.510
 8261SOL    HW225683   5.928   0.684   2.624
 8262SOL     OW25684   5.621   4.252   1.853
 8262SOL    HW125685   5.680   4.172   1.861
 8262SOL    HW225686   5.674   4.334   1.873
 8263SOL     OW25687   6.882   2.220   5.843
 8263SOL    HW125688   6.836   2.307   5.828
 8263SOL    HW225689   6.896   2.206   5.941
 8264SOL     OW25690   3.091   6.961   2.967
 8264SOL    HW125691   3.168   6.962   3.031
 8264SOL    HW225692   3.120   6.923   2.880
 8265SOL     OW25693   5.042   6.775   0.358
 8265SOL    HW125694   5.031   6.676   0.367
 8265SOL    HW225695   5.130   6.803   0.397
 8266SOL     OW25696   2.540   0.854   3.540
 8266SOL    HW125697   2.545   0.772   3.596
 8266SOL    HW225698   2.594   0.841   3.457
 8267SOL     OW25699   1.772   3.556   2.426
 8267SOL    HW125700   1.819   3.471   2.400
 8267SOL    HW225701   1.791   3.626   2.358
 8268SOL     OW25702   3.701   5.125   6.179
 8268SOL    HW125703   3.671   5.140   6.273
 8268SOL    HW225704   3.790   5.169   6.164
 8269SOL     OW25705   6.291   3.164   4.248
 8269SOL    HW125706   6.230   3.183   4.171
 8269SOL    HW225707   6.327   3.071   4.239
 8270SOL     OW25708   3.672   0.075   0.074
 8270SOL    HW125709   3.748   0.140   0.073
 8270SOL    HW225710   3.691   0.003   0.141
 8271SOL     OW25711   3.580   6.121   6.277
 8271SOL    HW125712   3.669   6.164   6.262
 8271SOL    HW225713   3.510   6.171   6.228
 8272SOL     OW25714   0.526   0.443   2.118
 8272SOL    HW125715   0.496   0.534   2.146
 8272SOL    HW225716   0.550   0.444   2.021
 8273SOL     OW25717   4.153   0.430   6.812
 8273SOL    HW125718   4.065   0.439   6.858
 8273SOL    HW225719   4.204   0.516   6.823
 8274SOL     OW25720   5.512   6.210   5.542
 8274SOL    HW125721   5.518   6.199   5.442
 8274SOL    HW225722   5.579   6.278   5.571
 8275SOL     OW25723   5.641   0.509   3.250
 8275SOL    HW125724   5.644   0.599   3.206
 8275SOL    HW225725   5.734   0.482   3.275
 8276SOL     OW25726   6.651   1.797   6.735
 8276SOL    HW125727   6.640   1.726   6.666
 8276SOL    HW225728   6.743   1.835   6.730
 8277SOL     OW25729   1.388   6.649   0.024
 8277SOL    HW125730   1.440   6.655   6.961
 8277SOL    HW225731   1.348   6.738   0.045
 8278SOL     OW25732   2.965   1.535   0.674
 8278SOL    HW125733   2.948   1.625   0.632
 8278SOL    HW225734   3.052   1.499   0.642
 8279SOL     OW25735   3.962   5.816   4.699
 8279SOL    HW125736   3.877   5.770   4.676
 8279SOL    HW225737   3.945   5.886   4.769
 8280SOL     OW25738   5.363   3.689   0.363
 8280SOL    HW125739   5.338   3.776   0.322
 8280SOL    HW225740   5.456   3.694   0.399
 8281SOL     OW25741   2.751   4.983   0.371
 8281SOL    HW125742   2.665   4.946   0.336
 8281SOL    HW225743   2.773   5.067   0.322
 8282SOL     OW25744   3.055   2.796   1.357
 8282SOL    HW125745   3.046   2.885   1.313
 8282SOL    HW225746   3.074   2.726   1.287
 8283SOL     OW25747   0.485   5.852   3.389
 8283SOL    HW125748   0.461   5.928   3.329
 8283SOL    HW225749   0.469   5.766   3.340
 8284SOL     OW25750   3.205   1.668   2.085
 8284SOL    HW125751   3.247   1.578   2.099
 8284SOL    HW225752   3.119   1.672   2.136
 8285SOL     OW25753   2.943   4.689   6.809
 8285SOL    HW125754   2.997   4.606   6.789
 8285SOL    HW225755   2.959   4.757   6.737
 8286SOL     OW25756   5.597   2.137   5.462
 8286SOL    HW125757   5.655   2.153   5.542
 8286SOL    HW225758   5.650   2.153   5.379
 8287SOL     OW25759   1.732   6.952   3.561
 8287SOL    HW125760   1.696   6.963   3.469
 8287SOL    HW225761   1.815   6.896   3.559
 8288SOL     OW25762   2.354   6.886   3.179
 8288SOL    HW125763   2.297   6.864   3.100
 8288SOL    HW225764   2.449   6.864   3.158
 8289SOL     OW25765   6.376   1.175   6.101
 8289SOL    HW125766   6.460   1.204   6.056
 8289SOL    HW225767   6.374   1.075   6.108
 8290SOL     OW25768   4.765   2.816   1.728
 8290SOL    HW125769   4.722   2.759   1.658
 8290SOL    HW225770   4.697   2.879   1.766
 8291SOL     OW25771   3.889   5.836   6.710
 8291SOL    HW125772   3.966   5.842   6.774
 8291SOL    HW225773   3.806   5.811   6.760
 8292SOL     OW25774   0.790   3.131   4.748
 8292SOL    HW125775   0.825   3.210   4.697
 8292SOL    HW225776   0.778   3.054   4.686
 8293SOL     OW25777   3.034   4.811   3.615
 8293SOL    HW125778   2.974   4.833   3.692
 8293SOL    HW225779   3.129   4.813   3.645
 8294SOL     OW25780   4.448   3.395   6.195
 8294SOL    HW125781   4.548   3.397   6.193
 8294SOL    HW225782   4.417   3.307   6.232
 8295SOL     OW25783   4.980   4.640   2.304
 8295SOL    HW125784   5.067   4.592   2.298
 8295SOL    HW225785   4.994   4.731   2.342
 8296SOL     OW25786   4.149   6.482   1.921
 8296SOL    HW125787   4.079   6.510   1.856
 8296SOL    HW225788   4.222   6.550   1.923
 8297SOL     OW25789   5.514   4.629   3.937
 8297SOL    HW125790   5.418   4.631   3.964
 8297SOL    HW225791   5.525   4.673   3.847
 8298SOL     OW25792   6.746   6.763   6.717
 8298SOL    HW125793   6.715   6.691   6.655
 8298SOL    HW225794   6.845   6.754   6.731
 8299SOL     OW25795   0.759   3.603   0.805
 8299SOL    HW125796   0.710   3.675   0.756
 8299SOL    HW225797   0.743   3.515   0.760
 8300SOL     OW25798   5.769   5.606   2.957
 8300SOL    HW125799   5.719   5.623   2.872
 8300SOL    HW225800   5.755   5.510   2.984
 8301SOL     OW25801   5.113   6.512   0.414
 8301SOL    HW125802   5.143   6.530   0.508
 8301SOL    HW225803   5.098   6.414   0.402
 8302SOL     OW25804   3.429   6.755   5.478
 8302SOL    HW125805   3.468   6.834   5.430
 8302SOL    HW225806   3.341   6.781   5.517
 8303SOL     OW25807   0.656   5.365   3.073
 8303SOL    HW125808   0.642   5.423   2.992
 8303SOL    HW225809   0.732   5.302   3.056
 8304SOL     OW25810   5.975   4.440   3.196
 8304SOL    HW125811   5.940   4.437   3.290
 8304SOL    HW225812   6.073   4.420   3.196
 8305SOL     OW25813   5.324   6.713   4.785
 8305SOL    HW125814   5.356   6.674   4.871
 8305SOL    HW225815   5.381   6.679   4.710
 8306SOL     OW25816   6.305   1.422   2.376
 8306SOL    HW125817   6.346   1.333   2.396
 8306SOL    HW225818   6.205   1.414   2.381
 8307SOL     OW25819   1.303   3.406   2.766
 8307SOL    HW125820   1.291   3.473   2.692
 8307SOL    HW225821   1.274   3.446   2.853
 8308SOL     OW25822   1.543   5.116   0.648
 8308SOL    HW125823   1.469   5.068   0.695
 8308SOL    HW225824   1.602   5.160   0.716
 8309SOL     OW25825   6.601   4.846   4.647
 8309SOL    HW125826   6.658   4.916   4.690
 8309SOL    HW225827   6.602   4.763   4.703
 8310SOL     OW25828   1.879   0.500   0.497
 8310SOL    HW125829   1.793   0.542   0.466
 8310SOL    HW225830   1.858   0.431   0.566
 8311SOL     OW25831   5.412   6.257   3.398
 8311SOL    HW125832   5.412   6.306   3.485
 8311SOL    HW225833   5.320   6.220   3.381
 8312SOL     OW25834   5.809   1.493   0.285
 8312SOL    HW125835   5.808   1.588   0.256
 8312SOL    HW225836   5.893   1.449   0.254
 8313SOL     OW25837   5.780   2.579   5.627
 8313SOL    HW125838   5.863   2.542   5.668
 8313SOL    HW225839   5.800   2.613   5.535
 8314SOL     OW25840   5.095   6.446   4.045
 8314SOL    HW125841   5.165   6.503   4.003
 8314SOL    HW225842   5.045   6.499   4.113
 8315SOL     OW25843   3.513   3.984   4.689
 8315SOL    HW125844   3.430   4.024   4.729
 8315SOL    HW225845   3.491   3.893   4.653
 8316SOL     OW25846   1.848   2.098   6.213
 8316SOL    HW125847   1.867   2.118   6.309
 8316SOL    HW225848   1.878   2.174   6.156
 8317SOL     OW25849   1.366   1.643   3.615
 8317SOL    HW125850   1.367   1.690   3.527
 8317SOL    HW225851   1.456   1.603   3.633
 8318SOL     OW25852   4.423   0.164   6.598
 8318SOL    HW125853   4.478   0.209   6.669
 8318SOL    HW225854   4.483   0.118   6.533
 8319SOL     OW25855   1.778   6.010   6.638
 8319SOL    HW125856   1.860   6.003   6.582
 8319SOL    HW225857   1.697   5.995   6.581
 8320SOL     OW25858   3.174   3.274   5.199
 8320SOL    HW125859   3.138   3.346   5.140
 8320SOL    HW225860   3.098   3.229   5.246
 8321SOL     OW25861   0.351   6.826   1.179
 8321SOL    HW125862   0.335   6.839   1.081
 8321SOL    HW225863   0.378   6.732   1.197
 8322SOL     OW25864   0.729   6.489   0.386
 8322SOL    HW125865   0.755   6.454   0.476
 8322SOL    HW225866   0.768   6.430   0.315
 8323SOL     OW25867   5.288   4.662   0.808
 8323SOL    HW125868   5.385   4.678   0.792
 8323SOL    HW225869   5.258   4.583   0.755
 8324SOL     OW25870   4.539   5.472   6.192
 8324SOL    HW125871   4.510   5.460   6.097
 8324SOL    HW225872   4.575   5.564   6.205
 8325SOL     OW25873   1.512   5.679   6.409
 8325SOL    HW125874   1.440   5.673   6.340
 8325SOL    HW225875   1.539   5.587   6.438
 8326SOL     OW25876   1.236   3.053   0.022
 8326SOL    HW125877   1.271   2.979   6.987
 8326SOL    HW225878   1.138   3.039   0.036
 8327SOL     OW25879   0.761   6.665   4.854
 8327SOL    HW125880   0.841   6.647   4.911
 8327SOL    HW225881   0.700   6.728   4.902
 8328SOL     OW25882   0.938   6.706   0.351
 8328SOL    HW125883   1.005   6.636   0.328
 8328SOL    HW225884   0.885   6.676   0.430
 8329SOL     OW25885   1.938   2.686   4.809
 8329SOL    HW125886   1.912   2.627   4.733
 8329SOL    HW225887   2.038   2.684   4.820
 8330SOL     OW25888   3.276   1.578   0.426
 8330SOL    HW125889   3.302   1.520   0.504
 8330SOL    HW225890   3.347   1.574   0.356
 8331SOL     OW25891   1.757   2.415   5.751
 8331SOL    HW125892   1.783   2.345   5.684
 8331SOL    HW225893   1.669   2.454   5.726
 8332SOL     OW25894   6.299   5.389   1.424
 8332SOL    HW125895   6.388   5.372   1.382
 8332SOL    HW225896   6.249   5.456   1.369
 8333SOL     OW25897   2.074   4.389   0.423
 8333SOL    HW125898   2.125   4.361   0.503
 8333SOL    HW225899   2.043   4.484   0.435
 8334SOL     OW25900   3.600   2.237   6.452
 8334SOL    HW125901   3.563   2.328   6.469
 8334SOL    HW225902   3.606   2.221   6.353
 8335SOL     OW25903   5.244   4.501   6.138
 8335SOL    HW125904   5.243   4.401   6.132
 8335SOL    HW225905   5.234   4.529   6.233
 8336SOL     OW25906   0.948   3.866   3.537
 8336SOL    HW125907   1.025   3.808   3.565
 8336SOL    HW225908   0.982   3.956   3.511
 8337SOL     OW25909   0.563   1.384   4.656
 8337SOL    HW125910   0.603   1.425   4.574
 8337SOL    HW225911   0.472   1.422   4.672
 8338SOL     OW25912   3.917   5.426   1.430
 8338SOL    HW125913   3.892   5.472   1.515
 8338SOL    HW225914   3.835   5.411   1.375
 8339SOL     OW25915   5.714   0.170   1.393
 8339SOL    HW125916   5.785   0.223   1.347
 8339SOL    HW225917   5.698   0.085   1.342
 8340SOL     OW25918   5.949   2.146   6.689
 8340SOL    HW125919   5.850   2.152   6.678
 8340SOL    HW225920   5.973   2.053   6.719
 8341SOL     OW25921   3.581   0.680   0.773
 8341SOL    HW125922   3.626   0.768   0.792
 8341SOL    HW225923   3.620   0.610   0.833
 8342SOL     OW25924   4.627   0.586   0.221
 8342SOL    HW125925   4.569   0.656   0.262
 8342SOL    HW225926   4.579   0.544   0.143
 8343SOL     OW25927   5.675   3.760   4.213
 8343SOL    HW125928   5.688   3.855   4.240
 8343SOL    HW225929   5.632   3.757   4.122
 8344SOL     OW25930   1.065   5.126   5.195
 8344SOL    HW125931   1.126   5.161   5.266
 8344SOL    HW225932   1.036   5.033   5.219
 8345SOL     OW25933   4.882   0.555   3.396
 8345SOL    HW125934   4.782   0.551   3.394
 8345SOL    HW225935   4.917   0.473   3.443
 8346SOL     OW25936   5.916   3.768   5.070
 8346SOL    HW125937   5.875   3.707   5.138
 8346SOL    HW225938   6.009   3.738   5.050
 8347SOL     OW25939   2.282   1.252   6.800
 8347SOL    HW125940   2.191   1.236   6.761
 8347SOL    HW225941   2.332   1.316   6.741
 8348SOL     OW25942   3.156   5.728   1.944
 8348SOL    HW125943   3.170   5.744   2.042
 8348SOL    HW225944   3.073   5.775   1.914
 8349SOL     OW25945   0.058   6.577   2.536
 8349SOL    HW125946   0.113   6.651   2.496
 8349SOL    HW225947   0.089   6.489   2.500
 8350SOL     OW25948   1.874   0.883   0.302
 8350SOL    HW125949   1.931   0.840   0.372
 8350SOL    HW225950   1.864   0.821   0.224
 8351SOL     OW25951   0.018   3.438   2.999
 8351SOL    HW125952   6.961   3.434   2.938
 8351SOL    HW225953   7.011   3.412   3.092
 8352SOL     OW25954   2.644   6.124   1.365
 8352SOL    HW125955   2.676   6.031   1.345
 8352SOL    HW225956   2.706   6.190   1.323
 8353SOL     OW25957   1.562   4.979   2.212
 8353SOL    HW125958   1.462   4.982   2.206
 8353SOL    HW225959   1.601   5.046   2.149
 8354SOL     OW25960   3.735   0.505   2.877
 8354SOL    HW125961   3.778   0.534   2.792
 8354SOL    HW225962   3.770   0.559   2.953
 8355SOL     OW25963   2.637   6.526   6.566
 8355SOL    HW125964   2.537   6.532   6.576
 8355SOL    HW225965   2.677   6.618   6.569
 8356SOL     OW25966   2.046   5.464   0.759
 8356SOL    HW125967   1.965   5.409   0.779
 8356SOL    HW225968   2.020   5.540   0.699
 8357SOL     OW25969   4.377   6.481   5.324
 8357SOL    HW125970   4.429   6.457   5.242
 8357SOL    HW225971   4.385   6.579   5.340
 8358SOL     OW25972   0.718   1.310   5.113
 8358SOL    HW125973   0.739   1.380   5.045
 8358SOL    HW225974   0.628   1.270   5.093
 8359SOL     OW25975   3.963   2.117   5.689
 8359SOL    HW125976   3.987   2.193   5.749
 8359SOL    HW225977   3.873   2.133   5.648
 8360SOL     OW25978   4.766   0.816   0.787
 8360SOL    HW125979   4.674   0.829   0.748
 8360SOL    HW225980   4.791   0.720   0.780
 8361SOL     OW25981   3.997   1.091   6.908
 8361SOL    HW125982   4.014   1.104   6.810
 8361SOL    HW225983   3.912   1.039   6.920
 8362SOL     OW25984   6.673   4.350   1.594
 8362SOL    HW125985   6.606   4.277   1.579
 8362SOL    HW225986   6.747   4.341   1.527
 8363SOL     OW25987   2.326   3.186   0.366
 8363SOL    HW125988   2.387   3.119   0.325
 8363SOL    HW225989   2.251   3.207   0.303
 8364SOL     OW25990   0.479   3.591   4.207
 8364SOL    HW125991   0.380   3.578   4.207
 8364SOL    HW225992   0.502   3.672   4.261
 8365SOL     OW25993   0.937   2.087   1.966
 8365SOL    HW125994   0.978   2.177   1.981
 8365SOL    HW225995   0.890   2.057   2.049
 8366SOL     OW25996   5.521   5.313   1.958
 8366SOL    HW125997   5.538   5.399   1.911
 8366SOL    HW225998   5.529   5.237   1.893
 8367SOL     OW25999   3.524   5.273   4.254
 8367SOL    HW126000   3.589   5.233   4.318
 8367SOL    HW226001   3.468   5.341   4.301
 8368SOL     OW26002   6.016   6.273   6.380
 8368SOL    HW126003   5.975   6.202   6.436
 8368SOL    HW226004   6.100   6.239   6.337
 8369SOL     OW26005   2.703   6.417   1.028
 8369SOL    HW126006   2.717   6.516   1.027
 8369SOL    HW226007   2.610   6.397   1.059
 8370SOL     OW26008   2.601   3.811   6.743
 8370SOL    HW126009   2.540   3.767   6.677
 8370SOL    HW226010   2.549   3.835   6.825
 8371SOL     OW26011   1.970   4.594   5.598
 8371SOL    HW126012   2.034   4.654   5.646
 8371SOL    HW226013   1.931   4.528   5.662
 8372SOL     OW26014   2.310   6.228   2.354
 8372SOL    HW126015   2.333   6.320   2.387
 8372SOL    HW226016   2.394   6.180   2.330
 8373SOL     OW26017   6.713   1.711   4.193
 8373SOL    HW126018   6.745   1.634   4.139
 8373SOL    HW226019   6.717   1.795   4.138
 8374SOL     OW26020   0.810   1.200   4.259
 8374SOL    HW126021   0.760   1.142   4.195
 8374SOL    HW226022   0.856   1.273   4.209
 8375SOL     OW26023   3.288   0.981   4.934
 8375SOL    HW126024   3.194   0.977   4.900
 8375SOL    HW226025   3.352   0.980   4.857
 8376SOL     OW26026   2.004   0.643   2.993
 8376SOL    HW126027   2.103   0.646   3.008
 8376SOL    HW226028   1.962   0.726   3.028
 8377SOL     OW26029   4.848   5.432   0.324
 8377SOL    HW126030   4.840   5.334   0.306
 8377SOL    HW226031   4.902   5.475   0.252
 8378SOL     OW26032   5.289   5.755   4.084
 8378SOL    HW126033   5.220   5.717   4.023
 8378SOL    HW226034   5.328   5.681   4.139
 8379SOL     OW26035   5.873   1.375   1.618
 8379SOL    HW126036   5.912   1.367   1.710
 8379SOL    HW226037   5.938   1.339   1.551
 8380SOL     OW26038   6.990   5.722   0.523
 8380SOL    HW126039   6.912   5.738   0.583
 8380SOL    HW226040   6.968   5.752   0.430
 8381SOL     OW26041   0.264   1.761   2.343
 8381SOL    HW126042   0.197   1.831   2.319
 8381SOL    HW226043   0.354   1.789   2.310
 8382SOL     OW26044   1.749   0.956   0.665
 8382SOL    HW126045   1.827   0.978   0.607
 8382SOL    HW226046   1.776   0.964   0.761
 8383SOL     OW26047   2.712   6.794   6.523
 8383SOL    HW126048   2.683   6.885   6.550
 8383SOL    HW226049   2.682   6.776   6.429
 8384SOL     OW26050   0.538   3.055   2.785
 8384SOL    HW126051   0.536   2.959   2.810
 8384SOL    HW226052   0.465   3.104   2.832
 8385SOL     OW26053   4.277   3.420   1.330
 8385SOL    HW126054   4.229   3.333   1.327
 8385SOL    HW226055   4.235   3.480   1.398
 8386SOL     OW26056   2.554   6.140   2.330
 8386SOL    HW126057   2.639   6.088   2.322
 8386SOL    HW226058   2.527   6.173   2.239
 8387SOL     OW26059   1.450   1.176   2.521
 8387SOL    HW126060   1.523   1.122   2.564
 8387SOL    HW226061   1.367   1.120   2.514
 8388SOL     OW26062   3.827   6.312   1.265
 8388SOL    HW126063   3.816   6.395   1.210
 8388SOL    HW226064   3.920   6.308   1.302
 8389SOL     OW26065   0.257   2.392   4.137
 8389SOL    HW126066   0.196   2.314   4.128
 8389SOL    HW226067   0.290   2.398   4.232
 8390SOL     OW26068   3.016   0.283   5.738
 8390SOL    HW126069   3.039   0.313   5.830
 8390SOL    HW226070   3.012   0.362   5.677
 8391SOL     OW26071   5.426   5.604   0.808
 8391SOL    HW126072   5.426   5.531   0.877
 8391SOL    HW226073   5.486   5.678   0.838
 8392SOL     OW26074   5.674   6.429   5.633
 8392SOL    HW126075   5.628   6.483   5.563
 8392SOL    HW226076   5.771   6.455   5.636
 8393SOL     OW26077   6.942   6.069   3.336
 8393SOL    HW126078   0.004   6.061   3.390
 8393SOL    HW226079   6.864   6.084   3.397
 8394SOL     OW26080   0.638   1.883   2.633
 8394SOL    HW126081   0.709   1.839   2.689
 8394SOL    HW226082   0.561   1.820   2.623
 8395SOL     OW26083   0.380   5.912   5.830
 8395SOL    HW126084   0.387   5.926   5.732
 8395SOL    HW226085   0.303   5.965   5.866
 8396SOL     OW26086   4.729   3.404   1.544
 8396SOL    HW126087   4.738   3.344   1.624
 8396SOL    HW226088   4.654   3.372   1.486
 8397SOL     OW26089   2.198   5.500   3.246
 8397SOL    HW126090   2.150   5.570   3.193
 8397SOL    HW226091   2.246   5.438   3.184
 8398SOL     OW26092   5.062   2.017   0.459
 8398SOL    HW126093   5.121   2.045   0.534
 8398SOL    HW226094   4.996   1.949   0.492
 8399SOL     OW26095   5.587   5.863   0.552
 8399SOL    HW126096   5.595   5.773   0.595
 8399SOL    HW226097   5.661   5.874   0.485
 8400SOL     OW26098   6.248   0.837   3.810
 8400SOL    HW126099   6.254   0.935   3.789
 8400SOL    HW226100   6.194   0.791   3.740
 8401SOL     OW26101   3.381   4.252   6.499
 8401SOL    HW126102   3.282   4.246   6.497
 8401SOL    HW226103   3.411   4.281   6.590
 8402SOL     OW26104   4.097   2.098   0.271
 8402SOL    HW126105   4.196   2.094   0.283
 8402SOL    HW226106   4.075   2.149   0.187
 8403SOL     OW26107   1.646   1.414   4.109
 8403SOL    HW126108   1.717   1.390   4.042
 8403SOL    HW226109   1.574   1.345   4.108
 8404SOL     OW26110   4.485   4.910   5.700
 8404SOL    HW126111   4.575   4.930   5.739
 8404SOL    HW226112   4.479   4.948   5.607
 8405SOL     OW26113   0.540   2.899   4.898
 8405SOL    HW126114   0.501   2.811   4.924
 8405SOL    HW226115   0.467   2.961   4.870
 8406SOL     OW26116   5.366   3.501   1.927
 8406SOL    HW126117   5.282   3.549   1.901
 8406SOL    HW226118   5.349   3.403   1.931
 8407SOL     OW26119   5.081   3.925   2.578
 8407SOL    HW126120   5.121   3.968   2.497
 8407SOL    HW226121   4.982   3.936   2.576
 8408SOL     OW26122   4.539   2.438   4.303
 8408SOL    HW126123   4.495   2.382   4.373
 8408SOL    HW226124   4.479   2.443   4.223
 8409SOL     OW26125   0.376   2.587   3.898
 8409SOL    HW126126   0.333   2.635   3.975
 8409SOL    HW226127   0.473   2.610   3.894
 8410SOL     OW26128   4.079   6.992   1.883
 8410SOL    HW126129   3.990   6.947   1.879
 8410SOL    HW226130   4.126   6.981   1.795
 8411SOL     OW26131   1.866   3.245   3.963
 8411SOL    HW126132   1.940   3.310   3.949
 8411SOL    HW226133   1.789   3.290   4.009
 8412SOL     OW26134   6.144   2.365   3.943
 8412SOL    HW126135   6.163   2.296   4.013
 8412SOL    HW226136   6.164   2.327   3.853
 8413SOL     OW26137   2.878   4.433   0.595
 8413SOL    HW126138   2.845   4.349   0.638
 8413SOL    HW226139   2.974   4.447   0.617
 8414SOL     OW26140   4.012   6.113   2.589
 8414SOL    HW126141   4.013   6.212   2.575
 8414SOL    HW226142   4.035   6.068   2.503
 8415SOL     OW26143   6.533   3.558   2.341
 8415SOL    HW126144   6.570   3.616   2.414
 8415SOL    HW226145   6.518   3.613   2.259
 8416SOL     OW26146   5.056   4.296   2.928
 8416SOL    HW126147   4.962   4.308   2.896
 8416SOL    HW226148   5.112   4.263   2.852
 8417SOL     OW26149   2.753   5.989   5.787
 8417SOL    HW126150   2.688   6.025   5.853
 8417SOL    HW226151   2.846   5.998   5.824
 8418SOL     OW26152   6.260   5.381   2.743
 8418SOL    HW126153   6.327   5.454   2.759
 8418SOL    HW226154   6.288   5.299   2.793
 8419SOL     OW26155   4.487   0.501   4.131
 8419SOL    HW126156   4.574   0.545   4.149
 8419SOL    HW226157   4.479   0.418   4.187
 8420SOL     OW26158   3.969   1.531   6.512
 8420SOL    HW126159   3.880   1.503   6.478
 8420SOL    HW226160   4.014   1.453   6.556
 8421SOL     OW26161   2.471   6.463   2.018
 8421SOL    HW126162   2.569   6.465   2.034
 8421SOL    HW226163   2.452   6.417   1.931
 8422SOL     OW26164   3.533   6.794   1.271
 8422SOL    HW126165   3.595   6.757   1.340
 8422SOL    HW226166   3.573   6.780   1.180
 8423SOL     OW26167   3.214   4.472   1.383
 8423SOL    HW126168   3.166   4.479   1.470
 8423SOL    HW226169   3.297   4.528   1.385
 8424SOL     OW26170   3.553   1.709   2.610
 8424SOL    HW126171   3.461   1.676   2.589
 8424SOL    HW226172   3.600   1.641   2.666
 8425SOL     OW26173   5.567   4.773   6.798
 8425SOL    HW126174   5.496   4.786   6.866
 8425SOL    HW226175   5.595   4.677   6.795
 8426SOL     OW26176   4.010   3.118   3.094
 8426SOL    HW126177   4.009   3.118   2.994
 8426SOL    HW226178   4.051   3.203   3.127
 8427SOL     OW26179   2.461   3.954   6.478
 8427SOL    HW126180   2.525   3.952   6.402
 8427SOL    HW226181   2.448   3.862   6.514
 8428SOL     OW26182   6.001   4.310   2.073
 8428SOL    HW126183   6.075   4.368   2.039
 8428SOL    HW226184   6.004   4.306   2.173
 8429SOL     OW26185   2.322   6.522   2.703
 8429SOL    HW126186   2.390   6.477   2.646
 8429SOL    HW226187   2.349   6.618   2.717
 8430SOL     OW26188   4.660   4.945   3.245
 8430SOL    HW126189   4.675   5.019   3.311
 8430SOL    HW226190   4.746   4.899   3.226
 8431SOL     OW26191   3.864   3.953   0.992
 8431SOL    HW126192   3.866   4.009   0.909
 8431SOL    HW226193   3.845   4.011   1.071
 8432SOL     OW26194   4.171   6.691   0.152
 8432SOL    HW126195   4.187   6.596   0.125
 8432SOL    HW226196   4.127   6.694   0.242
 8433SOL     OW26197   1.283   1.473   5.872
 8433SOL    HW126198   1.250   1.469   5.967
 8433SOL    HW226199   1.352   1.545   5.865
 8434SOL     OW26200   5.317   6.487   5.358
 8434SOL    HW126201   5.414   6.477   5.337
 8434SOL    HW226202   5.267   6.407   5.323
 8435SOL     OW26203   4.425   1.845   1.315
 8435SOL    HW126204   4.367   1.771   1.350
 8435SOL    HW226205   4.385   1.881   1.230
 8436SOL     OW26206   3.823   4.418   1.561
 8436SOL    HW126207   3.920   4.426   1.537
 8436SOL    HW226208   3.788   4.330   1.530
 8437SOL     OW26209   0.341   0.837   1.537
 8437SOL    HW126210   0.360   0.751   1.490
 8437SOL    HW226211   0.378   0.913   1.484
 8438SOL     OW26212   1.537   0.096   1.541
 8438SOL    HW126213   1.529   0.098   1.442
 8438SOL    HW226214   1.526   0.189   1.578
 8439SOL     OW26215   0.310   5.994   2.355
 8439SOL    HW126216   0.212   5.992   2.377
 8439SOL    HW226217   0.352   5.908   2.383
 8440SOL     OW26218   0.532   1.447   3.455
 8440SOL    HW126219   0.483   1.509   3.517
 8440SOL    HW226220   0.490   1.356   3.460
 8441SOL     OW26221   4.733   6.056   6.674
 8441SOL    HW126222   4.644   6.042   6.631
 8441SOL    HW226223   4.728   6.028   6.770
 8442SOL     OW26224   2.033   4.365   6.699
 8442SOL    HW126225   2.090   4.329   6.625
 8442SOL    HW226226   2.065   4.329   6.786
 8443SOL     OW26227   1.620   1.006   2.625
 8443SOL    HW126228   1.553   0.936   2.649
 8443SOL    HW226229   1.708   0.983   2.668
 8444SOL     OW26230   3.743   6.513   3.286
 8444SOL    HW126231   3.737   6.599   3.337
 8444SOL    HW226232   3.674   6.513   3.214
 8445SOL     OW26233   4.061   4.809   1.964
 8445SOL    HW126234   4.146   4.846   1.926
 8445SOL    HW226235   4.066   4.811   2.064
 8446SOL     OW26236   5.852   4.714   3.162
 8446SOL    HW126237   5.878   4.626   3.201
 8446SOL    HW226238   5.845   4.782   3.236
 8447SOL     OW26239   4.764   2.450   1.807
 8447SOL    HW126240   4.842   2.430   1.866
 8447SOL    HW226241   4.684   2.399   1.839
 8448SOL     OW26242   0.985   2.941   6.864
 8448SOL    HW126243   0.942   3.029   6.843
 8448SOL    HW226244   1.031   2.907   6.782
 8449SOL     OW26245   2.066   2.693   4.522
 8449SOL    HW126246   2.143   2.755   4.536
 8449SOL    HW226247   2.099   2.599   4.522
 8450SOL     OW26248   1.813   5.093   2.361
 8450SOL    HW126249   1.798   5.110   2.263
 8450SOL    HW226250   1.904   5.052   2.373
 8451SOL     OW26251   3.517   2.856   0.794
 8451SOL    HW126252   3.529   2.932   0.858
 8451SOL    HW226253   3.591   2.790   0.808
 8452SOL     OW26254   6.661   5.934   0.919
 8452SOL    HW126255   6.653   5.940   1.019
 8452SOL    HW226256   6.584   5.982   0.877
 8453SOL     OW26257   7.019   4.562   6.271
 8453SOL    HW126258   0.063   4.562   6.196
 8453SOL    HW226259   0.020   4.490   6.336
 8454SOL     OW26260   1.609   0.529   4.556
 8454SOL    HW126261   1.592   0.470   4.477
 8454SOL    HW226262   1.522   0.550   4.601
 8455SOL     OW26263   5.098   1.407   1.606
 8455SOL    HW126264   5.098   1.337   1.677
 8455SOL    HW226265   5.005   1.441   1.592
 8456SOL     OW26266   5.790   5.886   3.011
 8456SOL    HW126267   5.843   5.840   2.939
 8456SOL    HW226268   5.768   5.822   3.084
 8457SOL     OW26269   0.476   6.209   6.515
 8457SOL    HW126270   0.570   6.222   6.548
 8457SOL    HW226271   0.473   6.219   6.416
 8458SOL     OW26272   1.274   1.182   1.033
 8458SOL    HW126273   1.358   1.144   0.994
 8458SOL    HW226274   1.285   1.280   1.047
 8459SOL     OW26275   2.849   5.309   2.332
 8459SOL    HW126276   2.945   5.318   2.305
 8459SOL    HW226277   2.821   5.213   2.325
 8460SOL     OW26278   4.723   1.564   0.546
 8460SOL    HW126279   4.776   1.533   0.625
 8460SOL    HW226280   4.627   1.575   0.573
 8461SOL     OW26281   5.956   4.232   1.465
 8461SOL    HW126282   5.930   4.316   1.514
 8461SOL    HW226283   5.991   4.256   1.375
 8462SOL     OW26284   2.452   4.695   6.990
 8462SOL    HW126285   2.544   4.681   0.005
 8462SOL    HW226286   2.385   4.651   0.029
 8463SOL     OW26287   6.360   1.103   0.282
 8463SOL    HW126288   6.409   1.016   0.285
 8463SOL    HW226289   6.273   1.094   0.331
 8464SOL     OW26290   0.381   3.352   0.020
 8464SOL    HW126291   0.294   3.393   7.014
 8464SOL    HW226292   0.442   3.347   6.963
 8465SOL     OW26293   3.889   3.031   1.128
 8465SOL    HW126294   3.982   3.061   1.105
 8465SOL    HW226295   3.882   3.017   1.227
 8466SOL     OW26296   6.104   0.819   5.702
 8466SOL    HW126297   6.021   0.868   5.730
 8466SOL    HW226298   6.080   0.723   5.683
 8467SOL     OW26299   3.287   0.765   1.039
 8467SOL    HW126300   3.328   0.846   0.998
 8467SOL    HW226301   3.188   0.767   1.025
 8468SOL     OW26302   6.208   3.103   0.719
 8468SOL    HW126303   6.165   3.026   0.767
 8468SOL    HW226304   6.282   3.068   0.661
 8469SOL     OW26305   4.107   3.137   6.020
 8469SOL    HW126306   4.132   3.222   5.975
 8469SOL    HW226307   4.100   3.064   5.952
 8470SOL     OW26308   1.599   4.986   1.617
 8470SOL    HW126309   1.586   4.975   1.519
 8470SOL    HW226310   1.542   4.920   1.666
 8471SOL     OW26311   3.759   2.087   4.846
 8471SOL    HW126312   3.807   2.073   4.933
 8471SOL    HW226313   3.826   2.107   4.775
 8472SOL     OW26314   5.823   1.243   6.169
 8472SOL    HW126315   5.836   1.191   6.254
 8472SOL    HW226316   5.807   1.339   6.191
 8473SOL     OW26317   4.745   4.651   6.613
 8473SOL    HW126318   4.744   4.556   6.646
 8473SOL    HW226319   4.772   4.652   6.517
 8474SOL     OW26320   3.594   3.615   2.582
 8474SOL    HW126321   3.692   3.601   2.593
 8474SOL    HW226322   3.560   3.671   2.658
 8475SOL     OW26323   6.542   2.571   2.152
 8475SOL    HW126324   6.532   2.657   2.102
 8475SOL    HW226325   6.632   2.532   2.134
 8476SOL     OW26326   6.273   0.277   2.065
 8476SOL    HW126327   6.201   0.322   2.013
 8476SOL    HW226328   6.324   0.215   2.005
 8477SOL     OW26329   5.912   6.372   1.859
 8477SOL    HW126330   5.829   6.394   1.909
 8477SOL    HW226331   5.988   6.428   1.894
 8478SOL     OW26332   6.583   0.316   5.745
 8478SOL    HW126333   6.654   0.252   5.716
 8478SOL    HW226334   6.605   0.407   5.710
 8479SOL     OW26335   1.279   2.738   1.571
 8479SOL    HW126336   1.244   2.791   1.649
 8479SOL    HW226337   1.278   2.641   1.593
 8480SOL     OW26338   4.783   4.275   0.427
 8480SOL    HW126339   4.772   4.321   0.515
 8480SOL    HW226340   4.828   4.187   0.441
 8481SOL     OW26341   4.312   2.376   3.364
 8481SOL    HW126342   4.263   2.344   3.445
 8481SOL    HW226343   4.349   2.467   3.381
 8482SOL     OW26344   4.414   1.340   0.432
 8482SOL    HW126345   4.435   1.252   0.474
 8482SOL    HW226346   4.403   1.410   0.503
 8483SOL     OW26347   3.003   5.292   3.729
 8483SOL    HW126348   3.045   5.244   3.806
 8483SOL    HW226349   2.908   5.262   3.718
 8484SOL     OW26350   5.614   5.765   3.738
 8484SOL    HW126351   5.651   5.779   3.646
 8484SOL    HW226352   5.627   5.669   3.765
 8485SOL     OW26353   3.064   3.105   0.418
 8485SOL    HW126354   3.044   3.194   0.379
 8485SOL    HW226355   2.986   3.075   0.474
 8486SOL     OW26356   0.718   1.292   2.832
 8486SOL    HW126357   0.706   1.328   2.740
 8486SOL    HW226358   0.665   1.208   2.843
 8487SOL     OW26359   6.457   1.515   5.671
 8487SOL    HW126360   6.384   1.454   5.639
 8487SOL    HW226361   6.479   1.581   5.599
 8488SOL     OW26362   4.684   4.597   1.677
 8488SOL    HW126363   4.666   4.586   1.774
 8488SOL    HW226364   4.783   4.599   1.661
 8489SOL     OW26365   5.088   1.305   1.903
 8489SOL    HW126366   5.087   1.225   1.843
 8489SOL    HW226367   5.083   1.276   1.999
 8490SOL     OW26368   2.523   0.427   6.682
 8490SOL    HW126369   2.455   0.442   6.609
 8490SOL    HW226370   2.515   0.499   6.750
 8491SOL     OW26371   3.263   5.157   2.318
 8491SOL    HW126372   3.226   5.131   2.229
 8491SOL    HW226373   3.232   5.249   2.342
 8492SOL     OW26374   6.895   6.220   4.449
 8492SOL    HW126375   6.911   6.128   4.485
 8492SOL    HW226376   6.878   6.283   4.525
 8493SOL     OW26377   4.021   0.636   6.616
 8493SOL    HW126378   3.972   0.555   6.584
 8493SOL    HW226379   4.044   0.625   6.712
 8494SOL     OW26380   6.705   5.159   2.346
 8494SOL    HW126381   6.626   5.211   2.380
 8494SOL    HW226382   6.707   5.070   2.389
 8495SOL     OW26383   6.695   5.463   0.534
 8495SOL    HW126384   6.788   5.427   0.540
 8495SOL    HW226385   6.668   5.468   0.437
 8496SOL     OW26386   5.455   2.482   2.263
 8496SOL    HW126387   5.361   2.512   2.246
 8496SOL    HW226388   5.468   2.390   2.227
 8497SOL     OW26389   6.511   1.070   3.937
 8497SOL    HW126390   6.528   1.040   3.843
 8497SOL    HW226391   6.472   1.161   3.936
 8498SOL     OW26392   4.824   0.520   4.361
 8498SOL    HW126393   4.770   0.483   4.437
 8498SOL    HW226394   4.880   0.595   4.394
 8499SOL     OW26395   6.513   6.512   6.270
 8499SOL    HW126396   6.506   6.589   6.206
 8499SOL    HW226397   6.479   6.540   6.360
 8500SOL     OW26398   1.589   0.842   4.754
 8500SOL    HW126399   1.515   0.776   4.764
 8500SOL    HW226400   1.610   0.854   4.657
 8501SOL     OW26401   1.123   2.456   6.116
 8501SOL    HW126402   1.208   2.414   6.084
 8501SOL    HW226403   1.081   2.506   6.041
 8502SOL     OW26404   0.546   2.833   6.742
 8502SOL    HW126405   0.544   2.758   6.807
 8502SOL    HW226406   0.640   2.854   6.717
 8503SOL     OW26407   5.652   0.530   4.233
 8503SOL    HW126408   5.719   0.571   4.170
 8503SOL    HW226409   5.652   0.431   4.221
 8504SOL     OW26410   1.696   6.300   2.127
 8504SOL    HW126411   1.606   6.267   2.101
 8504SOL    HW226412   1.709   6.393   2.094
 8505SOL     OW26413   5.175   3.264   2.640
 8505SOL    HW126414   5.206   3.317   2.720
 8505SOL    HW226415   5.078   3.245   2.649
 8506SOL     OW26416   1.982   0.049   6.758
 8506SOL    HW126417   1.942   6.979   6.747
 8506SOL    HW226418   1.990   0.069   6.856
 8507SOL     OW26419   3.940   6.313   5.423
 8507SOL    HW126420   3.972   6.361   5.505
 8507SOL    HW226421   4.014   6.256   5.387
 8508SOL     OW26422   3.372   1.762   6.999
 8508SOL    HW126423   3.349   1.741   6.904
 8508SOL    HW226424   3.360   1.680   0.033
 8509SOL     OW26425   5.848   1.076   3.891
 8509SOL    HW126426   5.752   1.101   3.885
 8509SOL    HW226427   5.873   1.018   3.813
 8510SOL     OW26428   6.634   1.995   4.600
 8510SOL    HW126429   6.551   2.008   4.545
 8510SOL    HW226430   6.699   1.939   4.549
 8511SOL     OW26431   5.483   2.468   1.899
 8511SOL    HW126432   5.415   2.395   1.909
 8511SOL    HW226433   5.438   2.557   1.912
 8512SOL     OW26434   1.732   0.186   4.878
 8512SOL    HW126435   1.684   0.273   4.891
 8512SOL    HW226436   1.673   0.111   4.908
 8513SOL     OW26437   4.994   6.070   6.297
 8513SOL    HW126438   5.065   6.034   6.356
 8513SOL    HW226439   5.032   6.141   6.237
 8514SOL     OW26440   2.324   6.070   3.809
 8514SOL    HW126441   2.306   5.991   3.866
 8514SOL    HW226442   2.239   6.102   3.767
 8515SOL     OW26443   5.235   1.997   0.999
 8515SOL    HW126444   5.237   2.062   1.074
 8515SOL    HW226445   5.324   1.996   0.953
 8516SOL     OW26446   6.913   1.937   2.103
 8516SOL    HW126447   6.943   1.897   2.190
 8516SOL    HW226448   6.991   1.948   2.042
 8517SOL     OW26449   2.151   3.153   6.461
 8517SOL    HW126450   2.193   3.112   6.380
 8517SOL    HW226451   2.222   3.170   6.530
 8518SOL     OW26452   3.349   5.297   0.292
 8518SOL    HW126453   3.435   5.345   0.272
 8518SOL    HW226454   3.349   5.267   0.387
 8519SOL     OW26455   1.225   4.943   2.859
 8519SOL    HW126456   1.315   4.953   2.814
 8519SOL    HW226457   1.190   5.033   2.882
 8520SOL     OW26458   3.543   0.698   0.358
 8520SOL    HW126459   3.502   0.616   0.396
 8520SOL    HW226460   3.485   0.734   0.285
 8521SOL     OW26461   0.858   6.659   6.530
 8521SOL    HW126462   0.927   6.590   6.508
 8521SOL    HW226463   0.903   6.747   6.549
 8522SOL     OW26464   1.822   5.750   4.978
 8522SOL    HW126465   1.734   5.717   4.946
 8522SOL    HW226466   1.812   5.789   5.070
 8523SOL     OW26467   1.641   0.256   6.764
 8523SOL    HW126468   1.689   0.232   6.848
 8523SOL    HW226469   1.591   0.342   6.777
 8524SOL     OW26470   1.489   2.590   6.363
 8524SOL    HW126471   1.545   2.586   6.280
 8524SOL    HW226472   1.410   2.531   6.352
 8525SOL     OW26473   5.354   3.063   2.792
 8525SOL    HW126474   5.310   3.106   2.714
 8525SOL    HW226475   5.317   3.101   2.877
 8526SOL     OW26476   1.842   2.836   2.378
 8526SOL    HW126477   1.936   2.857   2.407
 8526SOL    HW226478   1.840   2.745   2.337
 8527SOL     OW26479   4.056   0.448   4.244
 8527SOL    HW126480   4.020   0.499   4.166
 8527SOL    HW226481   4.126   0.502   4.290
 8528SOL     OW26482   4.959   2.658   6.668
 8528SOL    HW126483   4.973   2.652   6.767
 8528SOL    HW226484   4.928   2.750   6.644
 8529SOL     OW26485   0.175   4.681   0.459
 8529SOL    HW126486   0.229   4.700   0.541
 8529SOL    HW226487   0.135   4.590   0.465
 8530SOL     OW26488   1.640   3.508   5.446
 8530SOL    HW126489   1.651   3.603   5.476
 8530SOL    HW226490   1.548   3.477   5.471
 8531SOL     OW26491   4.437   4.820   2.864
 8531SOL    HW126492   4.391   4.897   2.820
 8531SOL    HW226493   4.370   4.768   2.918
 8532SOL     OW26494   1.460   3.922   5.779
 8532SOL    HW126495   1.383   3.985   5.780
 8532SOL    HW226496   1.444   3.851   5.710
 8533SOL     OW26497   3.725   0.221   5.284
 8533SOL    HW126498   3.663   0.146   5.260
 8533SOL    HW226499   3.748   0.215   5.381
 8534SOL     OW26500   1.638   2.660   3.133
 8534SOL    HW126501   1.660   2.757   3.121
 8534SOL    HW226502   1.590   2.627   3.051
 8535SOL     OW26503   0.027   2.286   4.370
 8535SOL    HW126504   0.104   2.347   4.386
 8535SOL    HW226505   6.966   2.326   4.408
 8536SOL     OW26506   0.560   1.311   5.660
 8536SOL    HW126507   0.511   1.295   5.745
 8536SOL    HW226508   0.647   1.356   5.680
 8537SOL     OW26509   5.512   0.609   1.643
 8537SOL    HW126510   5.553   0.538   1.587
 8537SOL    HW226511   5.574   0.635   1.717
 8538SOL     OW26512   5.789   1.372   4.568
 8538SOL    HW126513   5.768   1.429   4.489
 8538SOL    HW226514   5.720   1.299   4.576
 8539SOL     OW26515   6.779   3.057   2.412
 8539SOL    HW126516   6.853   3.084   2.350
 8539SOL    HW226517   6.725   3.138   2.436
 8540SOL     OW26518   4.566   0.290   0.465
 8540SOL    HW126519   4.527   0.326   0.550
 8540SOL    HW226520   4.645   0.346   0.438
 8541SOL     OW26521   3.181   6.951   5.220
 8541SOL    HW126522   3.098   6.998   5.188
 8541SOL    HW226523   3.190   6.964   5.318
 8542SOL     OW26524   1.217   4.614   6.412
 8542SOL    HW126525   1.233   4.600   6.315
 8542SOL    HW226526   1.149   4.686   6.425
 8543SOL     OW26527   2.366   1.870   6.321
 8543SOL    HW126528   2.418   1.944   6.278
 8543SOL    HW226529   2.302   1.832   6.254
 8544SOL     OW26530   5.678   4.319   5.607
 8544SOL    HW126531   5.657   4.354   5.698
 8544SOL    HW226532   5.599   4.269   5.572
 8545SOL     OW26533   3.086   0.614   6.475
 8545SOL    HW126534   3.133   0.565   6.548
 8545SOL    HW226535   3.048   0.699   6.511
 8546SOL     OW26536   5.183   0.477   1.423
 8546SOL    HW126537   5.244   0.438   1.492
 8546SOL    HW226538   5.089   0.449   1.441
 8547SOL     OW26539   6.165   5.876   5.326
 8547SOL    HW126540   6.097   5.948   5.337
 8547SOL    HW226541   6.256   5.916   5.327
 8548SOL     OW26542   0.576   3.098   5.509
 8548SOL    HW126543   0.596   3.019   5.567
 8548SOL    HW226544   0.633   3.095   5.427
 8549SOL     OW26545   2.098   0.129   3.711
 8549SOL    HW126546   2.149   0.049   3.681
 8549SOL    HW226547   2.100   0.134   3.811
 8550SOL     OW26548   6.819   4.173   6.460
 8550SOL    HW126549   6.918   4.168   6.476
 8550SOL    HW226550   6.803   4.183   6.361
 8551SOL     OW26551   1.527   1.135   6.259
 8551SOL    HW126552   1.475   1.216   6.288
 8551SOL    HW226553   1.533   1.133   6.160
 8552SOL     OW26554   3.276   1.745   3.727
 8552SOL    HW126555   3.315   1.808   3.659
 8552SOL    HW226556   3.240   1.798   3.804
 8553SOL     OW26557   4.967   4.035   0.142
 8553SOL    HW126558   4.991   4.003   0.234
 8553SOL    HW226559   4.910   3.967   0.097
 8554SOL     OW26560   2.092   1.451   1.049
 8554SOL    HW126561   2.185   1.435   1.016
 8554SOL    HW226562   2.062   1.543   1.022
 8555SOL     OW26563   4.100   1.291   3.408
 8555SOL    HW126564   4.062   1.216   3.461
 8555SOL    HW226565   4.142   1.358   3.470
 8556SOL     OW26566   1.722   6.303   0.476
 8556SOL    HW126567   1.766   6.244   0.408
 8556SOL    HW226568   1.670   6.248   0.541
 8557SOL     OW26569   0.352   0.160   6.750
 8557SOL    HW126570   0.385   0.155   6.844
 8557SOL    HW226571   0.256   0.188   6.749
 8558SOL     OW26572   3.187   5.933   4.416
 8558SOL    HW126573   3.205   5.859   4.352
 8558SOL    HW226574   3.249   5.925   4.494
 8559SOL     OW26575   1.481   4.698   3.023
 8559SOL    HW126576   1.440   4.672   2.935
 8559SOL    HW226577   1.580   4.705   3.013
 8560SOL     OW26578   2.925   4.618   1.193
 8560SOL    HW126579   2.934   4.522   1.164
 8560SOL    HW226580   2.957   4.627   1.287
 8561SOL     OW26581   4.840   1.031   2.299
 8561SOL    HW126582   4.892   1.096   2.243
 8561SOL    HW226583   4.886   0.942   2.299
 8562SOL     OW26584   5.007   1.474   6.471
 8562SOL    HW126585   5.045   1.393   6.425
 8562SOL    HW226586   5.002   1.457   6.569
 8563SOL     OW26587   2.340   5.227   2.240
 8563SOL    HW126588   2.361   5.262   2.149
 8563SOL    HW226589   2.371   5.293   2.309
 8564SOL     OW26590   4.259   0.221   6.940
 8564SOL    HW126591   4.324   0.264   7.003
 8564SOL    HW226592   4.203   0.291   6.897
 8565SOL     OW26593   1.825   4.871   0.718
 8565SOL    HW126594   1.922   4.894   0.720
 8565SOL    HW226595   1.786   4.896   0.629
 8566SOL     OW26596   3.603   1.310   2.618
 8566SOL    HW126597   3.617   1.386   2.681
 8566SOL    HW226598   3.565   1.344   2.532
 8567SOL     OW26599   2.053   3.042   2.124
 8567SOL    HW126600   1.955   3.043   2.146
 8567SOL    HW226601   2.104   3.004   2.202
 8568SOL     OW26602   5.765   0.050   6.303
 8568SOL    HW126603   5.812   0.138   6.298
 8568SOL    HW226604   5.713   0.045   6.388
 8569SOL     OW26605   4.429   2.485   6.438
 8569SOL    HW126606   4.410   2.514   6.345
 8569SOL    HW226607   4.522   2.449   6.444
 8570SOL     OW26608   1.729   2.678   2.700
 8570SOL    HW126609   1.651   2.711   2.647
 8570SOL    HW226610   1.697   2.637   2.785
 8571SOL     OW26611   1.556   0.936   3.329
 8571SOL    HW126612   1.547   1.018   3.273
 8571SOL    HW226613   1.637   0.884   3.300
 8572SOL     OW26614   2.909   4.726   5.528
 8572SOL    HW126615   2.955   4.802   5.574
 8572SOL    HW226616   2.942   4.639   5.564
 8573SOL     OW26617   3.822   6.218   0.404
 8573SOL    HW126618   3.787   6.225   0.310
 8573SOL    HW226619   3.796   6.129   0.442
 8574SOL     OW26620   5.484   0.720   4.706
 8574SOL    HW126621   5.404   0.721   4.766
 8574SOL    HW226622   5.564   0.693   4.759
 8575SOL     OW26623   3.462   5.844   3.538
 8575SOL    HW126624   3.469   5.910   3.463
 8575SOL    HW226625   3.366   5.817   3.550
 8576SOL     OW26626   1.595   4.671   3.353
 8576SOL    HW126627   1.602   4.574   3.333
 8576SOL    HW226628   1.555   4.718   3.274
 8577SOL     OW26629   1.615   1.916   0.518
 8577SOL    HW126630   1.614   1.919   0.418
 8577SOL    HW226631   1.637   2.007   0.554
 8578SOL     OW26632   0.141   6.269   6.439
 8578SOL    HW126633   0.233   6.259   6.403
 8578SOL    HW226634   0.097   6.348   6.395
 8579SOL     OW26635   2.992   6.460   2.580
 8579SOL    HW126636   3.022   6.380   2.528
 8579SOL    HW226637   3.047   6.539   2.555
 8580SOL     OW26638   1.768   0.682   0.997
 8580SOL    HW126639   1.700   0.748   1.030
 8580SOL    HW226640   1.851   0.690   1.052
 8581SOL     OW26641   3.418   4.709   1.325
 8581SOL    HW126642   3.470   4.794   1.314
 8581SOL    HW226643   3.388   4.677   1.235
 8582SOL     OW26644   3.812   4.810   6.133
 8582SOL    HW126645   3.733   4.842   6.185
 8582SOL    HW226646   3.782   4.776   6.044
 8583SOL     OW26647   4.404   0.562   2.660
 8583SOL    HW126648   4.420   0.481   2.603
 8583SOL    HW226649   4.341   0.624   2.613
 8584SOL     OW26650   6.552   1.426   4.839
 8584SOL    HW126651   6.602   1.484   4.903
 8584SOL    HW226652   6.576   1.452   4.746
 8585SOL     OW26653   5.093   2.398   2.578
 8585SOL    HW126654   5.010   2.350   2.550
 8585SOL    HW226655   5.132   2.446   2.500
 8586SOL     OW26656   6.577   5.866   0.517
 8586SOL    HW126657   6.549   5.935   0.584
 8586SOL    HW226658   6.510   5.863   0.443
 8587SOL     OW26659   0.919   1.637   0.019
 8587SOL    HW126660   0.924   1.709   6.972
 8587SOL    HW226661   0.825   1.607   0.030
 8588SOL     OW26662   2.103   1.775   6.672
 8588SOL    HW126663   2.051   1.825   6.602
 8588SOL    HW226664   2.085   1.678   6.663
 8589SOL     OW26665   6.563   2.549   6.461
 8589SOL    HW126666   6.590   2.605   6.539
 8589SOL    HW226667   6.553   2.454   6.490
 8590SOL     OW26668   1.336   1.085   4.684
 8590SOL    HW126669   1.426   1.055   4.655
 8590SOL    HW226670   1.342   1.178   4.721
 8591SOL     OW26671   6.723   4.140   6.728
 8591SOL    HW126672   6.805   4.165   6.780
 8591SOL    HW226673   6.748   4.127   6.632
 8592SOL     OW26674   0.810   1.295   5.995
 8592SOL    HW126675   0.746   1.300   5.919
 8592SOL    HW226676   0.784   1.218   6.055
 8593SOL     OW26677   3.963   1.487   0.193
 8593SOL    HW126678   3.896   1.419   0.222
 8593SOL    HW226679   4.014   1.452   0.115
 8594SOL     OW26680   6.305   2.908   5.504
 8594SOL    HW126681   6.369   2.980   5.475
 8594SOL    HW226682   6.319   2.888   5.601
 8595SOL     OW26683   6.081   6.853   2.858
 8595SOL    HW126684   6.000   6.794   2.863
 8595SOL    HW226685   6.164   6.796   2.861
 8596SOL     OW26686   1.086   1.396   3.810
 8596SOL    HW126687   1.140   1.479   3.826
 8596SOL    HW226688   1.119   1.351   3.727
 8597SOL     OW26689   5.798   3.423   6.919
 8597SOL    HW126690   5.839   3.490   6.856
 8597SOL    HW226691   5.791   3.334   6.874
 8598SOL     OW26692   5.847   6.504   4.410
 8598SOL    HW126693   5.863   6.589   4.459
 8598SOL    HW226694   5.929   6.480   4.357
 8599SOL     OW26695   0.539   3.360   3.879
 8599SOL    HW126696   0.464   3.310   3.922
 8599SOL    HW226697   0.603   3.392   3.949
 8600SOL     OW26698   4.561   2.097   0.883
 8600SOL    HW126699   4.643   2.093   0.941
 8600SOL    HW226700   4.574   2.168   0.813
 8601SOL     OW26701   0.768   6.731   3.314
 8601SOL    HW126702   0.731   6.807   3.261
 8601SOL    HW226703   0.788   6.654   3.253
 8602SOL     OW26704   2.852   6.435   5.123
 8602SOL    HW126705   2.934   6.391   5.087
 8602SOL    HW226706   2.878   6.503   5.191
 8603SOL     OW26707   0.063   6.982   7.014
 8603SOL    HW126708   0.149   6.956   0.036
 8603SOL    HW226709   0.023   0.038   0.041
 8604SOL     OW26710   7.008   4.227   5.994
 8604SOL    HW126711   0.044   4.208   5.914
 8604SOL    HW226712   0.007   4.318   6.029
 8605SOL     OW26713   6.517   5.055   4.185
 8605SOL    HW126714   6.556   5.060   4.093
 8605SOL    HW226715   6.553   4.974   4.232
 8606SOL     OW26716   1.468   2.460   0.197
 8606SOL    HW126717   1.401   2.530   0.220
 8606SOL    HW226718   1.422   2.371   0.189
 8607SOL     OW26719   2.718   4.119   1.459
 8607SOL    HW126720   2.741   4.087   1.550
 8607SOL    HW226721   2.628   4.162   1.460
 8608SOL     OW26722   2.036   5.190   2.840
 8608SOL    HW126723   2.034   5.205   2.939
 8608SOL    HW226724   2.047   5.092   2.822
 8609SOL     OW26725   4.718   1.532   4.510
 8609SOL    HW126726   4.650   1.558   4.442
 8609SOL    HW226727   4.715   1.433   4.524
 8610SOL     OW26728   0.140   5.778   3.513
 8610SOL    HW126729   0.066   5.788   3.580
 8610SOL    HW226730   0.227   5.803   3.556
 8611SOL     OW26731   3.462   1.584   5.005
 8611SOL    HW126732   3.560   1.604   5.004
 8611SOL    HW226733   3.431   1.564   4.912
 8612SOL     OW26734   3.792   4.031   3.842
 8612SOL    HW126735   3.780   4.109   3.904
 8612SOL    HW226736   3.725   4.037   3.768
 8613SOL     OW26737   3.923   2.749   1.674
 8613SOL    HW126738   3.915   2.847   1.686
 8613SOL    HW226739   3.833   2.709   1.656
 8614SOL     OW26740   1.520   1.663   2.890
 8614SOL    HW126741   1.536   1.585   2.950
 8614SOL    HW226742   1.430   1.703   2.911
 8615SOL     OW26743   4.076   1.390   4.348
 8615SOL    HW126744   4.154   1.440   4.311
 8615SOL    HW226745   4.042   1.437   4.429
 8616SOL     OW26746   4.812   4.379   2.819
 8616SOL    HW126747   4.791   4.462   2.766
 8616SOL    HW226748   4.743   4.309   2.800
 8617SOL     OW26749   2.864   0.276   3.771
 8617SOL    HW126750   2.955   0.308   3.744
 8617SOL    HW226751   2.838   0.197   3.715
 8618SOL     OW26752   5.567   4.749   0.686
 8618SOL    HW126753   5.538   4.812   0.614
 8618SOL    HW226754   5.631   4.682   0.648
 8619SOL     OW26755   4.839   5.536   0.763
 8619SOL    HW126756   4.793   5.595   0.829
 8619SOL    HW226757   4.790   5.449   0.757
 8620SOL     OW26758   2.110   0.686   4.683
 8620SOL    HW126759   2.030   0.701   4.742
 8620SOL    HW226760   2.156   0.602   4.710
 8621SOL     OW26761   5.846   2.721   1.643
 8621SOL    HW126762   5.906   2.642   1.636
 8621SOL    HW226763   5.755   2.691   1.674
 8622SOL     OW26764   6.562   4.972   2.533
 8622SOL    HW126765   6.514   4.884   2.532
 8622SOL    HW226766   6.518   5.034   2.467
 8623SOL     OW26767   0.772   3.345   3.736
 8623SOL    HW126768   0.783   3.261   3.682
 8623SOL    HW226769   0.675   3.362   3.752
 8624SOL     OW26770   2.950   3.784   4.991
 8624SOL    HW126771   2.928   3.794   5.088
 8624SOL    HW226772   2.890   3.715   4.951
 8625SOL     OW26773   3.910   2.781   5.569
 8625SOL    HW126774   3.946   2.697   5.610
 8625SOL    HW226775   3.868   2.837   5.640
 8626SOL     OW26776   4.213   4.232   0.934
 8626SOL    HW126777   4.243   4.250   1.027
 8626SOL    HW226778   4.238   4.138   0.908
 8627SOL     OW26779   1.968   0.635   1.521
 8627SOL    HW126780   1.930   0.727   1.532
 8627SOL    HW226781   2.049   0.625   1.579
 8628SOL     OW26782   0.708   6.431   0.875
 8628SOL    HW126783   0.738   6.398   0.785
 8628SOL    HW226784   0.618   6.472   0.868
 8629SOL     OW26785   0.002   6.602   5.848
 8629SOL    HW126786   0.038   6.671   5.912
 8629SOL    HW226787   0.074   6.575   5.785
 8630SOL     OW26788   5.368   2.933   2.420
 8630SOL    HW126789   5.268   2.927   2.425
 8630SOL    HW226790   5.399   2.897   2.332
 8631SOL     OW26791   2.491   0.290   6.971
 8631SOL    HW126792   2.454   0.265   6.882
 8631SOL    HW226793   2.569   0.232   6.993
 8632SOL     OW26794   5.278   5.031   5.642
 8632SOL    HW126795   5.240   4.962   5.704
 8632SOL    HW226796   5.362   4.996   5.601
 8633SOL     OW26797   5.566   4.327   6.234
 8633SOL    HW126798   5.583   4.425   6.242
 8633SOL    HW226799   5.620   4.290   6.158
 8634SOL     OW26800   4.331   3.512   0.442
 8634SOL    HW126801   4.321   3.593   0.500
 8634SOL    HW226802   4.345   3.541   0.347
 8635SOL     OW26803   5.650   2.190   5.943
 8635SOL    HW126804   5.575   2.219   5.884
 8635SOL    HW226805   5.621   2.195   6.039
 8636SOL     OW26806   5.017   0.742   1.405
 8636SOL    HW126807   4.977   0.781   1.488
 8636SOL    HW226808   5.090   0.678   1.431
 8637SOL     OW26809   1.594   1.922   0.235
 8637SOL    HW126810   1.498   1.935   0.209
 8637SOL    HW226811   1.649   1.996   0.194
 8638SOL     OW26812   4.853   2.281   4.204
 8638SOL    HW126813   4.822   2.321   4.290
 8638SOL    HW226814   4.801   2.197   4.186
 8639SOL     OW26815   3.532   3.823   6.977
 8639SOL    HW126816   3.626   3.791   6.969
 8639SOL    HW226817   3.485   3.815   6.889
 8640SOL     OW26818   2.906   3.376   1.101
 8640SOL    HW126819   2.929   3.331   1.015
 8640SOL    HW226820   2.859   3.312   1.161
 8641SOL     OW26821   4.248   6.411   2.188
 8641SOL    HW126822   4.203   6.467   2.257
 8641SOL    HW226823   4.200   6.420   2.101
 8642SOL     OW26824   1.039   5.857   3.700
 8642SOL    HW126825   1.017   5.768   3.659
 8642SOL    HW226826   1.094   5.910   3.635
 8643SOL     OW26827   3.811   5.961   0.931
 8643SOL    HW126828   3.775   5.973   1.024
 8643SOL    HW226829   3.853   6.047   0.901
 8644SOL     OW26830   6.312   1.797   6.667
 8644SOL    HW126831   6.325   1.716   6.724
 8644SOL    HW226832   6.220   1.795   6.627
 8645SOL     OW26833   5.655   4.483   3.007
 8645SOL    HW126834   5.671   4.542   2.927
 8645SOL    HW226835   5.647   4.539   3.089
 8646SOL     OW26836   0.288   2.416   5.276
 8646SOL    HW126837   0.329   2.387   5.189
 8646SOL    HW226838   0.321   2.358   5.350
 8647SOL     OW26839   2.338   5.746   1.963
 8647SOL    HW126840   2.317   5.781   1.871
 8647SOL    HW226841   2.343   5.646   1.959
 8648SOL     OW26842   5.096   5.213   0.275
 8648SOL    HW126843   5.156   5.280   0.320
 8648SOL    HW226844   5.106   5.125   0.320
 8649SOL     OW26845   4.652   0.192   1.010
 8649SOL    HW126846   4.682   0.237   1.094
 8649SOL    HW226847   4.707   0.224   0.933
 8650SOL     OW26848   2.287   6.259   4.760
 8650SOL    HW126849   2.228   6.311   4.821
 8650SOL    HW226850   2.234   6.228   4.681
 8651SOL     OW26851   3.466   1.841   1.187
 8651SOL    HW126852   3.482   1.757   1.136
 8651SOL    HW226853   3.374   1.839   1.227
 8652SOL     OW26854   0.913   2.898   3.757
 8652SOL    HW126855   0.986   2.853   3.706
 8652SOL    HW226856   0.852   2.829   3.796
 8653SOL     OW26857   6.639   1.584   6.312
 8653SOL    HW126858   6.595   1.563   6.400
 8653SOL    HW226859   6.725   1.631   6.329
 8654SOL     OW26860   0.492   4.735   1.884
 8654SOL    HW126861   0.437   4.753   1.966
 8654SOL    HW226862   0.500   4.636   1.870
 8655SOL     OW26863   0.829   0.383   5.042
 8655SOL    HW126864   0.774   0.420   4.968
 8655SOL    HW226865   0.902   0.325   5.004
 8656SOL     OW26866   5.073   6.956   1.156
 8656SOL    HW126867   5.078   7.002   1.068
 8656SOL    HW226868   5.146   6.887   1.162
 8657SOL     OW26869   4.474   1.103   3.389
 8657SOL    HW126870   4.452   1.159   3.468
 8657SOL    HW226871   4.519   1.019   3.419
 8658SOL     OW26872   6.401   4.151   0.786
 8658SOL    HW126873   6.306   4.141   0.814
 8658SOL    HW226874   6.461   4.132   0.864
 8659SOL     OW26875   4.370   0.975   2.705
 8659SOL    HW126876   4.319   1.057   2.728
 8659SOL    HW226877   4.465   0.998   2.688
 8660SOL     OW26878   6.428   3.895   1.647
 8660SOL    HW126879   6.346   3.877   1.592
 8660SOL    HW226880   6.401   3.912   1.742
 8661SOL     OW26881   6.237   4.002   2.664
 8661SOL    HW126882   6.301   4.056   2.610
 8661SOL    HW226883   6.144   4.030   2.642
 8662SOL     OW26884   2.278   4.278   3.392
 8662SOL    HW126885   2.273   4.213   3.467
 8662SOL    HW226886   2.201   4.263   3.330
 8663SOL     OW26887   4.043   5.613   2.464
 8663SOL    HW126888   4.004   5.534   2.418
 8663SOL    HW226889   4.049   5.689   2.399
 8664SOL     OW26890   3.483   6.004   3.869
 8664SOL    HW126891   3.483   5.911   3.907
 8664SOL    HW226892   3.390   6.030   3.843
 8665SOL     OW26893   5.750   2.968   6.422
 8665SOL    HW126894   5.661   2.950   6.379
 8665SOL    HW226895   5.754   2.923   6.511
 8666SOL     OW26896   4.462   6.724   2.460
 8666SOL    HW126897   4.535   6.667   2.498
 8666SOL    HW226898   4.495   6.818   2.449
 8667SOL     OW26899   5.363   2.127   3.767
 8667SOL    HW126900   5.359   2.030   3.746
 8667SOL    HW226901   5.447   2.167   3.730
 8668SOL     OW26902   5.127   2.387   4.606
 8668SOL    HW126903   5.112   2.464   4.544
 8668SOL    HW226904   5.039   2.355   4.641
 8669SOL     OW26905   6.005   5.908   5.617
 8669SOL    HW126906   5.984   6.006   5.614
 8669SOL    HW226907   5.958   5.862   5.542
 8670SOL     OW26908   6.128   4.238   6.191
 8670SOL    HW126909   6.042   4.187   6.195
 8670SOL    HW226910   6.126   4.312   6.259
 8671SOL     OW26911   6.975   2.166   2.975
 8671SOL    HW126912   6.945   2.141   3.067
 8671SOL    HW226913   0.021   2.100   2.943
 8672SOL     OW26914   0.482   0.771   3.181
 8672SOL    HW126915   0.417   0.841   3.209
 8672SOL    HW226916   0.495   0.774   3.082
 8673SOL     OW26917   0.642   1.355   1.517
 8673SOL    HW126918   0.724   1.332   1.465
 8673SOL    HW226919   0.607   1.443   1.487
 8674SOL     OW26920   6.680   4.312   3.616
 8674SOL    HW126921   6.721   4.226   3.648
 8674SOL    HW226922   6.603   4.291   3.556
 8675SOL     OW26923   3.711   2.099   5.272
 8675SOL    HW126924   3.805   2.070   5.252
 8675SOL    HW226925   3.660   2.108   5.187
 8676SOL     OW26926   5.533   1.528   0.647
 8676SOL    HW126927   5.474   1.448   0.658
 8676SOL    HW226928   5.620   1.500   0.608
 8677SOL     OW26929   2.360   6.284   6.005
 8677SOL    HW126930   2.450   6.276   5.961
 8677SOL    HW226931   2.358   6.367   6.061
 8678SOL     OW26932   1.398   1.941   1.049
 8678SOL    HW126933   1.344   2.003   1.106
 8678SOL    HW226934   1.420   1.985   0.963
 8679SOL     OW26935   1.206   1.683   5.151
 8679SOL    HW126936   1.153   1.760   5.115
 8679SOL    HW226937   1.163   1.648   5.234
 8680SOL     OW26938   6.272   0.967   7.022
 8680SOL    HW126939   6.310   0.907   0.071
 8680SOL    HW226940   6.271   0.918   6.934
 8681SOL     OW26941   5.312   6.031   1.432
 8681SOL    HW126942   5.380   6.094   1.395
 8681SOL    HW226943   5.315   6.034   1.532
 8682SOL     OW26944   1.891   0.968   1.219
 8682SOL    HW126945   1.805   0.979   1.269
 8682SOL    HW226946   1.967   0.970   1.283
 8683SOL     OW26947   1.870   4.493   4.750
 8683SOL    HW126948   1.931   4.567   4.720
 8683SOL    HW226949   1.891   4.468   4.844
 8684SOL     OW26950   1.258   3.699   4.133
 8684SOL    HW126951   1.223   3.788   4.103
 8684SOL    HW226952   1.193   3.627   4.107
 8685SOL     OW26953   5.284   2.251   5.033
 8685SOL    HW126954   5.331   2.283   5.115
 8685SOL    HW226955   5.344   2.188   4.983
 8686SOL     OW26956   0.872   5.510   2.844
 8686SOL    HW126957   0.778   5.476   2.851
 8686SOL    HW226958   0.935   5.433   2.846
 8687SOL     OW26959   5.257   4.150   5.527
 8687SOL    HW126960   5.250   4.249   5.531
 8687SOL    HW226961   5.219   4.110   5.611
 8688SOL     OW26962   0.479   3.894   5.715
 8688SOL    HW126963   0.536   3.898   5.797
 8688SOL    HW226964   0.537   3.902   5.634
 8689SOL     OW26965   4.158   3.655   7.004
 8689SOL    HW126966   4.064   3.642   6.974
 8689SOL    HW226967   4.179   3.752   7.006
 8690SOL     OW26968   1.562   2.535   2.868
 8690SOL    HW126969   1.494   2.484   2.921
 8690SOL    HW226970   1.642   2.477   2.851
 8691SOL     OW26971   3.334   2.609   5.267
 8691SOL    HW126972   3.305   2.514   5.255
 8691SOL    HW226973   3.401   2.614   5.341
 8692SOL     OW26974   4.427   2.050   5.048
 8692SOL    HW126975   4.380   1.962   5.058
 8692SOL    HW226976   4.526   2.034   5.043
 8693SOL     OW26977   6.308   6.639   6.406
 8693SOL    HW126978   6.222   6.681   6.378
 8693SOL    HW226979   6.291   6.575   6.481
 8694SOL     OW26980   6.249   3.388   4.407
 8694SOL    HW126981   6.207   3.308   4.362
 8694SOL    HW226982   6.348   3.385   4.395
 8695SOL     OW26983   3.665   4.239   5.930
 8695SOL    HW126984   3.716   4.153   5.939
 8695SOL    HW226985   3.692   4.301   6.003
 8696SOL     OW26986   2.805   5.281   5.847
 8696SOL    HW126987   2.709   5.301   5.864
 8696SOL    HW226988   2.860   5.361   5.869
 8697SOL     OW26989   1.377   3.727   5.605
 8697SOL    HW126990   1.334   3.800   5.552
 8697SOL    HW226991   1.464   3.701   5.563
 8698SOL     OW26992   5.366   5.474   5.196
 8698SOL    HW126993   5.271   5.447   5.212
 8698SOL    HW226994   5.380   5.567   5.230
 8699SOL     OW26995   1.364   2.934   6.797
 8699SOL    HW126996   1.295   2.988   6.749
 8699SOL    HW226997   1.441   2.916   6.736
 8700SOL     OW26998   1.075   6.805   4.836
 8700SOL    HW126999   1.153   6.861   4.808
 8700SOL    HW227000   1.006   6.863   4.879
 8701SOL     OW27001   0.555   2.410   0.513
 8701SOL    HW127002   0.530   2.506   0.499
 8701SOL    HW227003   0.607   2.402   0.599
 8702SOL     OW27004   5.487   5.162   1.746
 8702SOL    HW127005   5.424   5.219   1.694
 8702SOL    HW227006   5.467   5.065   1.729
 8703SOL     OW27007   2.709   5.490   1.434
 8703SOL    HW127008   2.778   5.431   1.393
 8703SOL    HW227009   2.640   5.513   1.365
 8704SOL     OW27010   1.180   0.431   4.735
 8704SOL    HW127011   1.091   0.472   4.714
 8704SOL    HW227012   1.174   0.332   4.728
 8705SOL     OW27013   4.671   2.313   6.900
 8705SOL    HW127014   4.771   2.319   6.900
 8705SOL    HW227015   4.634   2.388   6.845
 8706SOL     OW27016   4.594   2.737   6.344
 8706SOL    HW127017   4.555   2.724   6.435
 8706SOL    HW227018   4.552   2.816   6.300
 8707SOL     OW27019   1.894   2.118   5.079
 8707SOL    HW127020   1.935   2.150   4.994
 8707SOL    HW227021   1.801   2.084   5.061
 8708SOL     OW27022   6.045   2.357   1.288
 8708SOL    HW127023   6.112   2.302   1.238
 8708SOL    HW227024   6.054   2.453   1.260
 8709SOL     OW27025   6.580   0.009   6.009
 8709SOL    HW127026   6.491   0.015   5.966
 8709SOL    HW227027   6.590   0.081   6.078
 8710SOL     OW27028   2.443   1.007   3.041
 8710SOL    HW127029   2.476   1.101   3.042
 8710SOL    HW227030   2.400   0.986   3.129
 8711SOL     OW27031   1.543   0.762   1.416
 8711SOL    HW127032   1.580   0.856   1.417
 8711SOL    HW227033   1.579   0.712   1.495
 8712SOL     OW27034   1.518   3.702   5.968
 8712SOL    HW127035   1.489   3.763   5.894
 8712SOL    HW227036   1.539   3.756   6.050
 8713SOL     OW27037   0.169   5.027   1.973
 8713SOL    HW127038   0.244   5.089   2.000
 8713SOL    HW227039   0.118   5.068   1.898
 8714SOL     OW27040   0.269   5.527   7.002
 8714SOL    HW127041   0.294   5.437   6.967
 8714SOL    HW227042   0.251   5.589   6.926
 8715SOL     OW27043   2.260   3.148   1.434
 8715SOL    HW127044   2.292   3.054   1.443
 8715SOL    HW227045   2.238   3.185   1.524
 8716SOL     OW27046   6.624   6.677   1.619
 8716SOL    HW127047   6.659   6.762   1.579
 8716SOL    HW227048   6.569   6.629   1.551
 8717SOL     OW27049   3.001   4.106   0.800
 8717SOL    HW127050   3.058   4.178   0.841
 8717SOL    HW227051   2.934   4.147   0.739
 8718SOL     OW27052   2.275   4.575   6.539
 8718SOL    HW127053   2.246   4.614   6.452
 8718SOL    HW227054   2.375   4.574   6.544
 8719SOL     OW27055   3.913   0.486   5.430
 8719SOL    HW127056   3.991   0.472   5.491
 8719SOL    HW227057   3.846   0.413   5.444
 8720SOL     OW27058   6.578   5.037   5.032
 8720SOL    HW127059   6.521   4.982   5.092
 8720SOL    HW227060   6.520   5.088   4.969
 8721SOL     OW27061   0.506   0.401   6.643
 8721SOL    HW127062   0.466   0.312   6.664
 8721SOL    HW227063   0.606   0.394   6.640
 8722SOL     OW27064   3.503   1.309   1.380
 8722SOL    HW127065   3.496   1.239   1.309
 8722SOL    HW227066   3.412   1.346   1.400
 8723SOL     OW27067   3.926   0.570   2.092
 8723SOL    HW127068   3.949   0.625   2.172
 8723SOL    HW227069   3.975   0.606   2.013
 8724SOL     OW27070   4.048   1.179   4.576
 8724SOL    HW127071   3.966   1.171   4.519
 8724SOL    HW227072   4.107   1.100   4.559
 8725SOL     OW27073   0.198   6.491   3.947
 8725SOL    HW127074   0.249   6.467   3.865
 8725SOL    HW227075   0.100   6.499   3.925
 8726SOL     OW27076   0.350   0.707   1.132
 8726SOL    HW127077   0.323   0.624   1.180
 8726SOL    HW227078   0.327   0.698   1.035
 8727SOL     OW27079   4.549   5.737   6.186
 8727SOL    HW127080   4.601   5.819   6.212
 8727SOL    HW227081   4.468   5.765   6.135
 8728SOL     OW27082   6.848   0.334   3.336
 8728SOL    HW127083   6.942   0.307   3.313
 8728SOL    HW227084   6.842   0.350   3.435
 8729SOL     OW27085   4.029   6.633   6.384
 8729SOL    HW127086   4.026   6.537   6.355
 8729SOL    HW227087   4.113   6.650   6.436
 8730SOL     OW27088   4.505   5.527   1.830
 8730SOL    HW127089   4.550   5.555   1.915
 8730SOL    HW227090   4.553   5.449   1.791
 8731SOL     OW27091   0.179   1.835   3.529
 8731SOL    HW127092   0.175   1.797   3.437
 8731SOL    HW227093   0.272   1.825   3.565
 8732SOL     OW27094   5.576   6.955   0.643
 8732SOL    HW127095   5.673   6.977   0.650
 8732SOL    HW227096   5.524   0.017   0.623
 8733SOL     OW27097   6.436   5.402   1.718
 8733SOL    HW127098   6.525   5.388   1.675
 8733SOL    HW227099   6.379   5.457   1.657
 8734SOL     OW27100   6.907   3.670   2.407
 8734SOL    HW127101   6.829   3.670   2.469
 8734SOL    HW227102   6.925   3.577   2.376
 8735SOL     OW27103   0.807   3.734   5.458
 8735SOL    HW127104   0.772   3.647   5.424
 8735SOL    HW227105   0.856   3.781   5.383
 8736SOL     OW27106   1.446   6.132   3.628
 8736SOL    HW127107   1.421   6.052   3.682
 8736SOL    HW227108   1.461   6.104   3.533
 8737SOL     OW27109   2.036   6.470   6.911
 8737SOL    HW127110   2.055   6.372   6.924
 8737SOL    HW227111   2.083   6.523   6.981
 8738SOL     OW27112   1.148   2.772   3.599
 8738SOL    HW127113   1.186   2.743   3.511
 8738SOL    HW227114   1.198   2.853   3.631
 8739SOL     OW27115   5.163   4.049   5.758
 8739SOL    HW127116   5.156   4.004   5.847
 8739SOL    HW227117   5.108   4.132   5.758
 8740SOL     OW27118   2.601   0.744   5.231
 8740SOL    HW127119   2.635   0.734   5.137
 8740SOL    HW227120   2.561   0.658   5.262
 8741SOL     OW27121   1.077   0.488   2.262
 8741SOL    HW127122   0.991   0.444   2.234
 8741SOL    HW227123   1.097   0.464   2.357
 8742SOL     OW27124   2.975   1.416   2.715
 8742SOL    HW127125   2.977   1.473   2.633
 8742SOL    HW227126   3.006   1.470   2.794
 8743SOL     OW27127   0.283   1.736   1.537
 8743SOL    HW127128   0.372   1.739   1.584
 8743SOL    HW227129   0.222   1.675   1.587
 8744SOL     OW27130   3.378   4.523   6.176
 8744SOL    HW127131   3.356   4.556   6.267
 8744SOL    HW227132   3.383   4.423   6.177
 8745SOL     OW27133   5.594   1.047   5.808
 8745SOL    HW127134   5.567   1.106   5.732
 8745SOL    HW227135   5.549   0.959   5.799
 8746SOL     OW27136   4.490   5.502   4.871
 8746SOL    HW127137   4.539   5.465   4.950
 8746SOL    HW227138   4.467   5.427   4.809
 8747SOL     OW27139   6.932   0.502   1.869
 8747SOL    HW127140   6.924   0.515   1.968
 8747SOL    HW227141   6.847   0.530   1.824
 8748SOL     OW27142   6.840   1.836   3.934
 8748SOL    HW127143   6.857   1.738   3.943
 8748SOL    HW227144   6.895   1.873   3.859
 8749SOL     OW27145   2.797   1.197   4.150
 8749SOL    HW127146   2.747   1.140   4.215
 8749SOL    HW227147   2.835   1.139   4.078
 8750SOL     OW27148   4.252   3.276   6.873
 8750SOL    HW127149   4.240   3.361   6.822
 8750SOL    HW227150   4.182   3.210   6.845
 8751SOL     OW27151   1.213   6.102   1.185
 8751SOL    HW127152   1.171   6.192   1.177
 8751SOL    HW227153   1.154   6.034   1.141
 8752SOL     OW27154   5.961   3.571   6.302
 8752SOL    HW127155   5.898   3.587   6.225
 8752SOL    HW227156   5.912   3.527   6.377
 8753SOL     OW27157   2.446   2.715   0.340
 8753SOL    HW127158   2.431   2.731   0.242
 8753SOL    HW227159   2.358   2.722   0.388
 8754SOL     OW27160   2.056   5.077   6.520
 8754SOL    HW127161   2.127   5.098   6.587
 8754SOL    HW227162   1.980   5.142   6.529
 8755SOL     OW27163   6.985   2.921   1.798
 8755SOL    HW127164   0.045   2.944   1.851
 8755SOL    HW227165   6.980   2.821   1.788
 8756SOL     OW27166   1.683   1.679   1.946
 8756SOL    HW127167   1.737   1.633   2.017
 8756SOL    HW227168   1.590   1.641   1.946
 8757SOL     OW27169   5.708   6.243   5.302
 8757SOL    HW127170   5.672   6.181   5.232
 8757SOL    HW227171   5.690   6.337   5.275
 8758SOL     OW27172   3.427   5.353   4.988
 8758SOL    HW127173   3.406   5.448   5.013
 8758SOL    HW227174   3.525   5.336   4.997
 8759SOL     OW27175   6.088   0.493   0.540
 8759SOL    HW127176   6.010   0.472   0.481
 8759SOL    HW227177   6.068   0.576   0.592
 8760SOL     OW27178   2.496   2.406   4.032
 8760SOL    HW127179   2.435   2.482   4.010
 8760SOL    HW227180   2.463   2.359   4.115
 8761SOL     OW27181   5.373   1.251   2.785
 8761SOL    HW127182   5.295   1.245   2.723
 8761SOL    HW227183   5.358   1.325   2.851
 8762SOL     OW27184   1.990   4.783   3.304
 8762SOL    HW127185   1.901   4.789   3.349
 8762SOL    HW227186   1.999   4.694   3.259
 8763SOL     OW27187   0.911   0.904   6.165
 8763SOL    HW127188   0.840   0.941   6.224
 8763SOL    HW227189   0.875   0.894   6.072
 8764SOL     OW27190   2.748   5.037   5.299
 8764SOL    HW127191   2.811   5.087   5.240
 8764SOL    HW227192   2.759   4.939   5.283
 8765SOL     OW27193   5.014   0.719   4.409
 8765SOL    HW127194   5.097   0.683   4.368
 8765SOL    HW227195   4.995   0.810   4.373
 8766SOL     OW27196   4.869   5.834   5.884
 8766SOL    HW127197   4.935   5.797   5.818
 8766SOL    HW227198   4.842   5.926   5.857
 8767SOL     OW27199   2.406   1.229   4.246
 8767SOL    HW127200   2.429   1.264   4.156
 8767SOL    HW227201   2.443   1.290   4.316
 8768SOL     OW27202   6.103   1.503   6.835
 8768SOL    HW127203   6.106   1.496   6.735
 8768SOL    HW227204   6.180   1.559   6.866
 8769SOL     OW27205   6.482   0.241   0.408
 8769SOL    HW127206   6.535   0.252   0.324
 8769SOL    HW227207   6.489   0.147   0.440
 8770SOL     OW27208   5.050   3.378   0.136
 8770SOL    HW127209   5.046   3.280   0.157
 8770SOL    HW227210   4.993   3.428   0.201
 8771SOL     OW27211   0.144   3.606   0.247
 8771SOL    HW127212   0.092   3.620   0.331
 8771SOL    HW227213   0.085   3.564   0.178
 8772SOL     OW27214   5.883   0.145   4.541
 8772SOL    HW127215   5.931   0.231   4.526
 8772SOL    HW227216   5.786   0.164   4.557
 8773SOL     OW27217   0.163   1.223   3.950
 8773SOL    HW127218   0.152   1.125   3.961
 8773SOL    HW227219   0.082   1.270   3.985
 8774SOL     OW27220   1.845   1.947   0.954
 8774SOL    HW127221   1.800   2.022   0.904
 8774SOL    HW227222   1.783   1.869   0.958
 8775SOL     OW27223   5.875   2.329   4.238
 8775SOL    HW127224   5.906   2.419   4.207
 8775SOL    HW227225   5.784   2.310   4.202
 8776SOL     OW27226   4.313   3.079   0.416
 8776SOL    HW127227   4.313   3.047   0.511
 8776SOL    HW227228   4.398   3.128   0.397
 8777SOL     OW27229   0.470   2.068   3.721
 8777SOL    HW127230   0.449   2.108   3.632
 8777SOL    HW227231   0.465   2.138   3.792
 8778SOL     OW27232   3.208   4.969   6.854
 8778SOL    HW127233   3.156   4.919   6.924
 8778SOL    HW227234   3.152   5.045   6.820
 8779SOL     OW27235   4.429   4.903   3.875
 8779SOL    HW127236   4.494   4.974   3.901
 8779SOL    HW227237   4.376   4.934   3.796
 8780SOL     OW27238   5.989   4.824   3.877
 8780SOL    HW127239   5.920   4.785   3.938
 8780SOL    HW227240   5.947   4.894   3.819
 8781SOL     OW27241   3.077   0.191   1.487
 8781SOL    HW127242   3.020   0.242   1.551
 8781SOL    HW227243   3.048   0.211   1.393
 8782SOL     OW27244   5.330   2.230   1.429
 8782SOL    HW127245   5.319   2.135   1.457
 8782SOL    HW227246   5.280   2.290   1.492
 8783SOL     OW27247   5.198   3.609   4.702
 8783SOL    HW127248   5.112   3.595   4.751
 8783SOL    HW227249   5.204   3.545   4.625
 8784SOL     OW27250   5.534   0.836   1.280
 8784SOL    HW127251   5.476   0.909   1.242
 8784SOL    HW227252   5.489   0.748   1.268
 8785SOL     OW27253   0.193   4.899   5.706
 8785SOL    HW127254   0.233   4.819   5.662
 8785SOL    HW227255   0.265   4.951   5.753
 8786SOL     OW27256   4.446   1.769   2.623
 8786SOL    HW127257   4.521   1.829   2.595
 8786SOL    HW227258   4.365   1.788   2.567
 8787SOL     OW27259   3.506   6.095   0.875
 8787SOL    HW127260   3.429   6.157   0.887
 8787SOL    HW227261   3.589   6.135   0.915
 8788SOL     OW27262   0.760   6.912   4.079
 8788SOL    HW127263   0.697   6.843   4.044
 8788SOL    HW227264   0.811   6.875   4.157
 8789SOL     OW27265   6.526   3.009   5.814
 8789SOL    HW127266   6.460   2.940   5.844
 8789SOL    HW227267   6.520   3.089   5.872
 8790SOL     OW27268   5.405   3.330   5.738
 8790SOL    HW127269   5.422   3.336   5.640
 8790SOL    HW227270   5.343   3.254   5.757
 8791SOL     OW27271   4.025   5.758   5.111
 8791SOL    HW127272   4.096   5.727   5.048
 8791SOL    HW227273   4.063   5.825   5.174
 8792SOL     OW27274   4.998   4.731   1.288
 8792SOL    HW127275   4.931   4.798   1.320
 8792SOL    HW227276   5.089   4.773   1.286
 8793SOL     OW27277   6.919   4.839   4.422
 8793SOL    HW127278   6.919   4.882   4.512
 8793SOL    HW227279   6.980   4.890   4.361
 8794SOL     OW27280   0.171   0.653   2.397
 8794SOL    HW127281   0.212   0.739   2.366
 8794SOL    HW227282   0.207   0.577   2.343
 8795SOL     OW27283   1.414   6.233   6.364
 8795SOL    HW127284   1.420   6.329   6.338
 8795SOL    HW227285   1.356   6.184   6.299
 8796SOL     OW27286   6.768   3.626   3.256
 8796SOL    HW127287   6.840   3.563   3.226
 8796SOL    HW227288   6.685   3.609   3.203
 8797SOL     OW27289   4.895   0.371   3.898
 8797SOL    HW127290   4.844   0.341   3.817
 8797SOL    HW227291   4.833   0.374   3.977
 8798SOL     OW27292   3.131   6.349   5.696
 8798SOL    HW127293   3.104   6.257   5.667
 8798SOL    HW227294   3.098   6.366   5.788
 8799SOL     OW27295   1.041   5.221   2.476
 8799SOL    HW127296   1.123   5.236   2.531
 8799SOL    HW227297   1.047   5.272   2.391
 8800SOL     OW27298   6.933   5.641   5.793
 8800SOL    HW127299   6.861   5.638   5.723
 8800SOL    HW227300   6.921   5.565   5.856
 8801SOL     OW27301   6.044   2.911   5.626
 8801SOL    HW127302   5.956   2.918   5.578
 8801SOL    HW227303   6.117   2.901   5.559
 8802SOL     OW27304   1.299   6.738   6.126
 8802SOL    HW127305   1.306   6.721   6.027
 8802SOL    HW227306   1.288   6.836   6.142
 8803SOL     OW27307   6.271   6.664   6.838
 8803SOL    HW127308   6.232   6.708   6.756
 8803SOL    HW227309   6.367   6.642   6.821
 8804SOL     OW27310   1.683   6.369   2.719
 8804SOL    HW127311   1.618   6.322   2.659
 8804SOL    HW227312   1.776   6.349   2.689
 8805SOL     OW27313   5.488   5.164   3.504
 8805SOL    HW127314   5.482   5.090   3.570
 8805SOL    HW227315   5.513   5.249   3.550
 8806SOL     OW27316   2.100   0.652   1.033
 8806SOL    HW127317   2.084   0.652   0.934
 8806SOL    HW227318   2.139   0.564   1.060
 8807SOL     OW27319   4.933   2.645   1.433
 8807SOL    HW127320   4.842   2.675   1.463
 8807SOL    HW227321   4.962   2.701   1.355
 8808SOL     OW27322   2.241   2.755   0.148
 8808SOL    HW127323   2.161   2.799   0.188
 8808SOL    HW227324   2.222   2.729   0.053
 8809SOL     OW27325   6.917   4.125   2.391
 8809SOL    HW127326   6.926   4.060   2.316
 8809SOL    HW227327   6.960   4.087   2.473
 8810SOL     OW27328   0.710   1.405   6.291
 8810SOL    HW127329   0.634   1.372   6.347
 8810SOL    HW227330   0.784   1.339   6.294
 8811SOL     OW27331   3.882   5.707   2.696
 8811SOL    HW127332   3.784   5.695   2.679
 8811SOL    HW227333   3.929   5.724   2.609
 8812SOL     OW27334   4.545   1.448   6.078
 8812SOL    HW127335   4.574   1.427   5.985
 8812SOL    HW227336   4.610   1.408   6.143
 8813SOL     OW27337   2.004   4.204   3.251
 8813SOL    HW127338   1.985   4.114   3.290
 8813SOL    HW227339   2.001   4.198   3.151
 8814SOL     OW27340   5.024   0.459   5.720
 8814SOL    HW127341   5.058   0.545   5.680
 8814SOL    HW227342   5.004   0.474   5.817
 8815SOL     OW27343   5.949   1.794   6.965
 8815SOL    HW127344   5.966   1.715   6.904
 8815SOL    HW227345   5.905   1.867   6.912
 8816SOL     OW27346   1.206   6.516   4.558
 8816SOL    HW127347   1.232   6.492   4.464
 8816SOL    HW227348   1.145   6.446   4.594
 8817SOL     OW27349   1.564   2.935   3.479
 8817SOL    HW127350   1.512   2.954   3.562
 8817SOL    HW227351   1.500   2.923   3.402
 8818SOL     OW27352   1.153   0.769   4.706
 8818SOL    HW127353   1.152   0.828   4.787
 8818SOL    HW227354   1.077   0.704   4.710
 8819SOL     OW27355   5.231   4.231   6.085
 8819SOL    HW127356   5.302   4.176   6.042
 8819SOL    HW227357   5.153   4.238   6.023
 8820SOL     OW27358   3.064   0.532   4.796
 8820SOL    HW127359   3.091   0.577   4.711
 8820SOL    HW227360   3.115   0.446   4.806
 8821SOL     OW27361   0.092   4.429   6.512
 8821SOL    HW127362   0.000   4.407   6.544
 8821SOL    HW227363   0.143   4.344   6.494
 8822SOL     OW27364   6.742   6.977   4.321
 8822SOL    HW127365   6.720   6.902   4.384
 8822SOL    HW227366   6.718   6.950   4.227
 8823SOL     OW27367   4.376   1.342   2.806
 8823SOL    HW127368   4.319   1.319   2.726
 8823SOL    HW227369   4.364   1.438   2.828
 8824SOL     OW27370   1.688   0.825   1.879
 8824SOL    HW127371   1.783   0.857   1.872
 8824SOL    HW227372   1.664   0.772   1.798
 8825SOL     OW27373   6.838   5.908   0.369
 8825SOL    HW127374   6.882   5.997   0.359
 8825SOL    HW227375   6.758   5.918   0.428
 8826SOL     OW27376   1.523   4.099   0.650
 8826SOL    HW127377   1.506   4.069   0.556
 8826SOL    HW227378   1.488   4.191   0.663
 8827SOL     OW27379   4.353   0.491   1.981
 8827SOL    HW127380   4.263   0.458   1.952
 8827SOL    HW227381   4.342   0.557   2.055
 8828SOL     OW27382   3.124   3.102   5.958
 8828SOL    HW127383   3.177   3.140   5.882
 8828SOL    HW227384   3.181   3.098   6.040
 8829SOL     OW27385   6.779   1.279   1.914
 8829SOL    HW127386   6.697   1.336   1.920
 8829SOL    HW227387   6.858   1.337   1.897
 8830SOL     OW27388   3.016   0.703   3.041
 8830SOL    HW127389   2.934   0.659   3.078
 8830SOL    HW227390   3.097   0.665   3.085
 8831SOL     OW27391   0.150   2.677   2.314
 8831SOL    HW127392   0.112   2.761   2.274
 8831SOL    HW227393   0.250   2.682   2.312
 8832SOL     OW27394   5.787   0.804   4.339
 8832SOL    HW127395   5.863   0.869   4.341
 8832SOL    HW227396   5.816   0.721   4.291
 8833SOL     OW27397   4.202   2.827   1.455
 8833SOL    HW127398   4.203   2.918   1.498
 8833SOL    HW227399   4.250   2.762   1.514
 8834SOL     OW27400   5.513   4.168   5.425
 8834SOL    HW127401   5.496   4.182   5.327
 8834SOL    HW227402   5.428   4.138   5.469
 8835SOL     OW27403   6.871   0.542   6.179
 8835SOL    HW127404   6.952   0.599   6.165
 8835SOL    HW227405   6.869   0.509   6.273
 8836SOL     OW27406   4.688   1.973   1.336
 8836SOL    HW127407   4.659   2.053   1.284
 8836SOL    HW227408   4.611   1.909   1.345
 8837SOL     OW27409   4.774   6.952   0.724
 8837SOL    HW127410   4.694   6.925   0.670
 8837SOL    HW227411   4.744   6.983   0.814
 8838SOL     OW27412   1.066   3.845   2.536
 8838SOL    HW127413   0.970   3.870   2.547
 8838SOL    HW227414   1.118   3.878   2.615
 8839SOL     OW27415   4.957   5.228   3.365
 8839SOL    HW127416   4.930   5.182   3.281
 8839SOL    HW227417   5.050   5.201   3.390
 8840SOL     OW27418   6.968   0.701   1.357
 8840SOL    HW127419   6.875   0.668   1.338
 8840SOL    HW227420   0.004   0.624   1.385
 8841SOL     OW27421   3.657   0.496   0.992
 8841SOL    HW127422   3.587   0.493   1.064
 8841SOL    HW227423   3.651   0.413   0.936
 8842SOL     OW27424   3.313   2.901   4.370
 8842SOL    HW127425   3.228   2.952   4.358
 8842SOL    HW227426   3.334   2.892   4.467
 8843SOL     OW27427   2.565   5.514   6.691
 8843SOL    HW127428   2.520   5.456   6.759
 8843SOL    HW227429   2.654   5.475   6.667
 8844SOL     OW27430   3.910   2.343   5.937
 8844SOL    HW127431   3.952   2.427   5.974
 8844SOL    HW227432   3.852   2.366   5.859
 8845SOL     OW27433   7.005   4.723   1.598
 8845SOL    HW127434   6.933   4.728   1.667
 8845SOL    HW227435   0.073   4.729   1.642
 8846SOL     OW27436   6.157   4.245   4.852
 8846SOL    HW127437   6.070   4.250   4.901
 8846SOL    HW227438   6.148   4.184   4.773
 8847SOL     OW27439   2.503   1.496   3.598
 8847SOL    HW127440   2.487   1.457   3.507
 8847SOL    HW227441   2.531   1.592   3.589
 8848SOL     OW27442   3.618   1.461   0.792
 8848SOL    HW127443   3.666   1.528   0.848
 8848SOL    HW227444   3.670   1.445   0.708
 8849SOL     OW27445   2.692   5.022   4.675
 8849SOL    HW127446   2.763   4.988   4.613
 8849SOL    HW227447   2.629   4.947   4.697
 8850SOL     OW27448   2.932   0.738   1.619
 8850SOL    HW127449   2.868   0.662   1.607
 8850SOL    HW227450   2.886   0.813   1.667
 8851SOL     OW27451   0.103   4.768   2.252
 8851SOL    HW127452   0.078   4.715   2.332
 8851SOL    HW227453   0.187   4.818   2.269
 8852SOL     OW27454   4.481   2.513   4.679
 8852SOL    HW127455   4.461   2.473   4.768
 8852SOL    HW227456   4.551   2.584   4.689
 8853SOL     OW27457   4.307   1.339   5.632
 8853SOL    HW127458   4.272   1.246   5.631
 8853SOL    HW227459   4.292   1.380   5.722
 8854SOL     OW27460   0.862   2.067   6.919
 8854SOL    HW127461   0.891   2.159   6.948
 8854SOL    HW227462   0.930   2.000   6.948
 8855SOL     OW27463   6.221   5.258   0.067
 8855SOL    HW127464   6.230   5.331   0.134
 8855SOL    HW227465   6.295   5.266   7.021
 8856SOL     OW27466   5.535   0.872   4.248
 8856SOL    HW127467   5.617   0.829   4.285
 8856SOL    HW227468   5.560   0.956   4.200
 8857SOL     OW27469   0.167   2.954   4.162
 8857SOL    HW127470   0.096   2.987   4.224
 8857SOL    HW227471   0.232   3.028   4.143
 8858SOL     OW27472   0.269   3.609   6.468
 8858SOL    HW127473   0.221   3.687   6.508
 8858SOL    HW227474   0.344   3.641   6.411
 8859SOL     OW27475   2.594   5.473   5.301
 8859SOL    HW127476   2.548   5.509   5.382
 8859SOL    HW227477   2.533   5.480   5.222
 8860SOL     OW27478   1.034   2.381   1.930
 8860SOL    HW127479   1.092   2.462   1.920
 8860SOL    HW227480   0.941   2.402   1.901
 8861SOL     OW27481   3.457   3.778   0.383
 8861SOL    HW127482   3.474   3.726   0.299
 8861SOL    HW227483   3.536   3.838   0.400
 8862SOL     OW27484   6.429   2.498   3.931
 8862SOL    HW127485   6.344   2.453   3.958
 8862SOL    HW227486   6.410   2.593   3.908
 8863SOL     OW27487   2.270   5.456   5.298
 8863SOL    HW127488   2.271   5.406   5.384
 8863SOL    HW227489   2.294   5.394   5.223
 8864SOL     OW27490   0.897   2.475   6.798
 8864SOL    HW127491   0.839   2.496   6.719
 8864SOL    HW227492   0.904   2.555   6.857
 8865SOL     OW27493   3.209   2.568   5.921
 8865SOL    HW127494   3.254   2.613   5.843
 8865SOL    HW227495   3.128   2.519   5.888
 8866SOL     OW27496   3.658   6.580   4.353
 8866SOL    HW127497   3.720   6.658   4.345
 8866SOL    HW227498   3.564   6.613   4.360
 8867SOL     OW27499   0.462   2.951   3.455
 8867SOL    HW127500   0.462   3.048   3.432
 8867SOL    HW227501   0.372   2.925   3.490
 8868SOL     OW27502   3.746   3.773   0.168
 8868SOL    HW127503   3.805   3.700   0.202
 8868SOL    HW227504   3.794   3.824   0.097
 8869SOL     OW27505   5.523   2.786   3.945
 8869SOL    HW127506   5.589   2.734   3.891
 8869SOL    HW227507   5.559   2.878   3.963
 8870SOL     OW27508   4.563   1.301   0.719
 8870SOL    HW127509   4.523   1.231   0.660
 8870SOL    HW227510   4.503   1.380   0.723
 8871SOL     OW27511   2.304   1.970   4.482
 8871SOL    HW127512   2.400   1.986   4.459
 8871SOL    HW227513   2.295   1.966   4.581
 8872SOL     OW27514   2.078   3.129   4.545
 8872SOL    HW127515   2.049   3.220   4.515
 8872SOL    HW227516   2.108   3.133   4.640
 8873SOL     OW27517   0.171   5.746   4.696
 8873SOL    HW127518   0.138   5.780   4.609
 8873SOL    HW227519   0.095   5.737   4.760
 8874SOL     OW27520   2.583   1.068   0.716
 8874SOL    HW127521   2.663   1.021   0.678
 8874SOL    HW227522   2.570   1.041   0.811
 8875SOL     OW27523   1.871   2.505   4.354
 8875SOL    HW127524   1.924   2.591   4.356
 8875SOL    HW227525   1.793   2.516   4.292
 8876SOL     OW27526   1.749   0.048   4.608
 8876SOL    HW127527   1.690   0.116   4.650
 8876SOL    HW227528   1.825   0.028   4.670
 8877SOL     OW27529   2.920   6.742   5.009
 8877SOL    HW127530   2.839   6.684   5.004
 8877SOL    HW227531   2.995   6.699   4.959
 8878SOL     OW27532   6.351   4.438   6.811
 8878SOL    HW127533   6.251   4.440   6.814
 8878SOL    HW227534   6.384   4.363   6.868
 8879SOL     OW27535   4.852   6.580   5.037
 8879SOL    HW127536   4.861   6.610   5.132
 8879SOL    HW227537   4.934   6.606   4.985
 8880SOL     OW27538   0.124   5.055   5.221
 8880SOL    HW127539   0.026   5.059   5.244
 8880SOL    HW227540   0.178   5.077   5.302
 8881SOL     OW27541   6.362   0.349   1.152
 8881SOL    HW127542   6.365   0.273   1.217
 8881SOL    HW227543   6.351   0.313   1.059
 8882SOL     OW27544   5.615   1.865   6.168
 8882SOL    HW127545   5.544   1.811   6.124
 8882SOL    HW227546   5.623   1.839   6.264
 8883SOL     OW27547   6.517   1.228   5.828
 8883SOL    HW127548   6.466   1.310   5.801
 8883SOL    HW227549   6.508   1.159   5.756
 8884SOL     OW27550   6.972   6.484   6.320
 8884SOL    HW127551   6.914   6.426   6.378
 8884SOL    HW227552   6.933   6.489   6.228
 8885SOL     OW27553   5.243   4.119   1.930
 8885SOL    HW127554   5.165   4.159   1.883
 8885SOL    HW227555   5.211   4.059   2.003
 8886SOL     OW27556   3.232   0.009   6.975
 8886SOL    HW127557   3.330   7.015   6.967
 8886SOL    HW227558   3.184   6.975   6.906
 8887SOL     OW27559   2.869   1.366   1.154
 8887SOL    HW127560   2.857   1.394   1.058
 8887SOL    HW227561   2.908   1.441   1.206
 8888SOL     OW27562   2.947   1.571   2.497
 8888SOL    HW127563   2.999   1.635   2.440
 8888SOL    HW227564   2.875   1.529   2.442
 8889SOL     OW27565   3.385   0.116   4.856
 8889SOL    HW127566   3.365   0.096   4.760
 8889SOL    HW227567   3.454   0.189   4.861
 8890SOL     OW27568   0.812   5.162   4.293
 8890SOL    HW127569   0.767   5.108   4.364
 8890SOL    HW227570   0.828   5.255   4.327
 8891SOL     OW27571   3.927   2.641   6.552
 8891SOL    HW127572   4.006   2.695   6.579
 8891SOL    HW227573   3.946   2.544   6.566
 8892SOL     OW27574   1.612   6.344   2.397
 8892SOL    HW127575   1.690   6.348   2.334
 8892SOL    HW227576   1.530   6.318   2.347
 8893SOL     OW27577   0.790   1.242   0.956
 8893SOL    HW127578   0.823   1.337   0.954
 8893SOL    HW227579   0.861   1.181   0.920
 8894SOL     OW27580   3.699   2.545   6.021
 8894SOL    HW127581   3.668   2.562   6.115
 8894SOL    HW227582   3.796   2.519   6.022
 8895SOL     OW27583   0.969   6.531   2.395
 8895SOL    HW127584   0.982   6.461   2.325
 8895SOL    HW227585   0.938   6.616   2.353
 8896SOL     OW27586   1.201   3.214   4.822
 8896SOL    HW127587   1.222   3.312   4.822
 8896SOL    HW227588   1.159   3.190   4.910
 8897SOL     OW27589   1.544   2.487   1.483
 8897SOL    HW127590   1.571   2.582   1.495
 8897SOL    HW227591   1.622   2.427   1.498
 8898SOL     OW27592   5.278   4.206   4.269
 8898SOL    HW127593   5.222   4.123   4.278
 8898SOL    HW227594   5.247   4.257   4.189
 8899SOL     OW27595   1.727   4.333   6.822
 8899SOL    HW127596   1.826   4.339   6.808
 8899SOL    HW227597   1.707   4.333   6.920
 8900SOL     OW27598   5.676   1.961   3.928
 8900SOL    HW127599   5.773   1.942   3.940
 8900SOL    HW227600   5.663   2.042   3.872
 8901SOL     OW27601   1.889   6.751   2.948
 8901SOL    HW127602   1.869   6.655   2.970
 8901SOL    HW227603   1.846   6.810   3.016
 8902SOL     OW27604   1.707   5.790   6.015
 8902SOL    HW127605   1.765   5.784   6.096
 8902SOL    HW227606   1.735   5.870   5.961
 8903SOL     OW27607   2.286   1.253   2.771
 8903SOL    HW127608   2.217   1.263   2.842
 8903SOL    HW227609   2.324   1.161   2.773
 8904SOL     OW27610   1.323   6.397   2.996
 8904SOL    HW127611   1.267   6.459   3.051
 8904SOL    HW227612   1.267   6.321   2.965
 8905SOL     OW27613   2.691   3.898   5.447
 8905SOL    HW127614   2.649   3.988   5.448
 8905SOL    HW227615   2.634   3.835   5.394
 8906SOL     OW27616   0.264   5.630   5.997
 8906SOL    HW127617   0.213   5.689   6.059
 8906SOL    HW227618   0.337   5.683   5.954
 8907SOL     OW27619   3.438   2.905   5.524
 8907SOL    HW127620   3.375   2.958   5.466
 8907SOL    HW227621   3.532   2.935   5.508
 8908SOL     OW27622   0.605   2.690   1.033
 8908SOL    HW127623   0.624   2.772   0.979
 8908SOL    HW227624   0.560   2.622   0.976
 8909SOL     OW27625   2.653   0.648   6.402
 8909SOL    HW127626   2.566   0.604   6.379
 8909SOL    HW227627   2.636   0.726   6.462
 8910SOL     OW27628   3.321   3.655   6.756
 8910SOL    HW127629   3.268   3.604   6.688
 8910SOL    HW227630   3.290   3.750   6.759
 8911SOL     OW27631   3.897   2.122   4.049
 8911SOL    HW127632   3.802   2.100   4.074
 8911SOL    HW227633   3.957   2.048   4.079
 8912SOL     OW27634   4.815   2.869   5.712
 8912SOL    HW127635   4.892   2.892   5.653
 8912SOL    HW227636   4.776   2.781   5.683
 8913SOL     OW27637   5.530   3.941   0.792
 8913SOL    HW127638   5.569   3.849   0.782
 8913SOL    HW227639   5.489   3.950   0.883
 8914SOL     OW27640   4.117   1.939   4.804
 8914SOL    HW127641   4.166   1.986   4.730
 8914SOL    HW227642   4.063   1.864   4.766
 8915SOL     OW27643   1.371   4.836   2.456
 8915SOL    HW127644   1.368   4.813   2.359
 8915SOL    HW227645   1.465   4.857   2.482
 8916SOL     OW27646   6.384   3.124   2.187
 8916SOL    HW127647   6.467   3.085   2.227
 8916SOL    HW227648   6.312   3.054   2.183
 8917SOL     OW27649   5.963   5.379   6.752
 8917SOL    HW127650   5.994   5.305   6.692
 8917SOL    HW227651   6.003   5.465   6.722
 8918SOL     OW27652   4.698   5.103   6.162
 8918SOL    HW127653   4.769   5.118   6.230
 8918SOL    HW227654   4.699   5.176   6.095
 8919SOL     OW27655   2.474   4.869   1.099
 8919SOL    HW127656   2.551   4.804   1.104
 8919SOL    HW227657   2.502   4.957   1.137
 8920SOL     OW27658   6.432   5.760   5.527
 8920SOL    HW127659   6.430   5.760   5.427
 8920SOL    HW227660   6.394   5.674   5.561
 8921SOL     OW27661   1.858   0.251   4.130
 8921SOL    HW127662   1.772   0.223   4.089
 8921SOL    HW227663   1.934   0.227   4.069
 8922SOL     OW27664   0.055   4.128   6.796
 8922SOL    HW127665   0.144   4.171   6.804
 8922SOL    HW227666   0.053   4.045   6.852
 8923SOL     OW27667   2.254   4.243   5.776
 8923SOL    HW127668   2.179   4.181   5.751
 8923SOL    HW227669   2.339   4.213   5.733
 8924SOL     OW27670   2.583   5.407   5.656
 8924SOL    HW127671   2.678   5.402   5.627
 8924SOL    HW227672   2.552   5.502   5.653
 8925SOL     OW27673   6.928   6.503   2.177
 8925SOL    HW127674   6.974   6.432   2.230
 8925SOL    HW227675   6.946   6.489   2.079
 8926SOL     OW27676   5.500   1.980   0.901
 8926SOL    HW127677   5.529   1.937   0.987
 8926SOL    HW227678   5.542   2.070   0.892
 8927SOL     OW27679   2.449   1.848   5.035
 8927SOL    HW127680   2.532   1.877   4.988
 8927SOL    HW227681   2.450   1.749   5.047
 8928SOL     OW27682   0.505   0.111   5.553
 8928SOL    HW127683   0.488   0.181   5.622
 8928SOL    HW227684   0.583   0.138   5.496
 8929SOL     OW27685   5.694   3.474   3.794
 8929SOL    HW127686   5.765   3.412   3.760
 8929SOL    HW227687   5.737   3.543   3.853
 8930SOL     OW27688   0.707   4.859   5.081
 8930SOL    HW127689   0.774   4.796   5.120
 8930SOL    HW227690   0.644   4.808   5.023
 8931SOL     OW27691   4.782   1.447   0.302
 8931SOL    HW127692   4.808   1.514   0.233
 8931SOL    HW227693   4.752   1.495   0.385
 8932SOL     OW27694   6.882   6.799   7.012
 8932SOL    HW127695   6.795   6.849   7.008
 8932SOL    HW227696   6.958   6.861   6.993
 8933SOL     OW27697   1.342   0.394   5.318
 8933SOL    HW127698   1.351   0.477   5.373
 8933SOL    HW227699   1.410   0.396   5.245
 8934SOL     OW27700   3.581   6.101   2.831
 8934SOL    HW127701   3.537   6.044   2.901
 8934SOL    HW227702   3.671   6.064   2.811
 8935SOL     OW27703   5.758   2.275   3.022
 8935SOL    HW127704   5.700   2.261   3.103
 8935SOL    HW227705   5.790   2.369   3.020
 8936SOL     OW27706   1.040   5.019   2.168
 8936SOL    HW127707   1.060   4.928   2.131
 8936SOL    HW227708   1.008   5.011   2.262
 8937SOL     OW27709   4.782   0.189   4.562
 8937SOL    HW127710   4.757   0.278   4.601
 8937SOL    HW227711   4.865   0.198   4.507
 8938SOL     OW27712   6.179   0.372   1.483
 8938SOL    HW127713   6.221   0.374   1.573
 8938SOL    HW227714   6.244   0.335   1.417
 8939SOL     OW27715   0.027   3.122   3.245
 8939SOL    HW127716   6.984   3.096   3.317
 8939SOL    HW227717   0.055   3.039   3.195
 8940SOL     OW27718   6.491   2.733   0.681
 8940SOL    HW127719   6.483   2.827   0.649
 8940SOL    HW227720   6.441   2.672   0.620
 8941SOL     OW27721   4.363   2.745   1.664
 8941SOL    HW127722   4.428   2.670   1.660
 8941SOL    HW227723   4.297   2.729   1.738
 8942SOL     OW27724   5.461   4.658   4.554
 8942SOL    HW127725   5.529   4.594   4.589
 8942SOL    HW227726   5.397   4.609   4.495
 8943SOL     OW27727   4.747   3.999   6.876
 8943SOL    HW127728   4.820   4.010   6.808
 8943SOL    HW227729   4.771   3.925   6.938
 8944SOL     OW27730   5.851   5.682   5.100
 8944SOL    HW127731   5.880   5.680   5.004
 8944SOL    HW227732   5.768   5.626   5.110
 8945SOL     OW27733   5.376   4.453   4.340
 8945SOL    HW127734   5.330   4.365   4.331
 8945SOL    HW227735   5.470   4.445   4.307
 8946SOL     OW27736   4.886   1.361   5.293
 8946SOL    HW127737   4.898   1.418   5.212
 8946SOL    HW227738   4.827   1.409   5.358
 8947SOL     OW27739   1.984   5.542   6.693
 8947SOL    HW127740   2.041   5.614   6.732
 8947SOL    HW227741   2.037   5.488   6.628
 8948SOL     OW27742   6.169   1.042   2.734
 8948SOL    HW127743   6.111   0.962   2.740
 8948SOL    HW227744   6.254   1.026   2.785
 8949SOL     OW27745   3.765   6.707   0.500
 8949SOL    HW127746   3.676   6.747   0.482
 8949SOL    HW227747   3.753   6.616   0.539
 8950SOL     OW27748   3.911   3.628   0.340
 8950SOL    HW127749   3.880   3.664   0.428
 8950SOL    HW227750   3.894   3.529   0.336
 8951SOL     OW27751   2.209   1.463   4.534
 8951SOL    HW127752   2.174   1.556   4.522
 8951SOL    HW227753   2.245   1.453   4.626
 8952SOL     OW27754   1.481   3.896   4.312
 8952SOL    HW127755   1.563   3.892   4.369
 8952SOL    HW227756   1.506   3.917   4.218
 8953SOL     OW27757   1.156   4.570   1.157
 8953SOL    HW127758   1.090   4.504   1.191
 8953SOL    HW227759   1.244   4.556   1.203
 8954SOL     OW27760   1.785   5.195   5.422
 8954SOL    HW127761   1.770   5.114   5.365
 8954SOL    HW227762   1.873   5.236   5.399
 8955SOL     OW27763   5.592   2.144   4.400
 8955SOL    HW127764   5.508   2.195   4.421
 8955SOL    HW227765   5.633   2.110   4.485
 8956SOL     OW27766   0.628   5.407   6.555
 8956SOL    HW127767   0.583   5.385   6.641
 8956SOL    HW227768   0.592   5.348   6.482
 8957SOL     OW27769   0.414   6.151   3.231
 8957SOL    HW127770   0.452   6.168   3.322
 8957SOL    HW227771   0.328   6.202   3.221
 8958SOL     OW27772   1.614   3.059   5.219
 8958SOL    HW127773   1.580   2.983   5.274
 8958SOL    HW227774   1.641   3.134   5.280
 8959SOL     OW27775   6.553   2.460   3.184
 8959SOL    HW127776   6.592   2.552   3.176
 8959SOL    HW227777   6.507   2.436   3.099
 8960SOL     OW27778   5.326   4.732   3.048
 8960SOL    HW127779   5.318   4.712   2.950
 8960SOL    HW227780   5.422   4.750   3.071
 8961SOL     OW27781   2.120   0.538   5.472
 8961SOL    HW127782   2.059   0.617   5.462
 8961SOL    HW227783   2.145   0.528   5.568
 8962SOL     OW27784   0.034   5.954   2.554
 8962SOL    HW127785   7.008   6.042   2.549
 8962SOL    HW227786   0.116   5.964   2.610
 8963SOL     OW27787   5.000   0.103   4.786
 8963SOL    HW127788   4.981   0.051   4.703
 8963SOL    HW227789   5.066   0.054   4.843
 8964SOL     OW27790   1.659   3.443   4.055
 8964SOL    HW127791   1.603   3.360   4.060
 8964SOL    HW227792   1.601   3.521   4.031
 8965SOL     OW27793   3.825   6.263   6.329
 8965SOL    HW127794   3.745   6.318   6.351
 8965SOL    HW227795   3.839   6.194   6.401
 8966SOL     OW27796   4.475   5.606   5.414
 8966SOL    HW127797   4.466   5.527   5.354
 8966SOL    HW227798   4.388   5.655   5.419
 8967SOL     OW27799   3.325   0.135   4.060
 8967SOL    HW127800   3.273   0.072   4.002
 8967SOL    HW227801   3.271   0.158   4.141
 8968SOL     OW27802   3.951   5.387   2.312
 8968SOL    HW127803   3.960   5.288   2.295
 8968SOL    HW227804   3.855   5.413   2.305
 8969SOL     OW27805   1.184   0.726   2.399
 8969SOL    HW127806   1.114   0.795   2.421
 8969SOL    HW227807   1.143   0.653   2.344
 8970SOL     OW27808   2.114   0.764   4.134
 8970SOL    HW127809   2.197   0.804   4.097
 8970SOL    HW227810   2.042   0.833   4.138
 8971SOL     OW27811   3.754   4.768   0.497
 8971SOL    HW127812   3.793   4.707   0.566
 8971SOL    HW227813   3.717   4.715   0.421
 8972SOL     OW27814   5.872   4.072   0.681
 8972SOL    HW127815   5.861   3.974   0.665
 8972SOL    HW227816   5.967   4.098   0.669
 8973SOL     OW27817   1.222   2.566   3.321
 8973SOL    HW127818   1.184   2.620   3.246
 8973SOL    HW227819   1.320   2.582   3.328
 8974SOL     OW27820   2.410   4.407   4.725
 8974SOL    HW127821   2.482   4.414   4.794
 8974SOL    HW227822   2.321   4.426   4.767
 8975SOL     OW27823   6.865   5.573   6.233
 8975SOL    HW127824   6.947   5.628   6.217
 8975SOL    HW227825   6.818   5.557   6.146
 8976SOL     OW27826   6.406   6.321   2.176
 8976SOL    HW127827   6.500   6.324   2.143
 8976SOL    HW227828   6.343   6.320   2.098
 8977SOL     OW27829   6.932   4.854   6.282
 8977SOL    HW127830   6.982   4.906   6.213
 8977SOL    HW227831   6.931   4.758   6.257
 8978SOL     OW27832   5.607   6.071   6.641
 8978SOL    HW127833   5.585   6.087   6.737
 8978SOL    HW227834   5.575   6.148   6.587
 8979SOL     OW27835   1.071   4.838   5.597
 8979SOL    HW127836   1.122   4.803   5.519
 8979SOL    HW227837   1.131   4.894   5.655
 8980SOL     OW27838   3.315   0.370   6.169
 8980SOL    HW127839   3.343   0.284   6.214
 8980SOL    HW227840   3.217   0.368   6.154
 8981SOL     OW27841   4.501   3.436   6.957
 8981SOL    HW127842   4.458   3.439   0.026
 8981SOL    HW227843   4.431   3.418   6.888
 8982SOL     OW27844   0.562   1.639   1.512
 8982SOL    HW127845   0.580   1.676   1.421
 8982SOL    HW227846   0.617   1.687   1.580
 8983SOL     OW27847   1.228   6.755   2.170
 8983SOL    HW127848   1.253   6.826   2.104
 8983SOL    HW227849   1.185   6.679   2.121
 8984SOL     OW27850   6.573   0.194   4.153
 8984SOL    HW127851   6.656   0.147   4.124
 8984SOL    HW227852   6.579   0.291   4.129
 8985SOL     OW27853   4.810   2.186   1.057
 8985SOL    HW127854   4.893   2.195   1.112
 8985SOL    HW227855   4.738   2.244   1.095
 8986SOL     OW27856   0.032   5.038   0.555
 8986SOL    HW127857   0.127   5.018   0.531
 8986SOL    HW227858   0.026   5.056   0.654
 8987SOL     OW27859   2.225   0.043   2.121
 8987SOL    HW127860   2.143   7.020   2.157
 8987SOL    HW227861   2.291   6.996   2.091
 8988SOL     OW27862   1.824   5.889   2.013
 8988SOL    HW127863   1.845   5.976   1.968
 8988SOL    HW227864   1.744   5.901   2.072
 8989SOL     OW27865   5.449   1.632   2.757
 8989SOL    HW127866   5.376   1.667   2.698
 8989SOL    HW227867   5.419   1.547   2.800
 8990SOL     OW27868   3.399   0.897   1.624
 8990SOL    HW127869   3.477   0.910   1.563
 8990SOL    HW227870   3.314   0.901   1.572
 8991SOL     OW27871   2.110   2.088   1.026
 8991SOL    HW127872   2.028   2.035   1.009
 8991SOL    HW227873   2.167   2.088   0.943
 8992SOL     OW27874   0.998   4.012   0.015
 8992SOL    HW127875   0.971   4.082   6.970
 8992SOL    HW227876   1.022   4.056   0.102
 8993SOL     OW27877   6.270   3.718   3.847
 8993SOL    HW127878   6.279   3.766   3.759
 8993SOL    HW227879   6.268   3.620   3.831
 8994SOL     OW27880   1.134   4.715   3.038
 8994SOL    HW127881   1.230   4.726   3.065
 8994SOL    HW227882   1.122   4.744   2.943
 8995SOL     OW27883   2.117   4.101   4.906
 8995SOL    HW127884   2.206   4.091   4.950
 8995SOL    HW227885   2.065   4.016   4.915
 8996SOL     OW27886   0.647   3.581   2.265
 8996SOL    HW127887   0.676   3.488   2.288
 8996SOL    HW227888   0.727   3.636   2.243
 8997SOL     OW27889   4.042   1.868   5.730
 8997SOL    HW127890   4.016   1.964   5.719
 8997SOL    HW227891   3.964   1.810   5.708
 8998SOL     OW27892   1.009   2.220   6.215
 8998SOL    HW127893   1.003   2.211   6.314
 8998SOL    HW227894   1.037   2.313   6.191
 8999SOL     OW27895   5.967   0.980   4.630
 8999SOL    HW127896   5.965   1.047   4.556
 8999SOL    HW227897   6.029   0.905   4.605
 9000SOL     OW27898   3.384   4.025   0.610
 9000SOL    HW127899   3.356   3.944   0.559
 9000SOL    HW227900   3.306   4.086   0.622
 9001SOL     OW27901   1.405   4.203   3.547
 9001SOL    HW127902   1.353   4.137   3.601
 9001SOL    HW227903   1.367   4.295   3.560
 9002SOL     OW27904   5.223   4.807   5.787
 9002SOL    HW127905   5.274   4.732   5.830
 9002SOL    HW227906   5.189   4.778   5.698
 9003SOL     OW27907   5.501   2.458   6.117
 9003SOL    HW127908   5.483   2.363   6.144
 9003SOL    HW227909   5.449   2.479   6.034
 9004SOL     OW27910   4.152   5.965   1.188
 9004SOL    HW127911   4.078   5.926   1.242
 9004SOL    HW227912   4.167   6.060   1.215
 9005SOL     OW27913   4.824   2.047   3.371
 9005SOL    HW127914   4.793   2.002   3.287
 9005SOL    HW227915   4.813   1.985   3.448
 9006SOL     OW27916   1.588   6.276   0.958
 9006SOL    HW127917   1.638   6.221   0.891
 9006SOL    HW227918   1.611   6.246   1.050
 9007SOL     OW27919   2.864   6.455   4.536
 9007SOL    HW127920   2.849   6.357   4.544
 9007SOL    HW227921   2.795   6.495   4.475
 9008SOL     OW27922   6.263   4.867   2.408
 9008SOL    HW127923   6.283   4.800   2.337
 9008SOL    HW227924   6.304   4.837   2.495
 9009SOL     OW27925   3.570   6.318   1.062
 9009SOL    HW127926   3.548   6.236   1.115
 9009SOL    HW227927   3.505   6.390   1.084
 9010SOL     OW27928   1.030   6.125   4.816
 9010SOL    HW127929   1.061   6.182   4.892
 9010SOL    HW227930   1.054   6.169   4.729
 9011SOL     OW27931   4.499   1.852   0.789
 9011SOL    HW127932   4.558   1.789   0.840
 9011SOL    HW227933   4.532   1.945   0.802
 9012SOL     OW27934   6.848   5.509   1.365
 9012SOL    HW127935   6.797   5.452   1.429
 9012SOL    HW227936   6.784   5.552   1.301
 9013SOL     OW27937   5.174   6.314   3.701
 9013SOL    HW127938   5.139   6.348   3.789
 9013SOL    HW227939   5.132   6.226   3.681
 9014SOL     OW27940   2.652   1.295   0.956
 9014SOL    HW127941   2.638   1.255   0.866
 9014SOL    HW227942   2.705   1.231   1.013
 9015SOL     OW27943   7.008   1.110   5.442
 9015SOL    HW127944   7.002   1.129   5.540
 9015SOL    HW227945   0.059   1.044   5.426
 9016SOL     OW27946   6.742   6.322   6.447
 9016SOL    HW127947   6.765   6.259   6.521
 9016SOL    HW227948   6.707   6.270   6.369
 9017SOL     OW27949   6.934   3.386   3.243
 9017SOL    HW127950   6.985   3.302   3.224
 9017SOL    HW227951   6.840   3.375   3.210
 9018SOL     OW27952   3.551   2.461   5.429
 9018SOL    HW127953   3.516   2.474   5.522
 9018SOL    HW227954   3.515   2.376   5.391
 9019SOL     OW27955   1.636   0.386   0.947
 9019SOL    HW127956   1.682   0.474   0.959
 9019SOL    HW227957   1.695   0.313   0.981
 9020SOL     OW27958   0.723   5.060   3.612
 9020SOL    HW127959   0.723   4.962   3.634
 9020SOL    HW227960   0.642   5.081   3.557
 9021SOL     OW27961   6.922   5.486   4.679
 9021SOL    HW127962   6.949   5.582   4.672
 9021SOL    HW227963   6.853   5.476   4.750
 9022SOL     OW27964   3.223   0.600   6.994
 9022SOL    HW127965   3.309   0.608   0.023
 9022SOL    HW227966   3.169   0.683   7.006
 9023SOL     OW27967   3.051   3.116   3.554
 9023SOL    HW127968   2.983   3.058   3.599
 9023SOL    HW227969   3.128   3.060   3.523
 9024SOL     OW27970   1.878   6.778   0.346
 9024SOL    HW127971   1.845   6.856   0.399
 9024SOL    HW227972   1.821   6.698   0.366
 9025SOL     OW27973   5.835   4.746   0.809
 9025SOL    HW127974   5.819   4.808   0.886
 9025SOL    HW227975   5.804   4.654   0.834
 9026SOL     OW27976   3.618   3.151   5.225
 9026SOL    HW127977   3.642   3.101   5.308
 9026SOL    HW227978   3.586   3.087   5.155
 9027SOL     OW27979   2.073   2.704   3.097
 9027SOL    HW127980   1.997   2.647   3.128
 9027SOL    HW227981   2.041   2.798   3.085
 9028SOL     OW27982   2.643   4.654   4.655
 9028SOL    HW127983   2.626   4.597   4.574
 9028SOL    HW227984   2.732   4.699   4.645
 9029SOL     OW27985   5.216   5.383   2.934
 9029SOL    HW127986   5.155   5.462   2.946
 9029SOL    HW227987   5.236   5.343   3.023
 9030SOL     OW27988   2.685   1.423   1.771
 9030SOL    HW127989   2.773   1.460   1.801
 9030SOL    HW227990   2.621   1.497   1.753
 9031SOL     OW27991   2.202   0.098   6.614
 9031SOL    HW127992   2.280   0.052   6.658
 9031SOL    HW227993   2.118   0.072   6.661
 9032SOL     OW27994   2.051   1.197   1.617
 9032SOL    HW127995   2.063   1.236   1.709
 9032SOL    HW227996   2.085   1.262   1.549
 9033SOL     OW27997   0.863   3.336   2.243
 9033SOL    HW127998   0.766   3.312   2.254
 9033SOL    HW227999   0.915   3.302   2.322
 9034SOL     OW28000   2.886   6.625   5.771
 9034SOL    HW128001   2.829   6.589   5.697
 9034SOL    HW228002   2.832   6.688   5.827
 9035SOL     OW28003   6.840   1.343   4.625
 9035SOL    HW128004   6.770   1.408   4.597
 9035SOL    HW228005   6.931   1.381   4.607
 9036SOL     OW28006   1.609   2.016   5.046
 9036SOL    HW128007   1.580   2.110   5.066
 9036SOL    HW228008   1.600   1.960   5.128
 9037SOL     OW28009   2.118   3.546   6.175
 9037SOL    HW128010   2.162   3.517   6.091
 9037SOL    HW228011   2.046   3.612   6.155
 9038SOL     OW28012   5.911   6.548   5.512
 9038SOL    HW128013   5.842   6.613   5.480
 9038SOL    HW228014   5.996   6.562   5.461
 9039SOL     OW28015   2.291   5.430   5.735
 9039SOL    HW128016   2.333   5.492   5.669
 9039SOL    HW228017   2.323   5.453   5.827
 9040SOL     OW28018   2.259   1.031   2.446
 9040SOL    HW128019   2.274   0.986   2.358
 9040SOL    HW228020   2.176   0.995   2.488
 9041SOL     OW28021   1.768   3.462   6.954
 9041SOL    HW128022   1.686   3.430   6.907
 9041SOL    HW228023   1.744   3.494   0.024
 9042SOL     OW28024   2.899   5.128   3.952
 9042SOL    HW128025   2.808   5.168   3.959
 9042SOL    HW228026   2.958   5.165   4.024
 9043SOL     OW28027   6.600   2.101   6.407
 9043SOL    HW128028   6.692   2.102   6.366
 9043SOL    HW228029   6.567   2.007   6.412
 9044SOL     OW28030   6.181   5.596   0.668
 9044SOL    HW128031   6.138   5.507   0.653
 9044SOL    HW228032   6.278   5.591   0.644
 9045SOL     OW28033   3.494   6.587   4.041
 9045SOL    HW128034   3.416   6.526   4.057
 9045SOL    HW228035   3.479   6.639   3.957
 9046SOL     OW28036   3.290   3.882   5.081
 9046SOL    HW128037   3.248   3.962   5.038
 9046SOL    HW228038   3.244   3.800   5.048
 9047SOL     OW28039   1.131   4.565   4.565
 9047SOL    HW128040   1.081   4.588   4.482
 9047SOL    HW228041   1.229   4.582   4.551
 9048SOL     OW28042   1.070   3.421   4.380
 9048SOL    HW128043   1.027   3.391   4.295
 9048SOL    HW228044   1.162   3.382   4.386
 9049SOL     OW28045   5.094   5.607   6.001
 9049SOL    HW128046   5.092   5.559   6.088
 9049SOL    HW228047   5.113   5.704   6.016
 9050SOL     OW28048   0.502   5.314   6.114
 9050SOL    HW128049   0.524   5.295   6.019
 9050SOL    HW228050   0.464   5.232   6.156
 9051SOL     OW28051   5.157   6.485   5.952
 9051SOL    HW128052   5.254   6.503   5.936
 9051SOL    HW228053   5.117   6.561   6.004
 9052SOL     OW28054   2.292   5.356   4.915
 9052SOL    HW128055   2.295   5.338   4.817
 9052SOL    HW228056   2.256   5.275   4.962
 9053SOL     OW28057   3.089   1.523   3.641
 9053SOL    HW128058   3.113   1.619   3.654
 9053SOL    HW228059   3.011   1.501   3.699
 9054SOL     OW28060   3.208   0.212   1.086
 9054SOL    HW128061   3.108   0.222   1.087
 9054SOL    HW228062   3.248   0.288   1.036
 9055SOL     OW28063   1.589   1.746   3.794
 9055SOL    HW128064   1.611   1.676   3.727
 9055SOL    HW228065   1.529   1.815   3.753
 9056SOL     OW28066   5.308   1.470   2.941
 9056SOL    HW128067   5.277   1.504   3.030
 9056SOL    HW228068   5.229   1.454   2.882
 9057SOL     OW28069   4.542   6.166   6.485
 9057SOL    HW128070   4.558   6.215   6.399
 9057SOL    HW228071   4.546   6.230   6.561
 9058SOL     OW28072   1.411   3.036   4.904
 9058SOL    HW128073   1.354   3.082   4.836
 9058SOL    HW228074   1.476   2.975   4.857
 9059SOL     OW28075   0.287   1.518   2.466
 9059SOL    HW128076   0.201   1.516   2.517
 9059SOL    HW228077   0.280   1.582   2.390
 9060SOL     OW28078   0.683   5.196   1.192
 9060SOL    HW128079   0.634   5.160   1.272
 9060SOL    HW228080   0.709   5.291   1.209
 9061SOL     OW28081   5.861   4.634   2.334
 9061SOL    HW128082   5.790   4.585   2.283
 9061SOL    HW228083   5.886   4.717   2.284
 9062SOL     OW28084   0.646   5.511   3.314
 9062SOL    HW128085   0.671   5.486   3.221
 9062SOL    HW228086   0.556   5.554   3.314
 9063SOL     OW28087   3.752   1.539   1.714
 9063SOL    HW128088   3.844   1.531   1.676
 9063SOL    HW228089   3.744   1.624   1.765
 9064SOL     OW28090   1.204   5.054   3.771
 9064SOL    HW128091   1.225   5.064   3.674
 9064SOL    HW228092   1.129   4.989   3.783
 9065SOL     OW28093   2.371   4.429   5.293
 9065SOL    HW128094   2.397   4.500   5.228
 9065SOL    HW228095   2.385   4.462   5.387
 9066SOL     OW28096   4.899   4.739   5.509
 9066SOL    HW128097   4.867   4.722   5.416
 9066SOL    HW228098   4.996   4.714   5.516
 9067SOL     OW28099   0.907   6.763   4.273
 9067SOL    HW128100   0.966   6.724   4.343
 9067SOL    HW228101   0.872   6.690   4.215
 9068SOL     OW28102   5.028   6.958   5.152
 9068SOL    HW128103   5.007   6.923   5.243
 9068SOL    HW228104   4.979   0.022   5.137
 9069SOL     OW28105   5.076   1.727   1.647
 9069SOL    HW128106   5.019   1.786   1.591
 9069SOL    HW228107   5.030   1.639   1.660
 9070SOL     OW28108   1.445   2.625   5.910
 9070SOL    HW128109   1.513   2.566   5.954
 9070SOL    HW228110   1.466   2.634   5.813
 9071SOL     OW28111   5.141   1.716   5.387
 9071SOL    HW128112   5.184   1.626   5.384
 9071SOL    HW228113   5.120   1.746   5.294
 9072SOL     OW28114   5.063   1.197   2.160
 9072SOL    HW128115   5.069   1.261   2.237
 9072SOL    HW228116   5.142   1.135   2.163
 9073SOL     OW28117   4.602   1.061   6.291
 9073SOL    HW128118   4.642   1.136   6.238
 9073SOL    HW228119   4.560   1.097   6.374
 9074SOL     OW28120   1.722   0.070   2.114
 9074SOL    HW128121   1.797   0.094   2.052
 9074SOL    HW228122   1.703   6.993   2.106
 9075SOL     OW28123   6.193   6.241   1.240
 9075SOL    HW128124   6.181   6.168   1.308
 9075SOL    HW228125   6.290   6.263   1.232
 9076SOL     OW28126   6.523   0.990   2.509
 9076SOL    HW128127   6.588   0.928   2.553
 9076SOL    HW228128   6.528   0.979   2.410
 9077SOL     OW28129   6.116   1.650   6.042
 9077SOL    HW128130   6.207   1.651   5.999
 9077SOL    HW228131   6.109   1.728   6.104
 9078SOL     OW28132   5.029   5.899   6.743
 9078SOL    HW128133   5.124   5.874   6.726
 9078SOL    HW228134   4.973   5.871   6.665
 9079SOL     OW28135   1.376   0.748   6.512
 9079SOL    HW128136   1.425   0.832   6.535
 9079SOL    HW228137   1.337   0.756   6.421
 9080SOL     OW28138   5.562   3.680   1.469
 9080SOL    HW128139   5.534   3.627   1.549
 9080SOL    HW228140   5.610   3.763   1.498
 9081SOL     OW28141   4.788   1.961   0.247
 9081SOL    HW128142   4.705   1.918   0.211
 9081SOL    HW228143   4.837   2.006   0.171
 9082SOL     OW28144   3.195   5.785   5.581
 9082SOL    HW128145   3.272   5.727   5.554
 9082SOL    HW228146   3.151   5.746   5.662
 9083SOL     OW28147   4.118   5.534   6.284
 9083SOL    HW128148   4.194   5.597   6.299
 9083SOL    HW228149   4.048   5.549   6.354
 9084SOL     OW28150   0.147   2.313   5.854
 9084SOL    HW128151   0.162   2.232   5.910
 9084SOL    HW228152   0.050   2.338   5.857
 9085SOL     OW28153   2.703   4.894   6.848
 9085SOL    HW128154   2.618   4.867   6.803
 9085SOL    HW228155   2.731   4.822   6.912
 9086SOL     OW28156   6.793   4.402   0.843
 9086SOL    HW128157   6.729   4.384   0.769
 9086SOL    HW228158   6.809   4.501   0.850
 9087SOL     OW28159   5.905   0.800   1.454
 9087SOL    HW128160   5.835   0.730   1.447
 9087SOL    HW228161   5.995   0.757   1.451
 9088SOL     OW28162   6.535   6.639   0.780
 9088SOL    HW128163   6.465   6.577   0.815
 9088SOL    HW228164   6.602   6.588   0.727
 9089SOL     OW28165   5.128   5.686   3.865
 9089SOL    HW128166   5.089   5.603   3.825
 9089SOL    HW228167   5.193   5.727   3.800
 9090SOL     OW28168   5.883   6.145   4.863
 9090SOL    HW128169   5.792   6.104   4.850
 9090SOL    HW228170   5.924   6.109   4.947
 9091SOL     OW28171   1.975   1.949   1.554
 9091SOL    HW128172   2.041   1.980   1.622
 9091SOL    HW228173   1.907   1.891   1.598
 9092SOL     OW28174   1.428   6.792   5.287
 9092SOL    HW128175   1.430   6.717   5.220
 9092SOL    HW228176   1.347   6.783   5.344
 9093SOL     OW28177   2.340   5.038   0.692
 9093SOL    HW128178   2.278   5.104   0.733
 9093SOL    HW228179   2.319   5.028   0.594
 9094SOL     OW28180   0.312   5.237   2.091
 9094SOL    HW128181   0.345   5.204   2.179
 9094SOL    HW228182   0.379   5.300   2.052
 9095SOL     OW28183   3.413   3.376   6.858
 9095SOL    HW128184   3.398   3.475   6.859
 9095SOL    HW228185   3.344   3.331   6.914
 9096SOL     OW28186   5.697   2.629   2.822
 9096SOL    HW128187   5.693   2.537   2.784
 9096SOL    HW228188   5.619   2.682   2.791
 9097SOL     OW28189   0.992   4.203   6.631
 9097SOL    HW128190   1.038   4.292   6.631
 9097SOL    HW228191   0.932   4.197   6.710
 9098SOL     OW28192   4.053   3.608   2.452
 9098SOL    HW128193   4.044   3.597   2.551
 9098SOL    HW228194   4.041   3.519   2.408
 9099SOL     OW28195   2.368   3.850   0.997
 9099SOL    HW128196   2.277   3.877   0.965
 9099SOL    HW228197   2.379   3.751   0.988
 9100SOL     OW28198   1.009   3.113   0.849
 9100SOL    HW128199   1.005   3.211   0.870
 9100SOL    HW228200   0.994   3.061   0.933
 9101SOL     OW28201   1.805   2.461   1.846
 9101SOL    HW128202   1.748   2.543   1.854
 9101SOL    HW228203   1.752   2.381   1.873
 9102SOL     OW28204   3.590   5.336   2.255
 9102SOL    HW128205   3.589   5.270   2.180
 9102SOL    HW228206   3.563   5.291   2.339
 9103SOL     OW28207   0.024   3.970   0.677
 9103SOL    HW128208   7.002   4.057   0.697
 9103SOL    HW228209   0.117   3.970   0.716
 9104SOL     OW28210   4.333   6.748   1.453
 9104SOL    HW128211   4.423   6.709   1.437
 9104SOL    HW228212   4.342   6.847   1.468
 9105SOL     OW28213   1.398   1.736   6.735
 9105SOL    HW128214   1.471   1.766   6.796
 9105SOL    HW228215   1.437   1.689   6.656
 9106SOL     OW28216   5.550   5.086   0.061
 9106SOL    HW128217   5.475   5.122   0.006
 9106SOL    HW228218   5.548   5.128   0.152
 9107SOL     OW28219   3.751   0.103   0.718
 9107SOL    HW128220   3.813   0.087   0.794
 9107SOL    HW228221   3.658   0.119   0.753
 9108SOL     OW28222   4.325   5.400   5.200
 9108SOL    HW128223   4.297   5.354   5.116
 9108SOL    HW228224   4.268   5.481   5.214
 9109SOL     OW28225   3.530   2.109   3.824
 9109SOL    HW128226   3.540   2.121   3.725
 9109SOL    HW228227   3.432   2.106   3.847
 9110SOL     OW28228   2.177   3.967   3.987
 9110SOL    HW128229   2.266   3.998   3.955
 9110SOL    HW228230   2.116   4.046   3.999
 9111SOL     OW28231   3.681   4.213   1.489
 9111SOL    HW128232   3.599   4.264   1.466
 9111SOL    HW228233   3.696   4.141   1.422
 9112SOL     OW28234   0.059   4.457   1.922
 9112SOL    HW128235   7.007   4.393   1.941
 9112SOL    HW228236   0.136   4.438   1.983
 9113SOL     OW28237   5.470   0.062   0.215
 9113SOL    HW128238   5.529   0.139   0.190
 9113SOL    HW228239   5.384   0.097   0.252
 9114SOL     OW28240   2.213   4.975   2.167
 9114SOL    HW128241   2.280   4.921   2.117
 9114SOL    HW228242   2.252   5.065   2.188
 9115SOL     OW28243   1.074   4.734   4.774
 9115SOL    HW128244   1.100   4.647   4.731
 9115SOL    HW228245   1.145   4.802   4.755
 9116SOL     OW28246   6.766   1.385   6.835
 9116SOL    HW128247   6.767   1.429   6.925
 9116SOL    HW228248   6.860   1.363   6.807
 9117SOL     OW28249   6.376   3.031   6.605
 9117SOL    HW128250   6.453   3.062   6.550
 9117SOL    HW228251   6.345   3.105   6.664
 9118SOL     OW28252   0.026   6.375   1.222
 9118SOL    HW128253   6.960   6.423   1.232
 9118SOL    HW228254   0.101   6.441   1.222
 9119SOL     OW28255   6.067   0.424   1.883
 9119SOL    HW128256   5.993   0.482   1.849
 9119SOL    HW228257   6.144   0.428   1.819
 9120SOL     OW28258   5.795   1.196   5.919
 9120SOL    HW128259   5.801   1.218   6.016
 9120SOL    HW228260   5.721   1.131   5.904
 9121SOL     OW28261   0.657   2.170   5.942
 9121SOL    HW128262   0.645   2.104   6.017
 9121SOL    HW228263   0.603   2.140   5.863
 9122SOL     OW28264   1.805   2.402   2.916
 9122SOL    HW128265   1.809   2.351   3.002
 9122SOL    HW228266   1.898   2.426   2.888
 9123SOL     OW28267   2.609   6.200   6.294
 9123SOL    HW128268   2.630   6.224   6.389
 9123SOL    HW228269   2.611   6.101   6.283
 9124SOL     OW28270   6.845   5.704   5.544
 9124SOL    HW128271   6.916   5.696   5.474
 9124SOL    HW228272   6.821   5.801   5.555
 9125SOL     OW28273   5.208   3.828   3.866
 9125SOL    HW128274   5.168   3.900   3.809
 9125SOL    HW228275   5.156   3.743   3.854
 9126SOL     OW28276   5.971   1.035   1.909
 9126SOL    HW128277   5.943   0.939   1.913
 9126SOL    HW228278   5.900   1.092   1.950
 9127SOL     OW28279   5.312   0.124   6.372
 9127SOL    HW128280   5.383   0.186   6.337
 9127SOL    HW228281   5.323   0.113   6.471
 9128SOL     OW28282   3.445   1.973   5.324
 9128SOL    HW128283   3.426   1.978   5.226
 9128SOL    HW228284   3.544   1.972   5.339
 9129SOL     OW28285   2.102   2.656   6.579
 9129SOL    HW128286   2.016   2.664   6.629
 9129SOL    HW228287   2.100   2.715   6.499
 9130SOL     OW28288   6.469   4.922   0.620
 9130SOL    HW128289   6.528   4.962   0.550
 9130SOL    HW228290   6.393   4.875   0.576
 9131SOL     OW28291   0.582   4.286   4.085
 9131SOL    HW128292   0.558   4.284   3.988
 9131SOL    HW228293   0.499   4.297   4.140
 9132SOL     OW28294   6.972   3.464   3.492
 9132SOL    HW128295   6.960   3.419   3.404
 9132SOL    HW228296   0.032   3.429   3.537
 9133SOL     OW28297   2.279   4.461   1.271
 9133SOL    HW128298   2.364   4.427   1.230
 9133SOL    HW228299   2.287   4.560   1.284
 9134SOL     OW28300   3.647   6.762   0.015
 9134SOL    HW128301   3.583   6.820   6.985
 9134SOL    HW228302   3.669   6.807   0.102
 9135SOL     OW28303   6.563   6.459   2.938
 9135SOL    HW128304   6.547   6.422   2.846
 9135SOL    HW228305   6.636   6.527   2.934
 9136SOL     OW28306   4.735   5.275   5.947
 9136SOL    HW128307   4.691   5.363   5.927
 9136SOL    HW228308   4.834   5.286   5.942
 9137SOL     OW28309   5.067   1.517   1.207
 9137SOL    HW128310   4.972   1.486   1.209
 9137SOL    HW228311   5.071   1.613   1.179
 9138SOL     OW28312   6.035   4.804   6.458
 9138SOL    HW128313   6.086   4.780   6.541
 9138SOL    HW228314   6.086   4.872   6.406
 9139SOL     OW28315   3.140   0.731   6.091
 9139SOL    HW128316   3.214   0.679   6.133
 9139SOL    HW228317   3.155   0.828   6.105
 9140SOL     OW28318   6.263   2.494   3.174
 9140SOL    HW128319   6.210   2.449   3.102
 9140SOL    HW228320   6.351   2.447   3.184
 9141SOL     OW28321   5.334   0.058   6.111
 9141SOL    HW128322   5.433   0.066   6.097
 9141SOL    HW228323   5.313   0.070   6.208
 9142SOL     OW28324   0.360   3.044   5.366
 9142SOL    HW128325   0.420   3.067   5.443
 9142SOL    HW228326   0.416   3.017   5.288
 9143SOL     OW28327   4.667   3.427   0.204
 9143SOL    HW128328   4.724   3.477   0.139
 9143SOL    HW228329   4.611   3.491   0.256
 9144SOL     OW28330   2.102   5.687   5.994
 9144SOL    HW128331   2.169   5.635   6.047
 9144SOL    HW228332   2.048   5.745   6.055
 9145SOL     OW28333   0.520   4.555   0.551
 9145SOL    HW128334   0.493   4.460   0.560
 9145SOL    HW228335   0.562   4.587   0.636
 9146SOL     OW28336   5.426   2.656   1.555
 9146SOL    HW128337   5.507   2.621   1.601
 9146SOL    HW228338   5.442   2.661   1.457
 9147SOL     OW28339   4.780   6.363   4.101
 9147SOL    HW128340   4.738   6.451   4.081
 9147SOL    HW228341   4.856   6.347   4.038
 9148SOL     OW28342   5.360   6.424   2.773
 9148SOL    HW128343   5.312   6.402   2.688
 9148SOL    HW228344   5.315   6.378   2.850
 9149SOL     OW28345   5.013   3.011   4.237
 9149SOL    HW128346   4.978   3.054   4.320
 9149SOL    HW228347   4.965   3.048   4.158
 9150SOL     OW28348   4.647   6.616   3.094
 9150SOL    HW128349   4.734   6.581   3.127
 9150SOL    HW228350   4.663   6.687   3.025
 9151SOL     OW28351   1.179   4.228   1.733
 9151SOL    HW128352   1.262   4.230   1.788
 9151SOL    HW228353   1.138   4.137   1.737
 9152SOL     OW28354   2.533   5.831   3.691
 9152SOL    HW128355   2.517   5.762   3.761
 9152SOL    HW228356   2.490   5.917   3.719
 9153SOL     OW28357   1.314   2.585   6.847
 9153SOL    HW128358   1.316   2.676   6.889
 9153SOL    HW228359   1.251   2.527   6.898
 9154SOL     OW28360   2.824   5.657   6.886
 9154SOL    HW128361   2.904   5.712   6.908
 9154SOL    HW228362   2.839   5.608   6.800
 9155SOL     OW28363   2.072   3.808   6.779
 9155SOL    HW128364   2.022   3.876   6.724
 9155SOL    HW228365   2.111   3.739   6.718
 9156SOL     OW28366   3.462   2.208   1.195
 9156SOL    HW128367   3.545   2.177   1.242
 9156SOL    HW228368   3.384   2.153   1.225
 9157SOL     OW28369   5.891   4.329   5.159
 9157SOL    HW128370   5.967   4.291   5.211
 9157SOL    HW228371   5.813   4.343   5.219
 9158SOL     OW28372   0.116   3.729   4.451
 9158SOL    HW128373   0.163   3.804   4.498
 9158SOL    HW228374   0.029   3.711   4.497
 9159SOL     OW28375   0.411   5.649   3.238
 9159SOL    HW128376   0.390   5.669   3.142
 9159SOL    HW228377   0.326   5.626   3.286
 9160SOL     OW28378   0.500   6.963   5.936
 9160SOL    HW128379   0.599   6.979   5.939
 9160SOL    HW228380   0.475   6.923   5.848
 9161SOL     OW28381   4.786   4.101   4.964
 9161SOL    HW128382   4.764   4.031   5.033
 9161SOL    HW228383   4.871   4.147   4.989
 9162SOL     OW28384   5.302   2.517   3.011
 9162SOL    HW128385   5.343   2.520   2.920
 9162SOL    HW228386   5.218   2.571   3.012
 9163SOL     OW28387   2.329   2.628   3.937
 9163SOL    HW128388   2.236   2.606   3.906
 9163SOL    HW228389   2.327   2.713   3.990
 9164SOL     OW28390   2.761   0.763   6.868
 9164SOL    HW128391   2.665   0.739   6.884
 9164SOL    HW228392   2.801   0.700   6.802
 9165SOL     OW28393   6.216   0.534   5.962
 9165SOL    HW128394   6.289   0.494   6.018
 9165SOL    HW228395   6.202   0.477   5.881
 9166SOL     OW28396   4.527   6.220   1.162
 9166SOL    HW128397   4.560   6.134   1.123
 9166SOL    HW228398   4.518   6.211   1.261
 9167SOL     OW28399   1.486   3.374   5.869
 9167SOL    HW128400   1.485   3.405   5.774
 9167SOL    HW228401   1.441   3.442   5.927
 9168SOL     OW28402   2.424   0.291   5.922
 9168SOL    HW128403   2.446   0.327   6.012
 9168SOL    HW228404   2.329   0.261   5.920
 9169SOL     OW28405   0.195   0.763   5.015
 9169SOL    HW128406   0.164   0.843   4.964
 9169SOL    HW228407   0.285   0.781   5.056
 9170SOL     OW28408   0.134   5.050   6.840
 9170SOL    HW128409   0.183   4.963   6.830
 9170SOL    HW228410   0.199   5.125   6.839
 9171SOL     OW28411   3.193   5.437   6.880
 9171SOL    HW128412   3.270   5.400   6.932
 9171SOL    HW228413   3.211   5.429   6.782
 9172SOL     OW28414   3.429   1.477   4.751
 9172SOL    HW128415   3.440   1.496   4.654
 9172SOL    HW228416   3.420   1.378   4.765
 9173SOL     OW28417   5.721   4.430   4.761
 9173SOL    HW128418   5.779   4.359   4.801
 9173SOL    HW228419   5.626   4.400   4.759
 9174SOL     OW28420   6.115   4.113   0.381
 9174SOL    HW128421   6.169   4.053   0.440
 9174SOL    HW228422   6.029   4.068   0.356
 9175SOL     OW28423   2.592   6.272   5.385
 9175SOL    HW128424   2.672   6.268   5.444
 9175SOL    HW228425   2.618   6.246   5.292
 9176SOL     OW28426   1.532   0.847   5.415
 9176SOL    HW128427   1.596   0.862   5.339
 9176SOL    HW228428   1.574   0.878   5.500
 9177SOL     OW28429   1.028   4.151   4.042
 9177SOL    HW128430   1.047   4.077   3.976
 9177SOL    HW228431   1.105   4.159   4.105
 9178SOL     OW28432   2.148   4.792   0.705
 9178SOL    HW128433   2.158   4.887   0.676
 9178SOL    HW228434   2.200   4.778   0.790
 9179SOL     OW28435   2.381   5.258   4.032
 9179SOL    HW128436   2.290   5.229   4.061
 9179SOL    HW228437   2.383   5.265   3.932
 9180SOL     OW28438   6.202   2.254   3.707
 9180SOL    HW128439   6.281   2.192   3.704
 9180SOL    HW228440   6.137   2.227   3.635
 9181SOL     OW28441   4.684   2.431   3.067
 9181SOL    HW128442   4.768   2.379   3.083
 9181SOL    HW228443   4.608   2.387   3.116
 9182SOL     OW28444   2.539   6.756   2.383
 9182SOL    HW128445   2.446   6.745   2.348
 9182SOL    HW228446   2.604   6.722   2.315
 9183SOL     OW28447   5.398   5.911   0.360
 9183SOL    HW128448   5.435   5.923   0.452
 9183SOL    HW228449   5.298   5.913   0.364
 9184SOL     OW28450   5.068   0.764   0.538
 9184SOL    HW128451   5.023   0.744   0.450
 9184SOL    HW228452   5.030   0.849   0.576
 9185SOL     OW28453   4.171   0.158   5.743
 9185SOL    HW128454   4.093   0.097   5.730
 9185SOL    HW228455   4.191   0.166   5.841
 9186SOL     OW28456   6.366   1.022   4.402
 9186SOL    HW128457   6.306   0.949   4.434
 9186SOL    HW228458   6.341   1.108   4.448
 9187SOL     OW28459   2.044   6.976   1.809
 9187SOL    HW128460   2.006   0.026   1.867
 9187SOL    HW228461   2.094   7.018   1.733
 9188SOL     OW28462   2.207   6.096   1.147
 9188SOL    HW128463   2.300   6.079   1.113
 9188SOL    HW228464   2.209   6.107   1.246
 9189SOL     OW28465   5.593   6.065   2.889
 9189SOL    HW128466   5.578   6.120   2.971
 9189SOL    HW228467   5.664   5.997   2.907
 9190SOL     OW28468   1.823   5.524   0.106
 9190SOL    HW128469   1.868   5.562   0.025
 9190SOL    HW228470   1.739   5.576   0.124
 9191SOL     OW28471   6.441   0.763   4.942
 9191SOL    HW128472   6.432   0.674   4.896
 9191SOL    HW228473   6.360   0.818   4.923
 9192SOL     OW28474   0.355   4.254   4.594
 9192SOL    HW128475   0.395   4.254   4.686
 9192SOL    HW228476   0.325   4.161   4.572
 9193SOL     OW28477   4.232   3.913   0.061
 9193SOL    HW128478   4.330   3.926   0.078
 9193SOL    HW228479   4.182   3.993   0.092
 9194SOL     OW28480   3.608   0.686   3.671
 9194SOL    HW128481   3.582   0.782   3.671
 9194SOL    HW228482   3.615   0.654   3.576
 9195SOL     OW28483   1.800   2.251   4.060
 9195SOL    HW128484   1.776   2.154   4.049
 9195SOL    HW228485   1.879   2.272   4.003
 9196SOL     OW28486   4.161   1.152   5.087
 9196SOL    HW128487   4.185   1.058   5.063
 9196SOL    HW228488   4.141   1.203   5.003
 9197SOL     OW28489   1.822   3.943   1.734
 9197SOL    HW128490   1.791   3.881   1.662
 9197SOL    HW228491   1.801   4.037   1.707
 9198SOL     OW28492   6.408   5.258   5.381
 9198SOL    HW128493   6.349   5.331   5.347
 9198SOL    HW228494   6.362   5.211   5.456
 9199SOL     OW28495   0.405   3.361   6.506
 9199SOL    HW128496   0.464   3.338   6.430
 9199SOL    HW228497   0.360   3.448   6.489
 9200SOL     OW28498   1.936   7.001   1.225
 9200SOL    HW128499   1.893   0.022   1.145
 9200SOL    HW228500   1.939   0.045   1.300
 9201SOL     OW28501   0.658   3.339   0.202
 9201SOL    HW128502   0.597   3.275   0.156
 9201SOL    HW228503   0.636   3.432   0.173
 9202SOL     OW28504   2.171   6.351   3.448
 9202SOL    HW128505   2.238   6.419   3.479
 9202SOL    HW228506   2.114   6.392   3.376
 9203SOL     OW28507   6.951   5.066   7.011
 9203SOL    HW128508   0.008   5.039   6.956
 9203SOL    HW228509   6.967   5.156   0.029
 9204SOL     OW28510   4.933   1.983   6.814
 9204SOL    HW128511   4.983   1.902   6.781
 9204SOL    HW228512   4.969   2.065   6.769
 9205SOL     OW28513   6.375   4.244   2.671
 9205SOL    HW128514   6.312   4.282   2.603
 9205SOL    HW228515   6.466   4.235   2.630
 9206SOL     OW28516   3.517   5.343   1.046
 9206SOL    HW128517   3.489   5.431   1.006
 9206SOL    HW228518   3.537   5.278   0.972
 9207SOL     OW28519   4.409   4.916   0.238
 9207SOL    HW128520   4.314   4.895   0.216
 9207SOL    HW228521   4.420   5.015   0.250
 9208SOL     OW28522   6.097   4.081   4.642
 9208SOL    HW128523   6.138   4.061   4.553
 9208SOL    HW228524   6.038   4.161   4.635
 9209SOL     OW28525   2.934   1.301   0.382
 9209SOL    HW128526   2.951   1.399   0.372
 9209SOL    HW228527   2.984   1.266   0.461
 9210SOL     OW28528   6.111   1.554   3.154
 9210SOL    HW128529   6.052   1.522   3.080
 9210SOL    HW228530   6.117   1.654   3.151
 9211SOL     OW28531   0.007   3.039   3.954
 9211SOL    HW128532   6.961   3.101   3.994
 9211SOL    HW228533   0.062   2.998   4.027
 9212SOL     OW28534   3.926   5.301   4.344
 9212SOL    HW128535   3.836   5.277   4.379
 9212SOL    HW228536   3.978   5.348   4.415
 9213SOL     OW28537   6.072   3.027   5.311
 9213SOL    HW128538   6.103   3.120   5.332
 9213SOL    HW228539   6.148   2.975   5.272
 9214SOL     OW28540   6.627   5.269   6.096
 9214SOL    HW128541   6.571   5.208   6.152
 9214SOL    HW228542   6.651   5.223   6.011
 9215SOL     OW28543   0.612   1.742   0.554
 9215SOL    HW128544   0.670   1.666   0.527
 9215SOL    HW228545   0.669   1.815   0.594
 9216SOL     OW28546   2.875   0.226   3.312
 9216SOL    HW128547   2.817   0.277   3.376
 9216SOL    HW228548   2.968   0.264   3.315
 9217SOL     OW28549   0.309   0.741   6.247
 9217SOL    HW128550   0.288   0.759   6.343
 9217SOL    HW228551   0.395   0.691   6.240
 9218SOL     OW28552   3.580   6.477   0.433
 9218SOL    HW128553   3.621   6.476   0.341
 9218SOL    HW228554   3.554   6.384   0.458
 9219SOL     OW28555   0.837   2.954   0.339
 9219SOL    HW128556   0.738   2.966   0.343
 9219SOL    HW228557   0.875   2.962   0.431
 9220SOL     OW28558   3.082   6.590   1.409
 9220SOL    HW128559   3.179   6.566   1.401
 9220SOL    HW228560   3.070   6.659   1.481
 9221SOL     OW28561   3.566   0.455   3.820
 9221SOL    HW128562   3.634   0.430   3.889
 9221SOL    HW228563   3.594   0.539   3.774
 9222SOL     OW28564   2.475   0.733   6.865
 9222SOL    HW128565   2.397   0.684   6.904
 9222SOL    HW228566   2.485   0.821   6.911
 9223SOL     OW28567   1.865   2.345   4.837
 9223SOL    HW128568   1.842   2.362   4.742
 9223SOL    HW228569   1.963   2.358   4.851
 9224SOL     OW28570   2.660   5.714   4.172
 9224SOL    HW128571   2.646   5.808   4.140
 9224SOL    HW228572   2.572   5.670   4.186
 9225SOL     OW28573   3.168   6.606   6.709
 9225SOL    HW128574   3.231   6.575   6.781
 9225SOL    HW228575   3.181   6.551   6.627
 9226SOL     OW28576   5.067   6.490   1.668
 9226SOL    HW128577   5.142   6.425   1.678
 9226SOL    HW228578   5.076   6.538   1.580
 9227SOL     OW28579   1.229   5.129   3.513
 9227SOL    HW128580   1.146   5.130   3.456
 9227SOL    HW228581   1.284   5.049   3.489
 9228SOL     OW28582   1.632   0.995   5.714
 9228SOL    HW128583   1.711   0.981   5.655
 9228SOL    HW228584   1.618   1.093   5.728
 9229SOL     OW28585   1.751   5.377   4.358
 9229SOL    HW128586   1.666   5.337   4.393
 9229SOL    HW228587   1.811   5.305   4.324
 9230SOL     OW28588   5.836   0.404   2.512
 9230SOL    HW128589   5.917   0.356   2.544
 9230SOL    HW228590   5.855   0.502   2.508
 9231SOL     OW28591   1.784   3.181   4.252
 9231SOL    HW128592   1.824   3.225   4.332
 9231SOL    HW228593   1.849   3.115   4.214
 9232SOL     OW28594   3.585   5.114   0.868
 9232SOL    HW128595   3.506   5.083   0.921
 9232SOL    HW228596   3.631   5.036   0.826
 9233SOL     OW28597   5.859   5.400   1.504
 9233SOL    HW128598   5.869   5.462   1.581
 9233SOL    HW228599   5.913   5.317   1.520
 9234SOL     OW28600   2.825   5.664   3.878
 9234SOL    HW128601   2.774   5.579   3.891
 9234SOL    HW228602   2.852   5.701   3.967
 9235SOL     OW28603   1.847   1.768   3.058
 9235SOL    HW128604   1.906   1.819   2.995
 9235SOL    HW228605   1.867   1.670   3.050
 9236SOL     OW28606   3.523   4.282   5.517
 9236SOL    HW128607   3.461   4.261   5.592
 9236SOL    HW228608   3.556   4.196   5.476
 9237SOL     OW28609   1.394   4.375   4.587
 9237SOL    HW128610   1.445   4.306   4.535
 9237SOL    HW228611   1.382   4.342   4.681
 9238SOL     OW28612   4.300   2.617   6.181
 9238SOL    HW128613   4.314   2.557   6.102
 9238SOL    HW228614   4.248   2.698   6.154
 9239SOL     OW28615   0.220   3.927   0.871
 9239SOL    HW128616   0.188   3.835   0.853
 9239SOL    HW228617   0.196   3.953   0.965
 9240SOL     OW28618   5.830   1.731   0.576
 9240SOL    HW128619   5.742   1.760   0.613
 9240SOL    HW228620   5.833   1.631   0.571
 9241SOL     OW28621   6.646   5.303   6.746
 9241SOL    HW128622   6.733   5.270   6.781
 9241SOL    HW228623   6.588   5.333   6.823
 9242SOL     OW28624   0.120   5.896   1.252
 9242SOL    HW128625   0.048   5.917   1.318
 9242SOL    HW228626   0.126   5.797   1.239
 9243SOL     OW28627   6.743   5.502   3.618
 9243SOL    HW128628   6.791   5.516   3.705
 9243SOL    HW228629   6.740   5.404   3.598
 9244SOL     OW28630   4.438   5.728   6.653
 9244SOL    HW128631   4.437   5.828   6.653
 9244SOL    HW228632   4.352   5.694   6.689
 9245SOL     OW28633   1.445   5.413   2.371
 9245SOL    HW128634   1.491   5.465   2.443
 9245SOL    HW228635   1.419   5.323   2.406
 9246SOL     OW28636   6.423   4.769   3.867
 9246SOL    HW128637   6.375   4.688   3.832
 9246SOL    HW228638   6.507   4.783   3.814
 9247SOL     OW28639   0.896   0.838   2.722
 9247SOL    HW128640   0.818   0.843   2.784
 9247SOL    HW228641   0.970   0.895   2.756
 9248SOL     OW28642   2.745   2.465   5.660
 9248SOL    HW128643   2.791   2.551   5.638
 9248SOL    HW228644   2.697   2.474   5.747
 9249SOL     OW28645   5.456   1.732   5.271
 9249SOL    HW128646   5.468   1.648   5.218
 9249SOL    HW228647   5.408   1.800   5.216
 9250SOL     OW28648   4.863   3.763   4.484
 9250SOL    HW128649   4.892   3.805   4.569
 9250SOL    HW228650   4.931   3.694   4.457
 9251SOL     OW28651   3.947   1.266   3.111
 9251SOL    HW128652   3.988   1.270   3.201
 9251SOL    HW228653   4.013   1.231   3.044
 9252SOL     OW28654   6.984   7.021   4.594
 9252SOL    HW128655   7.007   0.046   4.680
 9252SOL    HW228656   0.044   6.980   4.555
 9253SOL     OW28657   3.096   6.207   6.321
 9253SOL    HW128658   3.183   6.169   6.353
 9253SOL    HW228659   3.021   6.148   6.350
 9254SOL     OW28660   5.621   3.523   1.035
 9254SOL    HW128661   5.547   3.471   0.991
 9254SOL    HW228662   5.582   3.593   1.094
 9255SOL     OW28663   5.183   2.866   0.123
 9255SOL    HW128664   5.147   2.905   0.038
 9255SOL    HW228665   5.273   2.825   0.105
 9256SOL     OW28666   4.005   4.844   2.747
 9256SOL    HW128667   4.052   4.818   2.663
 9256SOL    HW228668   3.907   4.832   2.735
 9257SOL     OW28669   1.038   4.126   2.452
 9257SOL    HW128670   1.118   4.074   2.481
 9257SOL    HW228671   0.978   4.068   2.398
 9258SOL     OW28672   3.672   3.348   3.969
 9258SOL    HW128673   3.739   3.368   4.041
 9258SOL    HW228674   3.597   3.414   3.975
 9259SOL     OW28675   0.967   2.575   1.208
 9259SOL    HW128676   1.051   2.522   1.214
 9259SOL    HW228677   0.894   2.528   1.256
 9260SOL     OW28678   4.927   2.082   5.387
 9260SOL    HW128679   4.941   2.113   5.481
 9260SOL    HW228680   4.867   2.146   5.339
 9261SOL     OW28681   4.245   0.365   6.559
 9261SOL    HW128682   4.220   0.384   6.654
 9261SOL    HW228683   4.307   0.286   6.556
 9262SOL     OW28684   5.806   1.881   5.916
 9262SOL    HW128685   5.727   1.936   5.943
 9262SOL    HW228686   5.785   1.784   5.928
 9263SOL     OW28687   5.628   4.414   1.473
 9263SOL    HW128688   5.718   4.407   1.517
 9263SOL    HW228689   5.590   4.323   1.461
 9264SOL     OW28690   6.543   4.089   0.416
 9264SOL    HW128691   6.545   4.187   0.434
 9264SOL    HW228692   6.462   4.049   0.458
 9265SOL     OW28693   2.975   1.891   0.847
 9265SOL    HW128694   2.929   1.884   0.935
 9265SOL    HW228695   2.959   1.982   0.808
 9266SOL     OW28696   2.551   6.060   3.064
 9266SOL    HW128697   2.617   6.132   3.040
 9266SOL    HW228698   2.563   6.035   3.160
 9267SOL     OW28699   0.406   3.958   4.135
 9267SOL    HW128700   0.404   3.917   4.226
 9267SOL    HW228701   0.333   3.919   4.079
 9268SOL     OW28702   0.839   6.513   3.166
 9268SOL    HW128703   0.883   6.535   3.079
 9268SOL    HW228704   0.785   6.430   3.156
 9269SOL     OW28705   2.930   2.685   0.160
 9269SOL    HW128706   3.005   2.715   0.099
 9269SOL    HW228707   2.957   2.699   0.255
 9270SOL     OW28708   6.233   6.728   5.626
 9270SOL    HW128709   6.210   6.677   5.542
 9270SOL    HW228710   6.261   6.821   5.602
 9271SOL     OW28711   1.691   6.290   1.305
 9271SOL    HW128712   1.610   6.243   1.270
 9271SOL    HW228713   1.703   6.376   1.255
 9272SOL     OW28714   2.918   4.363   5.988
 9272SOL    HW128715   2.907   4.318   6.076
 9272SOL    HW228716   2.904   4.298   5.914
 9273SOL     OW28717   4.338   5.633   3.480
 9273SOL    HW128718   4.405   5.609   3.410
 9273SOL    HW228719   4.350   5.573   3.559
 9274SOL     OW28720   5.307   2.555   6.896
 9274SOL    HW128721   5.289   2.484   6.965
 9274SOL    HW228722   5.373   2.521   6.830
 9275SOL     OW28723   1.243   1.335   6.767
 9275SOL    HW128724   1.212   1.421   6.806
 9275SOL    HW228725   1.329   1.308   6.810
 9276SOL     OW28726   2.840   4.836   4.518
 9276SOL    HW128727   2.923   4.863   4.469
 9276SOL    HW228728   2.865   4.809   4.611
 9277SOL     OW28729   3.697   3.237   0.121
 9277SOL    HW128730   3.655   3.292   0.193
 9277SOL    HW228731   3.675   3.141   0.136
 9278SOL     OW28732   1.124   1.862   4.028
 9278SOL    HW128733   1.031   1.892   4.053
 9278SOL    HW228734   1.186   1.941   4.031
 9279SOL     OW28735   4.063   0.625   1.866
 9279SOL    HW128736   4.071   0.528   1.890
 9279SOL    HW228737   4.111   0.680   1.934
 9280SOL     OW28738   1.318   0.224   3.775
 9280SOL    HW128739   1.328   0.221   3.874
 9280SOL    HW228740   1.222   0.241   3.752
 9281SOL     OW28741   2.352   3.061   0.988
 9281SOL    HW128742   2.450   3.078   0.994
 9281SOL    HW228743   2.325   2.996   1.060
 9282SOL     OW28744   4.749   1.971   4.705
 9282SOL    HW128745   4.819   1.901   4.720
 9282SOL    HW228746   4.760   2.008   4.612
 9283SOL     OW28747   6.089   1.823   3.176
 9283SOL    HW128748   6.134   1.874   3.249
 9283SOL    HW228749   6.092   1.877   3.092
 9284SOL     OW28750   4.028   4.830   0.404
 9284SOL    HW128751   4.082   4.752   0.373
 9284SOL    HW228752   3.940   4.798   0.439
 9285SOL     OW28753   6.243   3.245   6.787
 9285SOL    HW128754   6.146   3.248   6.764
 9285SOL    HW228755   6.253   3.232   6.886
 9286SOL     OW28756   5.414   6.636   5.951
 9286SOL    HW128757   5.503   6.669   5.980
 9286SOL    HW228758   5.425   6.557   5.891
 9287SOL     OW28759   3.229   5.435   1.555
 9287SOL    HW128760   3.299   5.369   1.530
 9287SOL    HW228761   3.264   5.497   1.625
 9288SOL     OW28762   4.157   1.379   6.129
 9288SOL    HW128763   4.160   1.472   6.168
 9288SOL    HW228764   4.214   1.376   6.047
 9289SOL     OW28765   4.835   2.268   2.533
 9289SOL    HW128766   4.869   2.231   2.620
 9289SOL    HW228767   4.735   2.262   2.531
 9290SOL     OW28768   4.087   1.822   5.298
 9290SOL    HW128769   4.153   1.778   5.359
 9290SOL    HW228770   4.125   1.826   5.206
 9291SOL     OW28771   1.915   0.507   5.147
 9291SOL    HW128772   1.900   0.591   5.095
 9291SOL    HW228773   1.895   0.428   5.088
 9292SOL     OW28774   6.718   3.114   6.243
 9292SOL    HW128775   6.795   3.140   6.301
 9292SOL    HW228776   6.751   3.092   6.151
 9293SOL     OW28777   4.989   4.571   0.919
 9293SOL    HW128778   5.077   4.618   0.923
 9293SOL    HW228779   4.925   4.617   0.981
 9294SOL     OW28780   3.836   5.916   0.145
 9294SOL    HW128781   3.881   5.835   0.106
 9294SOL    HW228782   3.852   5.918   0.244
 9295SOL     OW28783   4.808   1.643   3.223
 9295SOL    HW128784   4.782   1.739   3.211
 9295SOL    HW228785   4.726   1.586   3.224
 9296SOL     OW28786   6.108   6.520   6.074
 9296SOL    HW128787   6.160   6.538   5.991
 9296SOL    HW228788   6.113   6.600   6.135
 9297SOL     OW28789   0.278   0.410   1.626
 9297SOL    HW128790   0.215   0.454   1.562
 9297SOL    HW228791   0.258   0.441   1.719
 9298SOL     OW28792   2.483   6.027   5.451
 9298SOL    HW128793   2.518   6.119   5.432
 9298SOL    HW228794   2.450   5.986   5.366
 9299SOL     OW28795   1.476   2.893   3.970
 9299SOL    HW128796   1.492   2.809   3.918
 9299SOL    HW228797   1.533   2.893   4.052
 9300SOL     OW28798   6.308   4.910   4.827
 9300SOL    HW128799   6.331   4.885   4.733
 9300SOL    HW228800   6.368   4.984   4.857
 9301SOL     OW28801   5.082   4.368   3.184
 9301SOL    HW128802   5.002   4.391   3.239
 9301SOL    HW228803   5.053   4.325   3.098
 9302SOL     OW28804   2.509   2.606   3.713
 9302SOL    HW128805   2.493   2.606   3.812
 9302SOL    HW228806   2.474   2.690   3.673
 9303SOL     OW28807   4.158   6.732   0.860
 9303SOL    HW128808   4.118   6.784   0.935
 9303SOL    HW228809   4.102   6.744   0.777
 9304SOL     OW28810   3.585   4.151   0.471
 9304SOL    HW128811   3.515   4.106   0.528
 9304SOL    HW228812   3.621   4.086   0.405
 9305SOL     OW28813   5.749   1.896   1.725
 9305SOL    HW128814   5.789   1.815   1.682
 9305SOL    HW228815   5.772   1.978   1.672
 9306SOL     OW28816   0.660   4.891   4.289
 9306SOL    HW128817   0.593   4.937   4.231
 9306SOL    HW228818   0.636   4.795   4.299
 9307SOL     OW28819   1.544   2.889   1.002
 9307SOL    HW128820   1.465   2.829   1.010
 9307SOL    HW228821   1.622   2.838   0.966
 9308SOL     OW28822   0.580   4.107   0.995
 9308SOL    HW128823   0.679   4.100   1.011
 9308SOL    HW228824   0.531   4.067   1.073
 9309SOL     OW28825   3.779   4.862   5.254
 9309SOL    HW128826   3.710   4.892   5.188
 9309SOL    HW228827   3.769   4.763   5.269
 9310SOL     OW28828   4.643   6.666   5.652
 9310SOL    HW128829   4.621   6.725   5.731
 9310SOL    HW228830   4.589   6.582   5.658
 9311SOL     OW28831   5.761   4.439   1.159
 9311SOL    HW128832   5.713   4.354   1.136
 9311SOL    HW228833   5.695   4.513   1.168
 9312SOL     OW28834   1.733   4.694   6.917
 9312SOL    HW128835   1.807   4.752   6.882
 9312SOL    HW228836   1.768   4.601   6.931
 9313SOL     OW28837   6.679   0.714   2.242
 9313SOL    HW128838   6.636   0.803   2.232
 9313SOL    HW228839   6.777   0.726   2.260
 9314SOL     OW28840   3.969   5.638   6.501
 9314SOL    HW128841   3.911   5.711   6.538
 9314SOL    HW228842   3.950   5.553   6.549
 9315SOL     OW28843   6.281   0.210   5.462
 9315SOL    HW128844   6.196   0.159   5.449
 9315SOL    HW228845   6.262   0.308   5.458
 9316SOL     OW28846   4.222   5.937   4.195
 9316SOL    HW128847   4.143   5.952   4.135
 9316SOL    HW228848   4.190   5.901   4.283
 9317SOL     OW28849   6.100   5.893   2.874
 9317SOL    HW128850   6.094   5.879   2.973
 9317SOL    HW228851   6.163   5.968   2.855
 9318SOL     OW28852   6.521   0.894   6.117
 9318SOL    HW128853   6.535   0.845   6.031
 9318SOL    HW228854   6.594   0.872   6.180
 9319SOL     OW28855   0.370   3.085   6.314
 9319SOL    HW128856   0.373   3.005   6.255
 9319SOL    HW228857   0.348   3.057   6.408
 9320SOL     OW28858   3.761   2.399   5.698
 9320SOL    HW128859   3.675   2.408   5.748
 9320SOL    HW228860   3.751   2.330   5.626
 9321SOL     OW28861   6.037   0.237   2.494
 9321SOL    HW128862   6.076   0.171   2.557
 9321SOL    HW228863   5.977   0.191   2.429
 9322SOL     OW28864   0.062   5.741   6.183
 9322SOL    HW128865   0.111   5.784   6.259
 9322SOL    HW228866   0.019   5.811   6.127
 9323SOL     OW28867   1.445   0.099   5.661
 9323SOL    HW128868   1.511   0.038   5.617
 9323SOL    HW228869   1.432   0.072   5.756
 9324SOL     OW28870   1.646   5.098   0.399
 9324SOL    HW128871   1.615   5.100   0.493
 9324SOL    HW228872   1.717   5.168   0.386
 9325SOL     OW28873   5.208   1.738   1.091
 9325SOL    HW128874   5.276   1.729   1.163
 9325SOL    HW228875   5.200   1.834   1.064
 9326SOL     OW28876   2.689   6.929   0.545
 9326SOL    HW128877   2.737   7.008   0.507
 9326SOL    HW228878   2.755   6.866   0.585
 9327SOL     OW28879   4.845   6.685   3.397
 9327SOL    HW128880   4.778   6.706   3.468
 9327SOL    HW228881   4.847   6.759   3.330
 9328SOL     OW28882   3.905   1.690   6.862
 9328SOL    HW128883   3.886   1.593   6.868
 9328SOL    HW228884   3.871   1.726   6.775
 9329SOL     OW28885   6.697   3.143   2.934
 9329SOL    HW128886   6.622   3.105   2.879
 9329SOL    HW228887   6.714   3.083   3.012
 9330SOL     OW28888   0.027   6.689   0.498
 9330SOL    HW128889   0.047   6.595   0.525
 9330SOL    HW228890   0.078   6.711   0.415
 9331SOL     OW28891   0.409   1.112   6.948
 9331SOL    HW128892   0.375   1.172   6.876
 9331SOL    HW228893   0.332   1.059   6.986
 9332SOL     OW28894   3.360   4.080   3.498
 9332SOL    HW128895   3.373   3.994   3.546
 9332SOL    HW228896   3.286   4.070   3.432
 9333SOL     OW28897   5.240   3.928   0.568
 9333SOL    HW128898   5.198   4.011   0.605
 9333SOL    HW228899   5.336   3.945   0.548
 9334SOL     OW28900   3.424   0.298   3.193
 9334SOL    HW128901   3.415   0.199   3.202
 9334SOL    HW228902   3.494   0.319   3.125
 9335SOL     OW28903   1.167   1.831   6.840
 9335SOL    HW128904   1.162   1.930   6.828
 9335SOL    HW228905   1.262   1.801   6.830
 9336SOL     OW28906   2.806   6.493   6.343
 9336SOL    HW128907   2.783   6.509   6.439
 9336SOL    HW228908   2.843   6.577   6.303
 9337SOL     OW28909   5.215   0.644   2.565
 9337SOL    HW128910   5.166   0.582   2.504
 9337SOL    HW228911   5.197   0.617   2.660
 9338SOL     OW28912   4.118   0.363   1.883
 9338SOL    HW128913   4.063   0.333   1.806
 9338SOL    HW228914   4.134   0.286   1.945
 9339SOL     OW28915   5.586   6.851   1.023
 9339SOL    HW128916   5.657   6.837   0.954
 9339SOL    HW228917   5.513   6.908   0.985
 9340SOL     OW28918   5.194   3.508   5.796
 9340SOL    HW128919   5.240   3.555   5.721
 9340SOL    HW228920   5.263   3.468   5.857
 9341SOL     OW28921   1.416   5.748   6.697
 9341SOL    HW128922   1.324   5.714   6.718
 9341SOL    HW228923   1.430   5.747   6.598
 9342SOL     OW28924   2.437   0.369   4.876
 9342SOL    HW128925   2.532   0.395   4.861
 9342SOL    HW228926   2.423   0.344   4.971
 9343SOL     OW28927   6.100   5.071   4.869
 9343SOL    HW128928   6.176   5.011   4.847
 9343SOL    HW228929   6.099   5.149   4.806
 9344SOL     OW28930   5.236   6.229   0.603
 9344SOL    HW128931   5.183   6.191   0.527
 9344SOL    HW228932   5.327   6.256   0.570
 9345SOL     OW28933   6.585   2.736   2.814
 9345SOL    HW128934   6.514   2.673   2.783
 9345SOL    HW228935   6.668   2.684   2.837
 9346SOL     OW28936   5.594   0.398   1.458
 9346SOL    HW128937   5.608   0.299   1.451
 9346SOL    HW228938   5.642   0.443   1.383
 9347SOL     OW28939   1.658   5.951   1.275
 9347SOL    HW128940   1.612   5.867   1.301
 9347SOL    HW228941   1.698   5.994   1.356
 9348SOL     OW28942   3.901   6.173   0.655
 9348SOL    HW128943   3.872   6.232   0.731
 9348SOL    HW228944   3.887   6.220   0.569
 9349SOL     OW28945   0.881   6.823   2.313
 9349SOL    HW128946   0.961   6.862   2.360
 9349SOL    HW228947   0.865   6.872   2.228
 9350SOL     OW28948   0.463   2.735   5.977
 9350SOL    HW128949   0.554   2.713   5.941
 9350SOL    HW228950   0.473   2.789   6.061
 9351SOL     OW28951   3.065   2.116   6.582
 9351SOL    HW128952   3.132   2.184   6.553
 9351SOL    HW228953   3.043   2.129   6.679
 9352SOL     OW28954   2.764   4.051   6.844
 9352SOL    HW128955   2.730   3.984   6.778
 9352SOL    HW228956   2.858   4.075   6.822
 9353SOL     OW28957   1.340   5.670   1.942
 9353SOL    HW128958   1.339   5.650   2.040
 9353SOL    HW228959   1.355   5.585   1.891
 9354SOL     OW28960   5.908   2.700   6.528
 9354SOL    HW128961   6.000   2.679   6.495
 9354SOL    HW228962   5.911   2.778   6.589
 9355SOL     OW28963   0.350   1.737   4.935
 9355SOL    HW128964   0.404   1.788   4.868
 9355SOL    HW228965   0.253   1.754   4.919
 9356SOL     OW28966   4.450   0.135   1.843
 9356SOL    HW128967   4.463   0.037   1.851
 9356SOL    HW228968   4.391   0.168   1.917
 9357SOL     OW28969   0.639   2.143   6.775
 9357SOL    HW128970   0.640   2.108   6.682
 9357SOL    HW228971   0.716   2.105   6.826
 9358SOL     OW28972   0.893   3.616   2.174
 9358SOL    HW128973   0.958   3.635   2.248
 9358SOL    HW228974   0.888   3.518   2.159
 9359SOL     OW28975   2.064   6.244   5.859
 9359SOL    HW128976   2.148   6.249   5.912
 9359SOL    HW228977   2.086   6.230   5.762
 9360SOL     OW28978   1.395   6.900   6.574
 9360SOL    HW128979   1.470   6.908   6.639
 9360SOL    HW228980   1.328   6.973   6.590
 9361SOL     OW28981   2.112   6.121   4.092
 9361SOL    HW128982   2.191   6.170   4.055
 9361SOL    HW228983   2.080   6.054   4.026
 9362SOL     OW28984   2.072   0.760   2.598
 9362SOL    HW128985   2.146   0.802   2.650
 9362SOL    HW228986   2.028   0.690   2.653
 9363SOL     OW28987   2.739   5.316   2.615
 9363SOL    HW128988   2.764   5.320   2.518
 9363SOL    HW228989   2.672   5.388   2.635
 9364SOL     OW28990   1.656   1.946   2.005
 9364SOL    HW128991   1.676   1.849   1.999
 9364SOL    HW228992   1.571   1.966   1.956
 9365SOL     OW28993   3.175   1.685   4.175
 9365SOL    HW128994   3.133   1.710   4.263
 9365SOL    HW228995   3.258   1.737   4.162
 9366SOL     OW28996   3.295   5.676   0.515
 9366SOL    HW128997   3.297   5.586   0.560
 9366SOL    HW228998   3.287   5.663   0.416
 9367SOL     OW28999   5.619   0.483   0.963
 9367SOL    HW129000   5.701   0.511   1.012
 9367SOL    HW229001   5.541   0.485   1.025
 9368SOL     OW29002   3.621   0.689   2.638
 9368SOL    HW129003   3.645   0.730   2.726
 9368SOL    HW229004   3.704   0.654   2.594
 9369SOL     OW29005   1.219   5.058   6.206
 9369SOL    HW129006   1.140   5.107   6.170
 9369SOL    HW229007   1.210   5.051   6.306
 9370SOL     OW29008   4.918   2.194   4.547
 9370SOL    HW129009   4.837   2.246   4.519
 9370SOL    HW229010   4.975   2.177   4.467
 9371SOL     OW29011   3.474   6.109   1.275
 9371SOL    HW129012   3.402   6.040   1.288
 9371SOL    HW229013   3.448   6.193   1.323
 9372SOL     OW29014   5.011   0.023   1.811
 9372SOL    HW129015   4.942   0.093   1.798
 9372SOL    HW229016   5.101   0.060   1.787
 9373SOL     OW29017   6.752   1.510   0.370
 9373SOL    HW129018   6.683   1.505   0.298
 9373SOL    HW229019   6.806   1.426   0.369
 9374SOL     OW29020   0.810   4.876   5.715
 9374SOL    HW129021   0.894   4.849   5.669
 9374SOL    HW229022   0.800   4.975   5.713
 9375SOL     OW29023   0.459   1.858   6.536
 9375SOL    HW129024   0.402   1.804   6.598
 9375SOL    HW229025   0.525   1.799   6.490
 9376SOL     OW29026   2.086   3.630   2.187
 9376SOL    HW129027   2.107   3.602   2.281
 9376SOL    HW229028   2.134   3.572   2.122
 9377SOL     OW29029   2.291   6.020   2.994
 9377SOL    HW129030   2.380   6.032   2.951
 9377SOL    HW229031   2.303   5.988   3.088
 9378SOL     OW29032   3.615   0.308   3.487
 9378SOL    HW129033   3.585   0.320   3.582
 9378SOL    HW229034   3.612   0.396   3.440
 9379SOL     OW29035   4.417   6.193   4.583
 9379SOL    HW129036   4.431   6.113   4.525
 9379SOL    HW229037   4.322   6.225   4.572
 9380SOL     OW29038   4.743   6.044   6.957
 9380SOL    HW129039   4.692   5.965   6.990
 9380SOL    HW229040   4.715   6.125   7.009
 9381SOL     OW29041   5.751   2.139   5.238
 9381SOL    HW129042   5.836   2.091   5.215
 9381SOL    HW229043   5.725   2.200   5.163
 9382SOL     OW29044   3.197   0.235   4.275
 9382SOL    HW129045   3.151   0.296   4.210
 9382SOL    HW229046   3.171   0.260   4.368
 9383SOL     OW29047   4.808   3.885   3.778
 9383SOL    HW129048   4.775   3.808   3.723
 9383SOL    HW229049   4.771   3.970   3.741
 9384SOL     OW29050   1.624   0.347   2.048
 9384SOL    HW129051   1.721   0.353   2.025
 9384SOL    HW229052   1.598   0.252   2.062
 9385SOL     OW29053   4.272   1.497   3.185
 9385SOL    HW129054   4.248   1.431   3.256
 9385SOL    HW229055   4.190   1.530   3.140
 9386SOL     OW29056   3.995   6.471   5.641
 9386SOL    HW129057   3.919   6.509   5.693
 9386SOL    HW229058   4.063   6.542   5.623
 9387SOL     OW29059   3.377   2.437   6.731
 9387SOL    HW129060   3.317   2.498   6.783
 9387SOL    HW229061   3.399   2.357   6.787
 9388SOL     OW29062   1.963   6.427   4.599
 9388SOL    HW129063   2.024   6.457   4.526
 9388SOL    HW229064   2.016   6.385   4.673
 9389SOL     OW29065   3.022   5.020   1.511
 9389SOL    HW129066   2.928   4.986   1.502
 9389SOL    HW229067   3.085   4.958   1.465
 9390SOL     OW29068   4.767   5.407   5.391
 9390SOL    HW129069   4.839   5.421   5.458
 9390SOL    HW229070   4.755   5.490   5.336
 9391SOL     OW29071   1.594   6.295   4.783
 9391SOL    HW129072   1.494   6.293   4.780
 9391SOL    HW229073   1.630   6.204   4.758
 9392SOL     OW29074   5.762   4.671   2.838
 9392SOL    HW129075   5.747   4.698   2.743
 9392SOL    HW229076   5.841   4.719   2.875
 9393SOL     OW29077   2.841   6.592   5.402
 9393SOL    HW129078   2.780   6.569   5.478
 9393SOL    HW229079   2.878   6.684   5.417
 9394SOL     OW29080   4.748   6.614   1.023
 9394SOL    HW129081   4.769   6.569   1.109
 9394SOL    HW229082   4.725   6.710   1.040
 9395SOL     OW29083   2.743   2.247   0.464
 9395SOL    HW129084   2.793   2.322   0.508
 9395SOL    HW229085   2.673   2.212   0.527
 9396SOL     OW29086   1.050   6.461   6.477
 9396SOL    HW129087   0.995   6.404   6.537
 9396SOL    HW229088   1.057   6.419   6.387
 9397SOL     OW29089   3.846   0.872   6.576
 9397SOL    HW129090   3.896   0.934   6.517
 9397SOL    HW229091   3.900   0.788   6.590
 9398SOL     OW29092   0.361   1.301   6.739
 9398SOL    HW129093   0.334   1.244   6.662
 9398SOL    HW229094   0.429   1.368   6.709
 9399SOL     OW29095   2.081   2.576   3.845
 9399SOL    HW129096   1.995   2.623   3.825
 9399SOL    HW229097   2.097   2.505   3.777
 9400SOL     OW29098   5.804   1.467   0.561
 9400SOL    HW129099   5.860   1.385   0.571
 9400SOL    HW229100   5.796   1.490   0.464
 9401SOL     OW29101   7.015   1.803   2.925
 9401SOL    HW129102   0.059   1.860   2.975
 9401SOL    HW229103   0.000   1.708   2.957
 9402SOL     OW29104   1.268   5.533   3.475
 9402SOL    HW129105   1.266   5.539   3.575
 9402SOL    HW229106   1.305   5.445   3.448
 9403SOL     OW29107   6.181   2.637   1.865
 9403SOL    HW129108   6.087   2.636   1.829
 9403SOL    HW229109   6.205   2.730   1.894
 9404SOL     OW29110   2.111   3.511   0.920
 9404SOL    HW129111   2.063   3.426   0.942
 9404SOL    HW229112   2.051   3.569   0.865
 9405SOL     OW29113   0.587   5.035   5.248
 9405SOL    HW129114   0.489   5.017   5.254
 9405SOL    HW229115   0.628   4.976   5.179
 9406SOL     OW29116   6.951   2.779   0.074
 9406SOL    HW129117   6.891   2.855   0.099
 9406SOL    HW229118   0.001   2.812   0.013
 9407SOL     OW29119   1.365   5.053   5.538
 9407SOL    HW129120   1.390   5.007   5.623
 9407SOL    HW229121   1.417   5.014   5.462
 9408SOL     OW29122   6.824   4.408   4.537
 9408SOL    HW129123   6.804   4.325   4.486
 9408SOL    HW229124   6.806   4.393   4.634
 9409SOL     OW29125   0.055   5.338   2.097
 9409SOL    HW129126   0.143   5.292   2.086
 9409SOL    HW229127   0.067   5.436   2.082
 9410SOL     OW29128   4.292   1.014   1.168
 9410SOL    HW129129   4.351   1.069   1.227
 9410SOL    HW229130   4.340   0.995   1.082
 9411SOL     OW29131   2.964   3.301   3.720
 9411SOL    HW129132   2.963   3.399   3.700
 9411SOL    HW229133   3.018   3.253   3.651
 9412SOL     OW29134   6.210   6.469   1.705
 9412SOL    HW129135   6.216   6.373   1.678
 9412SOL    HW229136   6.165   6.521   1.633
 9413SOL     OW29137   4.312   4.748   3.506
 9413SOL    HW129138   4.377   4.675   3.531
 9413SOL    HW229139   4.247   4.760   3.581
 9414SOL     OW29140   1.460   1.929   4.096
 9414SOL    HW129141   1.469   1.832   4.071
 9414SOL    HW229142   1.478   1.939   4.194
 9415SOL     OW29143   3.972   1.342   2.121
 9415SOL    HW129144   3.893   1.300   2.076
 9415SOL    HW229145   4.009   1.279   2.189
 9416SOL     OW29146   6.252   5.235   6.552
 9416SOL    HW129147   6.310   5.233   6.634
 9416SOL    HW229148   6.159   5.209   6.576
 9417SOL     OW29149   3.767   6.433   1.780
 9417SOL    HW129150   3.852   6.485   1.770
 9417SOL    HW229151   3.785   6.336   1.759
 9418SOL     OW29152   3.328   1.922   4.375
 9418SOL    HW129153   3.328   1.987   4.450
 9418SOL    HW229154   3.258   1.852   4.391
 9419SOL     OW29155   2.475   2.943   6.405
 9419SOL    HW129156   2.439   2.852   6.427
 9419SOL    HW229157   2.421   2.984   6.331
 9420SOL     OW29158   6.192   4.203   6.893
 9420SOL    HW129159   6.172   4.193   6.991
 9420SOL    HW229160   6.290   4.189   6.877
 9421SOL     OW29161   3.372   6.057   5.457
 9421SOL    HW129162   3.454   6.009   5.427
 9421SOL    HW229163   3.293   6.025   5.405
 9422SOL     OW29164   2.610   5.582   4.684
 9422SOL    HW129165   2.594   5.530   4.768
 9422SOL    HW229166   2.690   5.545   4.637
 9423SOL     OW29167   4.991   4.918   3.734
 9423SOL    HW129168   4.936   4.844   3.695
 9423SOL    HW229169   4.940   5.003   3.731
 9424SOL     OW29170   5.823   0.548   4.463
 9424SOL    HW129171   5.754   0.559   4.392
 9424SOL    HW229172   5.794   0.595   4.546
 9425SOL     OW29173   7.010   5.370   0.827
 9425SOL    HW129174   6.962   5.449   0.866
 9425SOL    HW229175   0.015   5.309   0.901
 9426SOL     OW29176   6.824   2.346   6.823
 9426SOL    HW129177   6.762   2.318   6.897
 9426SOL    HW229178   6.778   2.333   6.735
 9427SOL     OW29179   4.391   5.065   3.079
 9427SOL    HW129180   4.324   5.022   3.019
 9427SOL    HW229181   4.402   5.010   3.161
 9428SOL     OW29182   6.780   6.674   5.928
 9428SOL    HW129183   6.868   6.667   5.881
 9428SOL    HW229184   6.707   6.682   5.860
 9429SOL     OW29185   2.373   2.213   3.838
 9429SOL    HW129186   2.395   2.300   3.881
 9429SOL    HW229187   2.296   2.171   3.884
 9430SOL     OW29188   0.109   1.967   4.479
 9430SOL    HW129189   0.059   2.014   4.552
 9430SOL    HW229190   0.168   2.033   4.432
 9431SOL     OW29191   0.262   5.072   5.453
 9431SOL    HW129192   0.215   4.991   5.489
 9431SOL    HW229193   0.259   5.145   5.521
 9432SOL     OW29194   6.770   1.142   3.987
 9432SOL    HW129195   6.690   1.092   3.954
 9432SOL    HW229196   6.806   1.099   4.069
 9433SOL     OW29197   4.658   5.735   2.704
 9433SOL    HW129198   4.614   5.824   2.716
 9433SOL    HW229199   4.589   5.666   2.683
 9434SOL     OW29200   5.086   5.054   4.138
 9434SOL    HW129201   5.036   5.016   4.216
 9434SOL    HW229202   5.059   5.150   4.125
 9435SOL     OW29203   0.215   2.962   1.944
 9435SOL    HW129204   0.254   3.039   1.894
 9435SOL    HW229205   0.288   2.906   1.982
 9436SOL     OW29206   1.862   0.447   3.163
 9436SOL    HW129207   1.810   0.508   3.222
 9436SOL    HW229208   1.932   0.499   3.115
 9437SOL     OW29209   6.164   5.838   4.806
 9437SOL    HW129210   6.251   5.888   4.799
 9437SOL    HW229211   6.094   5.899   4.843
 9438SOL     OW29212   4.162   5.993   2.383
 9438SOL    HW129213   4.140   5.898   2.360
 9438SOL    HW229214   4.260   6.001   2.402
 9439SOL     OW29215   1.060   3.363   0.998
 9439SOL    HW129216   1.140   3.323   1.042
 9439SOL    HW229217   0.994   3.389   1.069
 9440SOL     OW29218   1.983   5.085   3.125
 9440SOL    HW129219   2.013   5.059   3.216
 9440SOL    HW229220   1.888   5.060   3.112
 9441SOL     OW29221   0.267   6.178   4.935
 9441SOL    HW129222   0.249   6.127   4.851
 9441SOL    HW229223   0.231   6.271   4.926
 9442SOL     OW29224   4.497   3.717   0.631
 9442SOL    HW129225   4.408   3.728   0.588
 9442SOL    HW229226   4.546   3.804   0.630
 9443SOL     OW29227   1.733   4.094   3.088
 9443SOL    HW129228   1.699   4.136   3.172
 9443SOL    HW229229   1.808   4.149   3.052
 9444SOL     OW29230   0.912   4.584   6.646
 9444SOL    HW129231   0.997   4.552   6.689
 9444SOL    HW229232   0.877   4.514   6.584
 9445SOL     OW29233   0.262   1.248   4.372
 9445SOL    HW129234   0.201   1.170   4.385
 9445SOL    HW229235   0.348   1.217   4.333
 9446SOL     OW29236   5.998   5.272   3.065
 9446SOL    HW129237   6.095   5.276   3.091
 9446SOL    HW229238   5.989   5.234   2.973
 9447SOL     OW29239   5.028   4.404   2.078
 9447SOL    HW129240   5.047   4.307   2.059
 9447SOL    HW229241   5.104   4.443   2.131
 9448SOL     OW29242   6.221   0.505   5.221
 9448SOL    HW129243   6.150   0.527   5.154
 9448SOL    HW229244   6.310   0.534   5.185
 9449SOL     OW29245   6.016   7.005   1.465
 9449SOL    HW129246   6.057   0.018   1.550
 9449SOL    HW229247   5.947   6.936   1.487
 9450SOL     OW29248   1.653   5.085   3.881
 9450SOL    HW129249   1.654   5.003   3.824
 9450SOL    HW229250   1.738   5.090   3.934
 9451SOL     OW29251   3.427   6.041   6.486
 9451SOL    HW129252   3.368   5.988   6.425
 9451SOL    HW229253   3.503   6.079   6.433
 9452SOL     OW29254   6.876   4.263   0.364
 9452SOL    HW129255   6.807   4.334   0.348
 9452SOL    HW229256   6.830   4.175   0.376
 9453SOL     OW29257   5.107   5.713   2.736
 9453SOL    HW129258   5.043   5.637   2.720
 9453SOL    HW229259   5.200   5.679   2.737
 9454SOL     OW29260   5.153   3.553   0.547
 9454SOL    HW129261   5.196   3.627   0.495
 9454SOL    HW229262   5.224   3.500   0.594
 9455SOL     OW29263   3.252   2.126   2.317
 9455SOL    HW129264   3.285   2.083   2.401
 9455SOL    HW229265   3.330   2.158   2.264
 9456SOL     OW29266   6.732   3.153   1.228
 9456SOL    HW129267   6.642   3.132   1.190
 9456SOL    HW229268   6.794   3.179   1.155
 9457SOL     OW29269   0.096   5.457   3.930
 9457SOL    HW129270   0.154   5.511   3.991
 9457SOL    HW229271   0.137   5.366   3.918
 9458SOL     OW29272   6.277   3.668   0.333
 9458SOL    HW129273   6.304   3.740   0.396
 9458SOL    HW229274   6.320   3.683   0.244
 9459SOL     OW29275   4.356   4.637   5.428
 9459SOL    HW129276   4.370   4.712   5.493
 9459SOL    HW229277   4.391   4.552   5.467
 9460SOL     OW29278   1.432   1.955   3.058
 9460SOL    HW129279   1.469   1.920   3.144
 9460SOL    HW229280   1.505   1.959   2.990
 9461SOL     OW29281   1.075   2.306   2.471
 9461SOL    HW129282   0.978   2.283   2.480
 9461SOL    HW229283   1.103   2.295   2.376
 9462SOL     OW29284   1.459   1.693   4.289
 9462SOL    HW129285   1.498   1.674   4.199
 9462SOL    HW229286   1.382   1.630   4.305
 9463SOL     OW29287   5.434   5.105   1.018
 9463SOL    HW129288   5.423   5.199   0.984
 9463SOL    HW229289   5.468   5.047   0.944
 9464SOL     OW29290   1.177   1.033   1.381
 9464SOL    HW129291   1.094   1.075   1.419
 9464SOL    HW229292   1.158   1.003   1.287
 9465SOL     OW29293   6.564   4.361   1.129
 9465SOL    HW129294   6.580   4.282   1.071
 9465SOL    HW229295   6.652   4.400   1.158
 9466SOL     OW29296   3.618   4.589   5.543
 9466SOL    HW129297   3.611   4.498   5.586
 9466SOL    HW229298   3.669   4.581   5.457
 9467SOL     OW29299   2.125   3.942   0.877
 9467SOL    HW129300   2.064   3.992   0.940
 9467SOL    HW229301   2.078   3.860   0.845
 9468SOL     OW29302   6.360   1.738   0.542
 9468SOL    HW129303   6.323   1.773   0.456
 9468SOL    HW229304   6.440   1.792   0.569
 9469SOL     OW29305   1.237   6.726   1.344
 9469SOL    HW129306   1.320   6.771   1.311
 9469SOL    HW229307   1.162   6.792   1.344
 9470SOL     OW29308   3.762   4.348   0.462
 9470SOL    HW129309   3.821   4.375   0.538
 9470SOL    HW229310   3.712   4.265   0.487
 9471SOL     OW29311   6.217   3.677   4.969
 9471SOL    HW129312   6.272   3.689   5.052
 9471SOL    HW229313   6.258   3.731   4.895
 9472SOL     OW29314   1.505   3.240   6.262
 9472SOL    HW129315   1.432   3.306   6.276
 9472SOL    HW229316   1.585   3.286   6.224
 9473SOL     OW29317   3.158   4.377   0.111
 9473SOL    HW129318   3.153   4.411   0.205
 9473SOL    HW229319   3.250   4.340   0.094
 9474SOL     OW29320   5.801   2.667   1.338
 9474SOL    HW129321   5.826   2.670   1.435
 9474SOL    HW229322   5.816   2.757   1.297
 9475SOL     OW29323   4.674   3.772   6.279
 9475SOL    HW129324   4.650   3.814   6.192
 9475SOL    HW229325   4.592   3.735   6.322
 9476SOL     OW29326   4.099   4.096   6.242
 9476SOL    HW129327   4.086   4.039   6.161
 9476SOL    HW229328   4.038   4.064   6.315
 9477SOL     OW29329   2.093   4.266   1.302
 9477SOL    HW129330   2.064   4.226   1.214
 9477SOL    HW229331   2.161   4.337   1.285
 9478SOL     OW29332   5.579   2.963   0.356
 9478SOL    HW129333   5.574   3.063   0.365
 9478SOL    HW229334   5.493   2.923   0.386
 9479SOL     OW29335   3.738   0.767   1.556
 9479SOL    HW129336   3.667   0.830   1.526
 9479SOL    HW229337   3.735   0.758   1.656
 9480SOL     OW29338   6.538   6.655   0.114
 9480SOL    HW129339   6.521   6.681   0.209
 9480SOL    HW229340   6.625   6.607   0.108
 9481SOL     OW29341   4.314   0.650   3.479
 9481SOL    HW129342   4.304   0.742   3.440
 9481SOL    HW229343   4.224   0.607   3.486
 9482SOL     OW29344   6.287   6.535   0.134
 9482SOL    HW129345   6.378   6.562   0.103
 9482SOL    HW229346   6.243   6.612   0.180
 9483SOL     OW29347   6.682   0.023   1.025
 9483SOL    HW129348   6.736   0.001   1.106
 9483SOL    HW229349   6.672   0.122   1.017
 9484SOL     OW29350   4.185   6.053   4.940
 9484SOL    HW129351   4.134   6.088   4.862
 9484SOL    HW229352   4.264   6.112   4.958
 9485SOL     OW29353   6.675   1.111   0.226
 9485SOL    HW129354   6.619   1.029   0.214
 9485SOL    HW229355   6.672   1.166   0.143
 9486SOL     OW29356   5.160   5.769   0.289
 9486SOL    HW129357   5.232   5.721   0.239
 9486SOL    HW229358   5.075   5.766   0.235
 9487SOL     OW29359   2.983   3.367   3.370
 9487SOL    HW129360   3.005   3.308   3.447
 9487SOL    HW229361   3.003   3.462   3.394
 9488SOL     OW29362   1.685   1.435   0.872
 9488SOL    HW129363   1.608   1.444   0.808
 9488SOL    HW229364   1.671   1.356   0.931
 9489SOL     OW29365   5.129   3.873   0.308
 9489SOL    HW129366   5.210   3.906   0.259
 9489SOL    HW229367   5.152   3.859   0.404
 9490SOL     OW29368   5.760   3.981   4.396
 9490SOL    HW129369   5.669   4.023   4.396
 9490SOL    HW229370   5.829   4.052   4.390
 9491SOL     OW29371   4.758   6.277   2.907
 9491SOL    HW129372   4.668   6.318   2.920
 9491SOL    HW229373   4.827   6.349   2.897
 9492SOL     OW29374   4.886   2.760   4.171
 9492SOL    HW129375   4.933   2.843   4.204
 9492SOL    HW229376   4.954   2.690   4.151
 9493SOL     OW29377   4.260   6.986   2.530
 9493SOL    HW129378   4.337   6.973   2.592
 9493SOL    HW229379   4.185   0.009   2.579
 9494SOL     OW29380   5.348   2.240   1.943
 9494SOL    HW129381   5.421   2.190   1.896
 9494SOL    HW229382   5.359   2.230   2.042
 9495SOL     OW29383   0.732   1.651   2.354
 9495SOL    HW129384   0.647   1.600   2.338
 9495SOL    HW229385   0.712   1.748   2.360
 9496SOL     OW29386   4.967   2.091   1.951
 9496SOL    HW129387   4.981   1.992   1.953
 9496SOL    HW229388   4.992   2.130   2.040
 9497SOL     OW29389   5.157   4.810   4.713
 9497SOL    HW129390   5.178   4.735   4.775
 9497SOL    HW229391   5.241   4.862   4.693
 9498SOL     OW29392   0.308   5.529   4.106
 9498SOL    HW129393   0.383   5.593   4.094
 9498SOL    HW229394   0.299   5.505   4.203
 9499SOL     OW29395   6.254   5.886   5.730
 9499SOL    HW129396   6.308   5.859   5.651
 9499SOL    HW229397   6.157   5.890   5.704
 9500SOL     OW29398   3.970   1.317   0.651
 9500SOL    HW129399   4.056   1.279   0.685
 9500SOL    HW229400   3.960   1.412   0.682
 9501SOL     OW29401   1.224   2.906   5.077
 9501SOL    HW129402   1.302   2.938   5.022
 9501SOL    HW229403   1.180   2.830   5.029
 9502SOL     OW29404   5.955   4.603   5.314
 9502SOL    HW129405   5.952   4.512   5.272
 9502SOL    HW229406   5.869   4.651   5.297
 9503SOL     OW29407   0.608   2.830   0.030
 9503SOL    HW129408   0.546   2.784   0.094
 9503SOL    HW229409   0.633   2.767   6.978
 9504SOL     OW29410   6.314   5.206   2.181
 9504SOL    HW129411   6.265   5.261   2.249
 9504SOL    HW229412   6.372   5.266   2.126
 9505SOL     OW29413   4.306   5.136   5.268
 9505SOL    HW129414   4.324   5.230   5.237
 9505SOL    HW229415   4.207   5.118   5.264
 9506SOL     OW29416   3.153   1.552   1.124
 9506SOL    HW129417   3.075   1.572   1.065
 9506SOL    HW229418   3.129   1.479   1.187
 9507SOL     OW29419   5.196   0.688   1.948
 9507SOL    HW129420   5.186   0.761   1.880
 9507SOL    HW229421   5.242   0.610   1.907
 9508SOL     OW29422   5.248   1.808   2.976
 9508SOL    HW129423   5.266   1.776   2.883
 9508SOL    HW229424   5.219   1.731   3.033
 9509SOL     OW29425   6.537   6.982   3.326
 9509SOL    HW129426   6.543   0.053   3.362
 9509SOL    HW229427   6.448   6.942   3.350
 9510SOL     OW29428   1.127   2.178   3.262
 9510SOL    HW129429   1.213   2.192   3.310
 9510SOL    HW229430   1.122   2.241   3.184
 9511SOL     OW29431   1.850   1.843   0.684
 9511SOL    HW129432   1.917   1.901   0.636
 9511SOL    HW229433   1.775   1.821   0.622
 9512SOL     OW29434   6.450   1.931   0.965
 9512SOL    HW129435   6.446   2.024   1.001
 9512SOL    HW229436   6.361   1.907   0.924
 9513SOL     OW29437   4.260   5.104   6.585
 9513SOL    HW129438   4.237   5.160   6.506
 9513SOL    HW229439   4.281   5.011   6.555
 9514SOL     OW29440   3.598   2.655   0.389
 9514SOL    HW129441   3.635   2.733   0.440
 9514SOL    HW229442   3.509   2.680   0.350
 9515SOL     OW29443   1.466   4.965   4.069
 9515SOL    HW129444   1.509   4.915   4.144
 9515SOL    HW229445   1.528   4.968   3.991
 9516SOL     OW29446   6.662   4.000   0.762
 9516SOL    HW129447   6.744   3.955   0.728
 9516SOL    HW229448   6.600   4.019   0.685
 9517SOL     OW29449   1.005   4.998   0.385
 9517SOL    HW129450   0.955   4.945   0.453
 9517SOL    HW229451   1.103   4.994   0.405
 9518SOL     OW29452   1.198   1.384   0.250
 9518SOL    HW129453   1.204   1.387   0.151
 9518SOL    HW229454   1.104   1.402   0.279
 9519SOL     OW29455   1.186   2.664   4.943
 9519SOL    HW129456   1.275   2.654   4.897
 9519SOL    HW229457   1.120   2.704   4.879
 9520SOL     OW29458   3.493   6.654   1.815
 9520SOL    HW129459   3.552   6.600   1.876
 9520SOL    HW229460   3.423   6.594   1.775
 9521SOL     OW29461   5.396   5.549   4.262
 9521SOL    HW129462   5.490   5.571   4.287
 9521SOL    HW229463   5.368   5.465   4.309
 9522SOL     OW29464   3.393   5.855   1.029
 9522SOL    HW129465   3.464   5.786   1.015
 9522SOL    HW229466   3.421   5.941   0.988
 9523SOL     OW29467   3.719   5.585   4.403
 9523SOL    HW129468   3.700   5.528   4.323
 9523SOL    HW229469   3.777   5.663   4.376
 9524SOL     OW29470   4.141   3.094   1.007
 9524SOL    HW129471   4.140   3.086   0.907
 9524SOL    HW229472   4.209   3.031   1.045
 9525SOL     OW29473   3.479   1.129   6.529
 9525SOL    HW129474   3.475   1.035   6.495
 9525SOL    HW229475   3.554   1.137   6.594
 9526SOL     OW29476   5.764   5.483   2.151
 9526SOL    HW129477   5.693   5.544   2.117
 9526SOL    HW229478   5.825   5.457   2.076
 9527SOL     OW29479   6.950   2.169   1.726
 9527SOL    HW129480   6.975   2.090   1.782
 9527SOL    HW229481   6.884   2.142   1.657
 9528SOL     OW29482   6.830   1.086   2.302
 9528SOL    HW129483   6.900   1.016   2.314
 9528SOL    HW229484   6.874   1.173   2.276
 9529SOL     OW29485   0.970   3.791   5.694
 9529SOL    HW129486   1.055   3.742   5.710
 9529SOL    HW229487   0.919   3.748   5.619
 9530SOL     OW29488   1.197   2.449   3.626
 9530SOL    HW129489   1.265   2.381   3.652
 9530SOL    HW229490   1.191   2.455   3.526
 9531SOL     OW29491   3.493   6.537   2.506
 9531SOL    HW129492   3.401   6.571   2.485
 9531SOL    HW229493   3.561   6.603   2.473
 9532SOL     OW29494   2.022   0.606   2.048
 9532SOL    HW129495   2.032   0.638   2.143
 9532SOL    HW229496   1.983   0.680   1.993
 9533SOL     OW29497   1.998   0.921   5.072
 9533SOL    HW129498   1.990   1.004   5.016
 9533SOL    HW229499   1.940   0.849   5.033
 9534SOL     OW29500   4.853   2.540   4.785
 9534SOL    HW129501   4.786   2.587   4.728
 9534SOL    HW229502   4.925   2.604   4.811
 9535SOL     OW29503   2.047   1.442   5.726
 9535SOL    HW129504   2.017   1.361   5.776
 9535SOL    HW229505   1.967   1.498   5.702
 9536SOL     OW29506   1.915   6.628   5.655
 9536SOL    HW129507   1.838   6.594   5.709
 9536SOL    HW229508   1.943   6.559   5.589
 9537SOL     OW29509   2.764   6.670   0.974
 9537SOL    HW129510   2.786   6.719   1.059
 9537SOL    HW229511   2.848   6.644   0.927
 9538SOL     OW29512   6.703   3.025   3.771
 9538SOL    HW129513   6.737   2.933   3.753
 9538SOL    HW229514   6.636   3.051   3.702
 9539SOL     OW29515   0.735   5.856   1.021
 9539SOL    HW129516   0.641   5.841   1.053
 9539SOL    HW229517   0.734   5.915   0.941
 9540SOL     OW29518   4.884   4.509   4.953
 9540SOL    HW129519   4.879   4.601   4.992
 9540SOL    HW229520   4.811   4.497   4.886
 9541SOL     OW29521   2.096   2.370   3.655
 9541SOL    HW129522   2.176   2.408   3.607
 9541SOL    HW229523   2.015   2.385   3.599
 9542SOL     OW29524   5.043   3.559   4.378
 9542SOL    HW129525   5.002   3.509   4.301
 9542SOL    HW229526   5.142   3.564   4.366
 9543SOL     OW29527   5.366   2.309   2.616
 9543SOL    HW129528   5.296   2.296   2.546
 9543SOL    HW229529   5.345   2.391   2.670
 9544SOL     OW29530   3.576   1.553   2.034
 9544SOL    HW129531   3.583   1.594   2.125
 9544SOL    HW229532   3.627   1.609   1.968
 9545SOL     OW29533   6.902   0.161   4.394
 9545SOL    HW129534   6.857   0.084   4.348
 9545SOL    HW229535   6.943   0.128   4.479
 9546SOL     OW29536   3.182   5.049   0.708
 9546SOL    HW129537   3.138   5.128   0.751
 9546SOL    HW229538   3.112   4.990   0.668
 9547SOL     OW29539   0.001   6.082   3.677
 9547SOL    HW129540   0.048   6.060   3.762
 9547SOL    HW229541   0.009   6.180   3.659
 9548SOL     OW29542   4.595   6.223   2.517
 9548SOL    HW129543   4.536   6.252   2.593
 9548SOL    HW229544   4.542   6.219   2.433
 9549SOL     OW29545   2.604   5.881   0.654
 9549SOL    HW129546   2.529   5.834   0.702
 9549SOL    HW229547   2.598   5.862   0.556
 9550SOL     OW29548   0.894   1.841   0.564
 9550SOL    HW129549   0.977   1.865   0.613
 9550SOL    HW229550   0.911   1.845   0.466
 9551SOL     OW29551   2.036   6.353   4.905
 9551SOL    HW129552   1.938   6.360   4.889
 9551SOL    HW229553   2.054   6.287   4.978
 9552SOL     OW29554   1.308   5.189   3.224
 9552SOL    HW129555   1.347   5.229   3.307
 9552SOL    HW229556   1.217   5.152   3.244
 9553SOL     OW29557   5.867   4.239   4.902
 9553SOL    HW129558   5.849   4.141   4.893
 9553SOL    HW229559   5.856   4.267   4.997
 9554SOL     OW29560   2.185   1.634   2.026
 9554SOL    HW129561   2.202   1.732   2.024
 9554SOL    HW229562   2.152   1.607   2.117
 9555SOL     OW29563   6.691   2.622   0.004
 9555SOL    HW129564   6.752   2.700   7.019
 9555SOL    HW229565   6.745   2.539   0.018
 9556SOL     OW29566   1.825   1.797   1.727
 9556SOL    HW129567   1.910   1.756   1.759
 9556SOL    HW229568   1.754   1.785   1.797
 9557SOL     OW29569   5.478   1.787   1.807
 9557SOL    HW129570   5.422   1.764   1.728
 9557SOL    HW229571   5.566   1.823   1.777
 9558SOL     OW29572   6.497   5.272   2.480
 9558SOL    HW129573   6.553   5.327   2.542
 9558SOL    HW229574   6.432   5.332   2.433
 9559SOL     OW29575   6.813   2.864   2.617
 9559SOL    HW129576   6.788   2.914   2.534
 9559SOL    HW229577   6.732   2.855   2.675
 9560SOL     OW29578   3.029   1.339   4.151
 9560SOL    HW129579   2.937   1.302   4.159
 9560SOL    HW229580   3.032   1.406   4.077
 9561SOL     OW29581   3.789   6.980   0.954
 9561SOL    HW129582   3.877   6.968   0.999
 9561SOL    HW229583   3.734   6.897   0.964
 9562SOL     OW29584   6.110   5.871   3.144
 9562SOL    HW129585   6.193   5.907   3.188
 9562SOL    HW229586   6.057   5.819   3.211
 9563SOL     OW29587   6.718   5.741   6.707
 9563SOL    HW129588   6.677   5.829   6.681
 9563SOL    HW229589   6.766   5.702   6.629
 9564SOL     OW29590   2.454   0.143   6.723
 9564SOL    HW129591   2.478   0.239   6.705
 9564SOL    HW229592   2.490   0.085   6.650
 9565SOL     OW29593   3.992   6.002   4.036
 9565SOL    HW129594   3.939   6.055   4.102
 9565SOL    HW229595   3.943   6.000   3.949
 9566SOL     OW29596   3.071   4.814   5.089
 9566SOL    HW129597   2.995   4.758   5.057
 9566SOL    HW229598   3.130   4.760   5.148
 9567SOL     OW29599   6.080   5.460   5.855
 9567SOL    HW129600   6.054   5.533   5.918
 9567SOL    HW229601   6.027   5.469   5.771
 9568SOL     OW29602   4.921   3.973   6.638
 9568SOL    HW129603   4.910   3.877   6.615
 9568SOL    HW229604   4.895   4.030   6.560
 9569SOL     OW29605   6.213   0.694   0.898
 9569SOL    HW129606   6.229   0.602   0.935
 9569SOL    HW229607   6.264   0.761   0.952
 9570SOL     OW29608   0.304   0.342   0.022
 9570SOL    HW129609   0.232   0.289   0.067
 9570SOL    HW229610   0.375   0.281   7.009
 9571SOL     OW29611   2.441   4.142   0.527
 9571SOL    HW129612   2.442   4.187   0.438
 9571SOL    HW229613   2.435   4.043   0.515
 9572SOL     OW29614   1.414   4.646   0.950
 9572SOL    HW129615   1.318   4.660   0.973
 9572SOL    HW229616   1.445   4.560   0.990
 9573SOL     OW29617   0.420   2.331   1.390
 9573SOL    HW129618   0.509   2.295   1.361
 9573SOL    HW229619   0.388   2.398   1.323
 9574SOL     OW29620   2.246   1.819   5.555
 9574SOL    HW129621   2.298   1.904   5.567
 9574SOL    HW229622   2.149   1.837   5.569
 9575SOL     OW29623   5.138   0.835   1.729
 9575SOL    HW129624   5.048   0.799   1.704
 9575SOL    HW229625   5.203   0.817   1.655
 9576SOL     OW29626   3.458   2.053   5.619
 9576SOL    HW129627   3.412   1.964   5.618
 9576SOL    HW229628   3.390   2.126   5.616
 9577SOL     OW29629   0.502   6.036   3.002
 9577SOL    HW129630   0.475   6.098   3.076
 9577SOL    HW229631   0.528   5.948   3.041
 9578SOL     OW29632   5.599   3.729   2.019
 9578SOL    HW129633   5.537   3.654   1.995
 9578SOL    HW229634   5.546   3.807   2.053
 9579SOL     OW29635   0.954   6.582   2.926
 9579SOL    HW129636   0.893   6.609   2.852
 9579SOL    HW229637   1.027   6.524   2.890
 9580SOL     OW29638   4.219   3.825   6.232
 9580SOL    HW129639   4.286   3.876   6.179
 9580SOL    HW229640   4.226   3.849   6.328
 9581SOL     OW29641   1.439   4.793   6.391
 9581SOL    HW129642   1.514   4.766   6.331
 9581SOL    HW229643   1.379   4.714   6.406
 9582SOL     OW29644   4.174   5.616   4.667
 9582SOL    HW129645   4.161   5.599   4.569
 9582SOL    HW229646   4.104   5.680   4.699
 9583SOL     OW29647   2.394   4.359   1.938
 9583SOL    HW129648   2.331   4.404   1.874
 9583SOL    HW229649   2.443   4.429   1.991
 9584SOL     OW29650   6.065   5.616   6.654
 9584SOL    HW129651   6.004   5.689   6.685
 9584SOL    HW229652   6.157   5.653   6.643
 9585SOL     OW29653   6.514   0.155   4.430
 9585SOL    HW129654   6.557   0.136   4.342
 9585SOL    HW229655   6.521   0.074   4.489
 9586SOL     OW29656   5.388   3.707   3.332
 9586SOL    HW129657   5.446   3.628   3.309
 9586SOL    HW229658   5.349   3.694   3.422
 9587SOL     OW29659   5.282   6.451   2.208
 9587SOL    HW129660   5.210   6.484   2.270
 9587SOL    HW229661   5.239   6.407   2.129
 9588SOL     OW29662   6.862   0.569   2.562
 9588SOL    HW129663   6.779   0.539   2.513
 9588SOL    HW229664   6.932   0.499   2.553
 9589SOL     OW29665   2.214   1.173   6.275
 9589SOL    HW129666   2.188   1.266   6.302
 9589SOL    HW229667   2.247   1.123   6.355
 9590SOL     OW29668   6.972   4.513   5.004
 9590SOL    HW129669   7.008   4.604   5.026
 9590SOL    HW229670   0.006   4.443   5.048
 9591SOL     OW29671   1.556   4.627   2.149
 9591SOL    HW129672   1.556   4.679   2.234
 9591SOL    HW229673   1.585   4.533   2.166
 9592SOL     OW29674   5.254   5.184   2.086
 9592SOL    HW129675   5.243   5.181   2.185
 9592SOL    HW229676   5.349   5.203   2.064
 9593SOL     OW29677   1.312   2.704   4.389
 9593SOL    HW129678   1.225   2.659   4.369
 9593SOL    HW229679   1.357   2.730   4.304
 9594SOL     OW29680   6.157   6.723   2.072
 9594SOL    HW129681   6.195   6.653   2.132
 9594SOL    HW229682   6.067   6.751   2.107
 9595SOL     OW29683   0.737   4.191   4.300
 9595SOL    HW129684   0.680   4.239   4.234
 9595SOL    HW229685   0.739   4.242   4.386
 9596SOL     OW29686   4.652   5.596   3.545
 9596SOL    HW129687   4.604   5.517   3.583
 9596SOL    HW229688   4.734   5.565   3.498
 9597SOL     OW29689   1.973   3.993   1.407
 9597SOL    HW129690   2.023   3.916   1.446
 9597SOL    HW229691   2.012   4.018   1.319
 9598SOL     OW29692   6.989   5.251   5.931
 9598SOL    HW129693   6.938   5.271   6.015
 9598SOL    HW229694   0.064   5.274   5.944
 9599SOL     OW29695   5.451   2.093   4.653
 9599SOL    HW129696   5.548   2.084   4.629
 9599SOL    HW229697   5.398   2.109   4.570
 9600SOL     OW29698   1.546   6.274   0.056
 9600SOL    HW129699   1.562   6.340   0.130
 9600SOL    HW229700   1.483   6.313   7.011
 9601SOL     OW29701   0.823   5.477   5.926
 9601SOL    HW129702   0.922   5.491   5.934
 9601SOL    HW229703   0.787   5.532   5.851
 9602SOL     OW29704   1.620   5.656   0.638
 9602SOL    HW129705   1.553   5.655   0.713
 9602SOL    HW229706   1.705   5.698   0.670
 9603SOL     OW29707   1.394   4.958   4.343
 9603SOL    HW129708   1.305   4.936   4.384
 9603SOL    HW229709   1.462   4.892   4.374
 9604SOL     OW29710   6.830   0.192   0.753
 9604SOL    HW129711   6.911   0.167   0.806
 9604SOL    HW229712   6.849   0.275   0.700
 9605SOL     OW29713   2.171   5.767   6.788
 9605SOL    HW129714   2.269   5.747   6.784
 9605SOL    HW229715   2.150   5.841   6.725
 9606SOL     OW29716   6.625   6.774   4.457
 9606SOL    HW129717   6.668   6.804   4.542
 9606SOL    HW229718   6.528   6.796   4.459
 9607SOL     OW29719   0.272   2.981   1.592
 9607SOL    HW129720   0.204   2.908   1.598
 9607SOL    HW229721   0.364   2.941   1.590
 9608SOL     OW29722   0.183   6.294   3.210
 9608SOL    HW129723   0.183   6.340   3.121
 9608SOL    HW229724   0.170   6.361   3.283
 9609SOL     OW29725   1.912   2.442   3.474
 9609SOL    HW129726   1.902   2.471   3.378
 9609SOL    HW229727   1.834   2.386   3.500
 9610SOL     OW29728   2.841   2.089   6.244
 9610SOL    HW129729   2.766   2.139   6.288
 9610SOL    HW229730   2.921   2.149   6.236
 9611SOL     OW29731   6.185   6.183   0.953
 9611SOL    HW129732   6.112   6.122   0.921
 9611SOL    HW229733   6.188   6.181   1.053
 9612SOL     OW29734   5.556   3.465   2.608
 9612SOL    HW129735   5.537   3.376   2.566
 9612SOL    HW229736   5.525   3.538   2.547
 9613SOL     OW29737   5.465   6.394   5.832
 9613SOL    HW129738   5.554   6.380   5.787
 9613SOL    HW229739   5.394   6.345   5.781
 9614SOL     OW29740   2.925   3.385   2.240
 9614SOL    HW129741   2.919   3.477   2.280
 9614SOL    HW229742   2.954   3.393   2.144
 9615SOL     OW29743   1.008   6.210   4.076
 9615SOL    HW129744   1.015   6.221   4.175
 9615SOL    HW229745   1.091   6.246   4.033
 9616SOL     OW29746   2.735   3.377   1.535
 9616SOL    HW129747   2.754   3.424   1.448
 9616SOL    HW229748   2.821   3.356   1.581
 9617SOL     OW29749   0.900   3.487   2.975
 9617SOL    HW129750   0.870   3.458   2.884
 9617SOL    HW229751   0.952   3.413   3.018
 9618SOL     OW29752   3.742   5.615   0.413
 9618SOL    HW129753   3.829   5.583   0.450
 9618SOL    HW229754   3.690   5.662   0.485
 9619SOL     OW29755   1.593   6.948   1.093
 9619SOL    HW129756   1.593   6.895   1.178
 9619SOL    HW229757   1.661   6.910   1.030
 9620SOL     OW29758   3.897   1.796   0.101
 9620SOL    HW129759   3.928   1.720   0.045
 9620SOL    HW229760   3.803   1.779   0.133
 9621SOL     OW29761   0.802   2.044   1.716
 9621SOL    HW129762   0.731   2.114   1.730
 9621SOL    HW229763   0.859   2.038   1.798
 9622SOL     OW29764   6.721   6.810   6.150
 9622SOL    HW129765   6.755   6.754   6.075
 9622SOL    HW229766   6.698   6.902   6.115
 9623SOL     OW29767   4.535   6.525   6.349
 9623SOL    HW129768   4.575   6.593   6.288
 9623SOL    HW229769   4.557   6.548   6.444
 9624SOL     OW29770   4.937   5.225   5.137
 9624SOL    HW129771   4.907   5.293   5.070
 9624SOL    HW229772   4.934   5.264   5.229
 9625SOL     OW29773   4.789   3.498   5.642
 9625SOL    HW129774   4.716   3.522   5.705
 9625SOL    HW229775   4.817   3.404   5.658
 9626SOL     OW29776   2.263   2.322   5.932
 9626SOL    HW129777   2.355   2.287   5.915
 9626SOL    HW229778   2.269   2.406   5.985
 9627SOL     OW29779   0.520   5.164   6.509
 9627SOL    HW129780   0.511   5.105   6.589
 9627SOL    HW229781   0.565   5.115   6.435
 9628SOL     OW29782   6.182   1.500   6.585
 9628SOL    HW129783   6.277   1.471   6.578
 9628SOL    HW229784   6.131   1.464   6.507
 9629SOL     OW29785   0.288   6.156   4.500
 9629SOL    HW129786   0.251   6.106   4.579
 9629SOL    HW229787   0.383   6.182   4.519
 9630SOL     OW29788   5.986   6.917   6.223
 9630SOL    HW129789   5.916   6.955   6.283
 9630SOL    HW229790   5.974   6.954   6.131
 9631SOL     OW29791   3.330   0.697   0.647
 9631SOL    HW129792   3.310   0.606   0.610
 9631SOL    HW229793   3.420   0.697   0.690
 9632SOL     OW29794   3.125   5.400   2.387
 9632SOL    HW129795   3.080   5.447   2.463
 9632SOL    HW229796   3.147   5.466   2.315
 9633SOL     OW29797   3.313   2.926   3.176
 9633SOL    HW129798   3.255   2.936   3.096
 9633SOL    HW229799   3.397   2.877   3.152
 9634SOL     OW29800   5.676   5.225   3.261
 9634SOL    HW129801   5.764   5.186   3.288
 9634SOL    HW229802   5.616   5.230   3.340
 9635SOL     OW29803   0.848   5.404   4.390
 9635SOL    HW129804   0.847   5.419   4.489
 9635SOL    HW229805   0.797   5.477   4.345
 9636SOL     OW29806   5.070   3.404   4.054
 9636SOL    HW129807   5.022   3.372   4.135
 9636SOL    HW229808   5.044   3.349   3.975
 9637SOL     OW29809   2.291   3.021   0.109
 9637SOL    HW129810   2.322   3.050   0.018
 9637SOL    HW229811   2.279   2.922   0.111
 9638SOL     OW29812   6.469   5.386   5.005
 9638SOL    HW129813   6.509   5.368   5.095
 9638SOL    HW229814   6.403   5.461   5.011
 9639SOL     OW29815   3.935   1.612   2.062
 9639SOL    HW129816   3.916   1.658   2.149
 9639SOL    HW229817   3.950   1.515   2.078
 9640SOL     OW29818   4.923   0.219   2.893
 9640SOL    HW129819   4.904   0.231   2.991
 9640SOL    HW229820   4.840   0.237   2.841
 9641SOL     OW29821   6.448   3.827   2.927
 9641SOL    HW129822   6.375   3.876   2.972
 9641SOL    HW229823   6.421   3.804   2.833
 9642SOL     OW29824   1.149   0.852   4.449
 9642SOL    HW129825   1.139   0.852   4.548
 9642SOL    HW229826   1.237   0.893   4.425
 9643SOL     OW29827   4.716   4.752   4.507
 9643SOL    HW129828   4.678   4.687   4.443
 9643SOL    HW229829   4.816   4.752   4.500
 9644SOL     OW29830   1.542   5.173   4.362
 9644SOL    HW129831   1.547   5.204   4.267
 9644SOL    HW229832   1.496   5.085   4.366
 9645SOL     OW29833   0.386   5.004   5.872
 9645SOL    HW129834   0.365   5.036   5.965
 9645SOL    HW229835   0.431   5.076   5.821
 9646SOL     OW29836   3.257   5.512   5.889
 9646SOL    HW129837   3.230   5.457   5.810
 9646SOL    HW229838   3.348   5.551   5.872
 9647SOL     OW29839   6.571   6.925   3.725
 9647SOL    HW129840   6.533   6.859   3.660
 9647SOL    HW229841   6.541   6.903   3.817
 9648SOL     OW29842   3.828   1.892   1.010
 9648SOL    HW129843   3.908   1.951   0.997
 9648SOL    HW229844   3.785   1.914   1.098
 9649SOL     OW29845   0.992   5.885   6.798
 9649SOL    HW129846   0.951   5.877   6.707
 9649SOL    HW229847   1.038   5.974   6.806
 9650SOL     OW29848   6.622   4.826   4.351
 9650SOL    HW129849   6.646   4.825   4.448
 9650SOL    HW229850   6.699   4.794   4.297
 9651SOL     OW29851   4.450   1.648   0.334
 9651SOL    HW129852   4.420   1.713   0.404
 9651SOL    HW229853   4.402   1.561   0.347
 9652SOL     OW29854   6.854   3.528   0.451
 9652SOL    HW129855   6.879   3.624   0.462
 9652SOL    HW229856   6.824   3.511   0.357
 9653SOL     OW29857   4.132   4.832   6.312
 9653SOL    HW129858   4.155   4.860   6.219
 9653SOL    HW229859   4.214   4.836   6.369
 9654SOL     OW29860   3.503   3.442   2.841
 9654SOL    HW129861   3.489   3.540   2.848
 9654SOL    HW229862   3.599   3.423   2.824
 9655SOL     OW29863   4.032   1.375   1.284
 9655SOL    HW129864   3.965   1.369   1.358
 9655SOL    HW229865   4.123   1.353   1.319
 9656SOL     OW29866   6.021   3.837   0.428
 9656SOL    HW129867   5.945   3.888   0.389
 9656SOL    HW229868   6.071   3.790   0.356
 9657SOL     OW29869   6.023   4.315   3.766
 9657SOL    HW129870   6.020   4.401   3.816
 9657SOL    HW229871   5.931   4.292   3.734
 9658SOL     OW29872   4.656   2.246   3.279
 9658SOL    HW129873   4.674   2.338   3.314
 9658SOL    HW229874   4.716   2.180   3.326
 9659SOL     OW29875   2.478   3.581   0.731
 9659SOL    HW129876   2.558   3.635   0.706
 9659SOL    HW229877   2.454   3.519   0.656
 9660SOL     OW29878   1.477   6.063   1.552
 9660SOL    HW129879   1.418   6.042   1.630
 9660SOL    HW229880   1.474   6.161   1.534
 9661SOL     OW29881   4.800   4.724   1.053
 9661SOL    HW129882   4.871   4.740   1.122
 9661SOL    HW229883   4.711   4.745   1.092
 9662SOL     OW29884   5.585   5.412   5.723
 9662SOL    HW129885   5.598   5.377   5.816
 9662SOL    HW229886   5.656   5.478   5.702
 9663SOL     OW29887   0.986   5.367   3.077
 9663SOL    HW129888   0.982   5.315   3.162
 9663SOL    HW229889   1.034   5.453   3.093
 9664SOL     OW29890   4.712   4.148   2.657
 9664SOL    HW129891   4.723   4.064   2.602
 9664SOL    HW229892   4.665   4.217   2.602
 9665SOL     OW29893   6.192   5.974   6.804
 9665SOL    HW129894   6.203   5.925   6.717
 9665SOL    HW229895   6.150   5.913   6.872
 9666SOL     OW29896   5.923   3.464   0.735
 9666SOL    HW129897   6.012   3.431   0.703
 9666SOL    HW229898   5.869   3.387   0.768
 9667SOL     OW29899   6.166   5.967   6.475
 9667SOL    HW129900   6.197   5.883   6.518
 9667SOL    HW229901   6.088   6.004   6.526
 9668SOL     OW29902   0.134   0.414   6.016
 9668SOL    HW129903   0.108   0.319   5.999
 9668SOL    HW229904   0.068   0.456   6.078
 9669SOL     OW29905   3.888   0.653   0.286
 9669SOL    HW129906   3.833   0.571   0.268
 9669SOL    HW229907   3.923   0.649   0.379
 9670SOL     OW29908   0.079   6.952   6.736
 9670SOL    HW129909   0.081   6.968   6.835
 9670SOL    HW229910   0.096   6.855   6.718
 9671SOL     OW29911   0.874   5.514   6.551
 9671SOL    HW129912   0.777   5.491   6.549
 9671SOL    HW229913   0.923   5.448   6.607
 9672SOL     OW29914   1.130   3.426   4.007
 9672SOL    HW129915   1.204   3.360   4.008
 9672SOL    HW229916   1.067   3.407   4.082
 9673SOL     OW29917   1.970   4.162   0.563
 9673SOL    HW129918   2.056   4.112   0.566
 9673SOL    HW229919   1.984   4.250   0.517
 9674SOL     OW29920   2.284   5.838   3.955
 9674SOL    HW129921   2.275   5.814   4.052
 9674SOL    HW229922   2.342   5.771   3.909
 9675SOL     OW29923   5.136   2.998   0.653
 9675SOL    HW129924   5.119   3.089   0.617
 9675SOL    HW229925   5.165   3.005   0.749
 9676SOL     OW29926   0.358   2.952   6.932
 9676SOL    HW129927   0.358   3.014   6.853
 9676SOL    HW229928   0.434   2.888   6.923
 9677SOL     OW29929   0.133   5.203   1.040
 9677SOL    HW129930   0.067   5.193   1.115
 9677SOL    HW229931   0.213   5.147   1.059
 9678SOL     OW29932   3.536   3.654   5.157
 9678SOL    HW129933   3.578   3.583   5.100
 9678SOL    HW229934   3.448   3.622   5.191
 9679SOL     OW29935   2.018   1.857   4.696
 9679SOL    HW129936   2.083   1.818   4.631
 9679SOL    HW229937   1.936   1.886   4.647
 9680SOL     OW29938   5.040   6.121   1.826
 9680SOL    HW129939   5.098   6.125   1.907
 9680SOL    HW229940   4.997   6.210   1.811
 9681SOL     OW29941   1.435   1.554   1.907
 9681SOL    HW129942   1.338   1.539   1.925
 9681SOL    HW229943   1.467   1.492   1.836
 9682SOL     OW29944   4.618   5.721   5.604
 9682SOL    HW129945   4.584   5.688   5.692
 9682SOL    HW229946   4.562   5.685   5.530
 9683SOL     OW29947   3.406   6.415   2.142
 9683SOL    HW129948   3.453   6.334   2.178
 9683SOL    HW229949   3.464   6.459   2.073
 9684SOL     OW29950   0.216   3.285   5.894
 9684SOL    HW129951   0.201   3.303   5.991
 9684SOL    HW229952   0.299   3.332   5.863
 9685SOL     OW29953   3.991   4.055   1.705
 9685SOL    HW129954   3.918   4.113   1.741
 9685SOL    HW229955   3.961   4.016   1.617
 9686SOL     OW29956   6.581   2.199   5.551
 9686SOL    HW129957   6.572   2.288   5.595
 9686SOL    HW229958   6.578   2.127   5.621
 9687SOL     OW29959   5.736   1.309   2.737
 9687SOL    HW129960   5.733   1.209   2.728
 9687SOL    HW229961   5.701   1.336   2.827
 9688SOL     OW29962   0.358   5.084   1.172
 9688SOL    HW129963   0.439   5.045   1.216
 9688SOL    HW229964   0.338   5.173   1.213
 9689SOL     OW29965   1.840   5.963   1.078
 9689SOL    HW129966   1.768   5.952   1.146
 9689SOL    HW229967   1.887   6.050   1.092
 9690SOL     OW29968   6.401   5.398   4.600
 9690SOL    HW129969   6.390   5.337   4.522
 9690SOL    HW229970   6.488   5.379   4.645
 9691SOL     OW29971   3.110   4.101   1.962
 9691SOL    HW129972   3.063   4.161   2.027
 9691SOL    HW229973   3.069   4.113   1.872
 9692SOL     OW29974   5.498   4.931   1.358
 9692SOL    HW129975   5.576   4.886   1.315
 9692SOL    HW229976   5.495   5.026   1.329
 9693SOL     OW29977   5.374   3.637   4.902
 9693SOL    HW129978   5.308   3.625   4.828
 9693SOL    HW229979   5.339   3.705   4.966
 9694SOL     OW29980   3.105   6.674   2.449
 9694SOL    HW129981   3.152   6.757   2.479
 9694SOL    HW229982   3.134   6.652   2.356
 9695SOL     OW29983   1.214   2.023   3.520
 9695SOL    HW129984   1.133   2.010   3.577
 9695SOL    HW229985   1.195   2.092   3.450
 9696SOL     OW29986   5.706   2.121   2.792
 9696SOL    HW129987   5.660   2.154   2.874
 9696SOL    HW229988   5.664   2.035   2.762
 9697SOL     OW29989   1.585   6.652   0.883
 9697SOL    HW129990   1.559   6.687   0.973
 9697SOL    HW229991   1.514   6.591   0.849
 9698SOL     OW29992   5.907   2.905   1.426
 9698SOL    HW129993   5.885   2.866   1.516
 9698SOL    HW229994   5.854   2.989   1.412
 9699SOL     OW29995   1.341   5.437   0.625
 9699SOL    HW129996   1.368   5.367   0.692
 9699SOL    HW229997   1.363   5.405   0.533
 9700SOL     OW29998   5.449   0.508   5.306
 9700SOL    HW129999   5.444   0.465   5.397
 9700SOL    HW230000   5.544   0.523   5.281
 9701SOL     OW30001   4.469   3.584   6.403
 9701SOL    HW130002   4.535   3.535   6.460
 9701SOL    HW230003   4.438   3.523   6.329
 9702SOL     OW30004   3.401   3.660   1.540
 9702SOL    HW130005   3.306   3.693   1.550
 9702SOL    HW230006   3.406   3.599   1.461
 9703SOL     OW30007   0.010   4.223   4.227
 9703SOL    HW130008   0.043   4.266   4.311
 9703SOL    HW230009   0.074   4.241   4.152
 9704SOL     OW30010   2.014   3.989   2.673
 9704SOL    HW130011   2.025   3.934   2.591
 9704SOL    HW230012   1.938   3.953   2.728
 9705SOL     OW30013   6.353   3.360   5.498
 9705SOL    HW130014   6.278   3.393   5.440
 9705SOL    HW230015   6.325   3.365   5.594
 9706SOL     OW30016   0.765   1.075   1.881
 9706SOL    HW130017   0.753   1.170   1.908
 9706SOL    HW230018   0.841   1.068   1.817
 9707SOL     OW30019   0.767   4.877   2.262
 9707SOL    HW130020   0.804   4.944   2.326
 9707SOL    HW230021   0.728   4.925   2.183
 9708SOL     OW30022   2.600   0.373   2.187
 9708SOL    HW130023   2.564   0.321   2.265
 9708SOL    HW230024   2.526   0.427   2.147
 9709SOL     OW30025   5.025   2.309   1.442
 9709SOL    HW130026   5.099   2.368   1.473
 9709SOL    HW230027   4.952   2.309   1.510
 9710SOL     OW30028   6.747   5.244   3.538
 9710SOL    HW130029   6.814   5.191   3.487
 9710SOL    HW230030   6.658   5.199   3.533
 9711SOL     OW30031   3.938   0.202   0.053
 9711SOL    HW130032   3.945   0.182   0.151
 9711SOL    HW230033   3.936   0.116   0.002
 9712SOL     OW30034   5.659   1.766   6.423
 9712SOL    HW130035   5.572   1.784   6.468
 9712SOL    HW230036   5.671   1.667   6.412
 9713SOL     OW30037   1.136   0.177   3.329
 9713SOL    HW130038   1.170   0.208   3.241
 9713SOL    HW230039   1.139   0.077   3.332
 9714SOL     OW30040   2.337   4.694   4.631
 9714SOL    HW130041   2.352   4.596   4.621
 9714SOL    HW230042   2.412   4.734   4.685
 9715SOL     OW30043   6.416   3.580   6.927
 9715SOL    HW130044   6.357   3.538   6.996
 9715SOL    HW230045   6.380   3.670   6.902
 9716SOL     OW30046   2.561   5.204   6.618
 9716SOL    HW130047   2.624   5.269   6.574
 9716SOL    HW230048   2.536   5.238   6.709
 9717SOL     OW30049   3.999   1.435   5.219
 9717SOL    HW130050   3.928   1.365   5.224
 9717SOL    HW230051   4.055   1.432   5.302
 9718SOL     OW30052   3.937   3.212   6.970
 9718SOL    HW130053   3.895   3.197   0.039
 9718SOL    HW230054   3.866   3.233   6.904
 9719SOL     OW30055   4.418   6.747   5.361
 9719SOL    HW130056   4.505   6.746   5.410
 9719SOL    HW230057   4.407   6.834   5.313
 9720SOL     OW30058   2.158   3.305   3.470
 9720SOL    HW130059   2.192   3.386   3.421
 9720SOL    HW230060   2.142   3.329   3.566
 9721SOL     OW30061   1.115   1.443   0.682
 9721SOL    HW130062   1.163   1.480   0.762
 9721SOL    HW230063   1.171   1.374   0.639
 9722SOL     OW30064   4.154   3.041   5.331
 9722SOL    HW130065   4.080   3.102   5.356
 9722SOL    HW230066   4.123   2.946   5.335
 9723SOL     OW30067   6.866   6.346   4.869
 9723SOL    HW130068   6.792   6.286   4.838
 9723SOL    HW230069   6.830   6.410   4.937
 9724SOL     OW30070   1.463   5.397   6.915
 9724SOL    HW130071   1.491   5.494   6.916
 9724SOL    HW230072   1.365   5.391   6.932
 9725SOL     OW30073   3.915   5.112   5.456
 9725SOL    HW130074   3.973   5.193   5.459
 9725SOL    HW230075   3.822   5.139   5.432
 9726SOL     OW30076   6.330   1.760   4.235
 9726SOL    HW130077   6.355   1.788   4.142
 9726SOL    HW230078   6.408   1.713   4.277
 9727SOL     OW30079   0.455   1.134   0.377
 9727SOL    HW130080   0.508   1.175   0.452
 9727SOL    HW230081   0.516   1.089   0.313
 9728SOL     OW30082   4.519   1.225   5.322
 9728SOL    HW130083   4.518   1.289   5.246
 9728SOL    HW230084   4.435   1.236   5.376
 9729SOL     OW30085   0.523   4.986   3.393
 9729SOL    HW130086   0.581   5.017   3.317
 9729SOL    HW230087   0.430   4.970   3.359
 9730SOL     OW30088   0.285   4.108   2.837
 9730SOL    HW130089   0.208   4.173   2.841
 9730SOL    HW230090   0.257   4.022   2.878
 9731SOL     OW30091   4.980   3.505   2.177
 9731SOL    HW130092   4.993   3.553   2.090
 9731SOL    HW230093   4.914   3.556   2.233
 9732SOL     OW30094   1.650   2.935   3.054
 9732SOL    HW130095   1.703   2.937   2.969
 9732SOL    HW230096   1.571   2.995   3.046
 9733SOL     OW30097   6.704   4.686   2.210
 9733SOL    HW130098   6.633   4.736   2.161
 9733SOL    HW230099   6.788   4.684   2.155
 9734SOL     OW30100   6.039   5.940   6.228
 9734SOL    HW130101   6.093   5.945   6.312
 9734SOL    HW230102   6.100   5.924   6.150
 9735SOL     OW30103   0.982   2.849   1.212
 9735SOL    HW130104   1.066   2.867   1.264
 9735SOL    HW230105   0.961   2.751   1.216
 9736SOL     OW30106   5.449   2.051   4.911
 9736SOL    HW130107   5.441   2.072   4.814
 9736SOL    HW230108   5.539   2.010   4.929
 9737SOL     OW30109   5.877   2.765   2.670
 9737SOL    HW130110   5.824   2.703   2.728
 9737SOL    HW230111   5.822   2.791   2.590
 9738SOL     OW30112   2.397   6.352   1.777
 9738SOL    HW130113   2.332   6.310   1.841
 9738SOL    HW230114   2.409   6.292   1.698
 9739SOL     OW30115   5.861   6.896   0.001
 9739SOL    HW130116   5.933   6.834   6.990
 9739SOL    HW230117   5.891   6.991   7.012
 9740SOL     OW30118   6.322   0.778   2.509
 9740SOL    HW130119   6.373   0.856   2.545
 9740SOL    HW230120   6.346   0.696   2.559
 9741SOL     OW30121   2.768   1.614   4.196
 9741SOL    HW130122   2.724   1.556   4.129
 9741SOL    HW230123   2.733   1.592   4.287
 9742SOL     OW30124   3.648   2.039   5.848
 9742SOL    HW130125   3.703   2.029   5.930
 9742SOL    HW230126   3.650   1.953   5.796
 9743SOL     OW30127   5.571   3.386   4.042
 9743SOL    HW130128   5.546   3.440   4.122
 9743SOL    HW230129   5.574   3.445   3.962
 9744SOL     OW30130   1.791   0.459   3.921
 9744SOL    HW130131   1.741   0.543   3.940
 9744SOL    HW230132   1.773   0.392   3.992
 9745SOL     OW30133   7.006   0.554   5.471
 9745SOL    HW130134   0.062   0.503   5.508
 9745SOL    HW230135   6.923   0.500   5.481
 9746SOL     OW30136   4.201   5.776   6.413
 9746SOL    HW130137   4.279   5.800   6.472
 9746SOL    HW230138   4.132   5.729   6.467
 9747SOL     OW30139   2.426   2.050   2.647
 9747SOL    HW130140   2.453   2.072   2.740
 9747SOL    HW230141   2.504   2.013   2.597
 9748SOL     OW30142   1.508   0.989   3.930
 9748SOL    HW130143   1.538   1.053   3.859
 9748SOL    HW230144   1.418   0.952   3.906
 9749SOL     OW30145   0.210   1.282   2.149
 9749SOL    HW130146   0.242   1.191   2.173
 9749SOL    HW230147   0.252   1.310   2.062
 9750SOL     OW30148   0.176   4.073   3.777
 9750SOL    HW130149   0.258   4.024   3.747
 9750SOL    HW230150   0.192   4.115   3.866
 9751SOL     OW30151   2.899   0.445   1.363
 9751SOL    HW130152   2.990   0.483   1.382
 9751SOL    HW230153   2.889   0.432   1.264
 9752SOL     OW30154   3.211   3.329   0.034
 9752SOL    HW130155   3.201   3.425   0.058
 9752SOL    HW230156   3.122   3.284   0.037
 9753SOL     OW30157   6.995   6.100   4.880
 9753SOL    HW130158   6.997   6.194   4.845
 9753SOL    HW230159   6.904   6.061   4.867
 9754SOL     OW30160   3.153   1.169   1.684
 9754SOL    HW130161   3.117   1.094   1.629
 9754SOL    HW230162   3.252   1.176   1.672
 9755SOL     OW30163   3.241   4.268   6.790
 9755SOL    HW130164   3.334   4.236   6.809
 9755SOL    HW230165   3.244   4.362   6.757
 9756SOL     OW30166   5.869   0.248   5.865
 9756SOL    HW130167   5.851   0.324   5.802
 9756SOL    HW230168   5.855   0.279   5.959
 9757SOL     OW30169   5.468   4.211   3.837
 9757SOL    HW130170   5.392   4.242   3.894
 9757SOL    HW230171   5.550   4.264   3.859
 9758SOL     OW30172   1.901   0.424   1.911
 9758SOL    HW130173   1.963   0.483   1.964
 9758SOL    HW230174   1.902   0.452   1.815
 9759SOL     OW30175   0.062   1.121   1.019
 9759SOL    HW130176   0.094   1.034   0.982
 9759SOL    HW230177   6.996   1.145   0.977
 9760SOL     OW30178   4.519   1.392   0.019
 9760SOL    HW130179   4.467   1.320   6.995
 9760SOL    HW230180   4.542   1.362   0.112
 9761SOL     OW30181   1.292   2.430   1.190
 9761SOL    HW130182   1.208   2.393   1.229
 9761SOL    HW230183   1.370   2.399   1.245
 9762SOL     OW30184   2.509   1.719   5.805
 9762SOL    HW130185   2.553   1.716   5.715
 9762SOL    HW230186   2.419   1.677   5.799
 9763SOL     OW30187   5.805   0.918   0.802
 9763SOL    HW130188   5.765   1.006   0.777
 9763SOL    HW230189   5.853   0.927   0.889
 9764SOL     OW30190   6.259   2.604   2.262
 9764SOL    HW130191   6.259   2.552   2.348
 9764SOL    HW230192   6.353   2.620   2.233
 9765SOL     OW30193   6.490   0.504   1.547
 9765SOL    HW130194   6.459   0.525   1.454
 9765SOL    HW230195   6.572   0.557   1.568
 9766SOL     OW30196   2.579   1.912   4.598
 9766SOL    HW130197   2.493   1.875   4.632
 9766SOL    HW230198   2.639   1.935   4.675
 9767SOL     OW30199   2.371   3.229   6.088
 9767SOL    HW130200   2.370   3.178   6.002
 9767SOL    HW230201   2.388   3.326   6.070
 9768SOL     OW30202   6.091   2.871   1.177
 9768SOL    HW130203   6.021   2.890   1.247
 9768SOL    HW230204   6.176   2.846   1.221
 9769SOL     OW30205   3.073   1.805   5.274
 9769SOL    HW130206   3.164   1.765   5.264
 9769SOL    HW230207   3.074   1.899   5.238
 9770SOL     OW30208   2.943   2.460   6.252
 9770SOL    HW130209   2.899   2.427   6.336
 9770SOL    HW230210   3.039   2.431   6.252
 9771SOL     OW30211   3.262   6.080   3.087
 9771SOL    HW130212   3.333   6.019   3.050
 9771SOL    HW230213   3.179   6.028   3.103
 9772SOL     OW30214   0.951   0.216   1.175
 9772SOL    HW130215   0.960   0.160   1.093
 9772SOL    HW230216   0.980   0.309   1.155
 9773SOL     OW30217   5.157   4.684   1.991
 9773SOL    HW130218   5.080   4.629   1.959
 9773SOL    HW230219   5.169   4.764   1.931
 9774SOL     OW30220   0.850   5.595   4.848
 9774SOL    HW130221   0.839   5.682   4.800
 9774SOL    HW230222   0.942   5.590   4.887
 9775SOL     OW30223   2.279   1.349   3.250
 9775SOL    HW130224   2.364   1.309   3.284
 9775SOL    HW230225   2.269   1.442   3.284
 9776SOL     OW30226   1.503   6.017   6.803
 9776SOL    HW130227   1.569   6.011   6.728
 9776SOL    HW230228   1.453   5.931   6.810
 9777SOL     OW30229   4.412   0.644   4.999
 9777SOL    HW130230   4.440   0.657   5.094
 9777SOL    HW230231   4.484   0.595   4.949
 9778SOL     OW30232   0.304   3.147   4.038
 9778SOL    HW130233   0.308   3.106   3.947
 9778SOL    HW230234   0.236   3.221   4.038
 9779SOL     OW30235   2.050   1.108   3.793
 9779SOL    HW130236   1.987   1.035   3.821
 9779SOL    HW230237   2.050   1.180   3.863
 9780SOL     OW30238   1.618   2.702   1.795
 9780SOL    HW130239   1.604   2.683   1.698
 9780SOL    HW230240   1.535   2.681   1.846
 9781SOL     OW30241   1.875   2.549   3.218
 9781SOL    HW130242   1.784   2.582   3.192
 9781SOL    HW230243   1.887   2.455   3.187
 9782SOL     OW30244   0.108   2.459   1.351
 9782SOL    HW130245   0.118   2.398   1.429
 9782SOL    HW230246   0.196   2.502   1.331
 9783SOL     OW30247   3.704   1.336   2.999
 9783SOL    HW130248   3.794   1.313   3.033
 9783SOL    HW230249   3.634   1.289   3.053
 9784SOL     OW30250   1.445   1.371   6.393
 9784SOL    HW130251   1.472   1.419   6.309
 9784SOL    HW230252   1.346   1.383   6.407
 9785SOL     OW30253   0.717   2.582   4.221
 9785SOL    HW130254   0.635   2.639   4.227
 9785SOL    HW230255   0.798   2.640   4.223
 9786SOL     OW30256   2.292   4.721   1.300
 9786SOL    HW130257   2.348   4.761   1.227
 9786SOL    HW230258   2.250   4.794   1.354
 9787SOL     OW30259   3.433   3.490   3.275
 9787SOL    HW130260   3.428   3.390   3.275
 9787SOL    HW230261   3.414   3.524   3.368
 9788SOL     OW30262   5.451   6.848   1.631
 9788SOL    HW130263   5.533   6.891   1.667
 9788SOL    HW230264   5.475   6.788   1.555
 9789SOL     OW30265   3.613   0.856   6.685
 9789SOL    HW130266   3.699   0.884   6.641
 9789SOL    HW230267   3.547   0.829   6.615
 9790SOL     OW30268   0.448   4.480   4.382
 9790SOL    HW130269   0.387   4.524   4.448
 9790SOL    HW230270   0.412   4.389   4.358
 9791SOL     OW30271   1.651   6.494   1.125
 9791SOL    HW130272   1.708   6.576   1.134
 9791SOL    HW230273   1.671   6.449   1.038
 9792SOL     OW30274   4.085   6.371   0.441
 9792SOL    HW130275   4.094   6.360   0.540
 9792SOL    HW230276   4.016   6.307   0.406
 9793SOL     OW30277   5.225   1.414   3.609
 9793SOL    HW130278   5.237   1.378   3.516
 9793SOL    HW230279   5.298   1.480   3.628
 9794SOL     OW30280   4.659   4.736   4.777
 9794SOL    HW130281   4.663   4.719   4.678
 9794SOL    HW230282   4.564   4.748   4.805
 9795SOL     OW30283   1.728   3.469   3.304
 9795SOL    HW130284   1.707   3.521   3.221
 9795SOL    HW230285   1.647   3.421   3.335
 9796SOL     OW30286   3.345   3.820   3.684
 9796SOL    HW130287   3.252   3.857   3.686
 9796SOL    HW230288   3.379   3.808   3.778
 9797SOL     OW30289   3.192   6.244   6.841
 9797SOL    HW130290   3.236   6.283   6.922
 9797SOL    HW230291   3.259   6.231   6.769
 9798SOL     OW30292   1.147   3.818   0.334
 9798SOL    HW130293   1.054   3.830   0.298
 9798SOL    HW230294   1.153   3.732   0.383
 9799SOL     OW30295   2.959   0.178   6.847
 9799SOL    HW130296   2.931   0.082   6.854
 9799SOL    HW230297   3.058   0.184   6.837
 9800SOL     OW30298   6.500   3.693   4.748
 9800SOL    HW130299   6.499   3.620   4.816
 9800SOL    HW230300   6.407   3.727   4.734
 9801SOL     OW30301   6.187   6.072   0.030
 9801SOL    HW130302   6.279   6.083   0.066
 9801SOL    HW230303   6.191   6.063   6.952
 9802SOL     OW30304   4.218   4.662   0.114
 9802SOL    HW130305   4.301   4.655   0.170
 9802SOL    HW230306   4.141   4.619   0.161
 9803SOL     OW30307   0.821   3.848   6.649
 9803SOL    HW130308   0.916   3.850   6.680
 9803SOL    HW230309   0.760   3.862   6.728
 9804SOL     OW30310   0.364   5.442   2.422
 9804SOL    HW130311   0.364   5.342   2.413
 9804SOL    HW230312   0.288   5.480   2.370
 9805SOL     OW30313   1.178   6.218   3.750
 9805SOL    HW130314   1.198   6.247   3.844
 9805SOL    HW230315   1.242   6.145   3.724
 9806SOL     OW30316   3.281   2.287   6.458
 9806SOL    HW130317   3.352   2.358   6.462
 9806SOL    HW230318   3.321   2.202   6.422
 9807SOL     OW30319   3.354   4.094   2.145
 9807SOL    HW130320   3.277   4.063   2.089
 9807SOL    HW230321   3.320   4.135   2.229
 9808SOL     OW30322   4.366   6.024   3.464
 9808SOL    HW130323   4.412   5.977   3.388
 9808SOL    HW230324   4.316   5.957   3.519
 9809SOL     OW30325   0.132   3.366   0.841
 9809SOL    HW130326   0.037   3.359   0.810
 9809SOL    HW230327   0.192   3.383   0.763
 9810SOL     OW30328   2.044   1.683   6.346
 9810SOL    HW130329   2.006   1.591   6.335
 9810SOL    HW230330   2.076   1.717   6.257
 9811SOL     OW30331   6.304   3.846   3.601
 9811SOL    HW130332   6.391   3.882   3.567
 9811SOL    HW230333   6.235   3.919   3.598
 9812SOL     OW30334   3.369   6.014   4.960
 9812SOL    HW130335   3.370   6.114   4.964
 9812SOL    HW230336   3.351   5.985   4.866
 9813SOL     OW30337   4.749   2.294   1.316
 9813SOL    HW130338   4.840   2.275   1.280
 9813SOL    HW230339   4.751   2.294   1.416
 9814SOL     OW30340   5.817   1.119   0.014
 9814SOL    HW130341   5.864   1.206   7.017
 9814SOL    HW230342   5.883   1.044   0.005
 9815SOL     OW30343   4.233   2.298   4.823
 9815SOL    HW130344   4.181   2.376   4.857
 9815SOL    HW230345   4.215   2.286   4.725
 9816SOL     OW30346   1.666   0.131   0.218
 9816SOL    HW130347   1.631   0.188   0.292
 9816SOL    HW230348   1.755   0.094   0.243
 9817SOL     OW30349   0.022   6.367   3.647
 9817SOL    HW130350   6.996   6.399   3.729
 9817SOL    HW230351   6.985   6.381   3.567
 9818SOL     OW30352   6.804   2.954   4.706
 9818SOL    HW130353   6.816   3.030   4.642
 9818SOL    HW230354   6.727   2.973   4.766
 9819SOL     OW30355   3.966   1.629   3.120
 9819SOL    HW130356   3.904   1.681   3.061
 9819SOL    HW230357   3.995   1.687   3.197
 9820SOL     OW30358   4.353   4.308   5.988
 9820SOL    HW130359   4.288   4.383   5.976
 9820SOL    HW230360   4.315   4.224   5.949
 9821SOL     OW30361   5.923   6.181   6.930
 9821SOL    HW130362   5.874   6.146   7.009
 9821SOL    HW230363   6.013   6.214   6.958
 9822SOL     OW30364   0.656   0.159   3.030
 9822SOL    HW130365   0.569   0.200   3.002
 9822SOL    HW230366   0.704   0.125   2.949
 9823SOL     OW30367   3.049   0.993   1.908
 9823SOL    HW130368   3.073   1.056   1.835
 9823SOL    HW230369   2.965   1.024   1.953
 9824SOL     OW30370   1.466   4.547   4.817
 9824SOL    HW130371   1.531   4.616   4.785
 9824SOL    HW230372   1.438   4.489   4.740
 9825SOL     OW30373   3.811   4.589   5.306
 9825SOL    HW130374   3.789   4.502   5.262
 9825SOL    HW230375   3.864   4.572   5.389
 9826SOL     OW30376   4.268   6.890   5.881
 9826SOL    HW130377   4.188   6.879   5.940
 9826SOL    HW230378   4.280   6.808   5.825
 9827SOL     OW30379   0.867   3.731   4.806
 9827SOL    HW130380   0.904   3.823   4.817
 9827SOL    HW230381   0.895   3.694   4.718
 9828SOL     OW30382   4.339   2.554   0.237
 9828SOL    HW130383   4.261   2.550   0.174
 9828SOL    HW230384   4.422   2.526   0.190
 9829SOL     OW30385   1.916   5.842   0.361
 9829SOL    HW130386   1.968   5.761   0.334
 9829SOL    HW230387   1.852   5.865   0.288
 9830SOL     OW30388   6.062   1.300   1.848
 9830SOL    HW130389   6.028   1.207   1.860
 9830SOL    HW230390   6.125   1.322   1.923
 9831SOL     OW30391   0.460   6.519   1.977
 9831SOL    HW130392   0.430   6.612   1.958
 9831SOL    HW230393   0.559   6.516   1.984
 9832SOL     OW30394   4.759   5.326   1.888
 9832SOL    HW130395   4.798   5.410   1.850
 9832SOL    HW230396   4.787   5.318   1.984
 9833SOL     OW30397   3.556   3.934   5.118
 9833SOL    HW130398   3.457   3.922   5.105
 9833SOL    HW230399   3.598   3.846   5.139
 9834SOL     OW30400   1.151   3.842   5.266
 9834SOL    HW130401   1.134   3.799   5.177
 9834SOL    HW230402   1.171   3.771   5.333
 9835SOL     OW30403   5.254   1.355   4.428
 9835SOL    HW130404   5.305   1.355   4.514
 9835SOL    HW230405   5.156   1.356   4.448
 9836SOL     OW30406   5.312   4.507   3.203
 9836SOL    HW130407   5.315   4.584   3.141
 9836SOL    HW230408   5.220   4.466   3.202
 9837SOL     OW30409   2.436   6.750   4.363
 9837SOL    HW130410   2.336   6.753   4.372
 9837SOL    HW230411   2.475   6.699   4.440
 9838SOL     OW30412   0.846   6.825   6.192
 9838SOL    HW130413   0.750   6.798   6.196
 9838SOL    HW230414   0.886   6.797   6.105
 9839SOL     OW30415   6.670   1.273   1.263
 9839SOL    HW130416   6.680   1.260   1.362
 9839SOL    HW230417   6.749   1.233   1.217
 9840SOL     OW30418   0.233   0.315   0.818
 9840SOL    HW130419   0.332   0.329   0.818
 9840SOL    HW230420   0.196   0.344   0.907
 9841SOL     OW30421   1.421   3.969   4.718
 9841SOL    HW130422   1.325   3.988   4.697
 9841SOL    HW230423   1.479   4.026   4.659
 9842SOL     OW30424   2.964   3.272   2.843
 9842SOL    HW130425   3.048   3.307   2.801
 9842SOL    HW230426   2.986   3.231   2.931
 9843SOL     OW30427   6.996   1.842   1.276
 9843SOL    HW130428   6.969   1.763   1.331
 9843SOL    HW230429   6.918   1.873   1.221
 9844SOL     OW30430   5.065   0.105   2.218
 9844SOL    HW130431   4.987   0.166   2.203
 9844SOL    HW230432   5.048   0.017   2.175
 9845SOL     OW30433   2.221   1.995   3.952
 9845SOL    HW130434   2.173   1.995   4.039
 9845SOL    HW230435   2.166   1.950   3.882
 9846SOL     OW30436   3.192   4.020   3.295
 9846SOL    HW130437   3.156   4.047   3.205
 9846SOL    HW230438   3.167   3.925   3.314
 9847SOL     OW30439   1.890   3.310   6.688
 9847SOL    HW130440   1.814   3.366   6.653
 9847SOL    HW230441   1.946   3.364   6.750
 9848SOL     OW30442   4.510   3.039   7.021
 9848SOL    HW130443   4.548   3.007   0.087
 9848SOL    HW230444   4.566   3.114   6.986
 9849SOL     OW30445   6.525   6.802   6.358
 9849SOL    HW130446   6.556   6.804   6.263
 9849SOL    HW230447   6.438   6.753   6.363
 9850SOL     OW30448   3.975   6.879   2.790
 9850SOL    HW130449   4.043   6.889   2.861
 9850SOL    HW230450   3.966   6.782   2.765
 9851SOL     OW30451   4.878   1.810   5.406
 9851SOL    HW130452   4.881   1.905   5.376
 9851SOL    HW230453   4.972   1.775   5.415
 9852SOL     OW30454   4.738   1.880   3.850
 9852SOL    HW130455   4.694   1.810   3.907
 9852SOL    HW230456   4.671   1.951   3.828
 9853SOL     OW30457   5.502   4.505   2.612
 9853SOL    HW130458   5.414   4.537   2.577
 9853SOL    HW230459   5.487   4.458   2.699
 9854SOL     OW30460   5.497   5.323   4.493
 9854SOL    HW130461   5.467   5.279   4.578
 9854SOL    HW230462   5.420   5.327   4.429
 9855SOL     OW30463   0.941   4.334   1.210
 9855SOL    HW130464   0.886   4.386   1.275
 9855SOL    HW230465   0.914   4.238   1.213
 9856SOL     OW30466   4.021   3.579   0.685
 9856SOL    HW130467   4.087   3.517   0.644
 9856SOL    HW230468   3.962   3.528   0.748
 9857SOL     OW30469   5.249   2.262   3.092
 9857SOL    HW130470   5.249   2.352   3.049
 9857SOL    HW230471   5.192   2.200   3.039
 9858SOL     OW30472   5.292   1.033   2.204
 9858SOL    HW130473   5.329   1.052   2.295
 9858SOL    HW230474   5.332   1.096   2.138
 9859SOL     OW30475   5.762   0.448   1.242
 9859SOL    HW130476   5.838   0.396   1.281
 9859SOL    HW230477   5.795   0.537   1.211
 9860SOL     OW30478   6.947   0.478   2.169
 9860SOL    HW130479   0.013   0.443   2.203
 9860SOL    HW230480   6.891   0.508   2.246
 9861SOL     OW30481   3.854   6.106   4.289
 9861SOL    HW130482   3.819   6.182   4.234
 9861SOL    HW230483   3.933   6.136   4.342
 9862SOL     OW30484   2.329   3.404   0.517
 9862SOL    HW130485   2.324   3.324   0.457
 9862SOL    HW230486   2.285   3.382   0.604
 9863SOL     OW30487   3.498   0.077   3.024
 9863SOL    HW130488   3.566   0.020   2.977
 9863SOL    HW230489   3.436   0.117   2.957
 9864SOL     OW30490   4.289   5.191   4.097
 9864SOL    HW130491   4.289   5.231   4.005
 9864SOL    HW230492   4.358   5.118   4.101
 9865SOL     OW30493   0.384   0.073   3.606
 9865SOL    HW130494   0.458   0.119   3.656
 9865SOL    HW230495   0.347   7.021   3.663
 9866SOL     OW30496   4.951   3.888   4.786
 9866SOL    HW130497   4.907   3.941   4.857
 9866SOL    HW230498   5.033   3.936   4.754
 9867SOL     OW30499   4.384   1.530   0.629
 9867SOL    HW130500   4.343   1.513   0.719
 9867SOL    HW230501   4.313   1.559   0.565
 9868SOL     OW30502   0.168   4.328   0.248
 9868SOL    HW130503   0.119   4.353   0.332
 9868SOL    HW230504   0.263   4.305   0.270
 9869SOL     OW30505   2.123   3.888   3.322
 9869SOL    HW130506   2.026   3.912   3.321
 9869SOL    HW230507   2.165   3.914   3.235
 9870SOL     OW30508   4.856   5.369   2.935
 9870SOL    HW130509   4.788   5.440   2.951
 9870SOL    HW230510   4.932   5.408   2.883
 9871SOL     OW30511   1.730   0.536   6.307
 9871SOL    HW130512   1.810   0.555   6.250
 9871SOL    HW230513   1.654   0.508   6.249
 9872SOL     OW30514   2.991   4.864   3.154
 9872SOL    HW130515   2.894   4.883   3.167
 9872SOL    HW230516   3.045   4.937   3.197
 9873SOL     OW30517   2.107   3.379   0.168
 9873SOL    HW130518   2.199   3.372   0.129
 9873SOL    HW230519   2.052   3.302   0.137
 9874SOL     OW30520   0.672   2.004   3.252
 9874SOL    HW130521   0.681   1.919   3.303
 9874SOL    HW230522   0.582   2.009   3.210
 9875SOL     OW30523   0.005   0.373   2.491
 9875SOL    HW130524   0.024   0.287   2.539
 9875SOL    HW230525   0.088   0.405   2.445
 9876SOL     OW30526   6.291   0.355   2.475
 9876SOL    HW130527   6.193   0.330   2.474
 9876SOL    HW230528   6.324   0.360   2.381
 9877SOL     OW30529   3.097   6.852   2.098
 9877SOL    HW130530   3.057   6.813   2.015
 9877SOL    HW230531   3.035   6.921   2.136
 9878SOL     OW30532   1.790   5.348   5.999
 9878SOL    HW130533   1.744   5.285   5.935
 9878SOL    HW230534   1.861   5.398   5.950
 9879SOL     OW30535   5.034   5.327   4.639
 9879SOL    HW130536   4.943   5.362   4.659
 9879SOL    HW230537   5.102   5.398   4.658
 9880SOL     OW30538   1.354   2.353   5.239
 9880SOL    HW130539   1.389   2.435   5.286
 9880SOL    HW230540   1.317   2.289   5.306
 9881SOL     OW30541   1.119   2.413   5.052
 9881SOL    HW130542   1.184   2.380   5.120
 9881SOL    HW230543   1.142   2.506   5.024
 9882SOL     OW30544   0.956   2.416   4.106
 9882SOL    HW130545   0.991   2.367   4.026
 9882SOL    HW230546   0.968   2.515   4.092
 9883SOL     OW30547   1.592   0.641   1.651
 9883SOL    HW130548   1.652   0.580   1.598
 9883SOL    HW230549   1.515   0.588   1.687
 9884SOL     OW30550   4.124   0.810   3.886
 9884SOL    HW130551   4.134   0.740   3.958
 9884SOL    HW230552   4.205   0.868   3.885
 9885SOL     OW30553   6.576   4.263   5.006
 9885SOL    HW130554   6.493   4.311   5.034
 9885SOL    HW230555   6.586   4.179   5.061
 9886SOL     OW30556   0.898   4.762   2.605
 9886SOL    HW130557   0.892   4.679   2.549
 9886SOL    HW230558   0.989   4.768   2.646
 9887SOL     OW30559   3.761   0.872   0.178
 9887SOL    HW130560   3.783   0.866   0.080
 9887SOL    HW230561   3.796   0.791   0.225
 9888SOL     OW30562   0.048   3.748   0.474
 9888SOL    HW130563   0.116   3.694   0.524
 9888SOL    HW230564   0.018   3.825   0.531
 9889SOL     OW30565   6.746   5.236   1.142
 9889SOL    HW130566   6.832   5.213   1.187
 9889SOL    HW230567   6.755   5.324   1.096
 9890SOL     OW30568   1.503   2.130   0.865
 9890SOL    HW130569   1.598   2.160   0.858
 9890SOL    HW230570   1.471   2.096   0.776
 9891SOL     OW30571   6.030   2.441   0.385
 9891SOL    HW130572   5.962   2.407   0.320
 9891SOL    HW230573   6.092   2.367   0.411
 9892SOL     OW30574   6.880   5.272   0.546
 9892SOL    HW130575   6.896   5.272   0.645
 9892SOL    HW230576   6.928   5.194   0.505
 9893SOL     OW30577   2.015   0.805   0.771
 9893SOL    HW130578   2.071   0.871   0.822
 9893SOL    HW230579   1.921   0.809   0.804
 9894SOL     OW30580   1.627   1.878   1.243
 9894SOL    HW130581   1.557   1.930   1.194
 9894SOL    HW230582   1.597   1.783   1.254
 9895SOL     OW30583   5.642   3.301   5.120
 9895SOL    HW130584   5.694   3.377   5.160
 9895SOL    HW230585   5.555   3.337   5.084
 9896SOL     OW30586   6.526   6.564   6.798
 9896SOL    HW130587   6.597   6.533   6.861
 9896SOL    HW230588   6.560   6.640   6.743
 9897SOL     OW30589   5.802   6.081   3.209
 9897SOL    HW130590   5.707   6.099   3.235
 9897SOL    HW230591   5.804   6.022   3.128
 9898SOL     OW30592   2.565   6.465   6.205
 9898SOL    HW130593   2.590   6.373   6.232
 9898SOL    HW230594   2.645   6.524   6.207
 9899SOL     OW30595   0.574   5.980   0.707
 9899SOL    HW130596   0.568   6.072   0.670
 9899SOL    HW230597   0.607   5.917   0.637
 9900SOL     OW30598   1.686   3.675   3.111
 9900SOL    HW130599   1.639   3.660   3.024
 9900SOL    HW230600   1.776   3.715   3.093
 9901SOL     OW30601   2.660   2.066   5.636
 9901SOL    HW130602   2.722   2.086   5.560
 9901SOL    HW230603   2.708   2.080   5.723
 9902SOL     OW30604   2.412   4.876   6.658
 9902SOL    HW130605   2.372   4.967   6.651
 9902SOL    HW230606   2.348   4.814   6.704
 9903SOL     OW30607   4.580   1.387   3.036
 9903SOL    HW130608   4.595   1.389   3.134
 9903SOL    HW230609   4.574   1.480   3.001
 9904SOL     OW30610   1.096   3.143   6.664
 9904SOL    HW130611   1.018   3.161   6.724
 9904SOL    HW230612   1.085   3.053   6.622
 9905SOL     OW30613   3.419   1.030   0.941
 9905SOL    HW130614   3.392   1.035   0.845
 9905SOL    HW230615   3.375   1.104   0.992
 9906SOL     OW30616   3.103   3.001   2.670
 9906SOL    HW130617   3.048   2.918   2.661
 9906SOL    HW230618   3.071   3.069   2.603
 9907SOL     OW30619   6.433   0.569   1.302
 9907SOL    HW130620   6.411   0.657   1.261
 9907SOL    HW230621   6.411   0.495   1.238
 9908SOL     OW30622   5.334   2.386   3.315
 9908SOL    HW130623   5.292   2.329   3.386
 9908SOL    HW230624   5.304   2.354   3.225
 9909SOL     OW30625   3.827   6.791   3.883
 9909SOL    HW130626   3.883   6.784   3.800
 9909SOL    HW230627   3.823   6.701   3.928
 9910SOL     OW30628   1.313   3.846   2.401
 9910SOL    HW130629   1.239   3.844   2.469
 9910SOL    HW230630   1.369   3.928   2.415
 9911SOL     OW30631   3.800   0.004   1.649
 9911SOL    HW130632   3.817   0.103   1.653
 9911SOL    HW230633   3.715   7.005   1.698
 9912SOL     OW30634   4.412   2.012   1.097
 9912SOL    HW130635   4.468   2.023   1.014
 9912SOL    HW230636   4.438   2.081   1.164
 9913SOL     OW30637   5.985   3.870   0.094
 9913SOL    HW130638   5.905   3.915   0.054
 9913SOL    HW230639   5.973   3.770   0.089
 9914SOL     OW30640   0.203   3.182   4.825
 9914SOL    HW130641   0.219   3.280   4.821
 9914SOL    HW230642   0.112   3.161   4.789
 9915SOL     OW30643   4.710   0.842   2.928
 9915SOL    HW130644   4.635   0.782   2.902
 9915SOL    HW230645   4.709   0.856   3.027
 9916SOL     OW30646   2.260   2.091   3.157
 9916SOL    HW130647   2.329   2.155   3.192
 9916SOL    HW230648   2.182   2.090   3.218
 9917SOL     OW30649   5.980   3.616   0.108
 9917SOL    HW130650   6.026   3.528   0.111
 9917SOL    HW230651   5.882   3.603   0.122
 9918SOL     OW30652   3.868   1.804   2.685
 9918SOL    HW130653   3.880   1.720   2.632
 9918SOL    HW230654   3.852   1.880   2.623
 9919SOL     OW30655   6.090   5.816   1.898
 9919SOL    HW130656   6.187   5.806   1.921
 9919SOL    HW230657   6.064   5.744   1.833
 9920SOL     OW30658   4.806   1.234   2.062
 9920SOL    HW130659   4.774   1.249   1.968
 9920SOL    HW230660   4.905   1.251   2.066
 9921SOL     OW30661   4.402   6.200   5.987
 9921SOL    HW130662   4.407   6.200   5.888
 9921SOL    HW230663   4.314   6.239   6.017
 9922SOL     OW30664   1.026   5.334   0.158
 9922SOL    HW130665   1.108   5.374   0.199
 9922SOL    HW230666   0.947   5.353   0.217
 9923SOL     OW30667   4.570   4.963   6.369
 9923SOL    HW130668   4.608   4.882   6.324
 9923SOL    HW230669   4.576   5.042   6.307
 9924SOL     OW30670   0.307   2.175   4.987
 9924SOL    HW130671   0.346   2.266   5.004
 9924SOL    HW230672   0.216   2.170   5.029
 9925SOL     OW30673   6.654   4.028   3.763
 9925SOL    HW130674   6.748   4.020   3.796
 9925SOL    HW230675   6.599   3.953   3.799
 9926SOL     OW30676   2.499   3.973   0.253
 9926SOL    HW130677   2.570   4.036   0.221
 9926SOL    HW230678   2.420   3.979   0.192
 9927SOL     OW30679   5.876   0.088   2.313
 9927SOL    HW130680   5.848   7.014   2.305
 9927SOL    HW230681   5.907   0.122   2.224
 9928SOL     OW30682   5.055   5.061   1.513
 9928SOL    HW130683   5.126   5.111   1.463
 9928SOL    HW230684   5.013   5.121   1.580
 9929SOL     OW30685   1.959   5.596   5.475
 9929SOL    HW130686   1.873   5.611   5.524
 9929SOL    HW230687   2.016   5.531   5.527
 9930SOL     OW30688   6.478   0.265   4.703
 9930SOL    HW130689   6.551   0.208   4.740
 9930SOL    HW230690   6.484   0.268   4.604
 9931SOL     OW30691   1.079   4.579   5.215
 9931SOL    HW130692   1.000   4.529   5.250
 9931SOL    HW230693   1.062   4.608   5.121
 9932SOL     OW30694   1.757   6.377   6.561
 9932SOL    HW130695   1.752   6.385   6.661
 9932SOL    HW230696   1.795   6.287   6.538
 9933SOL     OW30697   1.710   4.519   2.638
 9933SOL    HW130698   1.659   4.499   2.554
 9933SOL    HW230699   1.718   4.436   2.693
 9934SOL     OW30700   6.009   2.056   5.836
 9934SOL    HW130701   6.067   2.051   5.918
 9934SOL    HW230702   5.920   2.015   5.856
 9935SOL     OW30703   2.836   0.998   0.692
 9935SOL    HW130704   2.910   1.020   0.755
 9935SOL    HW230705   2.869   0.935   0.622
 9936SOL     OW30706   6.840   4.974   4.946
 9936SOL    HW130707   6.755   4.979   4.999
 9936SOL    HW230708   6.889   5.060   4.954
 9937SOL     OW30709   6.076   2.460   5.325
 9937SOL    HW130710   6.163   2.467   5.372
 9937SOL    HW230711   6.092   2.457   5.226
 9938SOL     OW30712   6.848   5.890   3.167
 9938SOL    HW130713   6.892   5.954   3.230
 9938SOL    HW230714   6.858   5.923   3.073
 9939SOL     OW30715   3.327   3.138   0.585
 9939SOL    HW130716   3.329   3.060   0.522
 9939SOL    HW230717   3.288   3.217   0.539
 9940SOL     OW30718   0.431   0.544   1.448
 9940SOL    HW130719   0.383   0.498   1.523
 9940SOL    HW230720   0.428   0.485   1.367
 9941SOL     OW30721   3.251   4.213   5.201
 9941SOL    HW130722   3.192   4.274   5.253
 9941SOL    HW230723   3.195   4.144   5.154
 9942SOL     OW30724   2.036   6.075   2.930
 9942SOL    HW130725   1.991   6.002   2.880
 9942SOL    HW230726   2.128   6.046   2.958
 9943SOL     OW30727   0.332   5.937   6.197
 9943SOL    HW130728   0.418   5.892   6.174
 9943SOL    HW230729   0.299   5.903   6.285
 9944SOL     OW30730   1.990   4.361   6.200
 9944SOL    HW130731   1.899   4.346   6.238
 9944SOL    HW230732   1.985   4.358   6.100
 9945SOL     OW30733   6.546   5.214   0.159
 9945SOL    HW130734   6.565   5.135   0.101
 9945SOL    HW230735   6.515   5.182   0.249
 9946SOL     OW30736   5.653   1.227   5.276
 9946SOL    HW130737   5.703   1.219   5.190
 9946SOL    HW230738   5.580   1.158   5.279
 9947SOL     OW30739   6.826   4.106   6.163
 9947SOL    HW130740   6.887   4.147   6.096
 9947SOL    HW230741   6.857   4.013   6.184
 9948SOL     OW30742   4.910   4.906   4.698
 9948SOL    HW130743   4.842   4.849   4.744
 9948SOL    HW230744   5.001   4.869   4.714
 9949SOL     OW30745   5.485   4.968   3.697
 9949SOL    HW130746   5.531   5.036   3.754
 9949SOL    HW230747   5.409   4.928   3.748
 9950SOL     OW30748   5.992   6.252   5.544
 9950SOL    HW130749   5.937   6.201   5.611
 9950SOL    HW230750   5.940   6.332   5.514
 9951SOL     OW30751   6.580   2.206   3.967
 9951SOL    HW130752   6.636   2.143   4.020
 9951SOL    HW230753   6.565   2.290   4.020
 9952SOL     OW30754   6.502   3.767   0.986
 9952SOL    HW130755   6.465   3.675   0.978
 9952SOL    HW230756   6.514   3.806   0.895
 9953SOL     OW30757   6.239   2.474   4.398
 9953SOL    HW130758   6.223   2.529   4.480
 9953SOL    HW230759   6.169   2.402   4.392
 9954SOL     OW30760   5.779   6.042   6.242
 9954SOL    HW130761   5.732   5.954   6.236
 9954SOL    HW230762   5.877   6.029   6.226
 9955SOL     OW30763   6.596   4.613   4.804
 9955SOL    HW130764   6.655   4.538   4.835
 9955SOL    HW230765   6.500   4.589   4.819
 9956SOL     OW30766   1.993   0.151   1.985
 9956SOL    HW130767   2.076   0.125   2.035
 9956SOL    HW230768   1.984   0.250   1.987
 9957SOL     OW30769   6.366   5.699   3.006
 9957SOL    HW130770   6.281   5.707   3.058
 9957SOL    HW230771   6.444   5.717   3.066
 9958SOL     OW30772   3.934   5.099   0.328
 9958SOL    HW130773   4.005   5.158   0.367
 9958SOL    HW230774   3.958   5.003   0.344
 9959SOL     OW30775   4.174   3.733   5.796
 9959SOL    HW130776   4.235   3.660   5.826
 9959SOL    HW230777   4.214   3.781   5.719
 9960SOL     OW30778   6.601   0.124   2.679
 9960SOL    HW130779   6.615   0.213   2.722
 9960SOL    HW230780   6.663   0.057   2.718
 9961SOL     OW30781   2.051   5.579   4.064
 9961SOL    HW130782   2.093   5.502   4.111
 9961SOL    HW230783   2.071   5.663   4.113
 9962SOL     OW30784   5.967   6.631   4.026
 9962SOL    HW130785   5.879   6.670   3.997
 9962SOL    HW230786   6.038   6.701   4.018
 9963SOL     OW30787   3.265   2.582   0.585
 9963SOL    HW130788   3.229   2.527   0.660
 9963SOL    HW230789   3.310   2.522   0.519
 9964SOL     OW30790   4.999   5.719   4.514
 9964SOL    HW130791   4.917   5.690   4.563
 9964SOL    HW230792   5.079   5.673   4.551
 9965SOL     OW30793   4.210   6.435   0.106
 9965SOL    HW130794   4.280   6.387   0.159
 9965SOL    HW230795   4.217   6.410   0.010
 9966SOL     OW30796   1.443   5.099   1.972
 9966SOL    HW130797   1.443   5.173   1.906
 9966SOL    HW230798   1.463   5.012   1.925
 9967SOL     OW30799   1.138   5.295   1.874
 9967SOL    HW130800   1.119   5.205   1.833
 9967SOL    HW230801   1.057   5.353   1.865
 9968SOL     OW30802   3.601   4.117   2.246
 9968SOL    HW130803   3.603   4.215   2.228
 9968SOL    HW230804   3.521   4.076   2.201
 9969SOL     OW30805   1.557   3.644   2.537
 9969SOL    HW130806   1.542   3.737   2.503
 9969SOL    HW230807   1.642   3.608   2.499
 9970SOL     OW30808   5.051   4.240   1.786
 9970SOL    HW130809   5.050   4.333   1.749
 9970SOL    HW230810   4.957   4.205   1.789
 9971SOL     OW30811   1.194   4.859   1.124
 9971SOL    HW130812   1.177   4.783   1.187
 9971SOL    HW230813   1.156   4.837   1.034
 9972SOL     OW30814   5.659   4.567   2.153
 9972SOL    HW130815   5.589   4.638   2.146
 9972SOL    HW230816   5.616   4.480   2.178
 9973SOL     OW30817   5.555   1.278   3.598
 9973SOL    HW130818   5.473   1.222   3.586
 9973SOL    HW230819   5.621   1.256   3.525
 9974SOL     OW30820   1.294   0.948   3.465
 9974SOL    HW130821   1.383   0.931   3.422
 9974SOL    HW230822   1.259   1.037   3.435
 9975SOL     OW30823   6.665   2.610   0.385
 9975SOL    HW130824   6.673   2.693   0.441
 9975SOL    HW230825   6.576   2.610   0.339
 9976SOL     OW30826   0.814   0.015   5.307
 9976SOL    HW130827   0.757   0.091   5.276
 9976SOL    HW230828   0.895   0.008   5.248
 9977SOL     OW30829   6.029   5.056   5.469
 9977SOL    HW130830   6.087   4.975   5.483
 9977SOL    HW230831   6.073   5.118   5.405
 9978SOL     OW30832   0.549   2.367   4.753
 9978SOL    HW130833   0.466   2.361   4.808
 9978SOL    HW230834   0.606   2.442   4.787
 9979SOL     OW30835   5.995   4.327   4.622
 9979SOL    HW130836   5.990   4.374   4.711
 9979SOL    HW230837   5.903   4.317   4.585
 9980SOL     OW30838   3.462   0.596   6.574
 9980SOL    HW130839   3.514   0.588   6.659
 9980SOL    HW230840   3.474   0.513   6.520
 9981SOL     OW30841   3.356   1.498   3.737
 9981SOL    HW130842   3.373   1.596   3.735
 9981SOL    HW230843   3.264   1.480   3.701
 9982SOL     OW30844   6.924   5.799   3.680
 9982SOL    HW130845   6.839   5.849   3.664
 9982SOL    HW230846   6.904   5.715   3.730
 9983SOL     OW30847   6.713   1.222   2.590
 9983SOL    HW130848   6.805   1.187   2.609
 9983SOL    HW230849   6.653   1.146   2.566
 9984SOL     OW30850   2.361   1.857   6.571
 9984SOL    HW130851   2.274   1.819   6.603
 9984SOL    HW230852   2.359   1.867   6.472
 9985SOL     OW30853   2.285   0.878   1.616
 9985SOL    HW130854   2.351   0.917   1.681
 9985SOL    HW230855   2.257   0.788   1.647
 9986SOL     OW30856   5.790   3.981   4.926
 9986SOL    HW130857   5.756   3.966   4.833
 9986SOL    HW230858   5.810   3.893   4.969
 9987SOL     OW30859   5.743   3.662   6.127
 9987SOL    HW130860   5.798   3.728   6.077
 9987SOL    HW230861   5.655   3.650   6.081
 9988SOL     OW30862   6.594   6.558   5.358
 9988SOL    HW130863   6.649   6.604   5.427
 9988SOL    HW230864   6.628   6.465   5.345
 9989SOL     OW30865   0.164   3.345   4.495
 9989SOL    HW130866   0.247   3.290   4.481
 9989SOL    HW230867   0.191   3.439   4.517
 9990SOL     OW30868   1.042   5.148   3.296
 9990SOL    HW130869   1.035   5.083   3.220
 9990SOL    HW230870   0.950   5.180   3.320
 9991SOL     OW30871   3.258   2.173   4.177
 9991SOL    HW130872   3.252   2.107   4.252
 9991SOL    HW230873   3.236   2.264   4.210
 9992SOL     OW30874   5.863   5.207   6.199
 9992SOL    HW130875   5.821   5.162   6.278
 9992SOL    HW230876   5.940   5.152   6.166
 9993SOL     OW30877   2.082   1.879   1.272
 9993SOL    HW130878   2.020   1.917   1.341
 9993SOL    HW230879   2.031   1.817   1.213
 9994SOL     OW30880   5.885   4.409   3.457
 9994SOL    HW130881   5.804   4.359   3.487
 9994SOL    HW230882   5.909   4.478   3.525
 9995SOL     OW30883   4.906   1.405   4.194
 9995SOL    HW130884   5.000   1.420   4.164
 9995SOL    HW230885   4.846   1.403   4.115
 9996SOL     OW30886   3.662   4.391   0.227
 9996SOL    HW130887   3.692   4.361   0.318
 9996SOL    HW230888   3.657   4.491   0.225
 9997SOL     OW30889   2.932   0.949   5.759
 9997SOL    HW130890   2.911   1.015   5.687
 9997SOL    HW230891   2.957   0.862   5.718
 9998SOL     OW30892   6.184   5.151   5.122
 9998SOL    HW130893   6.142   5.230   5.167
 9998SOL    HW230894   6.136   5.131   5.037
 9999SOL     OW30895   6.069   2.635   5.755
 9999SOL    HW130896   6.043   2.730   5.739
 9999SOL    HW230897   6.168   2.627   5.750
10000SOL     OW30898   0.181   2.315   0.070
10000SOL    HW130899   0.278   2.338   0.085
10000SOL    HW230900   0.174   2.218   0.047
10001SOL     OW30901   4.887   0.962   1.934
10001SOL    HW130902   4.891   1.044   1.992
10001SOL    HW230903   4.980   0.932   1.913
10002SOL     OW30904   1.070   0.104   1.943
10002SOL    HW130905   1.018   0.189   1.946
10002SOL    HW230906   1.153   0.113   1.999
10003SOL     OW30907   3.795   1.983   3.557
10003SOL    HW130908   3.705   2.025   3.544
10003SOL    HW230909   3.835   2.015   3.643
10004SOL     OW30910   0.030   2.372   3.358
10004SOL    HW130911   0.054   2.463   3.324
10004SOL    HW230912   6.967   2.341   3.315
10005SOL     OW30913   5.189   0.649   2.852
10005SOL    HW130914   5.101   0.615   2.883
10005SOL    HW230915   5.229   0.708   2.922
10006SOL     OW30916   3.554   0.166   4.474
10006SOL    HW130917   3.549   0.071   4.444
10006SOL    HW230918   3.478   0.186   4.535
10007SOL     OW30919   0.481   2.930   4.477
10007SOL    HW130920   0.557   2.969   4.425
10007SOL    HW230921   0.408   2.998   4.484
10008SOL     OW30922   3.132   0.700   4.611
10008SOL    HW130923   3.106   0.687   4.515
10008SOL    HW230924   3.227   0.731   4.616
10009SOL     OW30925   2.306   3.960   1.907
10009SOL    HW130926   2.349   4.037   1.955
10009SOL    HW230927   2.368   3.927   1.836
10010SOL     OW30928   2.106   1.504   0.173
10010SOL    HW130929   2.069   1.481   0.083
10010SOL    HW230930   2.136   1.600   0.173
10011SOL     OW30931   6.776   6.732   5.525
10011SOL    HW130932   6.710   6.726   5.600
10011SOL    HW230933   6.747   6.803   5.460
10012SOL     OW30934   5.814   1.310   4.137
10012SOL    HW130935   5.726   1.352   4.157
10012SOL    HW230936   5.866   1.370   4.075
10013SOL     OW30937   0.073   0.197   3.021
10013SOL    HW130938   0.059   0.296   3.022
10013SOL    HW230939   0.106   0.169   2.931
10014SOL     OW30940   0.435   4.302   6.376
10014SOL    HW130941   0.358   4.248   6.344
10014SOL    HW230942   0.417   4.399   6.360
10015SOL     OW30943   2.218   4.707   6.791
10015SOL    HW130944   2.223   4.661   6.880
10015SOL    HW230945   2.234   4.641   6.718
10016SOL     OW30946   2.458   1.358   6.600
10016SOL    HW130947   2.555   1.335   6.591
10016SOL    HW230948   2.441   1.446   6.557
10017SOL     OW30949   2.350   1.861   4.737
10017SOL    HW130950   2.349   1.762   4.730
10017SOL    HW230951   2.379   1.888   4.829
10018SOL     OW30952   5.145   0.732   5.726
10018SOL    HW130953   5.045   0.743   5.728
10018SOL    HW230954   5.174   0.680   5.807
10019SOL     OW30955   1.491   0.688   3.472
10019SOL    HW130956   1.424   0.630   3.426
10019SOL    HW230957   1.487   0.780   3.433
10020SOL     OW30958   1.268   3.240   1.123
10020SOL    HW130959   1.290   3.158   1.177
10020SOL    HW230960   1.348   3.267   1.070
10021SOL     OW30961   0.440   3.726   1.189
10021SOL    HW130962   0.450   3.825   1.184
10021SOL    HW230963   0.353   3.703   1.233
10022SOL     OW30964   1.275   2.402   6.359
10022SOL    HW130965   1.291   2.318   6.410
10022SOL    HW230966   1.178   2.424   6.360
10023SOL     OW30967   6.412   3.422   0.564
10023SOL    HW130968   6.441   3.417   0.468
10023SOL    HW230969   6.443   3.509   0.603
10024SOL     OW30970   1.436   4.406   4.189
10024SOL    HW130971   1.484   4.491   4.164
10024SOL    HW230972   1.385   4.372   4.110
10025SOL     OW30973   1.993   1.533   1.311
10025SOL    HW130974   1.933   1.605   1.276
10025SOL    HW230975   2.082   1.539   1.265
10026SOL     OW30976   6.490   0.541   3.055
10026SOL    HW130977   6.421   0.488   3.105
10026SOL    HW230978   6.453   0.632   3.036
10027SOL     OW30979   5.417   3.402   5.052
10027SOL    HW130980   5.434   3.472   4.982
10027SOL    HW230981   5.358   3.439   5.123
10028SOL     OW30982   1.964   1.141   0.261
10028SOL    HW130983   1.931   1.058   0.214
10028SOL    HW230984   2.006   1.203   0.194
10029SOL     OW30985   5.385   1.841   3.753
10029SOL    HW130986   5.412   1.826   3.848
10029SOL    HW230987   5.455   1.804   3.692
10030SOL     OW30988   1.403   0.500   4.144
10030SOL    HW130989   1.394   0.556   4.062
10030SOL    HW230990   1.357   0.545   4.221
10031SOL     OW30991   6.459   4.293   3.437
10031SOL    HW130992   6.446   4.203   3.394
10031SOL    HW230993   6.381   4.312   3.497
10032SOL     OW30994   2.873   1.343   5.312
10032SOL    HW130995   2.972   1.347   5.328
10032SOL    HW230996   2.827   1.315   5.397
10033SOL     OW30997   5.872   3.104   4.592
10033SOL    HW130998   5.880   3.027   4.528
10033SOL    HW230999   5.849   3.187   4.541
10034SOL     OW31000   5.150   0.452   5.306
10034SOL    HW131001   5.249   0.447   5.318
10034SOL    HW231002   5.126   0.540   5.264
10035SOL     OW31003   0.434   5.525   1.222
10035SOL    HW131004   0.525   5.487   1.238
10035SOL    HW231005   0.402   5.498   1.132
10036SOL     OW31006   6.614   1.751   6.991
10036SOL    HW131007   6.634   1.768   6.894
10036SOL    HW231008   6.699   1.755   0.022
10037SOL     OW31009   0.554   0.199   6.958
10037SOL    HW131010   0.577   0.290   6.993
10037SOL    HW231011   0.634   0.160   6.912
10038SOL     OW31012   6.564   6.781   1.313
10038SOL    HW131013   6.470   6.787   1.347
10038SOL    HW231014   6.565   6.793   1.214
10039SOL     OW31015   3.303   0.308   3.827
10039SOL    HW131016   3.388   0.359   3.816
10039SOL    HW231017   3.296   0.274   3.921
10040SOL     OW31018   0.098   3.369   1.135
10040SOL    HW131019   0.131   3.454   1.176
10040SOL    HW231020   0.129   3.363   1.040
10041SOL     OW31021   2.139   6.660   0.083
10041SOL    HW131022   2.171   6.597   0.154
10041SOL    HW231023   2.217   6.688   0.027
10042SOL     OW31024   6.325   2.143   2.962
10042SOL    HW131025   6.266   2.064   2.948
10042SOL    HW231026   6.272   2.219   2.998
10043SOL     OW31027   0.023   1.911   5.884
10043SOL    HW131028   7.001   1.939   5.798
10043SOL    HW231029   0.057   1.817   5.875
10044SOL     OW31030   3.308   2.295   5.616
10044SOL    HW131031   3.340   2.287   5.522
10044SOL    HW231032   3.250   2.376   5.625
10045SOL     OW31033   3.573   0.937   0.519
10045SOL    HW131034   3.587   0.840   0.503
10045SOL    HW231035   3.661   0.984   0.526
10046SOL     OW31036   1.856   5.262   1.492
10046SOL    HW131037   1.946   5.264   1.535
10046SOL    HW231038   1.788   5.298   1.556
10047SOL     OW31039   0.708   3.602   0.036
10047SOL    HW131040   0.658   3.682   0.070
10047SOL    HW231041   0.657   3.562   6.981
10048SOL     OW31042   5.837   6.363   3.081
10048SOL    HW131043   5.854   6.271   3.116
10048SOL    HW231044   5.750   6.364   3.032
10049SOL     OW31045   7.015   0.940   5.685
10049SOL    HW131046   0.048   0.857   5.671
10049SOL    HW231047   6.940   0.920   5.748
10050SOL     OW31048   6.275   3.250   5.996
10050SOL    HW131049   6.370   3.263   6.024
10050SOL    HW231050   6.217   3.319   6.040
10051SOL     OW31051   1.417   3.387   3.677
10051SOL    HW131052   1.509   3.351   3.697
10051SOL    HW231053   1.350   3.313   3.686
10052SOL     OW31054   1.209   0.295   3.082
10052SOL    HW131055   1.113   0.310   3.059
10052SOL    HW231056   1.260   0.380   3.068
10053SOL     OW31057   5.466   5.176   5.093
10053SOL    HW131058   5.501   5.260   5.134
10053SOL    HW231059   5.377   5.193   5.051
10054SOL     OW31060   6.474   4.109   4.804
10054SOL    HW131061   6.390   4.161   4.796
10054SOL    HW231062   6.533   4.150   4.874
10055SOL     OW31063   0.531   2.085   6.434
10055SOL    HW131064   0.508   2.002   6.485
10055SOL    HW231065   0.530   2.066   6.336
10056SOL     OW31066   6.481   2.990   4.009
10056SOL    HW131067   6.500   3.008   3.913
10056SOL    HW231068   6.564   2.961   4.055
10057SOL     OW31069   5.960   4.975   5.720
10057SOL    HW131070   5.955   5.021   5.631
10057SOL    HW231071   6.010   5.033   5.784
10058SOL     OW31072   7.012   4.015   5.191
10058SOL    HW131073   0.077   3.987   5.233
10058SOL    HW231074   6.939   3.952   5.218
10059SOL     OW31075   6.577   0.608   0.012
10059SOL    HW131076   6.506   0.610   0.083
10059SOL    HW231077   6.609   0.514   0.001
10060SOL     OW31078   2.410   2.274   2.142
10060SOL    HW131079   2.498   2.311   2.170
10060SOL    HW231080   2.350   2.267   2.223
10061SOL     OW31081   3.860   0.007   2.566
10061SOL    HW131082   3.824   0.091   2.608
10061SOL    HW231083   3.934   6.992   2.623
10062SOL     OW31084   6.019   0.374   4.453
10062SOL    HW131085   6.095   0.412   4.400
10062SOL    HW231086   5.939   0.434   4.445
10063SOL     OW31087   1.475   2.884   5.428
10063SOL    HW131088   1.387   2.925   5.450
10063SOL    HW231089   1.541   2.903   5.501
10064SOL     OW31090   2.897   6.738   0.608
10064SOL    HW131091   2.958   6.720   0.686
10064SOL    HW231092   2.847   6.654   0.586
10065SOL     OW31093   0.911   1.730   1.984
10065SOL    HW131094   0.865   1.694   1.902
10065SOL    HW231095   0.931   1.654   2.046
10066SOL     OW31096   6.426   3.422   3.474
10066SOL    HW131097   6.345   3.474   3.498
10066SOL    HW231098   6.508   3.476   3.493
10067SOL     OW31099   6.590   2.797   5.319
10067SOL    HW131100   6.624   2.785   5.412
10067SOL    HW231101   6.628   2.881   5.280
10068SOL     OW31102   1.813   2.932   2.820
10068SOL    HW131103   1.768   2.881   2.747
10068SOL    HW231104   1.912   2.915   2.816
10069SOL     OW31105   2.903   4.939   0.620
10069SOL    HW131106   2.894   5.025   0.670
10069SOL    HW231107   2.852   4.945   0.535
10070SOL     OW31108   3.621   6.822   5.865
10070SOL    HW131109   3.613   6.745   5.928
10070SOL    HW231110   3.540   6.880   5.873
10071SOL     OW31111   6.412   0.117   3.834
10071SOL    HW131112   6.315   0.093   3.835
10071SOL    HW231113   6.463   0.044   3.788
10072SOL     OW31114   6.334   3.038   1.651
10072SOL    HW131115   6.357   3.117   1.594
10072SOL    HW231116   6.418   2.986   1.670
10073SOL     OW31117   6.967   4.578   4.086
10073SOL    HW131118   0.018   4.509   4.077
10073SOL    HW231119   6.925   4.570   4.176
10074SOL     OW31120   1.213   5.021   7.022
10074SOL    HW131121   1.308   5.023   0.030
10074SOL    HW231122   1.153   5.034   0.079
10075SOL     OW31123   1.460   3.550   1.909
10075SOL    HW131124   1.405   3.473   1.942
10075SOL    HW231125   1.452   3.555   1.809
10076SOL     OW31126   4.956   5.612   4.260
10076SOL    HW131127   4.988   5.665   4.339
10076SOL    HW231128   4.881   5.552   4.289
10077SOL     OW31129   4.959   3.454   6.695
10077SOL    HW131130   5.023   3.406   6.635
10077SOL    HW231131   4.892   3.388   6.730
10078SOL     OW31132   6.522   6.044   5.043
10078SOL    HW131133   6.514   6.065   5.140
10078SOL    HW231134   6.435   6.063   4.997
10079SOL     OW31135   4.808   2.936   3.738
10079SOL    HW131136   4.720   2.893   3.716
10079SOL    HW231137   4.875   2.865   3.760
10080SOL     OW31138   4.838   1.272   5.741
10080SOL    HW131139   4.916   1.322   5.703
10080SOL    HW231140   4.801   1.210   5.672
10081SOL     OW31141   1.843   4.180   0.814
10081SOL    HW131142   1.895   4.174   0.728
10081SOL    HW231143   1.762   4.121   0.807
10082SOL     OW31144   1.324   4.903   0.715
10082SOL    HW131145   1.349   4.806   0.713
10082SOL    HW231146   1.234   4.913   0.758
10083SOL     OW31147   3.582   4.925   3.325
10083SOL    HW131148   3.645   4.906   3.250
10083SOL    HW231149   3.491   4.948   3.288
10084SOL     OW31150   1.004   1.469   5.056
10084SOL    HW131151   0.937   1.542   5.073
10084SOL    HW231152   1.096   1.506   5.069
10085SOL     OW31153   4.865   6.988   0.455
10085SOL    HW131154   4.903   6.903   0.418
10085SOL    HW231155   4.829   6.972   0.547
10086SOL     OW31156   6.291   6.597   3.773
10086SOL    HW131157   6.308   6.645   3.859
10086SOL    HW231158   6.351   6.518   3.767
10087SOL     OW31159   1.134   6.945   5.759
10087SOL    HW131160   1.230   6.963   5.740
10087SOL    HW231161   1.083   6.938   5.673
10088SOL     OW31162   0.457   2.641   0.403
10088SOL    HW131163   0.443   2.611   0.309
10088SOL    HW231164   0.394   2.716   0.425
10089SOL     OW31165   3.378   1.511   1.788
10089SOL    HW131166   3.428   1.533   1.872
10089SOL    HW231167   3.442   1.473   1.721
10090SOL     OW31168   2.444   5.681   3.091
10090SOL    HW131169   2.441   5.601   3.151
10090SOL    HW231170   2.351   5.707   3.065
10091SOL     OW31171   6.797   4.395   5.297
10091SOL    HW131172   6.706   4.359   5.318
10091SOL    HW231173   6.862   4.319   5.288
10092SOL     OW31174   0.922   2.078   3.511
10092SOL    HW131175   0.868   2.161   3.496
10092SOL    HW231176   0.873   1.999   3.472
10093SOL     OW31177   5.026   4.267   5.881
10093SOL    HW131178   4.944   4.276   5.937
10093SOL    HW231179   5.035   4.346   5.821
10094SOL     OW31180   3.217   1.905   0.743
10094SOL    HW131181   3.129   1.885   0.787
10094SOL    HW231182   3.270   1.967   0.801
10095SOL     OW31183   4.513   2.725   5.328
10095SOL    HW131184   4.551   2.712   5.237
10095SOL    HW231185   4.455   2.807   5.328
10096SOL     OW31186   5.712   2.834   2.464
10096SOL    HW131187   5.658   2.757   2.430
10096SOL    HW231188   5.706   2.910   2.398
10097SOL     OW31189   0.555   1.015   6.722
10097SOL    HW131190   0.580   1.085   6.788
10097SOL    HW231191   0.497   0.946   6.766
10098SOL     OW31192   2.656   5.442   3.906
10098SOL    HW131193   2.661   5.372   3.977
10098SOL    HW231194   2.603   5.406   3.829
10099SOL     OW31195   0.584   5.357   1.491
10099SOL    HW131196   0.540   5.425   1.550
10099SOL    HW231197   0.519   5.323   1.424
10100SOL     OW31198   5.037   5.398   4.125
10100SOL    HW131199   4.997   5.398   4.033
10100SOL    HW231200   5.023   5.487   4.167
10101SOL     OW31201   0.182   2.807   1.260
10101SOL    HW131202   0.207   2.724   1.210
10101SOL    HW231203   0.263   2.866   1.271
10102SOL     OW31204   6.973   5.263   3.089
10102SOL    HW131205   6.998   5.339   3.029
10102SOL    HW231206   0.032   5.205   3.104
10103SOL     OW31207   6.601   5.744   6.197
10103SOL    HW131208   6.548   5.708   6.121
10103SOL    HW231209   6.681   5.685   6.212
10104SOL     OW31210   2.101   0.584   4.353
10104SOL    HW131211   2.128   0.653   4.287
10104SOL    HW231212   2.175   0.570   4.420
10105SOL     OW31213   3.215   0.714   5.750
10105SOL    HW131214   3.283   0.641   5.754
10105SOL    HW231215   3.190   0.742   5.843
10106SOL     OW31216   5.795   4.790   1.552
10106SOL    HW131217   5.741   4.766   1.633
10106SOL    HW231218   5.888   4.816   1.580
10107SOL     OW31219   5.282   4.421   0.177
10107SOL    HW131220   5.320   4.392   0.090
10107SOL    HW231221   5.190   4.457   0.164
10108SOL     OW31222   1.859   2.597   0.562
10108SOL    HW131223   1.905   2.684   0.579
10108SOL    HW231224   1.911   2.544   0.496
10109SOL     OW31225   1.044   2.302   1.564
10109SOL    HW131226   0.948   2.328   1.563
10109SOL    HW231227   1.054   2.210   1.601
10110SOL     OW31228   5.448   5.959   2.671
10110SOL    HW131229   5.493   6.021   2.736
10110SOL    HW231230   5.353   5.988   2.658
10111SOL     OW31231   1.197   2.944   1.753
10111SOL    HW131232   1.183   3.020   1.690
10111SOL    HW231233   1.109   2.917   1.792
10112SOL     OW31234   0.016   2.113   2.607
10112SOL    HW131235   0.109   2.138   2.579
10112SOL    HW231236   7.004   2.179   2.674
10113SOL     OW31237   6.934   0.953   6.076
10113SOL    HW131238   6.949   1.025   6.009
10113SOL    HW231239   6.860   0.979   6.138
10114SOL     OW31240   5.333   1.724   1.574
10114SOL    HW131241   5.243   1.708   1.615
10114SOL    HW231242   5.351   1.655   1.504
10115SOL     OW31243   3.188   2.779   6.228
10115SOL    HW131244   3.253   2.854   6.213
10115SOL    HW231245   3.238   2.694   6.242
10116SOL     OW31246   6.762   0.576   5.025
10116SOL    HW131247   6.769   0.658   4.969
10116SOL    HW231248   6.845   0.566   5.081
10117SOL     OW31249   5.936   5.132   3.321
10117SOL    HW131250   5.932   5.185   3.236
10117SOL    HW231251   6.025   5.143   3.363
10118SOL     OW31252   4.235   5.247   3.376
10118SOL    HW131253   4.326   5.289   3.385
10118SOL    HW231254   4.165   5.318   3.386
10119SOL     OW31255   6.883   5.747   4.750
10119SOL    HW131256   6.822   5.716   4.823
10119SOL    HW231257   6.867   5.845   4.734
10120SOL     OW31258   1.758   3.142   3.248
10120SOL    HW131259   1.669   3.186   3.236
10120SOL    HW231260   1.757   3.051   3.206
10121SOL     OW31261   6.550   5.090   1.048
10121SOL    HW131262   6.471   5.138   1.085
10121SOL    HW231263   6.633   5.143   1.067
10122SOL     OW31264   1.661   0.108   3.739
10122SOL    HW131265   1.618   0.181   3.685
10122SOL    HW231266   1.705   0.043   3.678
10123SOL     OW31267   6.516   5.440   6.989
10123SOL    HW131268   6.580   5.517   6.991
10123SOL    HW231269   6.541   5.374   0.038
10124SOL     OW31270   1.892   4.908   2.688
10124SOL    HW131271   1.943   4.899   2.602
10124SOL    HW231272   1.947   4.871   2.763
10125SOL     OW31273   2.023   1.122   4.903
10125SOL    HW131274   2.015   1.221   4.917
10125SOL    HW231275   1.932   1.083   4.886
10126SOL     OW31276   6.301   6.327   6.213
10126SOL    HW131277   6.233   6.386   6.169
10126SOL    HW231278   6.374   6.384   6.251
10127SOL     OW31279   2.635   0.126   5.949
10127SOL    HW131280   2.556   0.185   5.936
10127SOL    HW231281   2.655   0.077   5.864
10128SOL     OW31282   3.169   2.799   0.009
10128SOL    HW131283   3.223   2.883   0.016
10128SOL    HW231284   3.100   2.810   6.959
10129SOL     OW31285   6.399   1.704   4.831
10129SOL    HW131286   6.494   1.733   4.824
10129SOL    HW231287   6.382   1.629   4.767
10130SOL     OW31288   1.267   0.943   3.732
10130SOL    HW131289   1.277   0.941   3.633
10130SOL    HW231290   1.192   0.883   3.760
10131SOL     OW31291   1.810   6.247   3.907
10131SOL    HW131292   1.849   6.320   3.964
10131SOL    HW231293   1.819   6.160   3.954
10132SOL     OW31294   6.324   0.046   1.589
10132SOL    HW131295   6.236   0.076   1.627
10132SOL    HW231296   6.374   7.014   1.657
10133SOL     OW31297   5.456   6.350   0.035
10133SOL    HW131298   5.413   6.430   7.015
10133SOL    HW231299   5.556   6.358   0.026
10134SOL     OW31300   6.764   6.712   2.250
10134SOL    HW131301   6.841   6.655   2.222
10134SOL    HW231302   6.719   6.749   2.168
10135SOL     OW31303   6.113   0.032   2.674
10135SOL    HW131304   6.099   6.990   2.750
10135SOL    HW231305   6.208   0.028   2.643
10136SOL     OW31306   4.778   2.232   3.578
10136SOL    HW131307   4.825   2.186   3.502
10136SOL    HW231308   4.749   2.323   3.549
10137SOL     OW31309   6.243   5.153   5.605
10137SOL    HW131310   6.143   5.155   5.615
10137SOL    HW231311   6.274   5.059   5.594
10138SOL     OW31312   0.262   2.578   0.985
10138SOL    HW131313   0.170   2.588   0.946
10138SOL    HW231314   0.322   2.534   0.918
10139SOL     OW31315   2.492   3.312   6.648
10139SOL    HW131316   2.527   3.382   6.710
10139SOL    HW231317   2.521   3.222   6.681
10140SOL     OW31318   0.733   6.691   5.885
10140SOL    HW131319   0.727   6.705   5.786
10140SOL    HW231320   0.828   6.705   5.914
10141SOL     OW31321   2.271   2.576   4.276
10141SOL    HW131322   2.200   2.601   4.341
10141SOL    HW231323   2.247   2.609   4.185
10142SOL     OW31324   4.362   6.621   3.533
10142SOL    HW131325   4.291   6.687   3.507
10142SOL    HW231326   4.331   6.568   3.612
10143SOL     OW31327   5.299   2.801   6.530
10143SOL    HW131328   5.347   2.861   6.593
10143SOL    HW231329   5.281   2.713   6.575
10144SOL     OW31330   3.614   6.486   0.169
10144SOL    HW131331   3.699   6.432   0.165
10144SOL    HW231332   3.621   6.564   0.106
10145SOL     OW31333   5.424   6.833   6.351
10145SOL    HW131334   5.510   6.865   6.311
10145SOL    HW231335   5.353   6.830   6.281
10146SOL     OW31336   0.396   2.685   5.009
10146SOL    HW131337   0.324   2.742   4.969
10146SOL    HW231338   0.417   2.718   5.101
10147SOL     OW31339   4.028   5.793   5.778
10147SOL    HW131340   4.127   5.797   5.765
10147SOL    HW231341   4.003   5.704   5.816
10148SOL     OW31342   0.782   4.348   0.517
10148SOL    HW131343   0.742   4.421   0.461
10148SOL    HW231344   0.731   4.340   0.603
10149SOL     OW31345   3.781   3.692   0.995
10149SOL    HW131346   3.825   3.780   0.975
10149SOL    HW231347   3.683   3.701   0.979
10150SOL     OW31348   4.453   4.473   0.812
10150SOL    HW131349   4.504   4.532   0.749
10150SOL    HW231350   4.363   4.455   0.775
10151SOL     OW31351   6.015   0.001   5.968
10151SOL    HW131352   5.984   6.988   5.879
10151SOL    HW231353   5.991   0.098   5.976
10152SOL     OW31354   4.381   0.176   2.296
10152SOL    HW131355   4.398   0.077   2.301
10152SOL    HW231356   4.456   0.220   2.248
10153SOL     OW31357   4.817   4.436   2.390
10153SOL    HW131358   4.877   4.376   2.442
10153SOL    HW231359   4.866   4.520   2.366
10154SOL     OW31360   4.567   5.813   5.866
10154SOL    HW131361   4.483   5.852   5.904
10154SOL    HW231362   4.640   5.881   5.869
10155SOL     OW31363   4.723   1.607   4.770
10155SOL    HW131364   4.657   1.551   4.820
10155SOL    HW231365   4.729   1.575   4.675
10156SOL     OW31366   4.381   2.051   0.189
10156SOL    HW131367   4.410   2.118   0.257
10156SOL    HW231368   4.394   2.088   0.097
10157SOL     OW31369   0.363   4.235   1.493
10157SOL    HW131370   0.450   4.252   1.447
10157SOL    HW231371   0.292   4.216   1.425
10158SOL     OW31372   6.259   4.789   0.490
10158SOL    HW131373   6.192   4.743   0.548
10158SOL    HW231374   6.276   4.733   0.409
10159SOL     OW31375   3.191   2.931   2.167
10159SOL    HW131376   3.248   2.983   2.104
10159SOL    HW231377   3.110   2.985   2.191
10160SOL     OW31378   0.647   5.167   2.455
10160SOL    HW131379   0.672   5.252   2.500
10160SOL    HW231380   0.724   5.103   2.457
10161SOL     OW31381   5.524   3.199   4.745
10161SOL    HW131382   5.605   3.149   4.775
10161SOL    HW231383   5.551   3.287   4.705
10162SOL     OW31384   1.648   2.628   2.098
10162SOL    HW131385   1.653   2.613   2.196
10162SOL    HW231386   1.715   2.697   2.071
10163SOL     OW31387   2.704   5.943   5.014
10163SOL    HW131388   2.654   5.889   4.946
10163SOL    HW231389   2.645   6.013   5.052
10164SOL     OW31390   1.173   1.294   3.580
10164SOL    HW131391   1.190   1.354   3.502
10164SOL    HW231392   1.256   1.284   3.634
10165SOL     OW31393   0.696   3.480   4.083
10165SOL    HW131394   0.729   3.545   4.015
10165SOL    HW231395   0.621   3.520   4.134
10166SOL     OW31396   2.149   0.104   1.606
10166SOL    HW131397   2.217   0.177   1.606
10166SOL    HW231398   2.186   0.023   1.559
10167SOL     OW31399   2.168   1.425   6.351
10167SOL    HW131400   2.177   1.435   6.252
10167SOL    HW231401   2.238   1.480   6.397
10168SOL     OW31402   6.715   0.282   6.745
10168SOL    HW131403   6.638   0.306   6.685
10168SOL    HW231404   6.784   0.233   6.692
10169SOL     OW31405   4.923   3.969   4.023
10169SOL    HW131406   4.885   3.919   3.945
10169SOL    HW231407   5.017   3.939   4.040
10170SOL     OW31408   5.118   5.357   6.701
10170SOL    HW131409   5.060   5.276   6.690
10170SOL    HW231410   5.072   5.421   6.763
10171SOL     OW31411   1.848   5.002   5.233
10171SOL    HW131412   1.834   5.065   5.157
10171SOL    HW231413   1.943   5.005   5.263
10172SOL     OW31414   6.157   0.527   3.009
10172SOL    HW131415   6.183   0.506   3.103
10172SOL    HW231416   6.161   0.444   2.953
10173SOL     OW31417   3.651   4.078   4.933
10173SOL    HW131418   3.629   4.037   4.845
10173SOL    HW231419   3.632   4.013   5.006
10174SOL     OW31420   5.010   5.227   1.735
10174SOL    HW131421   5.048   5.152   1.789
10174SOL    HW231422   4.915   5.243   1.761
10175SOL     OW31423   0.148   0.325   4.298
10175SOL    HW131424   0.126   0.295   4.206
10175SOL    HW231425   0.068   0.314   4.358
10176SOL     OW31426   6.666   1.570   5.058
10176SOL    HW131427   6.760   1.577   5.090
10176SOL    HW231428   6.626   1.662   5.053
10177SOL     OW31429   2.499   1.273   3.410
10177SOL    HW131430   2.454   1.223   3.483
10177SOL    HW231431   2.595   1.246   3.405
10178SOL     OW31432   0.652   1.771   1.242
10178SOL    HW131433   0.614   1.851   1.196
10178SOL    HW231434   0.624   1.688   1.194
10179SOL     OW31435   1.082   3.745   0.680
10179SOL    HW131436   1.038   3.655   0.677
10179SOL    HW231437   1.020   3.814   0.642
10180SOL     OW31438   4.324   6.659   5.754
10180SOL    HW131439   4.366   6.613   5.676
10180SOL    HW231440   4.362   6.623   5.839
10181SOL     OW31441   5.855   3.297   2.566
10181SOL    HW131442   5.765   3.254   2.563
10181SOL    HW231443   5.859   3.362   2.642
10182SOL     OW31444   4.817   1.368   1.230
10182SOL    HW131445   4.785   1.352   1.323
10182SOL    HW231446   4.740   1.390   1.171
10183SOL     OW31447   6.417   1.382   6.264
10183SOL    HW131448   6.481   1.448   6.225
10183SOL    HW231449   6.400   1.308   6.199
10184SOL     OW31450   5.691   1.629   5.934
10184SOL    HW131451   5.723   1.627   5.840
10184SOL    HW231452   5.602   1.675   5.938
10185SOL     OW31453   3.885   5.554   1.706
10185SOL    HW131454   3.888   5.622   1.778
10185SOL    HW231455   3.976   5.513   1.694
10186SOL     OW31456   3.563   3.440   6.355
10186SOL    HW131457   3.549   3.366   6.420
10186SOL    HW231458   3.661   3.460   6.347
10187SOL     OW31459   2.158   4.793   5.638
10187SOL    HW131460   2.163   4.859   5.563
10187SOL    HW231461   2.248   4.751   5.651
10188SOL     OW31462   3.175   0.088   6.150
10188SOL    HW131463   3.267   0.056   6.174
10188SOL    HW231464   3.107   0.021   6.182
10189SOL     OW31465   1.389   1.721   5.639
10189SOL    HW131466   1.473   1.762   5.602
10189SOL    HW231467   1.410   1.675   5.726
10190SOL     OW31468   4.183   4.875   1.475
10190SOL    HW131469   4.216   4.820   1.398
10190SOL    HW231470   4.261   4.911   1.526
10191SOL     OW31471   4.981   6.848   6.477
10191SOL    HW131472   4.916   6.873   6.549
10191SOL    HW231473   5.071   6.835   6.517
10192SOL     OW31474   1.828   1.363   3.927
10192SOL    HW131475   1.876   1.439   3.882
10192SOL    HW231476   1.892   1.314   3.985
10193SOL     OW31477   3.698   3.242   3.719
10193SOL    HW131478   3.760   3.173   3.682
10193SOL    HW231479   3.696   3.235   3.819
10194SOL     OW31480   3.061   0.312   2.944
10194SOL    HW131481   2.967   0.280   2.948
10194SOL    HW231482   3.094   0.308   2.849
10195SOL     OW31483   4.685   6.601   2.558
10195SOL    HW131484   4.736   6.688   2.563
10195SOL    HW231485   4.750   6.526   2.548
10196SOL     OW31486   6.326   2.726   4.229
10196SOL    HW131487   6.312   2.628   4.243
10196SOL    HW231488   6.347   2.743   4.132
10197SOL     OW31489   5.174   0.634   2.217
10197SOL    HW131490   5.141   0.548   2.256
10197SOL    HW231491   5.150   0.637   2.120
10198SOL     OW31492   2.117   0.308   0.970
10198SOL    HW131493   2.136   0.377   0.900
10198SOL    HW231494   2.155   0.220   0.941
10199SOL     OW31495   1.372   1.613   0.825
10199SOL    HW131496   1.390   1.548   0.898
10199SOL    HW231497   1.387   1.568   0.736
10200SOL     OW31498   5.633   3.925   5.463
10200SOL    HW131499   5.724   3.894   5.437
10200SOL    HW231500   5.624   4.023   5.444
10201SOL     OW31501   1.463   4.991   2.764
10201SOL    HW131502   1.507   4.902   2.750
10201SOL    HW231503   1.519   5.063   2.723
10202SOL     OW31504   0.400   2.924   2.394
10202SOL    HW131505   0.359   3.013   2.375
10202SOL    HW231506   0.347   2.875   2.462
10203SOL     OW31507   0.974   3.339   1.909
10203SOL    HW131508   0.997   3.374   1.818
10203SOL    HW231509   1.053   3.350   1.969
10204SOL     OW31510   3.231   5.206   4.401
10204SOL    HW131511   3.309   5.170   4.350
10204SOL    HW231512   3.202   5.139   4.470
10205SOL     OW31513   4.572   1.145   2.796
10205SOL    HW131514   4.657   1.166   2.845
10205SOL    HW231515   4.503   1.213   2.819
10206SOL     OW31516   4.478   6.842   6.090
10206SOL    HW131517   4.403   6.834   6.025
10206SOL    HW231518   4.521   6.931   6.081
10207SOL     OW31519   4.571   0.620   2.862
10207SOL    HW131520   4.574   0.536   2.916
10207SOL    HW231521   4.519   0.605   2.778
10208SOL     OW31522   6.086   4.008   5.434
10208SOL    HW131523   6.169   4.029   5.485
10208SOL    HW231524   6.094   3.917   5.393
10209SOL     OW31525   5.339   0.028   6.613
10209SOL    HW131526   5.328   6.953   6.638
10209SOL    HW231527   5.304   0.085   6.688
10210SOL     OW31528   5.236   5.687   1.768
10210SOL    HW131529   5.300   5.737   1.826
10210SOL    HW231530   5.188   5.619   1.823
10211SOL     OW31531   3.682   5.395   5.069
10211SOL    HW131532   3.705   5.492   5.072
10211SOL    HW231533   3.756   5.344   5.023
10212SOL     OW31534   6.204   6.548   5.112
10212SOL    HW131535   6.299   6.571   5.090
10212SOL    HW231536   6.148   6.557   5.030
10213SOL     OW31537   6.026   0.642   3.408
10213SOL    HW131538   5.947   0.681   3.362
10213SOL    HW231539   6.052   0.557   3.363
10214SOL     OW31540   6.869   0.084   1.985
10214SOL    HW131541   6.952   0.086   2.040
10214SOL    HW231542   6.830   0.175   1.979
10215SOL     OW31543   3.874   3.003   0.268
10215SOL    HW131544   3.919   2.941   0.333
10215SOL    HW231545   3.787   2.963   0.239
10216SOL     OW31546   4.935   0.403   1.532
10216SOL    HW131547   4.960   0.389   1.628
10216SOL    HW231548   4.908   0.316   1.492
10217SOL     OW31549   3.154   1.382   5.333
10217SOL    HW131550   3.239   1.423   5.300
10217SOL    HW231551   3.169   1.341   5.423
10218SOL     OW31552   1.967   2.604   1.120
10218SOL    HW131553   1.982   2.508   1.143
10218SOL    HW231554   1.879   2.634   1.157
10219SOL     OW31555   0.926   3.805   0.195
10219SOL    HW131556   0.951   3.852   0.110
10219SOL    HW231557   0.943   3.707   0.186
10220SOL     OW31558   4.204   2.049   0.890
10220SOL    HW131559   4.267   2.055   0.968
10220SOL    HW231560   4.210   1.959   0.849
10221SOL     OW31561   3.228   0.513   5.062
10221SOL    HW131562   3.255   0.569   4.984
10221SOL    HW231563   3.298   0.517   5.133
10222SOL     OW31564   1.702   5.655   5.764
10222SOL    HW131565   1.641   5.718   5.716
10222SOL    HW231566   1.696   5.671   5.863
10223SOL     OW31567   6.892   4.710   0.579
10223SOL    HW131568   6.901   4.722   0.480
10223SOL    HW231569   6.976   4.739   0.624
10224SOL     OW31570   1.667   6.694   3.971
10224SOL    HW131571   1.681   6.767   4.038
10224SOL    HW231572   1.648   6.734   3.882
10225SOL     OW31573   6.060   6.234   4.674
10225SOL    HW131574   6.056   6.195   4.582
10225SOL    HW231575   5.977   6.208   4.724
10226SOL     OW31576   0.648   2.015   1.115
10226SOL    HW131577   0.591   2.087   1.155
10226SOL    HW231578   0.703   2.054   1.041
10227SOL     OW31579   5.602   5.561   6.514
10227SOL    HW131580   5.593   5.524   6.422
10227SOL    HW231581   5.664   5.639   6.513
10228SOL     OW31582   0.745   4.557   2.881
10228SOL    HW131583   0.710   4.641   2.840
10228SOL    HW231584   0.680   4.483   2.865
10229SOL     OW31585   1.678   0.535   2.374
10229SOL    HW131586   1.650   0.536   2.278
10229SOL    HW231587   1.599   0.511   2.431
10230SOL     OW31588   6.707   6.949   4.051
10230SOL    HW131589   6.703   7.019   3.979
10230SOL    HW231590   6.798   6.907   4.051
10231SOL     OW31591   5.238   6.822   4.098
10231SOL    HW131592   5.278   6.913   4.109
10231SOL    HW231593   5.213   6.785   4.187
10232SOL     OW31594   3.615   2.056   4.630
10232SOL    HW131595   3.571   1.967   4.639
10232SOL    HW231596   3.662   2.079   4.716
10233SOL     OW31597   4.623   0.923   6.054
10233SOL    HW131598   4.591   0.944   6.147
10233SOL    HW231599   4.675   1.001   6.019
10234SOL     OW31600   5.482   6.416   1.583
10234SOL    HW131601   5.525   6.502   1.555
10234SOL    HW231602   5.494   6.348   1.511
10235SOL     OW31603   5.297   1.273   6.309
10235SOL    HW131604   5.354   1.353   6.327
10235SOL    HW231605   5.284   1.262   6.211
10236SOL     OW31606   2.234   5.781   2.728
10236SOL    HW131607   2.254   5.784   2.629
10236SOL    HW231608   2.313   5.744   2.776
10237SOL     OW31609   6.828   2.613   2.882
10237SOL    HW131610   6.888   2.549   2.929
10237SOL    HW231611   6.851   2.615   2.785
10238SOL     OW31612   4.981   4.778   4.261
10238SOL    HW131613   4.977   4.785   4.162
10238SOL    HW231614   4.939   4.692   4.290
10239SOL     OW31615   0.127   4.140   3.508
10239SOL    HW131616   0.191   4.067   3.485
10239SOL    HW231617   0.123   4.151   3.607
10240SOL     OW31618   6.978   3.932   3.453
10240SOL    HW131619   6.881   3.939   3.429
10240SOL    HW231620   7.004   4.012   3.508
10241SOL     OW31621   2.310   0.963   2.800
10241SOL    HW131622   2.384   0.983   2.737
10241SOL    HW231623   2.345   0.963   2.894
10242SOL     OW31624   0.601   6.268   6.185
10242SOL    HW131625   0.640   6.180   6.159
10242SOL    HW231626   0.672   6.326   6.224
10243SOL     OW31627   1.597   5.810   2.369
10243SOL    HW131628   1.683   5.761   2.385
10243SOL    HW231629   1.540   5.804   2.451
10244SOL     OW31630   2.352   6.576   6.549
10244SOL    HW131631   2.266   6.586   6.599
10244SOL    HW231632   2.337   6.590   6.451
10245SOL     OW31633   1.864   2.367   6.856
10245SOL    HW131634   1.810   2.283   6.858
10245SOL    HW231635   1.954   2.348   6.815
10246SOL     OW31636   4.104   3.504   4.388
10246SOL    HW131637   4.140   3.444   4.460
10246SOL    HW231638   4.069   3.448   4.313
10247SOL     OW31639   1.164   5.590   5.556
10247SOL    HW131640   1.232   5.523   5.526
10247SOL    HW231641   1.174   5.607   5.654
10248SOL     OW31642   4.595   0.331   1.720
10248SOL    HW131643   4.545   0.415   1.740
10248SOL    HW231644   4.544   0.253   1.754
10249SOL     OW31645   3.991   1.188   0.159
10249SOL    HW131646   4.076   1.235   0.185
10249SOL    HW231647   4.000   1.156   0.065
10250SOL     OW31648   6.753   0.668   0.330
10250SOL    HW131649   6.845   0.690   0.297
10250SOL    HW231650   6.760   0.626   0.420
10251SOL     OW31651   3.441   4.504   6.895
10251SOL    HW131652   3.514   4.568   6.919
10251SOL    HW231653   3.440   4.428   6.960
10252SOL     OW31654   6.797   5.250   1.987
10252SOL    HW131655   6.771   5.339   1.951
10252SOL    HW231656   6.867   5.209   1.928
10253SOL     OW31657   3.797   5.363   6.404
10253SOL    HW131658   3.799   5.334   6.500
10253SOL    HW231659   3.870   5.318   6.354
10254SOL     OW31660   2.583   2.168   4.888
10254SOL    HW131661   2.607   2.255   4.845
10254SOL    HW231662   2.571   2.181   4.986
10255SOL     OW31663   2.979   5.524   3.058
10255SOL    HW131664   2.969   5.464   3.138
10255SOL    HW231665   2.914   5.599   3.065
10256SOL     OW31666   5.702   6.386   7.012
10256SOL    HW131667   5.757   6.311   6.975
10256SOL    HW231668   5.732   6.472   6.972
10257SOL     OW31669   1.706   6.186   6.266
10257SOL    HW131670   1.609   6.201   6.248
10257SOL    HW231671   1.760   6.233   6.197
10258SOL     OW31672   4.497   0.745   3.120
10258SOL    HW131673   4.482   0.710   3.028
10258SOL    HW231674   4.444   0.829   3.133
10259SOL     OW31675   0.862   4.182   2.693
10259SOL    HW131676   0.764   4.171   2.677
10259SOL    HW231677   0.911   4.174   2.607
10260SOL     OW31678   0.649   6.737   1.577
10260SOL    HW131679   0.570   6.677   1.589
10260SOL    HW231680   0.620   6.832   1.588
10261SOL     OW31681   1.408   6.728   1.704
10261SOL    HW131682   1.372   6.821   1.693
10261SOL    HW231683   1.381   6.672   1.626
10262SOL     OW31684   1.662   5.430   5.293
10262SOL    HW131685   1.689   5.336   5.315
10262SOL    HW231686   1.562   5.435   5.290
10263SOL     OW31687   6.166   2.238   6.550
10263SOL    HW131688   6.091   2.200   6.605
10263SOL    HW231689   6.143   2.230   6.453
10264SOL     OW31690   0.219   0.015   6.527
10264SOL    HW131691   0.309   0.009   6.569
10264SOL    HW231692   0.149   7.020   6.596
10265SOL     OW31693   4.251   1.757   1.868
10265SOL    HW131694   4.167   1.776   1.817
10265SOL    HW231695   4.311   1.837   1.865
10266SOL     OW31696   3.543   3.961   6.256
10266SOL    HW131697   3.511   4.054   6.241
10266SOL    HW231698   3.642   3.957   6.245
10267SOL     OW31699   6.500   2.053   6.723
10267SOL    HW131700   6.561   1.974   6.717
10267SOL    HW231701   6.452   2.065   6.636
10268SOL     OW31702   6.630   4.992   1.736
10268SOL    HW131703   6.573   5.015   1.815
10268SOL    HW231704   6.694   4.920   1.761
10269SOL     OW31705   2.880   2.765   5.652
10269SOL    HW131706   2.917   2.784   5.561
10269SOL    HW231707   2.952   2.776   5.720
10270SOL     OW31708   2.140   5.916   0.838
10270SOL    HW131709   2.165   5.951   0.748
10270SOL    HW231710   2.189   5.831   0.855
10271SOL     OW31711   4.294   4.927   1.001
10271SOL    HW131712   4.351   4.987   1.058
10271SOL    HW231713   4.328   4.833   1.008
10272SOL     OW31714   0.701   1.025   6.290
10272SOL    HW131715   0.611   1.066   6.286
10272SOL    HW231716   0.770   1.095   6.307
10273SOL     OW31717   4.613   6.238   4.769
10273SOL    HW131718   4.555   6.221   4.689
10273SOL    HW231719   4.630   6.336   4.777
10274SOL     OW31720   1.541   6.272   5.705
10274SOL    HW131721   1.483   6.307   5.778
10274SOL    HW231722   1.592   6.192   5.737
10275SOL     OW31723   1.100   6.556   2.041
10275SOL    HW131724   1.046   6.612   1.978
10275SOL    HW231725   1.086   6.459   2.021
10276SOL     OW31726   6.315   5.756   6.635
10276SOL    HW131727   6.376   5.698   6.580
10276SOL    HW231728   6.327   5.733   6.732
10277SOL     OW31729   1.645   5.499   3.673
10277SOL    HW131730   1.671   5.540   3.585
10277SOL    HW231731   1.714   5.521   3.742
10278SOL     OW31732   5.788   0.369   5.642
10278SOL    HW131733   5.699   0.381   5.598
10278SOL    HW231734   5.836   0.293   5.598
10279SOL     OW31735   3.991   6.987   3.598
10279SOL    HW131736   4.010   6.963   3.503
10279SOL    HW231737   3.909   0.022   3.603
10280SOL     OW31738   2.698   3.705   6.381
10280SOL    HW131739   2.672   3.680   6.288
10280SOL    HW231740   2.648   3.649   6.447
10281SOL     OW31741   4.164   0.119   4.069
10281SOL    HW131742   4.110   0.123   4.153
10281SOL    HW231743   4.178   0.212   4.034
10282SOL     OW31744   0.830   1.907   4.749
10282SOL    HW131745   0.923   1.881   4.775
10282SOL    HW231746   0.776   1.825   4.729
10283SOL     OW31747   0.753   3.851   6.384
10283SOL    HW131748   0.789   3.848   6.477
10283SOL    HW231749   0.819   3.811   6.321
10284SOL     OW31750   5.326   2.825   5.865
10284SOL    HW131751   5.411   2.772   5.863
10284SOL    HW231752   5.292   2.836   5.772
10285SOL     OW31753   5.889   6.639   1.015
10285SOL    HW131754   5.836   6.696   0.952
10285SOL    HW231755   5.889   6.681   1.106
10286SOL     OW31756   4.353   0.918   4.039
10286SOL    HW131757   4.359   1.017   4.030
10286SOL    HW231758   4.346   0.893   4.135
10287SOL     OW31759   2.834   5.781   1.618
10287SOL    HW131760   2.907   5.722   1.585
10287SOL    HW231761   2.863   5.828   1.701
10288SOL     OW31762   5.533   6.452   4.027
10288SOL    HW131763   5.482   6.377   3.985
10288SOL    HW231764   5.529   6.444   4.126
10289SOL     OW31765   3.158   0.731   1.794
10289SOL    HW131766   3.100   0.720   1.713
10289SOL    HW231767   3.140   0.819   1.836
10290SOL     OW31768   3.298   3.700   1.992
10290SOL    HW131769   3.232   3.732   2.060
10290SOL    HW231770   3.250   3.678   1.907
10291SOL     OW31771   3.754   6.988   5.444
10291SOL    HW131772   3.667   7.003   5.492
10291SOL    HW231773   3.750   6.901   5.394
10292SOL     OW31774   0.470   1.116   4.537
10292SOL    HW131775   0.382   1.087   4.576
10292SOL    HW231776   0.491   1.209   4.567
10293SOL     OW31777   2.331   5.958   3.252
10293SOL    HW131778   2.325   5.862   3.225
10293SOL    HW231779   2.286   5.969   3.341
10294SOL     OW31780   5.656   1.579   3.400
10294SOL    HW131781   5.711   1.651   3.358
10294SOL    HW231782   5.715   1.519   3.454
10295SOL     OW31783   0.574   5.343   5.844
10295SOL    HW131784   0.491   5.398   5.842
10295SOL    HW231785   0.652   5.402   5.866
10296SOL     OW31786   6.236   1.931   0.779
10296SOL    HW131787   6.195   1.876   0.853
10296SOL    HW231788   6.179   2.011   0.763
10297SOL     OW31789   1.865   5.344   4.635
10297SOL    HW131790   1.838   5.264   4.581
10297SOL    HW231791   1.904   5.314   4.722
10298SOL     OW31792   4.962   3.260   3.832
10298SOL    HW131793   5.012   3.220   3.755
10298SOL    HW231794   4.896   3.327   3.798
10299SOL     OW31795   4.951   4.888   2.554
10299SOL    HW131796   4.851   4.890   2.561
10299SOL    HW231797   4.988   4.826   2.623
10300SOL     OW31798   1.391   4.652   2.753
10300SOL    HW131799   1.291   4.650   2.757
10300SOL    HW231800   1.426   4.560   2.735
10301SOL     OW31801   5.664   1.198   1.229
10301SOL    HW131802   5.724   1.118   1.219
10301SOL    HW231803   5.667   1.230   1.324
10302SOL     OW31804   1.819   5.235   3.307
10302SOL    HW131805   1.904   5.186   3.290
10302SOL    HW231806   1.837   5.333   3.314
10303SOL     OW31807   3.274   2.781   1.117
10303SOL    HW131808   3.268   2.856   1.183
10303SOL    HW231809   3.370   2.764   1.096
10304SOL     OW31810   6.117   6.416   3.918
10304SOL    HW131811   6.061   6.470   3.980
10304SOL    HW231812   6.158   6.476   3.849
10305SOL     OW31813   1.696   5.669   0.908
10305SOL    HW131814   1.767   5.738   0.918
10305SOL    HW231815   1.628   5.680   0.981
10306SOL     OW31816   4.592   5.819   0.012
10306SOL    HW131817   4.587   5.765   6.949
10306SOL    HW231818   4.628   5.762   0.086
10307SOL     OW31819   2.328   1.350   5.429
10307SOL    HW131820   2.358   1.378   5.520
10307SOL    HW231821   2.232   1.324   5.432
10308SOL     OW31822   3.437   5.764   3.977
10308SOL    HW131823   3.472   5.698   3.910
10308SOL    HW231824   3.339   5.750   3.989
10309SOL     OW31825   0.292   6.431   3.700
10309SOL    HW131826   0.200   6.399   3.675
10309SOL    HW231827   0.356   6.354   3.696
10310SOL     OW31828   4.036   3.182   3.972
10310SOL    HW131829   4.060   3.187   4.069
10310SOL    HW231830   3.959   3.119   3.960
10311SOL     OW31831   0.034   6.087   0.382
10311SOL    HW131832   0.119   6.040   0.358
10311SOL    HW231833   0.044   6.131   0.471
10312SOL     OW31834   2.089   4.625   1.120
10312SOL    HW131835   2.032   4.588   1.046
10312SOL    HW231836   2.114   4.551   1.182
10313SOL     OW31837   5.126   6.461   3.205
10313SOL    HW131838   5.030   6.450   3.178
10313SOL    HW231839   5.145   6.558   3.222
10314SOL     OW31840   6.517   5.824   0.004
10314SOL    HW131841   6.598   5.770   0.028
10314SOL    HW231842   6.461   5.773   6.960
10315SOL     OW31843   6.086   5.682   4.561
10315SOL    HW131844   6.157   5.688   4.490
10315SOL    HW231845   6.121   5.721   4.646
10316SOL     OW31846   6.946   3.891   2.252
10316SOL    HW131847   6.855   3.909   2.214
10316SOL    HW231848   6.946   3.801   2.296
10317SOL     OW31849   3.533   4.610   0.860
10317SOL    HW131850   3.481   4.674   0.802
10317SOL    HW231851   3.540   4.522   0.814
10318SOL     OW31852   6.630   6.092   2.091
10318SOL    HW131853   6.615   5.999   2.124
10318SOL    HW231854   6.726   6.118   2.104
10319SOL     OW31855   5.557   6.932   4.033
10319SOL    HW131856   5.463   6.967   4.030
10319SOL    HW231857   5.611   6.975   3.961
10320SOL     OW31858   5.085   6.670   1.456
10320SOL    HW131859   5.152   6.625   1.397
10320SOL    HW231860   4.996   6.671   1.410
10321SOL     OW31861   3.864   5.807   4.290
10321SOL    HW131862   3.920   5.886   4.314
10321SOL    HW231863   3.826   5.821   4.199
10322SOL     OW31864   6.341   2.781   0.228
10322SOL    HW131865   6.367   2.696   0.274
10322SOL    HW231866   6.360   2.773   0.130
10323SOL     OW31867   6.028   2.670   5.014
10323SOL    HW131868   5.986   2.748   5.062
10323SOL    HW231869   5.995   2.668   4.920
10324SOL     OW31870   2.914   3.571   3.615
10324SOL    HW131871   2.888   3.636   3.544
10324SOL    HW231872   2.911   3.616   3.704
10325SOL     OW31873   0.803   3.859   2.545
10325SOL    HW131874   0.732   3.788   2.535
10325SOL    HW231875   0.811   3.910   2.460
10326SOL     OW31876   5.424   1.665   1.253
10326SOL    HW131877   5.480   1.616   1.321
10326SOL    HW231878   5.473   1.666   1.166
10327SOL     OW31879   0.149   0.583   3.921
10327SOL    HW131880   0.179   0.667   3.874
10327SOL    HW231881   0.063   0.552   3.882
10328SOL     OW31882   5.856   2.484   2.126
10328SOL    HW131883   5.793   2.434   2.186
10328SOL    HW231884   5.890   2.421   2.056
10329SOL     OW31885   3.943   6.751   2.288
10329SOL    HW131886   3.953   6.850   2.289
10329SOL    HW231887   3.896   6.724   2.203
10330SOL     OW31888   3.795   5.158   1.540
10330SOL    HW131889   3.853   5.146   1.621
10330SOL    HW231890   3.724   5.087   1.540
10331SOL     OW31891   5.991   0.526   3.829
10331SOL    HW131892   6.060   0.579   3.778
10331SOL    HW231893   6.035   0.447   3.871
10332SOL     OW31894   0.447   2.333   6.338
10332SOL    HW131895   0.495   2.247   6.357
10332SOL    HW231896   0.408   2.369   6.423
10333SOL     OW31897   4.666   4.322   4.831
10333SOL    HW131898   4.704   4.241   4.875
10333SOL    HW231899   4.569   4.330   4.854
10334SOL     OW31900   1.255   4.674   5.415
10334SOL    HW131901   1.192   4.652   5.340
10334SOL    HW231902   1.296   4.589   5.450
10335SOL     OW31903   2.043   5.728   2.023
10335SOL    HW131904   2.057   5.708   1.926
10335SOL    HW231905   1.954   5.771   2.036
10336SOL     OW31906   4.385   6.887   2.789
10336SOL    HW131907   4.390   6.868   2.887
10336SOL    HW231908   4.346   6.808   2.741
10337SOL     OW31909   0.209   5.402   5.059
10337SOL    HW131910   0.255   5.489   5.040
10337SOL    HW231911   0.275   5.338   5.099
10338SOL     OW31912   3.795   5.493   3.477
10338SOL    HW131913   3.706   5.519   3.515
10338SOL    HW231914   3.858   5.570   3.485
10339SOL     OW31915   3.340   5.475   0.658
10339SOL    HW131916   3.270   5.404   0.658
10339SOL    HW231917   3.430   5.433   0.648
10340SOL     OW31918   2.049   0.134   0.010
10340SOL    HW131919   2.134   0.185   0.021
10340SOL    HW231920   2.032   0.080   0.092
10341SOL     OW31921   1.604   1.278   2.322
10341SOL    HW131922   1.564   1.227   2.398
10341SOL    HW231923   1.609   1.375   2.345
10342SOL     OW31924   2.626   6.522   4.357
10342SOL    HW131925   2.652   6.572   4.275
10342SOL    HW231926   2.553   6.457   4.334
10343SOL     OW31927   2.242   3.056   4.776
10343SOL    HW131928   2.148   3.049   4.812
10343SOL    HW231929   2.307   3.037   4.850
10344SOL     OW31930   3.943   4.291   6.121
10344SOL    HW131931   3.855   4.297   6.167
10344SOL    HW231932   4.002   4.226   6.168
10345SOL     OW31933   1.549   1.908   6.495
10345SOL    HW131934   1.560   1.998   6.537
10345SOL    HW231935   1.524   1.920   6.399
10346SOL     OW31936   5.120   5.577   6.955
10346SOL    HW131937   5.069   5.504   7.001
10346SOL    HW231938   5.056   5.631   6.899
10347SOL     OW31939   5.085   2.245   1.748
10347SOL    HW131940   5.178   2.259   1.782
10347SOL    HW231941   5.036   2.181   1.807
10348SOL     OW31942   6.747   5.501   6.010
10348SOL    HW131943   6.698   5.505   5.923
10348SOL    HW231944   6.721   5.417   6.059
10349SOL     OW31945   0.025   1.331   0.597
10349SOL    HW131946   6.986   1.291   0.529
10349SOL    HW231947   6.994   1.389   0.659
10350SOL     OW31948   2.235   4.166   4.670
10350SOL    HW131949   2.193   4.138   4.756
10350SOL    HW231950   2.318   4.217   4.688
10351SOL     OW31951   4.607   4.633   5.044
10351SOL    HW131952   4.512   4.616   5.017
10351SOL    HW231953   4.658   4.669   4.966
10352SOL     OW31954   5.657   1.444   6.903
10352SOL    HW131955   5.611   1.362   6.868
10352SOL    HW231956   5.600   1.485   6.975
10353SOL     OW31957   6.787   2.451   3.497
10353SOL    HW131958   6.748   2.392   3.426
10353SOL    HW231959   6.759   2.417   3.587
10354SOL     OW31960   6.898   3.199   1.033
10354SOL    HW131961   6.987   3.222   1.074
10354SOL    HW231962   6.885   3.252   0.950
10355SOL     OW31963   0.421   1.737   1.037
10355SOL    HW131964   0.438   1.655   0.983
10355SOL    HW231965   0.380   1.711   1.124
10356SOL     OW31966   6.060   3.540   5.876
10356SOL    HW131967   6.040   3.481   5.954
10356SOL    HW231968   5.975   3.577   5.839
10357SOL     OW31969   0.975   1.760   6.041
10357SOL    HW131970   0.899   1.757   6.106
10357SOL    HW231971   1.015   1.851   6.041
10358SOL     OW31972   0.692   1.815   3.038
10358SOL    HW131973   0.758   1.743   3.058
10358SOL    HW231974   0.738   1.904   3.037
10359SOL     OW31975   6.518   2.296   1.763
10359SOL    HW131976   6.456   2.224   1.792
10359SOL    HW231977   6.471   2.384   1.765
10360SOL     OW31978   6.205   4.476   1.984
10360SOL    HW131979   6.235   4.528   1.905
10360SOL    HW231980   6.261   4.500   2.064
10361SOL     OW31981   0.388   1.480   1.925
10361SOL    HW131982   0.401   1.410   1.855
10361SOL    HW231983   0.308   1.537   1.901
10362SOL     OW31984   1.286   5.643   1.387
10362SOL    HW131985   1.288   5.741   1.405
10362SOL    HW231986   1.369   5.601   1.425
10363SOL     OW31987   5.548   4.313   6.557
10363SOL    HW131988   5.471   4.260   6.594
10363SOL    HW231989   5.560   4.292   6.460
10364SOL     OW31990   6.098   4.514   2.329
10364SOL    HW131991   6.010   4.561   2.324
10364SOL    HW231992   6.169   4.572   2.291
10365SOL     OW31993   5.313   5.689   0.067
10365SOL    HW131994   5.392   5.725   0.018
10365SOL    HW231995   5.248   5.651   0.002
10366SOL     OW31996   2.658   5.677   3.501
10366SOL    HW131997   2.755   5.689   3.480
10366SOL    HW231998   2.623   5.759   3.545
10367SOL     OW31999   5.833   0.175   1.659
10367SOL    HW132000   5.766   0.223   1.716
10367SOL    HW232001   5.808   0.184   1.563
10368SOL     OW32002   2.080   6.415   2.214
10368SOL    HW132003   2.178   6.427   2.228
10368SOL    HW232004   2.029   6.463   2.286
10369SOL     OW32005   3.023   0.325   6.010
10369SOL    HW132006   3.008   0.388   6.087
10369SOL    HW232007   3.079   0.248   6.041
10370SOL     OW32008   0.948   0.648   6.221
10370SOL    HW132009   0.864   0.651   6.275
10370SOL    HW232010   0.967   0.739   6.183
10371SOL     OW32011   4.256   5.319   3.068
10371SOL    HW132012   4.315   5.244   3.096
10371SOL    HW232013   4.160   5.295   3.082
10372SOL     OW32014   2.736   6.362   1.972
10372SOL    HW132015   2.749   6.285   2.034
10372SOL    HW232016   2.824   6.406   1.954
10373SOL     OW32017   0.190   1.215   5.978
10373SOL    HW132018   0.189   1.149   5.903
10373SOL    HW232019   0.098   1.220   6.018
10374SOL     OW32020   4.038   5.493   3.651
10374SOL    HW132021   4.122   5.519   3.699
10374SOL    HW232022   4.050   5.510   3.553
10375SOL     OW32023   2.450   4.273   0.279
10375SOL    HW132024   2.443   4.213   0.200
10375SOL    HW232025   2.531   4.331   0.269
10376SOL     OW32026   1.624   4.395   3.259
10376SOL    HW132027   1.572   4.380   3.175
10376SOL    HW232028   1.639   4.307   3.305
10377SOL     OW32029   1.664   0.714   2.133
10377SOL    HW132030   1.643   0.780   2.205
10377SOL    HW232031   1.693   0.763   2.050
10378SOL     OW32032   0.028   4.825   3.970
10378SOL    HW132033   0.125   4.803   3.977
10378SOL    HW232034   6.994   4.747   3.998
10379SOL     OW32035   1.733   6.339   4.307
10379SOL    HW132036   1.701   6.360   4.400
10379SOL    HW232037   1.819   6.289   4.311
10380SOL     OW32038   2.446   2.320   4.568
10380SOL    HW132039   2.517   2.268   4.521
10380SOL    HW232040   2.478   2.414   4.581
10381SOL     OW32041   4.247   5.377   2.390
10381SOL    HW132042   4.149   5.383   2.409
10381SOL    HW232043   4.265   5.302   2.327
10382SOL     OW32044   4.073   5.789   2.243
10382SOL    HW132045   4.099   5.714   2.182
10382SOL    HW232046   4.047   5.869   2.190
10383SOL     OW32047   1.764   4.038   0.423
10383SOL    HW132048   1.712   4.123   0.436
10383SOL    HW232049   1.856   4.050   0.461
10384SOL     OW32050   5.859   6.749   1.566
10384SOL    HW132051   5.812   6.811   1.629
10384SOL    HW232052   5.798   6.674   1.541
10385SOL     OW32053   4.726   4.928   6.597
10385SOL    HW132054   4.676   4.947   6.513
10385SOL    HW232055   4.737   4.829   6.607
10386SOL     OW32056   6.652   1.128   0.507
10386SOL    HW132057   6.636   1.134   0.408
10386SOL    HW232058   6.623   1.213   0.550
10387SOL     OW32059   5.209   2.973   1.988
10387SOL    HW132060   5.127   2.934   1.946
10387SOL    HW232061   5.279   2.902   1.996
10388SOL     OW32062   2.682   0.973   6.047
10388SOL    HW132063   2.764   1.030   6.051
10388SOL    HW232064   2.685   0.917   5.964
10389SOL     OW32065   0.606   3.782   0.640
10389SOL    HW132066   0.562   3.696   0.612
10389SOL    HW232067   0.547   3.831   0.704
10390SOL     OW32068   2.053   2.516   1.966
10390SOL    HW132069   2.131   2.465   1.930
10390SOL    HW232070   1.977   2.513   1.900
10391SOL     OW32071   5.725   6.677   4.757
10391SOL    HW132072   5.819   6.645   4.760
10391SOL    HW232073   5.723   6.771   4.722
10392SOL     OW32074   6.575   4.399   3.858
10392SOL    HW132075   6.609   4.370   3.769
10392SOL    HW232076   6.641   4.461   3.901
10393SOL     OW32077   1.289   3.820   3.470
10393SOL    HW132078   1.265   3.809   3.374
10393SOL    HW232079   1.222   3.773   3.527
10394SOL     OW32080   3.388   6.383   4.453
10394SOL    HW132081   3.342   6.393   4.541
10394SOL    HW232082   3.406   6.474   4.414
10395SOL     OW32083   0.177   0.147   0.613
10395SOL    HW132084   0.262   0.098   0.633
10395SOL    HW232085   0.160   0.214   0.686
10396SOL     OW32086   3.050   1.740   4.668
10396SOL    HW132087   2.991   1.813   4.702
10396SOL    HW232088   3.134   1.737   4.721
10397SOL     OW32089   2.976   2.188   2.714
10397SOL    HW132090   2.983   2.288   2.714
10397SOL    HW232091   3.045   2.151   2.776
10398SOL     OW32092   6.907   2.506   1.198
10398SOL    HW132093   6.908   2.436   1.127
10398SOL    HW232094   6.982   2.490   1.262
10399SOL     OW32095   6.539   3.628   1.591
10399SOL    HW132096   6.470   3.565   1.627
10399SOL    HW232097   6.507   3.722   1.604
10400SOL     OW32098   4.010   6.819   0.635
10400SOL    HW132099   3.911   6.832   0.622
10400SOL    HW232100   4.057   6.835   0.548
10401SOL     OW32101   7.003   0.592   5.181
10401SOL    HW132102   0.051   0.658   5.154
10401SOL    HW232103   7.006   0.578   5.280
10402SOL     OW32104   6.722   2.845   4.271
10402SOL    HW132105   6.635   2.855   4.319
10402SOL    HW232106   6.777   2.774   4.314
10403SOL     OW32107   2.878   0.497   3.189
10403SOL    HW132108   2.932   0.425   3.145
10403SOL    HW232109   2.784   0.466   3.201
10404SOL     OW32110   0.356   6.212   6.265
10404SOL    HW132111   0.353   6.124   6.218
10404SOL    HW232112   0.446   6.254   6.253
10405SOL     OW32113   6.891   1.198   5.957
10405SOL    HW132114   6.882   1.243   5.868
10405SOL    HW232115   6.800   1.186   5.998
10406SOL     OW32116   3.172   4.756   1.793
10406SOL    HW132117   3.147   4.807   1.710
10406SOL    HW232118   3.093   4.751   1.854
10407SOL     OW32119   2.951   6.487   0.195
10407SOL    HW132120   2.936   6.542   0.277
10407SOL    HW232121   3.003   6.405   0.218
10408SOL     OW32122   4.290   0.213   0.447
10408SOL    HW132123   4.384   0.245   0.436
10408SOL    HW232124   4.227   0.286   0.420
10409SOL     OW32125   6.091   4.698   0.676
10409SOL    HW132126   6.006   4.712   0.727
10409SOL    HW232127   6.129   4.608   0.699
10410SOL     OW32128   5.776   1.085   0.311
10410SOL    HW132129   5.775   0.985   0.311
10410SOL    HW232130   5.788   1.117   0.217
10411SOL     OW32131   2.696   4.987   3.458
10411SOL    HW132132   2.763   4.919   3.430
10411SOL    HW232133   2.680   4.980   3.556
10412SOL     OW32134   5.900   0.626   1.088
10412SOL    HW132135   5.980   0.567   1.096
10412SOL    HW232136   5.930   0.721   1.081
10413SOL     OW32137   6.255   1.959   1.199
10413SOL    HW132138   6.186   1.889   1.180
10413SOL    HW232139   6.227   2.045   1.158
10414SOL     OW32140   5.071   2.435   5.013
10414SOL    HW132141   5.013   2.398   4.940
10414SOL    HW232142   5.140   2.367   5.038
10415SOL     OW32143   0.562   6.027   6.026
10415SOL    HW132144   0.489   6.056   5.964
10415SOL    HW232145   0.577   5.929   6.017
10416SOL     OW32146   6.085   3.034   4.812
10416SOL    HW132147   6.073   3.100   4.738
10416SOL    HW232148   5.997   2.991   4.832
10417SOL     OW32149   2.572   4.594   3.868
10417SOL    HW132150   2.583   4.593   3.768
10417SOL    HW232151   2.593   4.685   3.903
10418SOL     OW32152   0.761   4.224   5.227
10418SOL    HW132153   0.806   4.139   5.201
10418SOL    HW232154   0.666   4.223   5.197
10419SOL     OW32155   0.987   1.127   0.803
10419SOL    HW132156   1.077   1.126   0.848
10419SOL    HW232157   0.991   1.072   0.720
10420SOL     OW32158   7.021   2.801   2.762
10420SOL    HW132159   6.948   2.836   2.703
10420SOL    HW232160   6.998   2.817   2.858
10421SOL     OW32161   1.350   0.701   3.911
10421SOL    HW132162   1.293   0.770   3.866
10421SOL    HW232163   1.375   0.630   3.845
10422SOL     OW32164   6.564   2.502   5.580
10422SOL    HW132165   6.636   2.562   5.547
10422SOL    HW232166   6.562   2.505   5.680
10423SOL     OW32167   4.510   4.731   4.112
10423SOL    HW132168   4.509   4.670   4.033
10423SOL    HW232169   4.596   4.782   4.114
10424SOL     OW32170   5.264   1.625   6.841
10424SOL    HW132171   5.342   1.657   6.895
10424SOL    HW232172   5.180   1.663   6.879
10425SOL     OW32173   1.525   5.586   2.560
10425SOL    HW132174   1.504   5.616   2.653
10425SOL    HW232175   1.593   5.648   2.520
10426SOL     OW32176   6.311   4.307   0.344
10426SOL    HW132177   6.284   4.211   0.334
10426SOL    HW232178   6.267   4.346   0.424
10427SOL     OW32179   5.319   2.052   0.611
10427SOL    HW132180   5.345   2.148   0.621
10427SOL    HW232181   5.318   2.008   0.701
10428SOL     OW32182   3.987   0.604   4.604
10428SOL    HW132183   3.998   0.507   4.584
10428SOL    HW232184   4.077   0.648   4.604
10429SOL     OW32185   6.787   5.983   1.679
10429SOL    HW132186   6.693   6.012   1.690
10429SOL    HW232187   6.848   6.049   1.723
10430SOL     OW32188   4.323   6.271   3.147
10430SOL    HW132189   4.227   6.298   3.138
10430SOL    HW232190   4.375   6.344   3.191
10431SOL     OW32191   2.912   0.377   5.254
10431SOL    HW132192   2.819   0.342   5.240
10431SOL    HW232193   2.914   0.474   5.230
10432SOL     OW32194   5.904   0.658   4.148
10432SOL    HW132195   5.972   0.723   4.114
10432SOL    HW232196   5.863   0.609   4.071
10433SOL     OW32197   1.853   6.670   1.137
10433SOL    HW132198   1.918   6.601   1.106
10433SOL    HW232199   1.883   6.706   1.226
10434SOL     OW32200   3.197   0.128   3.424
10434SOL    HW132201   3.176   0.031   3.419
10434SOL    HW232202   3.164   0.174   3.341
10435SOL     OW32203   5.729   6.412   6.111
10435SOL    HW132204   5.682   6.324   6.120
10435SOL    HW232205   5.778   6.432   6.196
10436SOL     OW32206   1.490   5.375   4.157
10436SOL    HW132207   1.441   5.442   4.213
10436SOL    HW232208   1.426   5.335   4.090
10437SOL     OW32209   6.420   5.361   5.745
10437SOL    HW132210   6.392   5.376   5.840
10437SOL    HW232211   6.403   5.265   5.721
10438SOL     OW32212   5.181   6.579   0.673
10438SOL    HW132213   5.264   6.632   0.657
10438SOL    HW232214   5.182   6.541   0.765
10439SOL     OW32215   3.745   0.288   5.544
10439SOL    HW132216   3.650   0.317   5.552
10439SOL    HW232217   3.771   0.236   5.625
10440SOL     OW32218   1.021   6.607   0.846
10440SOL    HW132219   0.947   6.605   0.913
10440SOL    HW232220   1.104   6.643   0.888
10441SOL     OW32221   5.362   1.773   6.484
10441SOL    HW132222   5.291   1.758   6.415
10441SOL    HW232223   5.379   1.687   6.534
10442SOL     OW32224   3.563   5.359   5.713
10442SOL    HW132225   3.555   5.266   5.679
10442SOL    HW232226   3.615   5.415   5.648
10443SOL     OW32227   6.302   3.879   4.821
10443SOL    HW132228   6.216   3.928   4.807
10443SOL    HW232229   6.371   3.942   4.857
10444SOL     OW32230   3.789   5.264   4.839
10444SOL    HW132231   3.748   5.172   4.838
10444SOL    HW232232   3.746   5.320   4.768
10445SOL     OW32233   6.808   5.525   4.176
10445SOL    HW132234   6.774   5.589   4.107
10445SOL    HW232235   6.745   5.447   4.182
10446SOL     OW32236   0.999   4.792   6.474
10446SOL    HW132237   0.918   4.761   6.523
10446SOL    HW232238   0.987   4.777   6.376
10447SOL     OW32239   6.714   2.079   1.309
10447SOL    HW132240   6.718   2.094   1.407
10447SOL    HW232241   6.633   2.024   1.286
10448SOL     OW32242   3.864   3.878   2.228
10448SOL    HW132243   3.954   3.858   2.190
10448SOL    HW232244   3.822   3.953   2.178
10449SOL     OW32245   2.442   5.497   4.156
10449SOL    HW132246   2.471   5.444   4.076
10449SOL    HW232247   2.342   5.494   4.163
10450SOL     OW32248   0.024   1.798   0.312
10450SOL    HW132249   0.077   1.758   0.387
10450SOL    HW232250   0.087   1.837   0.244
10451SOL     OW32251   2.480   4.466   2.846
10451SOL    HW132252   2.506   4.437   2.939
10451SOL    HW232253   2.554   4.520   2.806
10452SOL     OW32254   0.512   3.007   3.857
10452SOL    HW132255   0.559   3.041   3.939
10452SOL    HW232256   0.561   2.927   3.821
10453SOL     OW32257   5.661   5.708   1.265
10453SOL    HW132258   5.578   5.764   1.255
10453SOL    HW232259   5.728   5.737   1.197
10454SOL     OW32260   5.118   3.054   2.232
10454SOL    HW132261   5.158   3.145   2.221
10454SOL    HW232262   5.122   3.005   2.145
10455SOL     OW32263   0.507   4.911   4.076
10455SOL    HW132264   0.462   4.843   4.019
10455SOL    HW232265   0.564   4.970   4.020
10456SOL     OW32266   3.710   6.056   1.160
10456SOL    HW132267   3.750   6.144   1.187
10456SOL    HW232268   3.619   6.047   1.201
10457SOL     OW32269   4.091   3.572   3.423
10457SOL    HW132270   4.072   3.485   3.469
10457SOL    HW232271   4.096   3.645   3.491
10458SOL     OW32272   1.357   6.459   1.127
10458SOL    HW132273   1.448   6.471   1.168
10458SOL    HW232274   1.367   6.439   1.029
10459SOL     OW32275   6.224   5.366   2.464
10459SOL    HW132276   6.242   5.380   2.561
10459SOL    HW232277   6.131   5.398   2.443
10460SOL     OW32278   2.355   5.355   2.005
10460SOL    HW132279   2.434   5.397   1.961
10460SOL    HW232280   2.288   5.425   2.029
10461SOL     OW32281   3.164   0.278   6.621
10461SOL    HW132282   3.188   0.366   6.661
10461SOL    HW232283   3.064   0.270   6.617
10462SOL     OW32284   6.132   0.535   1.187
10462SOL    HW132285   6.198   0.460   1.188
10462SOL    HW232286   6.112   0.562   1.282
10463SOL     OW32287   2.800   4.732   0.245
10463SOL    HW132288   2.744   4.669   0.300
10463SOL    HW232289   2.807   4.820   0.290
10464SOL     OW32290   5.242   0.589   0.686
10464SOL    HW132291   5.177   0.649   0.639
10464SOL    HW232292   5.298   0.644   0.748
10465SOL     OW32293   6.487   5.145   6.393
10465SOL    HW132294   6.531   5.076   6.335
10465SOL    HW232295   6.436   5.099   6.466
10466SOL     OW32296   4.688   6.138   5.224
10466SOL    HW132297   4.601   6.121   5.178
10466SOL    HW232298   4.750   6.185   5.162
10467SOL     OW32299   2.792   1.748   5.307
10467SOL    HW132300   2.891   1.741   5.298
10467SOL    HW232301   2.761   1.836   5.270
10468SOL     OW32302   3.270   0.036   3.776
10468SOL    HW132303   3.336   7.013   3.716
10468SOL    HW232304   3.302   0.128   3.797
10469SOL     OW32305   1.663   4.604   0.567
10469SOL    HW132306   1.717   4.649   0.638
10469SOL    HW232307   1.720   4.589   0.486
10470SOL     OW32308   2.983   1.580   4.012
10470SOL    HW132309   2.911   1.607   4.076
10470SOL    HW232310   3.071   1.616   4.043
10471SOL     OW32311   3.077   3.575   1.094
10471SOL    HW132312   3.061   3.664   1.051
10471SOL    HW232313   2.999   3.515   1.075
10472SOL     OW32314   3.418   1.118   1.795
10472SOL    HW132315   3.399   1.034   1.745
10472SOL    HW232316   3.498   1.164   1.755
10473SOL     OW32317   5.633   5.932   0.188
10473SOL    HW132318   5.631   5.854   0.124
10473SOL    HW232319   5.557   5.924   0.252
10474SOL     OW32320   3.764   0.559   4.473
10474SOL    HW132321   3.712   0.641   4.450
10474SOL    HW232322   3.847   0.585   4.524
10475SOL     OW32323   4.109   0.302   1.028
10475SOL    HW132324   4.077   0.395   1.046
10475SOL    HW232325   4.198   0.306   0.982
10476SOL     OW32326   0.075   5.346   6.734
10476SOL    HW132327   0.015   5.421   6.707
10476SOL    HW232328   0.020   5.273   6.775
10477SOL     OW32329   5.646   4.124   5.159
10477SOL    HW132330   5.628   4.079   5.072
10477SOL    HW232331   5.727   4.083   5.201
10478SOL     OW32332   0.144   6.212   1.419
10478SOL    HW132333   0.221   6.214   1.355
10478SOL    HW232334   0.065   6.256   1.378
10479SOL     OW32335   1.651   3.356   2.962
10479SOL    HW132336   1.687   3.325   2.874
10479SOL    HW232337   1.627   3.453   2.957
10480SOL     OW32338   5.426   6.903   2.099
10480SOL    HW132339   5.442   6.929   2.194
10480SOL    HW232340   5.340   6.852   2.092
10481SOL     OW32341   1.820   0.728   5.012
10481SOL    HW132342   1.723   0.714   5.034
10481SOL    HW232343   1.835   0.709   4.915
10482SOL     OW32344   1.016   5.923   4.991
10482SOL    HW132345   1.036   5.988   4.918
10482SOL    HW232346   0.983   5.971   5.071
10483SOL     OW32347   0.117   5.498   0.201
10483SOL    HW132348   0.162   5.461   0.282
10483SOL    HW232349   0.183   5.505   0.127
10484SOL     OW32350   6.846   0.863   1.758
10484SOL    HW132351   6.817   0.915   1.838
10484SOL    HW232352   6.793   0.893   1.678
10485SOL     OW32353   3.453   3.953   3.167
10485SOL    HW132354   3.485   3.863   3.136
10485SOL    HW232355   3.374   3.941   3.226
10486SOL     OW32356   6.137   6.167   5.329
10486SOL    HW132357   6.212   6.231   5.341
10486SOL    HW232358   6.062   6.189   5.392
10487SOL     OW32359   4.317   2.180   1.478
10487SOL    HW132360   4.286   2.273   1.499
10487SOL    HW232361   4.241   2.116   1.485
10488SOL     OW32362   6.821   2.269   5.407
10488SOL    HW132363   6.790   2.339   5.342
10488SOL    HW232364   6.745   2.245   5.468
10489SOL     OW32365   5.900   4.579   4.240
10489SOL    HW132366   5.916   4.654   4.304
10489SOL    HW232367   5.960   4.503   4.263
10490SOL     OW32368   5.853   6.034   6.514
10490SOL    HW132369   5.824   6.039   6.418
10490SOL    HW232370   5.774   6.043   6.574
10491SOL     OW32371   1.496   3.022   6.117
10491SOL    HW132372   1.537   3.097   6.169
10491SOL    HW232373   1.485   2.942   6.177
10492SOL     OW32374   4.140   0.491   0.363
10492SOL    HW132375   4.145   0.531   0.454
10492SOL    HW232376   4.045   0.487   0.333
10493SOL     OW32377   4.276   5.681   0.529
10493SOL    HW132378   4.279   5.772   0.489
10493SOL    HW232379   4.311   5.615   0.462
10494SOL     OW32380   0.476   4.213   5.238
10494SOL    HW132381   0.517   4.274   5.306
10494SOL    HW232382   0.416   4.265   5.178
10495SOL     OW32383   0.670   6.350   6.876
10495SOL    HW132384   0.738   6.340   6.804
10495SOL    HW232385   0.716   6.374   6.962
10496SOL     OW32386   0.285   3.980   5.545
10496SOL    HW132387   0.368   3.945   5.589
10496SOL    HW232388   0.267   4.073   5.578
10497SOL     OW32389   2.166   6.542   1.218
10497SOL    HW132390   2.145   6.507   1.126
10497SOL    HW232391   2.102   6.503   1.284
10498SOL     OW32392   4.462   5.215   0.403
10498SOL    HW132393   4.536   5.178   0.460
10498SOL    HW232394   4.375   5.199   0.449
10499SOL     OW32395   5.647   5.204   2.533
10499SOL    HW132396   5.594   5.179   2.452
10499SOL    HW232397   5.611   5.157   2.613
10500SOL     OW32398   6.703   3.821   4.988
10500SOL    HW132399   6.749   3.830   4.900
10500SOL    HW232400   6.644   3.740   4.987
10501SOL     OW32401   2.772   5.206   3.105
10501SOL    HW132402   2.691   5.260   3.080
10501SOL    HW232403   2.817   5.248   3.183
10502SOL     OW32404   3.234   4.048   2.456
10502SOL    HW132405   3.182   4.053   2.541
10502SOL    HW232406   3.331   4.037   2.476
10503SOL     OW32407   5.600   2.587   6.595
10503SOL    HW132408   5.506   2.559   6.611
10503SOL    HW232409   5.656   2.506   6.578
10504SOL     OW32410   1.701   2.977   6.362
10504SOL    HW132411   1.739   2.917   6.292
10504SOL    HW232412   1.762   3.055   6.375
10505SOL     OW32413   5.913   6.810   1.272
10505SOL    HW132414   6.005   6.795   1.236
10505SOL    HW232415   5.906   6.772   1.364
10506SOL     OW32416   0.969   2.565   0.415
10506SOL    HW132417   0.893   2.622   0.447
10506SOL    HW232418   1.055   2.600   0.453
10507SOL     OW32419   1.077   5.488   5.992
10507SOL    HW132420   1.122   5.437   6.066
10507SOL    HW232421   1.145   5.538   5.940
10508SOL     OW32422   0.901   5.297   5.363
10508SOL    HW132423   0.888   5.245   5.278
10508SOL    HW232424   0.989   5.273   5.404
10509SOL     OW32425   4.619   2.600   3.815
10509SOL    HW132426   4.628   2.671   3.885
10509SOL    HW232427   4.704   2.546   3.811
10510SOL     OW32428   5.648   5.483   3.825
10510SOL    HW132429   5.618   5.466   3.731
10510SOL    HW232430   5.575   5.460   3.889
10511SOL     OW32431   3.857   1.838   2.205
10511SOL    HW132432   3.880   1.913   2.144
10511SOL    HW232433   3.886   1.860   2.298
10512SOL     OW32434   4.026   1.247   4.878
10512SOL    HW132435   3.949   1.201   4.834
10512SOL    HW232436   4.091   1.277   4.808
10513SOL     OW32437   5.205   3.035   1.390
10513SOL    HW132438   5.288   2.980   1.378
10513SOL    HW232439   5.176   3.030   1.486
10514SOL     OW32440   0.547   3.375   1.684
10514SOL    HW132441   0.558   3.278   1.705
10514SOL    HW232442   0.491   3.419   1.754
10515SOL     OW32443   1.822   2.714   5.057
10515SOL    HW132444   1.861   2.702   4.965
10515SOL    HW232445   1.896   2.730   5.122
10516SOL     OW32446   4.297   2.401   1.217
10516SOL    HW132447   4.240   2.392   1.135
10516SOL    HW232448   4.393   2.393   1.192
10517SOL     OW32449   0.595   2.495   3.110
10517SOL    HW132450   0.539   2.570   3.145
10517SOL    HW232451   0.579   2.413   3.165
10518SOL     OW32452   0.879   5.014   2.492
10518SOL    HW132453   0.912   4.932   2.539
10518SOL    HW232454   0.951   5.084   2.491
10519SOL     OW32455   3.281   6.230   0.935
10519SOL    HW132456   3.193   6.185   0.945
10519SOL    HW232457   3.304   6.238   0.838
10520SOL     OW32458   7.010   2.070   4.703
10520SOL    HW132459   0.059   2.127   4.745
10520SOL    HW232460   6.923   2.085   4.751
10521SOL     OW32461   6.636   2.690   1.505
10521SOL    HW132462   6.631   2.771   1.447
10521SOL    HW232463   6.578   2.618   1.467
10522SOL     OW32464   5.240   2.452   3.770
10522SOL    HW132465   5.161   2.393   3.752
10522SOL    HW232466   5.280   2.428   3.858
10523SOL     OW32467   6.916   4.651   2.997
10523SOL    HW132468   6.966   4.735   2.976
10523SOL    HW232469   6.850   4.633   2.924
10524SOL     OW32470   6.649   6.319   5.255
10524SOL    HW132471   6.700   6.301   5.339
10524SOL    HW232472   6.692   6.272   5.179
10525SOL     OW32473   5.156   1.947   4.468
10525SOL    HW132474   5.232   1.898   4.426
10525SOL    HW232475   5.137   2.030   4.415
10526SOL     OW32476   1.579   5.012   6.988
10526SOL    HW132477   1.585   4.955   0.048
10526SOL    HW232478   1.596   5.108   7.013
10527SOL     OW32479   0.774   0.054   4.690
10527SOL    HW132480   0.696   0.035   4.631
10527SOL    HW232481   0.859   0.042   4.639
10528SOL     OW32482   1.187   4.043   5.765
10528SOL    HW132483   1.087   4.039   5.759
10528SOL    HW232484   1.214   4.127   5.813
10529SOL     OW32485   1.091   6.123   0.816
10529SOL    HW132486   1.031   6.146   0.893
10529SOL    HW232487   1.186   6.136   0.844
10530SOL     OW32488   0.110   5.955   0.637
10530SOL    HW132489   0.048   5.884   0.602
10530SOL    HW232490   0.181   5.913   0.693
10531SOL     OW32491   3.010   3.057   5.272
10531SOL    HW132492   3.042   2.967   5.244
10531SOL    HW232493   2.914   3.051   5.301
10532SOL     OW32494   5.301   6.286   6.722
10532SOL    HW132495   5.321   6.198   6.765
10532SOL    HW232496   5.383   6.343   6.722
10533SOL     OW32497   2.744   5.420   3.517
10533SOL    HW132498   2.676   5.349   3.535
10533SOL    HW232499   2.707   5.509   3.544
10534SOL     OW32500   1.574   6.384   3.723
10534SOL    HW132501   1.630   6.356   3.801
10534SOL    HW232502   1.531   6.303   3.683
10535SOL     OW32503   3.433   2.123   2.703
10535SOL    HW132504   3.522   2.152   2.740
10535SOL    HW232505   3.447   2.058   2.629
10536SOL     OW32506   5.633   1.539   4.121
10536SOL    HW132507   5.582   1.620   4.093
10536SOL    HW232508   5.644   1.477   4.043
10537SOL     OW32509   4.393   0.056   3.978
10537SOL    HW132510   4.307   0.090   4.017
10537SOL    HW232511   4.451   0.133   3.953
10538SOL     OW32512   6.272   3.181   2.950
10538SOL    HW132513   6.197   3.124   2.916
10538SOL    HW232514   6.359   3.133   2.937
10539SOL     OW32515   6.773   0.512   3.130
10539SOL    HW132516   6.805   0.454   3.205
10539SOL    HW232517   6.673   0.508   3.125
10540SOL     OW32518   2.469   3.510   6.012
10540SOL    HW132519   2.481   3.530   5.915
10540SOL    HW232520   2.533   3.565   6.066
10541SOL     OW32521   3.281   3.065   5.368
10541SOL    HW132522   3.256   3.152   5.326
10541SOL    HW232523   3.216   2.994   5.339
10542SOL     OW32524   4.865   6.889   4.103
10542SOL    HW132525   4.965   6.888   4.090
10542SOL    HW232526   4.844   6.923   4.195
10543SOL     OW32527   0.280   3.674   5.061
10543SOL    HW132528   0.282   3.614   4.980
10543SOL    HW232529   0.331   3.632   5.135
10544SOL     OW32530   1.915   1.272   2.909
10544SOL    HW132531   1.963   1.186   2.891
10544SOL    HW232532   1.855   1.293   2.832
10545SOL     OW32533   1.954   1.963   2.867
10545SOL    HW132534   1.959   1.985   2.770
10545SOL    HW232535   1.985   2.042   2.921
10546SOL     OW32536   2.978   6.772   0.105
10546SOL    HW132537   2.981   6.673   0.091
10546SOL    HW232538   2.913   6.794   0.177
10547SOL     OW32539   4.552   0.247   4.778
10547SOL    HW132540   4.591   0.155   4.774
10547SOL    HW232541   4.463   0.243   4.824
10548SOL     OW32542   0.317   4.954   4.268
10548SOL    HW132543   0.279   4.863   4.285
10548SOL    HW232544   0.398   4.946   4.211
10549SOL     OW32545   0.084   0.863   1.161
10549SOL    HW132546   0.167   0.809   1.151
10549SOL    HW232547   0.026   0.822   1.232
10550SOL     OW32548   5.086   5.508   3.637
10550SOL    HW132549   5.024   5.553   3.572
10550SOL    HW232550   5.178   5.545   3.625
10551SOL     OW32551   2.738   1.850   6.204
10551SOL    HW132552   2.778   1.846   6.113
10551SOL    HW232553   2.779   1.926   6.255
10552SOL     OW32554   3.020   1.163   4.637
10552SOL    HW132555   3.055   1.171   4.544
10552SOL    HW232556   3.092   1.188   4.702
10553SOL     OW32557   0.352   4.785   0.720
10553SOL    HW132558   0.377   4.703   0.772
10553SOL    HW232559   0.424   4.807   0.655
10554SOL     OW32560   6.554   5.517   2.280
10554SOL    HW132561   6.521   5.557   2.195
10554SOL    HW232562   6.490   5.539   2.354
10555SOL     OW32563   3.940   2.890   0.834
10555SOL    HW132564   3.911   2.984   0.816
10555SOL    HW232565   3.984   2.853   0.752
10556SOL     OW32566   2.491   1.484   2.745
10556SOL    HW132567   2.400   1.442   2.752
10556SOL    HW232568   2.482   1.579   2.715
10557SOL     OW32569   2.154   4.121   4.384
10557SOL    HW132570   2.198   4.127   4.474
10557SOL    HW232571   2.085   4.193   4.377
10558SOL     OW32572   3.125   5.238   4.830
10558SOL    HW132573   3.131   5.323   4.882
10558SOL    HW232574   3.034   5.197   4.843
10559SOL     OW32575   4.392   6.577   6.954
10559SOL    HW132576   4.350   6.545   6.869
10559SOL    HW232577   4.358   6.669   6.975
10560SOL     OW32578   5.907   6.797   2.250
10560SOL    HW132579   5.832   6.797   2.184
10560SOL    HW232580   5.909   6.709   2.298
10561SOL     OW32581   5.664   4.331   0.313
10561SOL    HW132582   5.594   4.333   0.385
10561SOL    HW232583   5.706   4.422   0.306
10562SOL     OW32584   3.989   6.242   2.134
10562SOL    HW132585   4.068   6.299   2.157
10562SOL    HW232586   3.907   6.277   2.180
10563SOL     OW32587   0.589   0.210   1.410
10563SOL    HW132588   0.524   0.135   1.415
10563SOL    HW232589   0.675   0.177   1.372
10564SOL     OW32590   5.678   5.193   3.826
10564SOL    HW132591   5.746   5.250   3.780
10564SOL    HW232592   5.670   5.221   3.922
10565SOL     OW32593   0.737   6.756   5.617
10565SOL    HW132594   0.658   6.817   5.623
10565SOL    HW232595   0.716   6.681   5.554
10566SOL     OW32596   2.577   3.472   6.853
10566SOL    HW132597   2.609   3.456   6.946
10566SOL    HW232598   2.635   3.539   6.808
10567SOL     OW32599   1.010   2.241   6.483
10567SOL    HW132600   0.955   2.170   6.529
10567SOL    HW232601   0.998   2.328   6.531
10568SOL     OW32602   5.284   2.538   5.650
10568SOL    HW132603   5.382   2.541   5.631
10568SOL    HW232604   5.238   2.481   5.581
10569SOL     OW32605   5.630   6.506   0.784
10569SOL    HW132606   5.688   6.452   0.845
10569SOL    HW232607   5.681   6.529   0.701
10570SOL     OW32608   1.267   4.714   3.569
10570SOL    HW132609   1.179   4.724   3.523
10570SOL    HW232610   1.329   4.787   3.538
10571SOL     OW32611   6.456   4.472   6.035
10571SOL    HW132612   6.404   4.491   5.952
10571SOL    HW232613   6.527   4.404   6.016
10572SOL     OW32614   6.145   4.205   0.841
10572SOL    HW132615   6.101   4.295   0.847
10572SOL    HW232616   6.102   4.142   0.906
10573SOL     OW32617   5.575   1.136   3.857
10573SOL    HW132618   5.576   1.201   3.780
10573SOL    HW232619   5.530   1.052   3.828
10574SOL     OW32620   6.599   2.579   3.747
10574SOL    HW132621   6.577   2.553   3.653
10574SOL    HW232622   6.536   2.535   3.810
10575SOL     OW32623   6.288   0.155   1.336
10575SOL    HW132624   6.282   0.129   1.432
10575SOL    HW232625   6.204   0.129   1.289
10576SOL     OW32626   1.891   4.517   4.185
10576SOL    HW132627   1.908   4.419   4.198
10576SOL    HW232628   1.837   4.531   4.102
10577SOL     OW32629   3.990   5.654   0.544
10577SOL    HW132630   3.944   5.678   0.630
10577SOL    HW232631   4.088   5.672   0.553
10578SOL     OW32632   6.898   3.549   4.152
10578SOL    HW132633   6.844   3.621   4.196
10578SOL    HW232634   6.891   3.558   4.053
10579SOL     OW32635   1.348   3.713   0.140
10579SOL    HW132636   1.288   3.635   0.121
10579SOL    HW232637   1.307   3.770   0.211
10580SOL     OW32638   6.764   6.525   0.028
10580SOL    HW132639   6.768   6.624   0.011
10580SOL    HW232640   6.843   6.498   0.083
10581SOL     OW32641   5.341   6.915   2.740
10581SOL    HW132642   5.266   6.981   2.735
10581SOL    HW232643   5.363   6.896   2.836
10582SOL     OW32644   5.781   4.714   6.472
10582SOL    HW132645   5.715   4.774   6.426
10582SOL    HW232646   5.874   4.748   6.456
10583SOL     OW32647   2.987   0.730   5.620
10583SOL    HW132648   3.078   0.709   5.657
10583SOL    HW232649   2.997   0.763   5.526
10584SOL     OW32650   1.060   0.192   4.914
10584SOL    HW132651   1.083   0.212   4.819
10584SOL    HW232652   1.140   0.210   4.972
10585SOL     OW32653   0.890   6.961   4.944
10585SOL    HW132654   0.797   6.996   4.931
10585SOL    HW232655   0.951   0.015   4.968
10586SOL     OW32656   4.077   4.281   5.278
10586SOL    HW132657   3.988   4.311   5.244
10586SOL    HW232658   4.149   4.332   5.232
10587SOL     OW32659   2.356   5.963   5.240
10587SOL    HW132660   2.328   5.879   5.193
10587SOL    HW232661   2.297   6.038   5.213
10588SOL     OW32662   0.998   3.793   4.135
10588SOL    HW132663   0.909   3.754   4.114
10588SOL    HW232664   0.996   3.832   4.227
10589SOL     OW32665   5.342   5.922   3.742
10589SOL    HW132666   5.301   5.943   3.831
10589SOL    HW232667   5.440   5.903   3.755
10590SOL     OW32668   0.759   5.648   2.425
10590SOL    HW132669   0.837   5.690   2.472
10590SOL    HW232670   0.769   5.659   2.326
10591SOL     OW32671   0.258   2.579   1.758
10591SOL    HW132672   0.216   2.608   1.672
10591SOL    HW232673   0.207   2.620   1.834
10592SOL     OW32674   6.217   2.085   4.786
10592SOL    HW132675   6.211   2.185   4.788
10592SOL    HW232676   6.233   2.054   4.692
10593SOL     OW32677   3.459   5.916   2.993
10593SOL    HW132678   3.487   5.876   3.080
10593SOL    HW232679   3.407   5.849   2.940
10594SOL     OW32680   3.048   6.937   3.918
10594SOL    HW132681   3.118   6.987   3.868
10594SOL    HW232682   2.979   6.904   3.853
10595SOL     OW32683   6.117   6.697   0.299
10595SOL    HW132684   6.040   6.641   0.329
10595SOL    HW232685   6.140   6.763   0.370
10596SOL     OW32686   5.140   2.898   6.835
10596SOL    HW132687   5.236   2.880   6.814
10596SOL    HW232688   5.097   2.814   6.865
10597SOL     OW32689   1.987   1.053   6.155
10597SOL    HW132690   2.081   1.078   6.180
10597SOL    HW232691   1.923   1.113   6.202
10598SOL     OW32692   2.536   2.245   6.311
10598SOL    HW132693   2.545   2.186   6.230
10598SOL    HW232694   2.561   2.338   6.287
10599SOL     OW32695   6.788   2.635   6.314
10599SOL    HW132696   6.809   2.603   6.221
10599SOL    HW232697   6.693   2.614   6.336
10600SOL     OW32698   2.833   1.869   1.070
10600SOL    HW132699   2.735   1.857   1.060
10600SOL    HW232700   2.862   1.833   1.159
10601SOL     OW32701   1.005   6.713   6.000
10601SOL    HW132702   1.062   6.707   5.918
10601SOL    HW232703   1.026   6.637   6.061
10602SOL     OW32704   6.871   0.034   1.217
10602SOL    HW132705   6.892   0.037   1.315
10602SOL    HW232706   6.916   6.976   1.176
10603SOL     OW32707   4.967   0.025   2.481
10603SOL    HW132708   5.019   0.030   2.396
10603SOL    HW232709   4.891   0.090   2.477
10604SOL     OW32710   5.796   6.391   4.814
10604SOL    HW132711   5.818   6.295   4.832
10604SOL    HW232712   5.771   6.403   4.718
10605SOL     OW32713   2.394   2.187   1.357
10605SOL    HW132714   2.381   2.269   1.301
10605SOL    HW232715   2.404   2.107   1.298
10606SOL     OW32716   6.139   0.288   0.757
10606SOL    HW132717   6.224   0.321   0.797
10606SOL    HW232718   6.119   0.338   0.673
10607SOL     OW32719   3.333   4.646   6.411
10607SOL    HW132720   3.379   4.600   6.487
10607SOL    HW232721   3.271   4.716   6.447
10608SOL     OW32722   5.719   3.823   2.951
10608SOL    HW132723   5.729   3.774   2.865
10608SOL    HW232724   5.665   3.906   2.936
10609SOL     OW32725   4.271   1.804   6.556
10609SOL    HW132726   4.236   1.836   6.644
10609SOL    HW232727   4.242   1.709   6.541
10610SOL     OW32728   0.338   0.385   3.817
10610SOL    HW132729   0.257   0.427   3.860
10610SOL    HW232730   0.358   0.432   3.732
10611SOL     OW32731   3.644   5.180   4.506
10611SOL    HW132732   3.575   5.215   4.570
10611SOL    HW232733   3.624   5.085   4.483
10612SOL     OW32734   5.667   1.424   3.878
10612SOL    HW132735   5.673   1.519   3.850
10612SOL    HW232736   5.757   1.380   3.869
10613SOL     OW32737   5.229   6.844   4.447
10613SOL    HW132738   5.255   6.758   4.490
10613SOL    HW232739   5.289   6.917   4.480
10614SOL     OW32740   4.436   0.522   5.858
10614SOL    HW132741   4.449   0.602   5.916
10614SOL    HW232742   4.492   0.532   5.775
10615SOL     OW32743   1.562   1.955   6.214
10615SOL    HW132744   1.486   1.957   6.150
10615SOL    HW232745   1.640   2.005   6.176
10616SOL     OW32746   2.347   6.742   6.950
10616SOL    HW132747   2.405   6.675   6.996
10616SOL    HW232748   2.389   6.832   6.957
10617SOL     OW32749   2.563   3.283   1.743
10617SOL    HW132750   2.494   3.343   1.782
10617SOL    HW232751   2.630   3.337   1.693
10618SOL     OW32752   1.280   5.243   4.871
10618SOL    HW132753   1.186   5.227   4.898
10618SOL    HW232754   1.297   5.341   4.863
10619SOL     OW32755   1.114   2.354   3.066
10619SOL    HW132756   1.122   2.281   2.998
10619SOL    HW232757   1.034   2.410   3.044
10620SOL     OW32758   3.089   1.025   6.368
10620SOL    HW132759   3.131   0.993   6.283
10620SOL    HW232760   3.039   0.949   6.410
10621SOL     OW32761   0.473   3.604   3.094
10621SOL    HW132762   0.375   3.590   3.105
10621SOL    HW232763   0.506   3.666   3.165
10622SOL     OW32764   4.432   2.812   0.369
10622SOL    HW132765   4.374   2.747   0.321
10622SOL    HW232766   4.400   2.905   0.351
10623SOL     OW32767   5.337   6.081   5.955
10623SOL    HW132768   5.435   6.098   5.966
10623SOL    HW232769   5.285   6.158   5.993
10624SOL     OW32770   0.194   2.510   5.608
10624SOL    HW132771   0.167   2.439   5.673
10624SOL    HW232772   0.294   2.512   5.601
10625SOL     OW32773   6.079   4.750   6.977
10625SOL    HW132774   6.083   4.652   6.994
10625SOL    HW232775   6.038   4.796   0.034
10626SOL     OW32776   4.975   3.160   1.327
10626SOL    HW132777   5.042   3.091   1.353
10626SOL    HW232778   4.919   3.126   1.251
10627SOL     OW32779   5.781   5.682   5.529
10627SOL    HW132780   5.741   5.750   5.468
10627SOL    HW232781   5.746   5.695   5.621
10628SOL     OW32782   3.715   6.751   1.493
10628SOL    HW132783   3.659   6.762   1.574
10628SOL    HW232784   3.811   6.765   1.516
10629SOL     OW32785   2.125   5.184   4.361
10629SOL    HW132786   2.179   5.121   4.417
10629SOL    HW232787   2.046   5.136   4.322
10630SOL     OW32788   3.755   0.636   2.368
10630SOL    HW132789   3.812   0.560   2.398
10630SOL    HW232790   3.660   0.604   2.360
10631SOL     OW32791   4.283   6.479   6.701
10631SOL    HW132792   4.374   6.452   6.670
10631SOL    HW232793   4.265   6.574   6.675
10632SOL     OW32794   4.012   5.678   3.210
10632SOL    HW132795   3.957   5.691   3.127
10632SOL    HW232796   3.992   5.751   3.275
10633SOL     OW32797   1.487   3.116   1.770
10633SOL    HW132798   1.492   3.028   1.819
10633SOL    HW232799   1.398   3.125   1.727
10634SOL     OW32800   0.138   3.547   6.719
10634SOL    HW132801   0.196   3.591   6.788
10634SOL    HW232802   0.187   3.542   6.632
10635SOL     OW32803   2.279   4.330   6.021
10635SOL    HW132804   2.197   4.383   6.040
10635SOL    HW232805   2.304   4.340   5.925
10636SOL     OW32806   6.815   1.931   6.049
10636SOL    HW132807   6.792   2.025   6.074
10636SOL    HW232808   6.887   1.932   5.980
10637SOL     OW32809   3.173   1.261   6.977
10637SOL    HW132810   3.164   1.356   7.006
10637SOL    HW232811   3.223   1.257   6.891
10638SOL     OW32812   0.072   5.431   1.694
10638SOL    HW132813   0.172   5.439   1.687
10638SOL    HW232814   0.031   5.522   1.689
10639SOL     OW32815   1.819   4.593   1.233
10639SOL    HW132816   1.819   4.576   1.135
10639SOL    HW232817   1.798   4.508   1.282
10640SOL     OW32818   4.300   6.873   3.819
10640SOL    HW132819   4.393   6.837   3.807
10640SOL    HW232820   4.302   6.948   3.885
10641SOL     OW32821   1.927   0.973   3.468
10641SOL    HW132822   1.924   0.914   3.548
10641SOL    HW232823   1.994   1.046   3.482
10642SOL     OW32824   5.683   2.133   6.655
10642SOL    HW132825   5.670   2.202   6.584
10642SOL    HW232826   5.599   2.081   6.667
10643SOL     OW32827   1.645   5.064   5.662
10643SOL    HW132828   1.672   5.108   5.577
10643SOL    HW232829   1.625   4.967   5.645
10644SOL     OW32830   6.800   2.307   3.210
10644SOL    HW132831   6.783   2.224   3.156
10644SOL    HW232832   6.736   2.378   3.182
10645SOL     OW32833   2.683   2.389   3.633
10645SOL    HW132834   2.649   2.477   3.667
10645SOL    HW232835   2.606   2.328   3.616
10646SOL     OW32836   4.902   0.833   4.091
10646SOL    HW132837   4.915   0.771   4.014
10646SOL    HW232838   4.968   0.908   4.085
10647SOL     OW32839   3.950   5.042   4.512
10647SOL    HW132840   3.940   5.070   4.607
10647SOL    HW232841   4.017   5.101   4.467
10648SOL     OW32842   5.016   5.609   5.155
10648SOL    HW132843   5.070   5.537   5.199
10648SOL    HW232844   5.072   5.691   5.144
10649SOL     OW32845   6.350   3.256   2.607
10649SOL    HW132846   6.303   3.267   2.519
10649SOL    HW232847   6.301   3.305   2.678
10650SOL     OW32848   0.335   0.672   4.114
10650SOL    HW132849   0.273   0.622   4.053
10650SOL    HW232850   0.388   0.606   4.168
10651SOL     OW32851   3.596   6.418   5.601
10651SOL    HW132852   3.583   6.404   5.699
10651SOL    HW232853   3.664   6.353   5.567
10652SOL     OW32854   1.768   6.702   0.008
10652SOL    HW132855   1.749   6.632   6.960
10652SOL    HW232856   1.847   6.674   0.062
10653SOL     OW32857   4.719   6.497   4.828
10653SOL    HW132858   4.714   6.558   4.749
10653SOL    HW232859   4.768   6.543   4.902
10654SOL     OW32860   5.989   1.599   4.542
10654SOL    HW132861   5.957   1.512   4.581
10654SOL    HW232862   5.946   1.675   4.591
10655SOL     OW32863   0.841   4.974   1.082
10655SOL    HW132864   0.845   4.885   1.128
10655SOL    HW232865   0.770   5.030   1.124
10656SOL     OW32866   6.095   1.167   2.363
10656SOL    HW132867   6.172   1.148   2.424
10656SOL    HW232868   6.012   1.179   2.417
10657SOL     OW32869   5.889   0.186   3.497
10657SOL    HW132870   5.820   0.207   3.565
10657SOL    HW232871   5.874   0.093   3.462
10658SOL     OW32872   0.200   3.418   5.180
10658SOL    HW132873   0.142   3.337   5.188
10658SOL    HW232874   0.147   3.499   5.205
10659SOL     OW32875   1.092   5.107   0.660
10659SOL    HW132876   1.056   5.190   0.618
10659SOL    HW232877   1.163   5.068   0.602
10660SOL     OW32878   6.366   3.625   5.196
10660SOL    HW132879   6.365   3.696   5.266
10660SOL    HW232880   6.432   3.554   5.222
10661SOL     OW32881   1.994   3.775   6.112
10661SOL    HW132882   1.970   3.809   6.021
10661SOL    HW232883   1.995   3.850   6.177
10662SOL     OW32884   3.041   1.595   2.929
10662SOL    HW132885   3.123   1.643   2.898
10662SOL    HW232886   2.960   1.650   2.907
10663SOL     OW32887   1.897   1.890   4.245
10663SOL    HW132888   1.973   1.955   4.247
10663SOL    HW232889   1.824   1.926   4.186
10664SOL     OW32890   1.511   5.275   5.051
10664SOL    HW132891   1.423   5.247   5.013
10664SOL    HW232892   1.497   5.349   5.116
10665SOL     OW32893   2.075   2.437   5.759
10665SOL    HW132894   2.133   2.392   5.826
10665SOL    HW232895   1.981   2.442   5.793
10666SOL     OW32896   3.880   3.393   2.339
10666SOL    HW132897   3.839   3.483   2.324
10666SOL    HW232898   3.816   3.334   2.388
10667SOL     OW32899   5.657   2.439   3.489
10667SOL    HW132900   5.586   2.487   3.541
10667SOL    HW232901   5.720   2.507   3.449
10668SOL     OW32902   3.434   2.251   5.337
10668SOL    HW132903   3.442   2.154   5.313
10668SOL    HW232904   3.359   2.292   5.286
10669SOL     OW32905   5.924   1.421   1.040
10669SOL    HW132906   5.918   1.474   0.955
10669SOL    HW232907   5.913   1.482   1.118
10670SOL     OW32908   5.313   3.447   4.502
10670SOL    HW132909   5.320   3.352   4.532
10670SOL    HW232910   5.405   3.486   4.493
10671SOL     OW32911   1.269   2.261   4.407
10671SOL    HW132912   1.225   2.344   4.441
10671SOL    HW232913   1.256   2.187   4.472
10672SOL     OW32914   5.518   3.406   1.335
10672SOL    HW132915   5.431   3.367   1.305
10672SOL    HW232916   5.500   3.490   1.387
10673SOL     OW32917   1.996   1.240   0.829
10673SOL    HW132918   2.032   1.289   0.749
10673SOL    HW232919   1.994   1.303   0.908
10674SOL     OW32920   3.666   4.193   4.565
10674SOL    HW132921   3.721   4.253   4.623
10674SOL    HW232922   3.615   4.129   4.623
10675SOL     OW32923   3.786   6.771   5.269
10675SOL    HW132924   3.809   6.819   5.184
10675SOL    HW232925   3.788   6.673   5.253
10676SOL     OW32926   1.616   6.450   5.254
10676SOL    HW132927   1.663   6.534   5.225
10676SOL    HW232928   1.624   6.441   5.353
10677SOL     OW32929   0.467   1.511   0.878
10677SOL    HW132930   0.548   1.490   0.824
10677SOL    HW232931   0.389   1.460   0.842
10678SOL     OW32932   4.281   5.534   3.751
10678SOL    HW132933   4.261   5.569   3.843
10678SOL    HW232934   4.355   5.467   3.757
10679SOL     OW32935   3.791   3.821   6.900
10679SOL    HW132936   3.861   3.892   6.910
10679SOL    HW232937   3.832   3.738   6.864
10680SOL     OW32938   3.997   1.385   3.832
10680SOL    HW132939   3.969   1.320   3.761
10680SOL    HW232940   3.930   1.384   3.906
10681SOL     OW32941   0.072   2.943   6.425
10681SOL    HW132942   0.153   2.959   6.481
10681SOL    HW232943   0.075   2.850   6.389
10682SOL     OW32944   5.984   3.182   5.602
10682SOL    HW132945   5.928   3.218   5.677
10682SOL    HW232946   5.990   3.083   5.608
10683SOL     OW32947   3.889   0.286   3.486
10683SOL    HW132948   3.913   0.330   3.400
10683SOL    HW232949   3.790   0.282   3.496
10684SOL     OW32950   4.440   4.284   1.414
10684SOL    HW132951   4.434   4.288   1.514
10684SOL    HW232952   4.479   4.370   1.381
10685SOL     OW32953   1.380   5.953   1.795
10685SOL    HW132954   1.305   5.988   1.851
10685SOL    HW232955   1.406   5.862   1.827
10686SOL     OW32956   2.325   3.646   0.080
10686SOL    HW132957   2.317   3.549   0.057
10686SOL    HW232958   2.364   3.656   0.171
10687SOL     OW32959   0.189   4.696   2.817
10687SOL    HW132960   0.112   4.760   2.815
10687SOL    HW232961   0.244   4.707   2.734
10688SOL     OW32962   5.289   1.983   2.471
10688SOL    HW132963   5.375   2.031   2.488
10688SOL    HW232964   5.274   1.975   2.372
10689SOL     OW32965   0.305   6.997   2.444
10689SOL    HW132966   0.231   0.005   2.384
10689SOL    HW232967   0.388   0.025   2.421
10690SOL     OW32968   6.586   5.719   3.655
10690SOL    HW132969   6.525   5.685   3.727
10690SOL    HW232970   6.648   5.647   3.626
10691SOL     OW32971   3.229   1.777   2.822
10691SOL    HW132972   3.146   1.797   2.769
10691SOL    HW232973   3.283   1.708   2.775
10692SOL     OW32974   2.683   1.074   5.109
10692SOL    HW132975   2.667   1.132   5.029
10692SOL    HW232976   2.603   1.078   5.170
10693SOL     OW32977   1.799   6.115   0.806
10693SOL    HW132978   1.780   6.023   0.773
10693SOL    HW232979   1.893   6.120   0.840
10694SOL     OW32980   4.808   6.076   5.773
10694SOL    HW132981   4.763   6.149   5.823
10694SOL    HW232982   4.790   6.086   5.675
10695SOL     OW32983   0.335   3.184   1.406
10695SOL    HW132984   0.296   3.104   1.452
10695SOL    HW232985   0.263   3.252   1.392
10696SOL     OW32986   6.785   4.402   4.843
10696SOL    HW132987   6.733   4.356   4.915
10696SOL    HW232988   6.864   4.448   4.883
10697SOL     OW32989   0.706   5.565   5.086
10697SOL    HW132990   0.761   5.597   5.009
10697SOL    HW232991   0.704   5.465   5.086
10698SOL     OW32992   4.533   3.947   0.120
10698SOL    HW132993   4.549   3.879   0.049
10698SOL    HW232994   4.587   3.924   0.201
10699SOL     OW32995   3.571   4.360   0.724
10699SOL    HW132996   3.664   4.381   0.753
10699SOL    HW232997   3.520   4.321   0.801
10700SOL     OW32998   5.371   6.655   0.258
10700SOL    HW132999   5.367   6.581   0.326
10700SOL    HW233000   5.278   6.682   0.234
10701SOL     OW33001   2.773   0.209   6.396
10701SOL    HW133002   2.806   0.241   6.485
10701SOL    HW233003   2.741   0.287   6.343
10702SOL     OW33004   4.906   3.200   2.644
10702SOL    HW133005   4.851   3.211   2.727
10702SOL    HW233006   4.871   3.123   2.590
10703SOL     OW33007   2.209   2.303   5.557
10703SOL    HW133008   2.169   2.378   5.610
10703SOL    HW233009   2.262   2.340   5.481
10704SOL     OW33010   0.397   5.739   2.638
10704SOL    HW133011   0.302   5.724   2.667
10704SOL    HW233012   0.433   5.655   2.598
10705SOL     OW33013   5.760   5.198   0.730
10705SOL    HW133014   5.687   5.132   0.746
10705SOL    HW233015   5.729   5.267   0.665
10706SOL     OW33016   4.885   0.242   2.081
10706SOL    HW133017   4.845   0.179   2.014
10706SOL    HW233018   4.926   0.320   2.034
10707SOL     OW33019   6.142   6.945   4.569
10707SOL    HW133020   6.224   6.937   4.512
10707SOL    HW233021   6.066   6.899   4.523
10708SOL     OW33022   4.744   2.608   2.838
10708SOL    HW133023   4.829   2.560   2.817
10708SOL    HW233024   4.714   2.583   2.930
10709SOL     OW33025   5.955   5.780   3.691
10709SOL    HW133026   5.997   5.847   3.752
10709SOL    HW233027   5.865   5.754   3.726
10710SOL     OW33028   5.335   0.807   3.046
10710SOL    HW133029   5.298   0.898   3.028
10710SOL    HW233030   5.415   0.791   2.988
10711SOL     OW33031   3.389   6.472   3.504
10711SOL    HW133032   3.443   6.556   3.506
10711SOL    HW233033   3.416   6.417   3.426
10712SOL     OW33034   3.886   0.541   2.660
10712SOL    HW133035   3.936   0.499   2.584
10712SOL    HW233036   3.918   0.635   2.673
10713SOL     OW33037   1.244   3.339   0.745
10713SOL    HW133038   1.255   3.241   0.731
10713SOL    HW233039   1.175   3.355   0.816
10714SOL     OW33040   4.015   3.413   4.751
10714SOL    HW133041   3.966   3.499   4.733
10714SOL    HW233042   4.055   3.417   4.843
10715SOL     OW33043   5.284   0.308   2.166
10715SOL    HW133044   5.313   0.293   2.261
10715SOL    HW233045   5.203   0.253   2.147
10716SOL     OW33046   6.415   2.532   3.542
10716SOL    HW133047   6.355   2.482   3.604
10716SOL    HW233048   6.362   2.598   3.489
10717SOL     OW33049   1.707   3.052   0.718
10717SOL    HW133050   1.756   3.139   0.714
10717SOL    HW233051   1.611   3.068   0.740
10718SOL     OW33052   0.744   4.380   6.393
10718SOL    HW133053   0.665   4.414   6.443
10718SOL    HW233054   0.748   4.280   6.402
10719SOL     OW33055   6.341   6.297   3.485
10719SOL    HW133056   6.424   6.294   3.430
10719SOL    HW233057   6.267   6.340   3.433
10720SOL     OW33058   5.714   5.283   4.112
10720SOL    HW133059   5.670   5.371   4.131
10720SOL    HW233060   5.672   5.213   4.169
10721SOL     OW33061   5.115   3.998   5.331
10721SOL    HW133062   5.186   4.035   5.392
10721SOL    HW233063   5.103   4.060   5.254
10722SOL     OW33064   6.353   3.881   6.863
10722SOL    HW133065   6.318   3.954   6.922
10722SOL    HW233066   6.278   3.819   6.839
10723SOL     OW33067   0.039   1.709   6.909
10723SOL    HW133068   6.987   1.740   6.968
10723SOL    HW233069   0.003   1.642   6.843
10724SOL     OW33070   0.354   6.861   6.867
10724SOL    HW133071   0.357   6.918   6.785
10724SOL    HW233072   0.385   6.768   6.844
10725SOL     OW33073   2.106   5.855   5.035
10725SOL    HW133074   2.053   5.812   4.962
10725SOL    HW233075   2.183   5.796   5.060
10726SOL     OW33076   4.673   0.703   4.211
10726SOL    HW133077   4.730   0.652   4.275
10726SOL    HW233078   4.726   0.777   4.170
10727SOL     OW33079   0.933   4.774   6.218
10727SOL    HW133080   0.945   4.828   6.135
10727SOL    HW233081   0.836   4.759   6.235
10728SOL     OW33082   0.332   5.233   0.357
10728SOL    HW133083   0.310   5.329   0.373
10728SOL    HW233084   0.363   5.191   0.443
10729SOL     OW33085   5.951   1.971   1.902
10729SOL    HW133086   5.891   1.976   1.822
10729SOL    HW233087   6.008   1.888   1.896
10730SOL     OW33088   3.434   0.182   1.232
10730SOL    HW133089   3.335   0.181   1.214
10730SOL    HW233090   3.454   0.125   1.312
10731SOL     OW33091   3.812   1.025   1.063
10731SOL    HW133092   3.903   1.064   1.077
10731SOL    HW233093   3.799   0.948   1.126
10732SOL     OW33094   0.232   4.690   5.284
10732SOL    HW133095   0.188   4.775   5.256
10732SOL    HW233096   0.288   4.707   5.366
10733SOL     OW33097   5.921   1.174   6.421
10733SOL    HW133098   5.918   1.273   6.433
10733SOL    HW233099   5.867   1.130   6.493
10734SOL     OW33100   1.017   2.040   1.192
10734SOL    HW133101   0.939   2.086   1.150
10734SOL    HW233102   1.001   1.941   1.192
10735SOL     OW33103   0.366   2.723   2.020
10735SOL    HW133104   0.383   2.664   2.099
10735SOL    HW233105   0.380   2.671   1.936
10736SOL     OW33106   1.926   0.147   3.495
10736SOL    HW133107   1.960   0.195   3.414
10736SOL    HW233108   1.994   0.150   3.568
10737SOL     OW33109   0.731   2.078   1.418
10737SOL    HW133110   0.722   2.005   1.350
10737SOL    HW233111   0.661   2.067   1.489
10738SOL     OW33112   3.467   5.993   2.578
10738SOL    HW133113   3.541   6.034   2.630
10738SOL    HW233114   3.382   6.045   2.593
10739SOL     OW33115   1.668   3.001   1.560
10739SOL    HW133116   1.768   2.998   1.565
10739SOL    HW233117   1.633   3.059   1.634
10740SOL     OW33118   6.244   4.858   5.456
10740SOL    HW133119   6.333   4.872   5.501
10740SOL    HW233120   6.228   4.760   5.444
10741SOL     OW33121   4.162   1.524   1.779
10741SOL    HW133122   4.133   1.479   1.863
10741SOL    HW233123   4.215   1.606   1.801
10742SOL     OW33124   6.147   5.390   1.656
10742SOL    HW133125   6.144   5.302   1.704
10742SOL    HW233126   6.196   5.379   1.570
10743SOL     OW33127   1.815   1.987   4.521
10743SOL    HW133128   1.744   2.049   4.489
10743SOL    HW233129   1.856   1.940   4.442
10744SOL     OW33130   3.420   1.996   0.922
10744SOL    HW133131   3.421   1.981   1.021
10744SOL    HW233132   3.436   2.093   0.903
10745SOL     OW33133   0.404   5.306   5.329
10745SOL    HW133134   0.365   5.226   5.376
10745SOL    HW233135   0.484   5.338   5.379
10746SOL     OW33136   1.063   3.452   6.161
10746SOL    HW133137   1.075   3.390   6.239
10746SOL    HW233138   1.027   3.539   6.193
10747SOL     OW33139   2.931   1.032   5.241
10747SOL    HW133140   2.969   1.116   5.203
10747SOL    HW233141   2.840   1.016   5.203
10748SOL     OW33142   5.864   1.252   2.468
10748SOL    HW133143   5.924   1.330   2.450
10748SOL    HW233144   5.815   1.266   2.554
10749SOL     OW33145   0.849   6.395   5.367
10749SOL    HW133146   0.774   6.355   5.314
10749SOL    HW233147   0.824   6.398   5.463
10750SOL     OW33148   4.159   0.208   5.150
10750SOL    HW133149   4.190   0.209   5.245
10750SOL    HW233150   4.203   0.133   5.102
10751SOL     OW33151   2.089   4.547   4.424
10751SOL    HW133152   2.159   4.568   4.355
10751SOL    HW233153   2.010   4.505   4.379
10752SOL     OW33154   5.857   3.993   5.273
10752SOL    HW133155   5.939   4.028   5.319
10752SOL    HW233156   5.884   3.920   5.209
10753SOL     OW33157   0.208   4.177   4.023
10753SOL    HW133158   0.215   4.276   4.035
10753SOL    HW233159   0.263   4.131   4.093
10754SOL     OW33160   1.474   0.380   2.781
10754SOL    HW133161   1.508   0.408   2.871
10754SOL    HW233162   1.418   0.298   2.790
10755SOL     OW33163   6.701   6.954   1.595
10755SOL    HW133164   6.680   0.029   1.582
10755SOL    HW233165   6.799   6.940   1.586
10756SOL     OW33166   6.713   5.206   5.190
10756SOL    HW133167   6.651   5.136   5.156
10756SOL    HW233168   6.777   5.233   5.118
10757SOL     OW33169   2.532   3.027   6.666
10757SOL    HW133170   2.569   2.942   6.703
10757SOL    HW233171   2.494   3.010   6.575
10758SOL     OW33172   0.891   6.310   3.689
10758SOL    HW133173   0.809   6.254   3.705
10758SOL    HW233174   0.973   6.255   3.707
10759SOL     OW33175   1.374   3.415   0.460
10759SOL    HW133176   1.440   3.486   0.481
10759SOL    HW233177   1.349   3.366   0.543
10760SOL     OW33178   5.929   0.984   3.100
10760SOL    HW133179   5.905   1.079   3.117
10760SOL    HW233180   5.952   0.971   3.004
10761SOL     OW33181   1.398   5.356   5.507
10761SOL    HW133182   1.475   5.398   5.555
10761SOL    HW233183   1.385   5.262   5.540
10762SOL     OW33184   2.871   0.254   4.661
10762SOL    HW133185   2.967   0.267   4.636
10762SOL    HW233186   2.820   0.338   4.643
10763SOL     OW33187   4.358   0.259   3.093
10763SOL    HW133188   4.376   0.238   3.189
10763SOL    HW233189   4.348   0.358   3.083
10764SOL     OW33190   5.132   1.896   4.745
10764SOL    HW133191   5.220   1.873   4.786
10764SOL    HW233192   5.146   1.923   4.650
10765SOL     OW33193   5.439   2.845   0.871
10765SOL    HW133194   5.493   2.761   0.861
10765SOL    HW233195   5.360   2.827   0.929
10766SOL     OW33196   4.164   4.859   0.646
10766SOL    HW133197   4.248   4.911   0.627
10766SOL    HW233198   4.118   4.837   0.560
10767SOL     OW33199   2.517   0.515   1.336
10767SOL    HW133200   2.515   0.433   1.278
10767SOL    HW233201   2.600   0.513   1.392
10768SOL     OW33202   6.428   5.063   1.360
10768SOL    HW133203   6.458   4.969   1.342
10768SOL    HW233204   6.435   5.082   1.458
10769SOL     OW33205   1.771   3.310   5.892
10769SOL    HW133206   1.821   3.321   5.805
10769SOL    HW233207   1.674   3.324   5.876
10770SOL     OW33208   5.213   5.713   3.224
10770SOL    HW133209   5.170   5.679   3.141
10770SOL    HW233210   5.215   5.813   3.222
10771SOL     OW33211   4.364   6.862   4.162
10771SOL    HW133212   4.293   6.885   4.229
10771SOL    HW233213   4.396   6.946   4.117
10772SOL     OW33214   6.520   5.990   3.712
10772SOL    HW133215   6.550   5.900   3.680
10772SOL    HW233216   6.438   6.017   3.662
10773SOL     OW33217   6.097   4.536   6.101
10773SOL    HW133218   6.102   4.559   6.198
10773SOL    HW233219   6.126   4.441   6.088
10774SOL     OW33220   2.241   1.456   4.272
10774SOL    HW133221   2.233   1.376   4.213
10774SOL    HW233222   2.212   1.431   4.365
10775SOL     OW33223   0.673   4.194   2.219
10775SOL    HW133224   0.666   4.291   2.197
10775SOL    HW233225   0.581   4.154   2.222
10776SOL     OW33226   1.058   0.447   6.378
10776SOL    HW133227   1.011   0.533   6.355
10776SOL    HW233228   0.998   0.370   6.356
10777SOL     OW33229   3.906   5.236   1.107
10777SOL    HW133230   3.873   5.301   1.039
10777SOL    HW233231   4.005   5.227   1.100
10778SOL     OW33232   5.159   0.266   3.571
10778SOL    HW133233   5.174   0.302   3.663
10778SOL    HW233234   5.245   0.233   3.533
10779SOL     OW33235   5.822   2.968   2.865
10779SOL    HW133236   5.735   2.927   2.894
10779SOL    HW233237   5.859   2.915   2.789
10780SOL     OW33238   1.068   1.142   4.019
10780SOL    HW133239   1.045   1.076   4.091
10780SOL    HW233240   0.991   1.150   3.956
10781SOL     OW33241   3.831   0.677   3.834
10781SOL    HW133242   3.904   0.728   3.789
10781SOL    HW233243   3.747   0.683   3.778
10782SOL     OW33244   0.152   6.780   3.752
10782SOL    HW133245   0.059   6.812   3.729
10782SOL    HW233246   0.146   6.695   3.804
10783SOL     OW33247   0.210   2.850   2.601
10783SOL    HW133248   0.180   2.895   2.517
10783SOL    HW233249   0.130   2.825   2.657
10784SOL     OW33250   2.670   0.805   3.284
10784SOL    HW133251   2.639   0.765   3.198
10784SOL    HW233252   2.738   0.875   3.265
10785SOL     OW33253   1.783   3.874   0.145
10785SOL    HW133254   1.821   3.961   0.177
10785SOL    HW233255   1.725   3.835   0.216
10786SOL     OW33256   6.268   6.125   2.906
10786SOL    HW133257   6.227   6.212   2.877
10786SOL    HW233258   6.264   6.119   3.006
10787SOL     OW33259   0.327   0.608   5.301
10787SOL    HW133260   0.274   0.580   5.221
10787SOL    HW233261   0.330   0.534   5.368
10788SOL     OW33262   0.971   3.486   0.588
10788SOL    HW133263   0.881   3.511   0.552
10788SOL    HW233264   0.966   3.397   0.633
10789SOL     OW33265   6.608   3.002   6.975
10789SOL    HW133266   6.573   2.950   6.897
10789SOL    HW233267   6.661   3.080   6.942
10790SOL     OW33268   0.924   6.371   1.639
10790SOL    HW133269   0.974   6.309   1.699
10790SOL    HW233270   0.825   6.363   1.657
10791SOL     OW33271   6.907   6.128   2.149
10791SOL    HW133272   6.921   6.035   2.184
10791SOL    HW233273   6.933   6.194   2.219
10792SOL     OW33274   3.812   3.361   5.143
10792SOL    HW133275   3.770   3.291   5.201
10792SOL    HW233276   3.856   3.429   5.201
10793SOL     OW33277   5.768   3.498   5.557
10793SOL    HW133278   5.776   3.404   5.524
10793SOL    HW233279   5.689   3.541   5.512
10794SOL     OW33280   3.834   3.815   4.295
10794SOL    HW133281   3.765   3.744   4.281
10794SOL    HW233282   3.911   3.778   4.347
10795SOL     OW33283   0.669   4.994   3.151
10795SOL    HW133284   0.651   4.899   3.123
10795SOL    HW233285   0.768   5.007   3.159
10796SOL     OW33286   6.684   5.993   5.902
10796SOL    HW133287   6.749   6.069   5.903
10796SOL    HW233288   6.600   6.021   5.949
10797SOL     OW33289   3.825   3.074   0.655
10797SOL    HW133290   3.736   3.116   0.671
10797SOL    HW233291   3.890   3.144   0.624
10798SOL     OW33292   1.988   1.648   0.443
10798SOL    HW133293   2.081   1.639   0.407
10798SOL    HW233294   1.934   1.569   0.415
10799SOL     OW33295   4.375   0.262   2.815
10799SOL    HW133296   4.360   0.271   2.913
10799SOL    HW233297   4.288   0.276   2.767
10800SOL     OW33298   0.669   6.062   0.213
10800SOL    HW133299   0.730   6.003   0.161
10800SOL    HW233300   0.574   6.045   0.187
10801SOL     OW33301   1.321   0.430   0.578
10801SOL    HW133302   1.396   0.375   0.614
10801SOL    HW233303   1.314   0.416   0.479
10802SOL     OW33304   6.898   6.465   3.403
10802SOL    HW133305   6.827   6.525   3.439
10802SOL    HW233306   6.985   6.515   3.397
10803SOL     OW33307   1.546   5.966   6.484
10803SOL    HW133308   1.530   5.877   6.441
10803SOL    HW233309   1.531   6.038   6.417
10804SOL     OW33310   0.219   2.803   3.248
10804SOL    HW133311   0.201   2.843   3.338
10804SOL    HW233312   0.272   2.718   3.260
10805SOL     OW33313   5.807   1.255   5.039
10805SOL    HW133314   5.772   1.202   4.962
10805SOL    HW233315   5.899   1.224   5.062
10806SOL     OW33316   2.927   5.067   6.775
10806SOL    HW133317   2.849   5.007   6.795
10806SOL    HW233318   2.912   5.113   6.687
10807SOL     OW33319   1.666   5.733   4.084
10807SOL    HW133320   1.737   5.679   4.130
10807SOL    HW233321   1.593   5.755   4.150
10808SOL     OW33322   0.229   2.617   5.988
10808SOL    HW133323   0.238   2.519   5.970
10808SOL    HW233324   0.319   2.659   5.985
10809SOL     OW33325   1.874   4.245   4.386
10809SOL    HW133326   1.782   4.222   4.356
10809SOL    HW233327   1.872   4.267   4.484
10810SOL     OW33328   6.966   0.255   4.039
10810SOL    HW133329   6.895   0.188   4.020
10810SOL    HW233330   6.952   0.293   4.131
10811SOL     OW33331   5.047   5.087   4.537
10811SOL    HW133332   5.054   5.178   4.577
10811SOL    HW233333   4.989   5.030   4.595
10812SOL     OW33334   6.822   3.016   6.654
10812SOL    HW133335   6.845   3.065   6.570
10812SOL    HW233336   6.765   3.074   6.712
10813SOL     OW33337   0.688   3.500   6.203
10813SOL    HW133338   0.728   3.412   6.232
10813SOL    HW233339   0.755   3.550   6.148
10814SOL     OW33340   2.435   7.004   0.811
10814SOL    HW133341   2.451   6.956   0.725
10814SOL    HW233342   2.514   6.992   0.872
10815SOL     OW33343   4.975   1.625   3.442
10815SOL    HW133344   4.976   1.527   3.460
10815SOL    HW233345   4.904   1.646   3.374
10816SOL     OW33346   3.622   2.898   3.288
10816SOL    HW133347   3.580   2.880   3.377
10816SOL    HW233348   3.710   2.943   3.302
10817SOL     OW33349   3.284   6.971   3.143
10817SOL    HW133350   3.344   0.002   3.082
10817SOL    HW233351   3.340   6.928   3.214
10818SOL     OW33352   5.017   5.105   5.739
10818SOL    HW133353   5.008   5.022   5.795
10818SOL    HW233354   5.050   5.180   5.795
10819SOL     OW33355   6.368   5.500   6.528
10819SOL    HW133356   6.461   5.463   6.521
10819SOL    HW233357   6.304   5.424   6.542
10820SOL     OW33358   0.626   5.511   5.382
10820SOL    HW133359   0.638   5.447   5.306
10820SOL    HW233360   0.704   5.574   5.386
10821SOL     OW33361   4.178   5.258   2.713
10821SOL    HW133362   4.086   5.243   2.677
10821SOL    HW233363   4.182   5.348   2.756
10822SOL     OW33364   5.185   2.746   0.971
10822SOL    HW133365   5.101   2.716   0.926
10822SOL    HW233366   5.170   2.835   1.014
10823SOL     OW33367   0.133   6.812   2.898
10823SOL    HW133368   0.216   6.806   2.952
10823SOL    HW233369   0.083   6.896   2.923
10824SOL     OW33370   1.025   0.939   4.205
10824SOL    HW133371   1.045   0.941   4.303
10824SOL    HW233372   1.096   0.887   4.158
10825SOL     OW33373   1.232   2.306   0.962
10825SOL    HW133374   1.270   2.361   1.037
10825SOL    HW233375   1.305   2.254   0.918
10826SOL     OW33376   0.902   1.998   2.931
10826SOL    HW133377   1.001   1.986   2.938
10826SOL    HW233378   0.881   2.093   2.908
10827SOL     OW33379   6.316   3.982   5.143
10827SOL    HW133380   6.227   3.978   5.097
10827SOL    HW233381   6.315   3.921   5.222
10828SOL     OW33382   6.229   3.487   0.086
10828SOL    HW133383   6.249   3.395   0.054
10828SOL    HW233384   6.245   3.492   0.184
10829SOL     OW33385   4.560   3.716   6.982
10829SOL    HW133386   4.501   3.637   6.999
10829SOL    HW233387   4.611   3.703   6.897
10830SOL     OW33388   4.689   1.542   3.647
10830SOL    HW133389   4.709   1.640   3.641
10830SOL    HW233390   4.772   1.493   3.673
10831SOL     OW33391   3.905   0.894   1.987
10831SOL    HW133392   3.996   0.860   2.013
10831SOL    HW233393   3.844   0.890   2.066
10832SOL     OW33394   6.958   3.025   6.899
10832SOL    HW133395   7.015   2.944   6.887
10832SOL    HW233396   6.932   3.061   6.809
10833SOL     OW33397   0.392   2.235   0.785
10833SOL    HW133398   0.394   2.148   0.836
10833SOL    HW233399   0.298   2.257   0.760
10834SOL     OW33400   6.701   6.991   0.618
10834SOL    HW133401   6.736   6.940   0.539
10834SOL    HW233402   6.765   0.043   0.642
10835SOL     OW33403   5.374   3.372   0.365
10835SOL    HW133404   5.281   3.339   0.383
10835SOL    HW233405   5.374   3.472   0.365
10836SOL     OW33406   1.257   1.022   2.680
10836SOL    HW133407   1.258   0.922   2.684
10836SOL    HW233408   1.191   1.052   2.611
10837SOL     OW33409   6.348   4.636   2.220
10837SOL    HW133410   6.415   4.576   2.263
10837SOL    HW233411   6.384   4.669   2.132
10838SOL     OW33412   5.398   5.906   3.469
10838SOL    HW133413   5.380   5.984   3.408
10838SOL    HW233414   5.364   5.928   3.561
10839SOL     OW33415   4.669   3.627   0.435
10839SOL    HW133416   4.704   3.710   0.391
10839SOL    HW233417   4.608   3.654   0.510
10840SOL     OW33418   3.023   0.334   1.811
10840SOL    HW133419   2.936   0.370   1.844
10840SOL    HW233420   3.027   0.235   1.826
10841SOL     OW33421   0.591   5.400   4.850
10841SOL    HW133422   0.654   5.474   4.873
10841SOL    HW233423   0.502   5.438   4.823
10842SOL     OW33424   4.154   3.258   1.795
10842SOL    HW133425   4.199   3.344   1.772
10842SOL    HW233426   4.055   3.267   1.783
10843SOL     OW33427   2.306   1.613   1.224
10843SOL    HW133428   2.326   1.564   1.140
10843SOL    HW233429   2.230   1.677   1.208
10844SOL     OW33430   1.125   5.895   4.689
10844SOL    HW133431   1.085   5.986   4.698
10844SOL    HW233432   1.069   5.830   4.741
10845SOL     OW33433   4.834   6.309   5.103
10845SOL    HW133434   4.866   6.292   5.009
10845SOL    HW233435   4.828   6.407   5.118
10846SOL     OW33436   5.713   6.901   0.220
10846SOL    HW133437   5.653   6.975   0.190
10846SOL    HW233438   5.769   6.870   0.143
10847SOL     OW33439   2.251   1.737   6.914
10847SOL    HW133440   2.344   1.703   6.900
10847SOL    HW233441   2.203   1.742   6.827
10848SOL     OW33442   1.316   3.913   1.021
10848SOL    HW133443   1.249   3.840   1.009
10848SOL    HW233444   1.328   3.932   1.118
10849SOL     OW33445   2.887   4.866   3.868
10849SOL    HW133446   2.905   4.956   3.910
10849SOL    HW233447   2.886   4.796   3.940
10850SOL     OW33448   4.922   6.294   0.310
10850SOL    HW133449   4.955   6.221   0.371
10850SOL    HW233450   4.978   6.295   0.227
10851SOL     OW33451   3.118   4.368   1.665
10851SOL    HW133452   3.090   4.422   1.744
10851SOL    HW233453   3.061   4.287   1.657
10852SOL     OW33454   1.897   1.420   0.329
10852SOL    HW133455   1.972   1.426   0.263
10852SOL    HW233456   1.827   1.357   0.296
10853SOL     OW33457   2.076   2.917   6.075
10853SOL    HW133458   1.999   2.981   6.066
10853SOL    HW233459   2.108   2.891   5.984
10854SOL     OW33460   4.149   6.214   4.558
10854SOL    HW133461   4.092   6.191   4.637
10854SOL    HW233462   4.127   6.307   4.527
10855SOL     OW33463   3.419   1.369   0.524
10855SOL    HW133464   3.518   1.380   0.512
10855SOL    HW233465   3.382   1.317   0.448
10856SOL     OW33466   6.966   0.514   6.899
10856SOL    HW133467   6.886   0.454   6.904
10856SOL    HW233468   7.002   0.529   6.991
10857SOL     OW33469   7.004   1.664   2.181
10857SOL    HW133470   7.008   1.699   2.274
10857SOL    HW233471   0.070   1.679   2.136
10858SOL     OW33472   2.611   5.950   1.696
10858SOL    HW133473   2.610   5.946   1.796
10858SOL    HW233474   2.684   5.892   1.661
10859SOL     OW33475   0.198   4.758   4.411
10859SOL    HW133476   0.105   4.723   4.425
10859SOL    HW233477   0.261   4.712   4.473
10860SOL     OW33478   6.617   3.286   2.455
10860SOL    HW133479   6.526   3.277   2.495
10860SOL    HW233480   6.620   3.367   2.395
10861SOL     OW33481   3.277   3.336   3.492
10861SOL    HW133482   3.267   3.260   3.428
10861SOL    HW233483   3.285   3.301   3.585
10862SOL     OW33484   2.501   0.510   5.334
10862SOL    HW133485   2.564   0.504   5.411
10862SOL    HW233486   2.407   0.511   5.368
10863SOL     OW33487   2.628   6.406   4.771
10863SOL    HW133488   2.544   6.417   4.718
10863SOL    HW233489   2.668   6.316   4.753
10864SOL     OW33490   3.554   6.938   1.746
10864SOL    HW133491   3.531   6.854   1.795
10864SOL    HW233492   3.513   7.016   1.792
10865SOL     OW33493   5.967   1.041   6.769
10865SOL    HW133494   6.031   1.115   6.788
10865SOL    HW233495   5.900   1.071   6.702
10866SOL     OW33496   5.148   4.213   0.532
10866SOL    HW133497   5.057   4.173   0.541
10866SOL    HW233498   5.144   4.311   0.549
10867SOL     OW33499   3.157   4.452   0.678
10867SOL    HW133500   3.156   4.409   0.768
10867SOL    HW233501   3.250   4.451   0.641
10868SOL     OW33502   4.224   1.484   3.561
10868SOL    HW133503   4.195   1.579   3.545
10868SOL    HW233504   4.247   1.472   3.657
10869NA      NA33505   6.009   2.194   5.651
10870NA      NA33506   4.287   4.656   5.214
10871NA      NA33507   2.046   3.631   1.628
10872NA      NA33508   4.841   3.709   5.547
10873NA      NA33509   4.379   2.277   5.030
10874NA      NA33510   3.742   4.607   1.668
10875NA      NA33511   6.648   5.298   5.397
10876NA      NA33512   3.440   3.389   4.822
10877NA      NA33513   4.927   6.300   6.424
10878NA      NA33514   3.421   6.523   5.456
10879NA      NA33515   6.889   5.261   2.237
10880NA      NA33516   2.280   0.558   3.852
10881NA      NA33517   3.793   5.151   1.290
10882NA      NA33518   3.354   3.410   2.317
   7.02164   7.02164   7.02164
