Generated by trjconv : CNT in water t=  26.00000
33518
    1C        C    1   2.844   2.770   4.747
    1C        C    2   2.896   2.714   4.866
    1C        C    3   2.840   2.770   4.982
    1C        C    4   2.844   2.773   4.260
    1C        C    5   2.900   2.729   4.382
    1C        C    6   2.843   2.771   4.505
    1C        C    7   3.013   2.640   4.623
    1C        C    8   2.898   2.722   4.625
    1C        C    9   3.075   2.601   4.744
    1C        C   10   3.009   2.630   4.865
    1C        C   11   3.183   2.496   4.976
    1C        C   12   3.063   2.569   4.979
    1C        C   13   2.849   2.768   3.770
    1C        C   14   2.900   2.724   3.894
    1C        C   15   2.852   2.775   4.016
    1C        C   16   3.018   2.647   4.140
    1C        C   17   2.900   2.725   4.139
    1C        C   18   3.079   2.612   4.263
    1C        C   19   3.015   2.648   4.384
    1C        C   20   3.210   2.552   4.502
    1C        C   21   3.080   2.609   4.503
    1C        C   22   3.278   2.530   4.624
    1C        C   23   3.209   2.552   4.745
    1C        C   24   3.413   2.483   4.866
    1C        C   25   3.271   2.505   4.863
    1C        C   26   3.489   2.477   4.983
    1C        C   27   2.841   2.760   3.281
    1C        C   28   2.897   2.716   3.403
    1C        C   29   2.850   2.769   3.525
    1C        C   30   3.017   2.639   3.649
    1C        C   31   2.904   2.725   3.648
    1C        C   32   3.074   2.606   3.774
    1C        C   33   3.017   2.645   3.897
    1C        C   34   3.210   2.555   4.012
    1C        C   35   3.082   2.614   4.019
    1C        C   36   3.275   2.531   4.135
    1C        C   37   3.207   2.553   4.257
    1C        C   38   3.414   2.507   4.378
    1C        C   39   3.275   2.528   4.379
    1C        C   40   3.486   2.498   4.500
    1C        C   41   3.417   2.504   4.623
    1C        C   42   3.628   2.484   4.744
    1C        C   43   3.486   2.484   4.744
    1C        C   44   3.704   2.491   4.862
    1C        C   45   3.628   2.481   4.980
    1C        C   46   2.837   2.754   2.791
    1C        C   47   2.895   2.714   2.914
    1C        C   48   2.842   2.760   3.037
    1C        C   49   3.015   2.639   3.158
    1C        C   50   2.896   2.716   3.159
    1C        C   51   3.076   2.605   3.280
    1C        C   52   3.015   2.637   3.403
    1C        C   53   3.207   2.549   3.528
    1C        C   54   3.077   2.605   3.526
    1C        C   55   3.275   2.528   3.649
    1C        C   56   3.203   2.548   3.769
    1C        C   57   3.414   2.504   3.893
    1C        C   58   3.274   2.527   3.890
    1C        C   59   3.486   2.499   4.015
    1C        C   60   3.414   2.505   4.137
    1C        C   61   3.628   2.502   4.259
    1C        C   62   3.487   2.499   4.257
    1C        C   63   3.700   2.509   4.381
    1C        C   64   3.627   2.501   4.501
    1C        C   65   3.835   2.540   4.619
    1C        C   66   3.699   2.502   4.623
    1C        C   67   3.900   2.570   4.741
    1C        C   68   3.839   2.533   4.862
    1C        C   69   4.052   2.584   4.976
    1C        C   70   3.922   2.533   4.975
    1C        C   71   2.821   2.731   2.308
    1C        C   72   2.886   2.695   2.429
    1C        C   73   2.828   2.745   2.548
    1C        C   74   3.005   2.626   2.670
    1C        C   75   2.886   2.702   2.669
    1C        C   76   3.071   2.596   2.792
    1C        C   77   3.013   2.637   2.914
    1C        C   78   3.204   2.543   3.039
    1C        C   79   3.077   2.606   3.036
    1C        C   80   3.274   2.526   3.160
    1C        C   81   3.206   2.548   3.282
    1C        C   82   3.411   2.499   3.402
    1C        C   83   3.273   2.529   3.405
    1C        C   84   3.482   2.497   3.524
    1C        C   85   3.415   2.505   3.648
    1C        C   86   3.624   2.496   3.769
    1C        C   87   3.483   2.490   3.771
    1C        C   88   3.695   2.510   3.891
    1C        C   89   3.627   2.502   4.014
    1C        C   90   3.832   2.553   4.137
    1C        C   91   3.698   2.507   4.136
    1C        C   92   3.904   2.571   4.257
    1C        C   93   3.837   2.545   4.378
    1C        C   94   4.029   2.634   4.497
    1C        C   95   3.906   2.563   4.500
    1C        C   96   4.089   2.674   4.618
    1C        C   97   4.030   2.628   4.738
    1C        C   98   4.190   2.764   4.859
    1C        C   99   4.098   2.654   4.860
    1C        C  100   4.202   2.846   4.972
    1C        C  101   2.823   2.731   2.069
    1C        C  102   2.989   2.593   2.189
    1C        C  103   2.871   2.674   2.188
    1C        C  104   3.063   2.573   2.309
    1C        C  105   3.002   2.615   2.430
    1C        C  106   3.199   2.532   2.550
    1C        C  107   3.069   2.588   2.551
    1C        C  108   3.270   2.521   2.672
    1C        C  109   3.201   2.541   2.794
    1C        C  110   3.408   2.494   2.914
    1C        C  111   3.268   2.516   2.916
    1C        C  112   3.482   2.497   3.034
    1C        C  113   3.415   2.508   3.158
    1C        C  114   3.625   2.506   3.279
    1C        C  115   3.484   2.497   3.281
    1C        C  116   3.691   2.516   3.403
    1C        C  117   3.623   2.502   3.526
    1C        C  118   3.831   2.547   3.646
    1C        C  119   3.695   2.510   3.648
    1C        C  120   3.896   2.574   3.769
    1C        C  121   3.830   2.552   3.892
    1C        C  122   4.021   2.643   4.011
    1C        C  123   3.893   2.583   4.014
    1C        C  124   4.085   2.676   4.132
    1C        C  125   4.030   2.635   4.256
    1C        C  126   4.199   2.766   4.376
    1C        C  127   4.093   2.672   4.377
    1C        C  128   4.244   2.820   4.498
    1C        C  129   4.195   2.768   4.620
    1C        C  130   4.325   2.938   4.740
    1C        C  131   4.245   2.821   4.741
    1C        C  132   4.349   3.009   4.860
    1C        C  133   4.274   2.965   4.970
    1C        C  134   3.172   2.471   2.079
    1C        C  135   3.036   2.505   2.086
    1C        C  136   3.258   2.480   2.189
    1C        C  137   3.191   2.512   2.309
    1C        C  138   3.403   2.480   2.426
    1C        C  139   3.263   2.497   2.429
    1C        C  140   3.477   2.484   2.546
    1C        C  141   3.407   2.490   2.669
    1C        C  142   3.619   2.496   2.790
    1C        C  143   3.478   2.487   2.792
    1C        C  144   3.692   2.507   2.910
    1C        C  145   3.623   2.500   3.033
    1C        C  146   3.831   2.535   3.155
    1C        C  147   3.693   2.506   3.156
    1C        C  148   3.897   2.562   3.277
    1C        C  149   3.829   2.547   3.400
    1C        C  150   4.021   2.635   3.521
    1C        C  151   3.896   2.570   3.523
    1C        C  152   4.080   2.674   3.643
    1C        C  153   4.022   2.637   3.766
    1C        C  154   4.197   2.759   3.885
    1C        C  155   4.081   2.678   3.888
    1C        C  156   4.249   2.805   4.008
    1C        C  157   4.198   2.761   4.132
    1C        C  158   4.338   2.922   4.252
    1C        C  159   4.250   2.812   4.253
    1C        C  160   4.377   2.984   4.373
    1C        C  161   4.331   2.931   4.496
    1C        C  162   4.437   3.117   4.613
    1C        C  163   4.363   2.996   4.617
    1C        C  164   4.466   3.185   4.733
    1C        C  165   4.428   3.126   4.855
    1C        C  166   4.504   3.319   4.970
    1C        C  167   4.473   3.184   4.975
    1C        C  168   3.472   2.439   2.072
    1C        C  169   3.397   2.453   2.189
    1C        C  170   3.618   2.457   2.309
    1C        C  171   3.475   2.456   2.307
    1C        C  172   3.691   2.484   2.427
    1C        C  173   3.618   2.491   2.547
    1C        C  174   3.827   2.537   2.666
    1C        C  175   3.690   2.503   2.668
    1C        C  176   3.895   2.560   2.788
    1C        C  177   3.829   2.543   2.911
    1C        C  178   4.023   2.628   3.031
    1C        C  179   3.897   2.566   3.033
    1C        C  180   4.085   2.662   3.154
    1C        C  181   4.021   2.631   3.276
    1C        C  182   4.193   2.754   3.397
    1C        C  183   4.083   2.666   3.398
    1C        C  184   4.243   2.806   3.518
    1C        C  185   4.195   2.756   3.641
    1C        C  186   4.344   2.910   3.764
    1C        C  187   4.252   2.802   3.762
    1C        C  188   4.379   2.972   3.886
    1C        C  189   4.338   2.914   4.008
    1C        C  190   4.447   3.101   4.127
    1C        C  191   4.379   2.977   4.128
    1C        C  192   4.473   3.169   4.248
    1C        C  193   4.445   3.108   4.372
    1C        C  194   4.505   3.317   4.490
    1C        C  195   4.462   3.182   4.491
    1C        C  196   4.525   3.386   4.612
    1C        C  197   4.513   3.319   4.735
    1C        C  198   4.560   3.534   4.850
    1C        C  199   4.533   3.394   4.855
    1C        C  200   4.584   3.621   4.961
    1C        C  201   3.611   2.417   2.074
    1C        C  202   3.820   2.515   2.185
    1C        C  203   3.690   2.456   2.186
    1C        C  204   3.895   2.544   2.303
    1C        C  205   3.828   2.519   2.425
    1C        C  206   4.021   2.618   2.545
    1C        C  207   3.894   2.557   2.543
    1C        C  208   4.084   2.660   2.665
    1C        C  209   4.021   2.625   2.786
    1C        C  210   4.195   2.748   2.904
    1C        C  211   4.081   2.665   2.908
    1C        C  212   4.247   2.796   3.027
    1C        C  213   4.199   2.745   3.150
    1C        C  214   4.333   2.908   3.270
    1C        C  215   4.246   2.797   3.272
    1C        C  216   4.370   2.969   3.391
    1C        C  217   4.335   2.914   3.516
    1C        C  218   4.431   3.098   3.638
    1C        C  219   4.377   2.968   3.640
    1C        C  220   4.457   3.165   3.759
    1C        C  221   4.434   3.103   3.884
    1C        C  222   4.497   3.306   4.004
    1C        C  223   4.467   3.168   4.004
    1C        C  224   4.506   3.381   4.124
    1C        C  225   4.500   3.308   4.244
    1C        C  226   4.512   3.523   4.370
    1C        C  227   4.505   3.382   4.365
    1C        C  228   4.515   3.597   4.490
    1C        C  229   4.526   3.528   4.612
    1C        C  230   4.505   3.744   4.727
    1C        C  231   4.540   3.606   4.729
    1C        C  232   4.495   3.820   4.846
    1C        C  233   4.541   3.754   4.961
    1C        C  234   4.015   2.600   2.064
    1C        C  235   3.892   2.536   2.067
    1C        C  236   4.084   2.642   2.178
    1C        C  237   4.024   2.604   2.300
    1C        C  238   4.196   2.732   2.418
    1C        C  239   4.083   2.646   2.421
    1C        C  240   4.250   2.785   2.537
    1C        C  241   4.196   2.745   2.661
    1C        C  242   4.339   2.902   2.783
    1C        C  243   4.253   2.791   2.782
    1C        C  244   4.375   2.963   2.906
    1C        C  245   4.337   2.905   3.029
    1C        C  246   4.436   3.095   3.150
    1C        C  247   4.377   2.967   3.149
    1C        C  248   4.458   3.162   3.272
    1C        C  249   4.434   3.096   3.395
    1C        C  250   4.500   3.299   3.516
    1C        C  251   4.462   3.163   3.516
    1C        C  252   4.514   3.370   3.638
    1C        C  253   4.500   3.300   3.760
    1C        C  254   4.518   3.514   3.877
    1C        C  255   4.512   3.373   3.881
    1C        C  256   4.513   3.587   3.998
    1C        C  257   4.511   3.522   4.124
    1C        C  258   4.486   3.731   4.240
    1C        C  259   4.510   3.592   4.247
    1C        C  260   4.466   3.801   4.361
    1C        C  261   4.487   3.736   4.485
    1C        C  262   4.421   3.939   4.602
    1C        C  263   4.473   3.808   4.605
    1C        C  264   4.394   4.005   4.724
    1C        C  265   4.433   3.946   4.846
    1C        C  266   4.327   4.136   4.957
    1C        C  267   4.391   4.012   4.962
    1C        C  268   4.264   2.772   2.064
    1C        C  269   4.196   2.728   2.178
    1C        C  270   4.340   2.891   2.298
    1C        C  271   4.252   2.779   2.297
    1C        C  272   4.379   2.955   2.418
    1C        C  273   4.339   2.895   2.539
    1C        C  274   4.442   3.084   2.658
    1C        C  275   4.378   2.958   2.660
    1C        C  276   4.465   3.153   2.779
    1C        C  277   4.439   3.089   2.902
    1C        C  278   4.502   3.291   3.025
    1C        C  279   4.463   3.155   3.024
    1C        C  280   4.513   3.364   3.145
    1C        C  281   4.497   3.297   3.269
    1C        C  282   4.506   3.507   3.389
    1C        C  283   4.507   3.365   3.392
    1C        C  284   4.500   3.579   3.511
    1C        C  285   4.512   3.511   3.634
    1C        C  286   4.492   3.724   3.749
    1C        C  287   4.513   3.584   3.755
    1C        C  288   4.477   3.792   3.872
    1C        C  289   4.491   3.727   3.996
    1C        C  290   4.427   3.931   4.116
    1C        C  291   4.476   3.799   4.117
    1C        C  292   4.394   3.998   4.236
    1C        C  293   4.423   3.936   4.359
    1C        C  294   4.328   4.129   4.478
    1C        C  295   4.396   4.005   4.479
    1C        C  296   4.287   4.189   4.599
    1C        C  297   4.324   4.129   4.721
    1C        C  298   4.196   4.311   4.838
    1C        C  299   4.282   4.197   4.839
    1C        C  300   4.168   4.404   4.943
    1C        C  301   4.353   2.879   2.061
    1C        C  302   4.463   3.069   2.174
    1C        C  303   4.393   2.945   2.178
    1C        C  304   4.485   3.140   2.296
    1C        C  305   4.446   3.079   2.417
    1C        C  306   4.511   3.285   2.535
    1C        C  307   4.476   3.148   2.537
    1C        C  308   4.518   3.357   2.656
    1C        C  309   4.503   3.289   2.779
    1C        C  310   4.520   3.499   2.900
    1C        C  311   4.521   3.358   2.902
    1C        C  312   4.511   3.571   3.021
    1C        C  313   4.514   3.505   3.145
    1C        C  314   4.485   3.716   3.263
    1C        C  315   4.508   3.577   3.267
    1C        C  316   4.468   3.786   3.385
    1C        C  317   4.484   3.719   3.508
    1C        C  318   4.418   3.925   3.628
    1C        C  319   4.465   3.791   3.628
    1C        C  320   4.390   3.987   3.752
    1C        C  321   4.424   3.923   3.874
    1C        C  322   4.316   4.112   3.993
    1C        C  323   4.391   3.992   3.993
    1C        C  324   4.277   4.175   4.113
    1C        C  325   4.321   4.119   4.235
    1C        C  326   4.186   4.285   4.353
    1C        C  327   4.285   4.185   4.355
    1C        C  328   4.132   4.335   4.473
    1C        C  329   4.188   4.290   4.595
    1C        C  330   4.022   4.431   4.713
    1C        C  331   4.136   4.346   4.714
    1C        C  332   3.969   4.489   4.831
    1C        C  333   4.051   4.481   4.944
    1C        C  334   4.548   3.268   2.061
    1C        C  335   4.534   3.129   2.065
    1C        C  336   4.542   3.349   2.175
    1C        C  337   4.515   3.279   2.294
    1C        C  338   4.519   3.497   2.412
    1C        C  339   4.516   3.356   2.412
    1C        C  340   4.520   3.569   2.533
    1C        C  341   4.522   3.498   2.655
    1C        C  342   4.488   3.707   2.774
    1C        C  343   4.519   3.569   2.777
    1C        C  344   4.474   3.781   2.893
    1C        C  345   4.486   3.710   3.015
    1C        C  346   4.419   3.911   3.137
    1C        C  347   4.464   3.777   3.137
    1C        C  348   4.388   3.980   3.256
    1C        C  349   4.416   3.918   3.380
    1C        C  350   4.319   4.105   3.502
    1C        C  351   4.392   3.984   3.503
    1C        C  352   4.276   4.164   3.623
    1C        C  353   4.316   4.107   3.746
    1C        C  354   4.179   4.267   3.865
    1C        C  355   4.277   4.165   3.869
    1C        C  356   4.123   4.317   3.985
    1C        C  357   4.176   4.274   4.108
    1C        C  358   4.010   4.404   4.227
    1C        C  359   4.129   4.327   4.230
    1C        C  360   3.953   4.445   4.350
    1C        C  361   4.013   4.410   4.473
    1C        C  362   3.822   4.509   4.593
    1C        C  363   3.952   4.454   4.593
    1C        C  364   3.759   4.552   4.712
    1C        C  365   3.838   4.541   4.829
    1C        C  366   3.628   4.593   4.947
    1C        C  367   3.763   4.561   4.945
    1C        C  368   4.509   3.562   2.051
    1C        C  369   4.528   3.490   2.169
    1C        C  370   4.495   3.704   2.285
    1C        C  371   4.521   3.566   2.288
    1C        C  372   4.483   3.776   2.406
    1C        C  373   4.507   3.710   2.528
    1C        C  374   4.424   3.906   2.646
    1C        C  375   4.474   3.774   2.650
    1C        C  376   4.388   3.970   2.767
    1C        C  377   4.422   3.912   2.891
    1C        C  378   4.319   4.096   3.010
    1C        C  379   4.390   3.974   3.014
    1C        C  380   4.278   4.157   3.130
    1C        C  381   4.312   4.099   3.255
    1C        C  382   4.171   4.253   3.374
    1C        C  383   4.271   4.153   3.378
    1C        C  384   4.123   4.304   3.496
    1C        C  385   4.177   4.265   3.621
    1C        C  386   4.008   4.392   3.742
    1C        C  387   4.126   4.314   3.743
    1C        C  388   3.946   4.435   3.861
    1C        C  389   4.007   4.398   3.983
    1C        C  390   3.817   4.490   4.105
    1C        C  391   3.947   4.436   4.105
    1C        C  392   3.750   4.512   4.228
    1C        C  393   3.821   4.496   4.349
    1C        C  394   3.615   4.551   4.472
    1C        C  395   3.752   4.516   4.471
    1C        C  396   3.544   4.564   4.593
    1C        C  397   3.619   4.570   4.713
    1C        C  398   3.408   4.552   4.835
    1C        C  399   3.547   4.582   4.833
    1C        C  400   3.343   4.512   4.952
    1C        C  401   4.496   3.701   2.050
    1C        C  402   4.447   3.915   2.164
    1C        C  403   4.484   3.779   2.165
    1C        C  404   4.408   3.977   2.285
    1C        C  405   4.438   3.910   2.406
    1C        C  406   4.325   4.094   2.524
    1C        C  407   4.403   3.976   2.525
    1C        C  408   4.277   4.151   2.644
    1C        C  409   4.317   4.092   2.767
    1C        C  410   4.175   4.251   2.887
    1C        C  411   4.278   4.154   2.888
    1C        C  412   4.124   4.303   3.008
    1C        C  413   4.180   4.259   3.130
    1C        C  414   4.007   4.386   3.248
    1C        C  415   4.121   4.302   3.251
    1C        C  416   3.947   4.416   3.372
    1C        C  417   4.006   4.382   3.497
    1C        C  418   3.815   4.475   3.617
    1C        C  419   3.946   4.422   3.618
    1C        C  420   3.746   4.499   3.737
    1C        C  421   3.813   4.485   3.860
    1C        C  422   3.609   4.533   3.985
    1C        C  423   3.748   4.510   3.983
    1C        C  424   3.538   4.541   4.107
    1C        C  425   3.612   4.541   4.228
    1C        C  426   3.403   4.549   4.354
    1C        C  427   3.544   4.555   4.351
    1C        C  428   3.331   4.544   4.476
    1C        C  429   3.403   4.554   4.597
    1C        C  430   3.190   4.527   4.724
    1C        C  431   3.330   4.552   4.718
    1C        C  432   3.120   4.493   4.843
    1C        C  433   3.206   4.489   4.954
    1C        C  434   4.383   4.125   2.050
    1C        C  435   4.445   4.000   2.053
    1C        C  436   4.302   4.162   2.161
    1C        C  437   4.326   4.093   2.283
    1C        C  438   4.177   4.248   2.399
    1C        C  439   4.279   4.151   2.404
    1C        C  440   4.126   4.301   2.520
    1C        C  441   4.175   4.249   2.642
    1C        C  442   4.004   4.374   2.764
    1C        C  443   4.118   4.290   2.764
    1C        C  444   3.944   4.417   2.885
    1C        C  445   4.005   4.379   3.007
    1C        C  446   3.811   4.470   3.130
    1C        C  447   3.941   4.416   3.127
    1C        C  448   3.749   4.494   3.254
    1C        C  449   3.817   4.472   3.376
    1C        C  450   3.609   4.527   3.494
    1C        C  451   3.748   4.501   3.495
    1C        C  452   3.542   4.535   3.619
    1C        C  453   3.609   4.535   3.743
    1C        C  454   3.396   4.546   3.863
    1C        C  455   3.537   4.546   3.864
    1C        C  456   3.329   4.536   3.986
    1C        C  457   3.397   4.540   4.110
    1C        C  458   3.192   4.505   4.232
    1C        C  459   3.329   4.540   4.234
    1C        C  460   3.129   4.483   4.357
    1C        C  461   3.194   4.512   4.479
    1C        C  462   3.000   4.433   4.601
    1C        C  463   3.128   4.493   4.602
    1C        C  464   2.932   4.397   4.720
    1C        C  465   2.988   4.438   4.844
    1C        C  466   2.792   4.346   4.955
    1C        C  467   2.905   4.429   4.960
    1C        C  468   4.127   4.290   2.037
    1C        C  469   4.189   4.250   2.157
    1C        C  470   4.006   4.373   2.276
    1C        C  471   4.126   4.295   2.276
    1C        C  472   3.942   4.401   2.398
    1C        C  473   4.006   4.375   2.521
    1C        C  474   3.810   4.462   2.641
    1C        C  475   3.941   4.408   2.642
    1C        C  476   3.746   4.489   2.764
    1C        C  477   3.814   4.472   2.886
    1C        C  478   3.606   4.521   3.008
    1C        C  479   3.745   4.495   3.007
    1C        C  480   3.537   4.531   3.131
    1C        C  481   3.609   4.515   3.251
    1C        C  482   3.396   4.524   3.377
    1C        C  483   3.537   4.528   3.373
    1C        C  484   3.327   4.523   3.499
    1C        C  485   3.401   4.534   3.619
    1C        C  486   3.190   4.503   3.743
    1C        C  487   3.327   4.534   3.740
    1C        C  488   3.125   4.477   3.866
    1C        C  489   3.192   4.500   3.989
    1C        C  490   3.002   4.411   4.114
    1C        C  491   3.123   4.483   4.111
    1C        C  492   2.945   4.375   4.238
    1C        C  493   3.004   4.417   4.359
    1C        C  494   2.830   4.300   4.482
    1C        C  495   2.938   4.391   4.481
    1C        C  496   2.775   4.253   4.603
    1C        C  497   2.818   4.312   4.724
    1C        C  498   2.655   4.172   4.843
    1C        C  499   2.744   4.281   4.840
    1C        C  500   2.592   4.120   4.957
    1C        C  501   4.006   4.358   2.035
    1C        C  502   3.819   4.468   2.156
    1C        C  503   3.943   4.401   2.153
    1C        C  504   3.745   4.485   2.275
    1C        C  505   3.812   4.455   2.396
    1C        C  506   3.605   4.505   2.518
    1C        C  507   3.744   4.480   2.518
    1C        C  508   3.534   4.515   2.640
    1C        C  509   3.607   4.515   2.761
    1C        C  510   3.397   4.521   2.884
    1C        C  511   3.539   4.525   2.884
    1C        C  512   3.327   4.516   3.007
    1C        C  513   3.395   4.531   3.129
    1C        C  514   3.189   4.494   3.254
    1C        C  515   3.328   4.524   3.253
    1C        C  516   3.122   4.469   3.376
    1C        C  517   3.188   4.497   3.498
    1C        C  518   2.999   4.407   3.623
    1C        C  519   3.123   4.474   3.622
    1C        C  520   2.944   4.367   3.746
    1C        C  521   3.005   4.404   3.868
    1C        C  522   2.836   4.280   3.995
    1C        C  523   2.945   4.369   3.992
    1C        C  524   2.784   4.234   4.118
    1C        C  525   2.835   4.287   4.239
    1C        C  526   2.696   4.130   4.365
    1C        C  527   2.783   4.241   4.362
    1C        C  528   2.653   4.073   4.487
    1C        C  529   2.685   4.144   4.605
    1C        C  530   2.580   3.963   4.730
    1C        C  531   2.634   4.095   4.727
    1C        C  532   2.532   3.902   4.849
    1C        C  533   2.525   3.997   4.956
    1C        C  534   3.617   4.554   2.039
    1C        C  535   3.748   4.504   2.041
    1C        C  536   3.535   4.525   2.152
    1C        C  537   3.604   4.504   2.275
    1C        C  538   3.393   4.514   2.400
    1C        C  539   3.534   4.519   2.397
    1C        C  540   3.320   4.505   2.521
    1C        C  541   3.393   4.515   2.642
    1C        C  542   3.186   4.481   2.767
    1C        C  543   3.323   4.513   2.764
    1C        C  544   3.120   4.461   2.891
    1C        C  545   3.191   4.479   3.012
    1C        C  546   2.994   4.402   3.133
    1C        C  547   3.122   4.461   3.135
    1C        C  548   2.935   4.366   3.257
    1C        C  549   2.997   4.404   3.378
    1C        C  550   2.828   4.279   3.503
    1C        C  551   2.940   4.365   3.502
    1C        C  552   2.777   4.234   3.626
    1C        C  553   2.830   4.282   3.748
    1C        C  554   2.703   4.117   3.875
    1C        C  555   2.785   4.233   3.872
    1C        C  556   2.659   4.061   3.997
    1C        C  557   2.698   4.122   4.118
    1C        C  558   2.597   3.943   4.244
    1C        C  559   2.659   4.069   4.243
    1C        C  560   2.569   3.878   4.366
    1C        C  561   2.590   3.947   4.488
    1C        C  562   2.533   3.749   4.615
    1C        C  563   2.567   3.886   4.613
    1C        C  564   2.521   3.681   4.738
    1C        C  565   2.520   3.759   4.856
    1C        C  566   2.529   3.545   4.980
    1C        C  567   2.520   3.684   4.974
    1C        C  568   3.323   4.473   2.042
    1C        C  569   3.394   4.505   2.158
    1C        C  570   3.184   4.468   2.283
    1C        C  571   3.321   4.508   2.279
    1C        C  572   3.112   4.457   2.404
    1C        C  573   3.180   4.488   2.524
    1C        C  574   2.986   4.405   2.647
    1C        C  575   3.114   4.464   2.647
    1C        C  576   2.929   4.364   2.769
    1C        C  577   2.993   4.400   2.890
    1C        C  578   2.826   4.270   3.016
    1C        C  579   2.934   4.362   3.012
    1C        C  580   2.775   4.222   3.139
    1C        C  581   2.828   4.274   3.259
    1C        C  582   2.695   4.111   3.383
    1C        C  583   2.779   4.224   3.382
    1C        C  584   2.661   4.055   3.508
    1C        C  585   2.698   4.116   3.630
    1C        C  586   2.594   3.934   3.754
    1C        C  587   2.664   4.057   3.753
    1C        C  588   2.568   3.871   3.878
    1C        C  589   2.599   3.933   4.001
    1C        C  590   2.533   3.736   4.128
    1C        C  591   2.570   3.872   4.124
    1C        C  592   2.523   3.670   4.252
    1C        C  593   2.532   3.742   4.373
    1C        C  594   2.517   3.531   4.497
    1C        C  595   2.525   3.672   4.496
    1C        C  596   2.508   3.463   4.621
    1C        C  597   2.509   3.539   4.740
    1C        C  598   2.532   3.328   4.862
    1C        C  599   2.522   3.469   4.862
    1C        C  600   2.526   3.248   4.977
    1C        C  601   3.191   4.433   2.043
    1C        C  602   2.981   4.392   2.158
    1C        C  603   3.118   4.434   2.162
    1C        C  604   2.923   4.360   2.284
    1C        C  605   2.987   4.392   2.405
    1C        C  606   2.819   4.265   2.529
    1C        C  607   2.924   4.360   2.528
    1C        C  608   2.773   4.216   2.653
    1C        C  609   2.823   4.270   2.773
    1C        C  610   2.684   4.110   2.895
    1C        C  611   2.773   4.220   2.895
    1C        C  612   2.647   4.053   3.019
    1C        C  613   2.688   4.111   3.141
    1C        C  614   2.594   3.920   3.263
    1C        C  615   2.657   4.046   3.263
    1C        C  616   2.568   3.864   3.390
    1C        C  617   2.596   3.930   3.512
    1C        C  618   2.527   3.730   3.638
    1C        C  619   2.563   3.866   3.634
    1C        C  620   2.521   3.663   3.762
    1C        C  621   2.530   3.735   3.883
    1C        C  622   2.510   3.525   4.010
    1C        C  623   2.522   3.666   4.006
    1C        C  624   2.511   3.455   4.133
    1C        C  625   2.510   3.529   4.253
    1C        C  626   2.539   3.320   4.377
    1C        C  627   2.516   3.459   4.376
    1C        C  628   2.554   3.254   4.501
    1C        C  629   2.534   3.325   4.622
    1C        C  630   2.597   3.120   4.744
    1C        C  631   2.551   3.254   4.743
    1C        C  632   2.614   3.049   4.865
    1C        C  633   2.555   3.111   4.980
    1C        C  634   2.781   4.303   2.056
    1C        C  635   2.892   4.386   2.046
    1C        C  636   2.750   4.227   2.170
    1C        C  637   2.810   4.273   2.289
    1C        C  638   2.676   4.106   2.409
    1C        C  639   2.759   4.221   2.409
    1C        C  640   2.639   4.047   2.532
    1C        C  641   2.684   4.106   2.652
    1C        C  642   2.586   3.918   2.776
    1C        C  643   2.649   4.045   2.775
    1C        C  644   2.551   3.858   2.899
    1C        C  645   2.583   3.927   3.018
    1C        C  646   2.520   3.724   3.147
    1C        C  647   2.561   3.859   3.140
    1C        C  648   2.514   3.656   3.271
    1C        C  649   2.529   3.728   3.391
    1C        C  650   2.510   3.521   3.518
    1C        C  651   2.514   3.662   3.515
    1C        C  652   2.516   3.453   3.642
    1C        C  653   2.513   3.522   3.765
    1C        C  654   2.531   3.314   3.885
    1C        C  655   2.508   3.453   3.889
    1C        C  656   2.551   3.248   4.008
    1C        C  657   2.542   3.317   4.131
    1C        C  658   2.603   3.118   4.258
    1C        C  659   2.560   3.252   4.255
    1C        C  660   2.633   3.055   4.381
    1C        C  661   2.601   3.120   4.502
    1C        C  662   2.709   2.936   4.626
    1C        C  663   2.636   3.057   4.623
    1C        C  664   2.749   2.876   4.747
    1C        C  665   2.698   2.933   4.867
    1C        C  666   2.741   2.867   4.983
    1C        C  667   2.677   4.020   2.054
    1C        C  668   2.685   4.102   2.167
    1C        C  669   2.583   3.914   2.291
    1C        C  670   2.639   4.044   2.287
    1C        C  671   2.559   3.845   2.413
    1C        C  672   2.582   3.918   2.531
    1C        C  673   2.517   3.718   2.658
    1C        C  674   2.554   3.854   2.654
    1C        C  675   2.509   3.649   2.781
    1C        C  676   2.521   3.720   2.902
    1C        C  677   2.510   3.511   3.030
    1C        C  678   2.511   3.652   3.026
    1C        C  679   2.515   3.442   3.153
    1C        C  680   2.506   3.515   3.273
    1C        C  681   2.529   3.307   3.399
    1C        C  682   2.509   3.447   3.397
    1C        C  683   2.550   3.242   3.523
    1C        C  684   2.535   3.313   3.644
    1C        C  685   2.603   3.110   3.768
    1C        C  686   2.550   3.241   3.765
    1C        C  687   2.633   3.050   3.892
    1C        C  688   2.603   3.117   4.013
    1C        C  689   2.705   2.932   4.137
    1C        C  690   2.634   3.054   4.136
    1C        C  691   2.751   2.879   4.260
    1C        C  692   2.708   2.935   4.383
    1C        C  693   2.751   2.878   4.504
    1C        C  694   2.620   3.892   2.055
    1C        C  695   2.524   3.703   2.177
    1C        C  696   2.578   3.834   2.175
    1C        C  697   2.500   3.636   2.298
    1C        C  698   2.520   3.709   2.417
    1C        C  699   2.482   3.502   2.543
    1C        C  700   2.505   3.641   2.540
    1C        C  701   2.494   3.433   2.666
    1C        C  702   2.501   3.508   2.785
    1C        C  703   2.524   3.299   2.910
    1C        C  704   2.507   3.439   2.909
    1C        C  705   2.545   3.233   3.033
    1C        C  706   2.534   3.302   3.156
    1C        C  707   2.595   3.102   3.277
    1C        C  708   2.544   3.234   3.279
    1C        C  709   2.633   3.045   3.401
    1C        C  710   2.607   3.112   3.522
    1C        C  711   2.713   2.931   3.650
    1C        C  712   2.636   3.049   3.645
    1C        C  713   2.757   2.876   3.772
    1C        C  714   2.712   2.933   3.893
    1C        C  715   2.755   2.879   4.016
    1C        C  716   2.447   3.498   2.062
    1C        C  717   2.492   3.631   2.061
    1C        C  718   2.457   3.420   2.182
    1C        C  719   2.477   3.496   2.301
    1C        C  720   2.519   3.288   2.422
    1C        C  721   2.485   3.425   2.424
    1C        C  722   2.535   3.222   2.545
    1C        C  723   2.521   3.295   2.666
    1C        C  724   2.591   3.095   2.789
    1C        C  725   2.542   3.228   2.789
    1C        C  726   2.626   3.035   2.912
    1C        C  727   2.592   3.099   3.033
    1C        C  728   2.703   2.919   3.159
    1C        C  729   2.624   3.036   3.156
    1C        C  730   2.748   2.867   3.283
    1C        C  731   2.709   2.926   3.405
    1C        C  732   2.755   2.874   3.528
    1C        C  733   2.491   3.196   2.072
    1C        C  734   2.487   3.280   2.184
    1C        C  735   2.587   3.084   2.303
    1C        C  736   2.525   3.212   2.303
    1C        C  737   2.612   3.020   2.426
    1C        C  738   2.583   3.089   2.546
    1C        C  739   2.691   2.907   2.670
    1C        C  740   2.613   3.025   2.668
    1C        C  741   2.736   2.852   2.792
    1C        C  742   2.700   2.915   2.914
    1C        C  743   2.742   2.861   3.037
    1C        C  744   2.543   3.067   2.069
    1C        C  745   2.685   2.897   2.184
    1C        C  746   2.611   3.017   2.181
    1C        C  747   2.728   2.838   2.306
    1C        C  748   2.682   2.897   2.425
    1C        C  749   2.730   2.847   2.548
    1C        C  750   2.737   2.840   2.067
    1C        C  751   3.657   2.318   1.974
    1C        O  752   3.720   2.217   2.015
    1C        O  753   3.667   2.350   1.837
    1C        C  754   4.654   3.059   2.014
    1C        O  755   4.667   3.004   1.901
    1C        O  756   4.770   3.037   2.089
    1C        C  757   4.454   4.229   1.971
    1C        O  758   4.574   4.261   1.990
    1C        O  759   4.430   4.251   1.835
    1C        C  760   3.600   4.685   1.971
    1C        O  761   3.635   4.796   2.017
    1C        O  762   3.582   4.691   1.832
    1C        C  763   2.864   4.516   1.980
    1C        O  764   2.917   4.541   1.868
    1C        O  765   2.751   4.593   2.008
    1C        C  766   2.328   3.493   1.976
    1C        O  767   2.334   3.435   1.864
    1C        O  768   2.196   3.519   2.015
    1C        C  769   4.699   3.588   5.049
    1C        O  770   4.689   3.544   5.167
    1C        O  771   4.829   3.625   5.015
    1C        C  772   4.280   4.463   5.020
    1C        O  773   4.292   4.439   5.143
    1C        O  774   4.349   4.575   4.973
    1C        C  775   4.149   2.508   5.058
    1C        O  776   4.204   2.398   5.029
    1C        O  777   4.174   2.544   5.191
    1C        C  778   2.877   4.551   5.039
    1C        O  779   2.852   4.662   4.985
    1C        O  780   2.857   4.537   5.177
    1C        C  781   2.458   3.040   5.066
    1C        O  782   2.340   3.020   5.023
    1C        O  783   2.478   3.013   5.200
    1C        C  784   2.409   3.996   5.048
    1C        O  785   2.300   4.042   5.005
    1C        O  786   2.418   3.942   5.177
    1C        C  787   2.944   2.410   2.019
    1C        O  788   2.913   2.430   1.899
    1C        O  789   2.877   2.314   2.094
    1C        C  790   3.165   2.369   5.049
    1C        O  791   3.173   2.254   4.998
    1C        O  792   3.179   2.361   5.188
    1C        H  793   4.265   3.031   5.054
    1C        H  794   4.154   2.817   5.063
    1C        H  795   4.523   3.124   5.048
    1C        H  796   4.463   3.372   5.053
    1C        H  797   4.547   3.808   5.053
    1C        H  798   4.367   3.950   5.046
    1C        H  799   4.342   4.191   5.047
    1C        H  800   4.006   4.494   5.040
    1C        H  801   3.799   4.530   5.041
    1C        H  802   3.604   4.670   5.017
    1C        H  803   3.402   4.467   5.029
    1C        H  804   3.160   4.482   5.051
    1C        H  805   3.879   2.535   5.073
    1C        H  806   3.672   2.429   5.062
    1C        H  807   3.006   2.556   5.068
    1C        H  808   3.451   2.420   5.065
    1C        H  809   2.865   2.734   5.080
    1C        H  810   2.682   2.884   5.071
    1C        H  811   2.486   3.289   5.067
    1C        H  812   2.545   3.496   5.074
    1C        H  813   2.498   3.726   5.070
    1C        H  814   2.579   4.178   5.046
    1C        H  815   2.734   4.328   5.044
    1C        H  816   2.744   2.906   1.983
    1C        H  817   2.879   2.714   1.979
    1C        H  818   3.195   2.401   2.002
    1C        H  819   3.433   2.476   1.980
    1C        H  820   3.852   2.512   1.970
    1C        H  821   4.038   2.648   1.970
    1C        H  822   4.245   2.718   1.973
    1C        H  823   4.424   2.885   1.981
    1C        H  824   4.609   3.304   1.980
    1C        H  825   4.471   3.509   1.966
    1C        H  826   4.539   3.747   1.963
    1C        H  827   3.794   4.488   1.945
    1C        H  828   3.949   4.360   1.944
    1C        H  829   4.157   4.235   1.950
    1C        H  830   4.471   3.956   1.959
    1C        H  831   2.667   3.829   1.982
    1C        H  832   2.720   4.047   1.960
    1C        H  833   2.750   4.270   1.959
    1C        H  834   3.380   4.421   1.967
    1C        H  835   3.136   4.446   1.952
    1C        H  836   2.511   3.002   1.990
    1C        H  837   2.456   3.235   1.979
    1C        H  838   2.536   3.663   1.969
    2V3OU   H29  839   2.803   3.547   0.855
    2V3OU   C27  840   2.787   3.504   0.957
    2V3OU   H27  841   2.720   3.571   1.017
    2V3OU   H28  842   2.725   3.412   0.946
    2V3OU   O11  843   2.911   3.475   1.023
    2V3OU   C15  844   2.918   3.394   1.134
    2V3OU   C13  845   3.050   3.375   1.178
    2V3OU   C14  846   3.073   3.263   1.259
    2V3OU   C16  847   2.969   3.183   1.307
    2V3OU    H6  848   2.990   3.095   1.370
    2V3OU   C12  849   3.214   3.227   1.282
    2V3OU    O2  850   3.245   3.125   1.348
    2V3OU   C10  851   3.328   3.306   1.231
    2V3OU    C8  852   3.461   3.271   1.250
    2V3OU   O10  853   3.491   3.152   1.308
    2V3OU   H26  854   3.407   3.114   1.340
    2V3OU    C6  855   3.568   3.349   1.198
    2V3OU    C5  856   3.537   3.469   1.134
    2V3OU    C4  857   3.706   3.291   1.202
    2V3OU    H4  858   3.722   3.228   1.294
    2V3OU    H5  859   3.713   3.215   1.119
    2V3OU    C2  860   3.814   3.398   1.191
    2V3OU    O6  861   3.805   3.481   1.307
    2V3OU   H21  862   3.757   3.553   1.264
    2V3OU    C3  863   3.781   3.499   1.081
    2V3OU    H2  864   3.864   3.574   1.081
    2V3OU    H3  865   3.781   3.441   0.985
    2V3OU   C25  866   3.948   3.325   1.172
    2V3OU    O7  867   3.997   3.290   1.065
    2V3OU   C26  868   4.030   3.290   1.296
    2V3OU   H22  869   4.071   3.377   1.353
    2V3OU   H23  870   4.117   3.227   1.265
    2V3OU    O8  871   3.966   3.205   1.388
    2V3OU   H24  872   3.930   3.261   1.459
    2V3OU    C1  873   3.645   3.566   1.099
    2V3OU    H1  874   3.621   3.618   1.002
    2V3OU    O3  875   3.656   3.655   1.210
    2V3OU   C19  876   3.614   3.791   1.194
    2V3OU    H9  877   3.518   3.811   1.137
    2V3OU    O4  878   3.711   3.845   1.108
    2V3OU   C20  879   3.845   3.873   1.151
    2V3OU   H10  880   3.898   3.775   1.166
    2V3OU   C24  881   3.609   3.858   1.331
    2V3OU   H16  882   3.545   3.796   1.399
    2V3OU   H17  883   3.558   3.957   1.315
    2V3OU   C23  884   3.752   3.877   1.380
    2V3OU   H15  885   3.791   3.771   1.397
    2V3OU    N1  886   3.736   3.956   1.500
    2V3OU   H19  887   3.803   3.919   1.564
    2V3OU   H20  888   3.648   3.935   1.542
    2V3OU   C21  889   3.849   3.952   1.282
    2V3OU   H11  890   3.953   3.933   1.322
    2V3OU    O5  891   3.830   4.092   1.287
    2V3OU   H18  892   3.779   4.100   1.369
    2V3OU   C22  893   3.918   3.949   1.041
    2V3OU   H12  894   3.868   4.047   1.020
    2V3OU   H13  895   3.906   3.894   0.944
    2V3OU   H14  896   4.026   3.956   1.069
    2V3OU   C11  897   3.156   3.470   1.142
    2V3OU    O1  898   3.136   3.587   1.103
    2V3OU    C9  899   3.296   3.426   1.162
    2V3OU    C7  900   3.400   3.506   1.115
    2V3OU    O9  901   3.380   3.622   1.044
    2V3OU   H25  902   3.285   3.629   1.025
    2V3OU   C17  903   2.814   3.313   1.186
    2V3OU    H7  904   2.715   3.337   1.148
    2V3OU   C18  905   2.836   3.209   1.275
    2V3OU    H8  906   2.757   3.140   1.307
    3SOL     OW  907   0.632   4.435   0.853
    3SOL    HW1  908   0.588   4.373   0.789
    3SOL    HW2  909   0.677   4.382   0.925
    4SOL     OW  910   5.831   0.830   2.170
    4SOL    HW1  911   5.857   0.858   2.077
    4SOL    HW2  912   5.761   0.892   2.205
    5SOL     OW  913   3.783   2.986   1.359
    5SOL    HW1  914   3.862   3.048   1.355
    5SOL    HW2  915   3.741   2.991   1.449
    6SOL     OW  916   2.926   2.533   0.272
    6SOL    HW1  917   2.988   2.463   0.307
    6SOL    HW2  918   2.832   2.508   0.295
    7SOL     OW  919   5.796   0.967   1.855
    7SOL    HW1  920   5.727   1.039   1.847
    7SOL    HW2  921   5.753   0.878   1.843
    8SOL     OW  922   3.265   2.003   3.477
    8SOL    HW1  923   3.173   2.013   3.437
    8SOL    HW2  924   3.333   2.006   3.403
    9SOL     OW  925   6.456   4.120   5.949
    9SOL    HW1  926   6.491   4.095   6.039
    9SOL    HW2  927   6.401   4.203   5.957
   10SOL     OW  928   0.098   4.598   1.162
   10SOL    HW1  929   0.004   4.611   1.132
   10SOL    HW2  930   0.147   4.542   1.096
   11SOL     OW  931   4.126   6.858   6.740
   11SOL    HW1  932   4.104   6.779   6.684
   11SOL    HW2  933   4.043   6.910   6.759
   12SOL     OW  934   5.332   6.624   2.428
   12SOL    HW1  935   5.426   6.658   2.425
   12SOL    HW2  936   5.276   6.676   2.363
   13SOL     OW  937   2.006   0.163   2.855
   13SOL    HW1  938   1.962   0.112   2.781
   13SOL    HW2  939   1.940   0.176   2.930
   14SOL     OW  940   2.896   0.037   3.200
   14SOL    HW1  941   2.826   0.108   3.206
   14SOL    HW2  942   2.957   0.043   3.279
   15SOL     OW  943   2.325   6.702   6.282
   15SOL    HW1  944   2.306   6.626   6.221
   15SOL    HW2  945   2.410   6.748   6.254
   16SOL     OW  946   6.522   2.178   6.670
   16SOL    HW1  947   6.469   2.156   6.752
   16SOL    HW2  948   6.470   2.240   6.612
   17SOL     OW  949   4.256   6.028   3.021
   17SOL    HW1  950   4.174   5.970   3.023
   17SOL    HW2  951   4.281   6.053   3.114
   18SOL     OW  952   1.374   0.993   7.007
   18SOL    HW1  953   1.463   0.949   6.995
   18SOL    HW2  954   1.329   0.956   0.067
   19SOL     OW  955   1.201   6.854   1.237
   19SOL    HW1  956   1.276   6.857   1.302
   19SOL    HW2  957   1.125   6.909   1.272
   20SOL     OW  958   3.481   0.721   4.306
   20SOL    HW1  959   3.507   0.676   4.391
   20SOL    HW2  960   3.476   0.654   4.232
   21SOL     OW  961   2.797   3.131   1.680
   21SOL    HW1  962   2.757   3.041   1.698
   21SOL    HW2  963   2.736   3.184   1.621
   22SOL     OW  964   0.787   1.480   5.666
   22SOL    HW1  965   0.810   1.561   5.613
   22SOL    HW2  966   0.865   1.456   5.724
   23SOL     OW  967   3.286   6.311   4.971
   23SOL    HW1  968   3.349   6.281   5.042
   23SOL    HW2  969   3.235   6.391   5.003
   24SOL     OW  970   4.158   1.522   5.212
   24SOL    HW1  971   4.168   1.471   5.126
   24SOL    HW2  972   4.064   1.516   5.244
   25SOL     OW  973   2.410   5.569   0.744
   25SOL    HW1  974   2.368   5.496   0.799
   25SOL    HW2  975   2.354   5.586   0.663
   26SOL     OW  976   5.517   1.250   3.134
   26SOL    HW1  977   5.430   1.301   3.136
   26SOL    HW2  978   5.556   1.247   3.226
   27SOL     OW  979   6.080   0.302   2.518
   27SOL    HW1  980   6.039   0.277   2.606
   27SOL    HW2  981   6.167   0.349   2.534
   28SOL     OW  982   2.536   0.767   0.139
   28SOL    HW1  983   2.585   0.848   0.169
   28SOL    HW2  984   2.443   0.791   0.113
   29SOL     OW  985   4.726   2.921   1.625
   29SOL    HW1  986   4.802   2.979   1.655
   29SOL    HW2  987   4.651   2.979   1.593
   30SOL     OW  988   4.047   1.267   5.428
   30SOL    HW1  989   4.005   1.352   5.396
   30SOL    HW2  990   4.132   1.288   5.477
   31SOL     OW  991   0.755   1.451   5.363
   31SOL    HW1  992   0.830   1.498   5.316
   31SOL    HW2  993   0.727   1.503   5.443
   32SOL     OW  994   0.021   2.232   2.154
   32SOL    HW1  995   6.943   2.240   2.147
   32SOL    HW2  996   0.055   2.173   2.080
   33SOL     OW  997   1.669   1.669   5.586
   33SOL    HW1  998   1.639   1.610   5.511
   33SOL    HW2  999   1.763   1.647   5.611
   34SOL     OW 1000   0.496   1.134   5.135
   34SOL    HW1 1001   0.457   1.174   5.218
   34SOL    HW2 1002   0.536   1.207   5.079
   35SOL     OW 1003   4.311   1.995   6.458
   35SOL    HW1 1004   4.234   1.931   6.455
   35SOL    HW2 1005   4.347   2.000   6.551
   36SOL     OW 1006   1.218   1.930   5.890
   36SOL    HW1 1007   1.251   1.976   5.809
   36SOL    HW2 1008   1.123   1.900   5.875
   37SOL     OW 1009   2.820   6.545   1.498
   37SOL    HW1 1010   2.841   6.634   1.539
   37SOL    HW2 1011   2.904   6.494   1.484
   38SOL     OW 1012   0.158   6.104   1.994
   38SOL    HW1 1013   0.091   6.139   2.058
   38SOL    HW2 1014   0.244   6.086   2.042
   39SOL     OW 1015   6.841   2.642   6.439
   39SOL    HW1 1016   6.802   2.712   6.499
   39SOL    HW2 1017   6.798   2.554   6.457
   40SOL     OW 1018   6.938   1.543   1.408
   40SOL    HW1 1019   7.006   1.520   1.339
   40SOL    HW2 1020   6.866   1.473   1.408
   41SOL     OW 1021   1.325   0.727   6.179
   41SOL    HW1 1022   1.298   0.632   6.161
   41SOL    HW2 1023   1.308   0.782   6.097
   42SOL     OW 1024   3.719   0.306   0.506
   42SOL    HW1 1025   3.626   0.317   0.470
   42SOL    HW2 1026   3.753   0.216   0.480
   43SOL     OW 1027   4.509   5.652   5.453
   43SOL    HW1 1028   4.516   5.662   5.552
   43SOL    HW2 1029   4.568   5.578   5.422
   44SOL     OW 1030   0.983   4.122   6.853
   44SOL    HW1 1031   0.918   4.141   6.779
   44SOL    HW2 1032   1.013   4.208   6.895
   45SOL     OW 1033   2.437   0.369   1.487
   45SOL    HW1 1034   2.460   0.361   1.390
   45SOL    HW2 1035   2.475   0.454   1.523
   46SOL     OW 1036   1.312   5.912   4.021
   46SOL    HW1 1037   1.234   5.891   4.081
   46SOL    HW2 1038   1.379   5.838   4.026
   47SOL     OW 1039   5.627   4.694   2.981
   47SOL    HW1 1040   5.557   4.648   2.925
   47SOL    HW2 1041   5.667   4.628   3.045
   48SOL     OW 1042   0.405   1.238   5.585
   48SOL    HW1 1043   0.502   1.259   5.593
   48SOL    HW2 1044   0.387   1.146   5.621
   49SOL     OW 1045   6.026   3.469   0.220
   49SOL    HW1 1046   6.112   3.512   0.195
   49SOL    HW2 1047   5.954   3.497   0.157
   50SOL     OW 1048   0.543   3.836   4.612
   50SOL    HW1 1049   0.593   3.908   4.659
   50SOL    HW2 1050   0.605   3.759   4.593
   51SOL     OW 1051   3.614   5.632   2.035
   51SOL    HW1 1052   3.694   5.578   2.012
   51SOL    HW2 1053   3.536   5.571   2.052
   52SOL     OW 1054   0.897   2.226   2.137
   52SOL    HW1 1055   0.899   2.167   2.057
   52SOL    HW2 1056   0.937   2.315   2.114
   53SOL     OW 1057   4.875   6.236   4.199
   53SOL    HW1 1058   4.946   6.185   4.152
   53SOL    HW2 1059   4.862   6.324   4.155
   54SOL     OW 1060   5.210   4.585   5.349
   54SOL    HW1 1061   5.240   4.590   5.444
   54SOL    HW2 1062   5.195   4.489   5.324
   55SOL     OW 1063   3.719   2.198   1.137
   55SOL    HW1 1064   3.810   2.161   1.154
   55SOL    HW2 1065   3.722   2.262   1.060
   56SOL     OW 1066   0.666   0.290   1.792
   56SOL    HW1 1067   0.598   0.224   1.760
   56SOL    HW2 1068   0.725   0.247   1.859
   57SOL     OW 1069   5.482   0.948   1.186
   57SOL    HW1 1070   5.474   1.045   1.210
   57SOL    HW2 1071   5.489   0.893   1.269
   58SOL     OW 1072   6.616   0.060   6.886
   58SOL    HW1 1073   6.551   0.077   6.812
   58SOL    HW2 1074   6.691   0.126   6.880
   59SOL     OW 1075   0.716   0.202   5.202
   59SOL    HW1 1076   0.745   0.297   5.212
   59SOL    HW2 1077   0.783   0.141   5.245
   60SOL     OW 1078   4.935   6.759   4.943
   60SOL    HW1 1079   5.018   6.771   4.889
   60SOL    HW2 1080   4.901   6.666   4.932
   61SOL     OW 1081   4.044   0.070   5.514
   61SOL    HW1 1082   4.106   0.055   5.591
   61SOL    HW2 1083   4.047   0.167   5.488
   62SOL     OW 1084   2.926   0.771   5.202
   62SOL    HW1 1085   2.932   0.677   5.169
   62SOL    HW2 1086   2.978   0.831   5.142
   63SOL     OW 1087   6.971   3.213   3.711
   63SOL    HW1 1088   6.947   3.155   3.789
   63SOL    HW2 1089   6.888   3.247   3.668
   64SOL     OW 1090   0.037   2.568   5.327
   64SOL    HW1 1091   0.112   2.617   5.371
   64SOL    HW2 1092   0.070   2.526   5.243
   65SOL     OW 1093   1.017   4.027   6.114
   65SOL    HW1 1094   0.956   4.027   6.194
   65SOL    HW2 1095   0.991   3.954   6.052
   66SOL     OW 1096   2.397   0.999   1.148
   66SOL    HW1 1097   2.394   0.921   1.086
   66SOL    HW2 1098   2.488   1.007   1.188
   67SOL     OW 1099   4.830   5.114   4.098
   67SOL    HW1 1100   4.868   5.162   4.018
   67SOL    HW2 1101   4.896   5.115   4.172
   68SOL     OW 1102   5.721   2.907   0.062
   68SOL    HW1 1103   5.674   2.910   0.150
   68SOL    HW2 1104   5.689   2.983   0.005
   69SOL     OW 1105   2.586   2.696   5.875
   69SOL    HW1 1106   2.506   2.739   5.833
   69SOL    HW2 1107   2.580   2.597   5.861
   70SOL     OW 1108   5.994   6.931   2.599
   70SOL    HW1 1109   5.928   7.005   2.614
   70SOL    HW2 1110   6.035   6.940   2.508
   71SOL     OW 1111   1.977   4.332   2.342
   71SOL    HW1 1112   1.894   4.277   2.348
   71SOL    HW2 1113   2.043   4.287   2.282
   72SOL     OW 1114   3.543   5.247   3.267
   72SOL    HW1 1115   3.482   5.326   3.277
   72SOL    HW2 1116   3.538   5.192   3.350
   73SOL     OW 1117   3.883   2.788   6.461
   73SOL    HW1 1118   3.788   2.773   6.490
   73SOL    HW2 1119   3.910   2.881   6.484
   74SOL     OW 1120   4.963   6.727   6.154
   74SOL    HW1 1121   4.962   6.676   6.240
   74SOL    HW2 1122   5.057   6.732   6.119
   75SOL     OW 1123   3.552   4.992   5.187
   75SOL    HW1 1124   3.588   4.900   5.201
   75SOL    HW2 1125   3.467   5.003   5.238
   76SOL     OW 1126   2.667   3.078   0.872
   76SOL    HW1 1127   2.616   3.164   0.875
   76SOL    HW2 1128   2.615   3.007   0.918
   77SOL     OW 1129   5.647   4.319   6.531
   77SOL    HW1 1130   5.618   4.224   6.539
   77SOL    HW2 1131   5.654   4.344   6.434
   78SOL     OW 1132   6.060   6.623   6.182
   78SOL    HW1 1133   6.095   6.709   6.147
   78SOL    HW2 1134   5.960   6.629   6.191
   79SOL     OW 1135   3.084   6.941   0.540
   79SOL    HW1 1136   3.088   0.013   0.502
   79SOL    HW2 1137   3.140   6.880   0.484
   80SOL     OW 1138   0.343   0.939   4.472
   80SOL    HW1 1139   0.272   1.005   4.497
   80SOL    HW2 1140   0.433   0.981   4.481
   81SOL     OW 1141   2.004   0.336   3.407
   81SOL    HW1 1142   1.992   0.281   3.490
   81SOL    HW2 1143   2.086   0.304   3.359
   82SOL     OW 1144   6.641   4.319   6.124
   82SOL    HW1 1145   6.717   4.381   6.103
   82SOL    HW2 1146   6.559   4.373   6.143
   83SOL     OW 1147   6.395   6.605   5.853
   83SOL    HW1 1148   6.394   6.585   5.755
   83SOL    HW2 1149   6.325   6.551   5.899
   84SOL     OW 1150   6.625   3.906   1.805
   84SOL    HW1 1151   6.637   3.888   1.707
   84SOL    HW2 1152   6.715   3.904   1.850
   85SOL     OW 1153   0.401   0.439   4.988
   85SOL    HW1 1154   0.377   0.531   4.957
   85SOL    HW2 1155   0.498   0.422   4.972
   86SOL     OW 1156   2.195   1.093   4.710
   86SOL    HW1 1157   2.161   1.033   4.637
   86SOL    HW2 1158   2.294   1.082   4.719
   87SOL     OW 1159   4.645   6.947   1.782
   87SOL    HW1 1160   4.740   6.954   1.753
   87SOL    HW2 1161   4.612   6.854   1.763
   88SOL     OW 1162   6.323   1.014   1.418
   88SOL    HW1 1163   6.318   1.015   1.318
   88SOL    HW2 1164   6.258   0.948   1.455
   89SOL     OW 1165   1.889   1.863   5.531
   89SOL    HW1 1166   1.815   1.877   5.597
   89SOL    HW2 1167   1.857   1.887   5.439
   90SOL     OW 1168   6.569   5.717   3.703
   90SOL    HW1 1169   6.638   5.777   3.663
   90SOL    HW2 1170   6.478   5.749   3.678
   91SOL     OW 1171   4.494   4.934   4.648
   91SOL    HW1 1172   4.523   4.961   4.557
   91SOL    HW2 1173   4.543   4.988   4.716
   92SOL     OW 1174   3.358   5.882   1.282
   92SOL    HW1 1175   3.433   5.894   1.347
   92SOL    HW2 1176   3.293   5.815   1.318
   93SOL     OW 1177   3.036   4.789   6.000
   93SOL    HW1 1178   2.971   4.815   6.071
   93SOL    HW2 1179   3.014   4.839   5.916
   94SOL     OW 1180   1.854   6.689   1.805
   94SOL    HW1 1181   1.841   6.689   1.904
   94SOL    HW2 1182   1.788   6.626   1.763
   95SOL     OW 1183   6.694   0.159   5.444
   95SOL    HW1 1184   6.604   0.168   5.487
   95SOL    HW2 1185   6.723   0.063   5.448
   96SOL     OW 1186   1.982   6.897   4.973
   96SOL    HW1 1187   2.068   6.877   4.926
   96SOL    HW2 1188   1.911   6.921   4.906
   97SOL     OW 1189   6.236   2.982   4.513
   97SOL    HW1 1190   6.187   2.965   4.598
   97SOL    HW2 1191   6.208   3.070   4.475
   98SOL     OW 1192   5.173   1.367   5.947
   98SOL    HW1 1193   5.125   1.409   5.870
   98SOL    HW2 1194   5.146   1.271   5.955
   99SOL     OW 1195   5.025   1.853   0.911
   99SOL    HW1 1196   5.024   1.774   0.972
   99SOL    HW2 1197   5.039   1.936   0.965
  100SOL     OW 1198   5.948   5.331   6.741
  100SOL    HW1 1199   5.856   5.354   6.774
  100SOL    HW2 1200   5.980   5.403   6.679
  101SOL     OW 1201   1.025   6.799   4.258
  101SOL    HW1 1202   1.027   6.847   4.346
  101SOL    HW2 1203   0.979   6.711   4.269
  102SOL     OW 1204   4.266   0.337   3.158
  102SOL    HW1 1205   4.201   0.394   3.208
  102SOL    HW2 1206   4.353   0.385   3.149
  103SOL     OW 1207   3.545   1.838   1.685
  103SOL    HW1 1208   3.455   1.813   1.721
  103SOL    HW2 1209   3.597   1.888   1.754
  104SOL     OW 1210   6.846   6.423   2.350
  104SOL    HW1 1211   6.807   6.502   2.302
  104SOL    HW2 1212   6.818   6.339   2.305
  105SOL     OW 1213   5.250   0.696   6.165
  105SOL    HW1 1214   5.261   0.794   6.180
  105SOL    HW2 1215   5.165   0.679   6.116
  106SOL     OW 1216   3.439   6.670   1.381
  106SOL    HW1 1217   3.499   6.743   1.413
  106SOL    HW2 1218   3.494   6.592   1.352
  107SOL     OW 1219   2.621   3.419   0.465
  107SOL    HW1 1220   2.608   3.513   0.436
  107SOL    HW2 1221   2.719   3.399   0.472
  108SOL     OW 1222   4.802   4.126   4.932
  108SOL    HW1 1223   4.844   4.065   5.000
  108SOL    HW2 1224   4.722   4.170   4.972
  109SOL     OW 1225   5.939   1.072   1.569
  109SOL    HW1 1226   5.845   1.037   1.572
  109SOL    HW2 1227   5.937   1.171   1.579
  110SOL     OW 1228   3.466   6.156   4.433
  110SOL    HW1 1229   3.528   6.135   4.509
  110SOL    HW2 1230   3.378   6.109   4.449
  111SOL     OW 1231   3.174   1.167   3.410
  111SOL    HW1 1232   3.101   1.100   3.397
  111SOL    HW2 1233   3.224   1.180   3.325
  112SOL     OW 1234   6.712   1.174   6.652
  112SOL    HW1 1235   6.656   1.245   6.695
  112SOL    HW2 1236   6.763   1.214   6.576
  113SOL     OW 1237   6.810   6.501   3.526
  113SOL    HW1 1238   6.735   6.512   3.461
  113SOL    HW2 1239   6.772   6.481   3.617
  114SOL     OW 1240   1.221   6.466   0.588
  114SOL    HW1 1241   1.296   6.435   0.646
  114SOL    HW2 1242   1.250   6.465   0.492
  115SOL     OW 1243   5.154   0.584   5.182
  115SOL    HW1 1244   5.246   0.576   5.221
  115SOL    HW2 1245   5.152   0.658   5.116
  116SOL     OW 1246   6.257   4.149   3.038
  116SOL    HW1 1247   6.215   4.099   2.962
  116SOL    HW2 1248   6.281   4.085   3.111
  117SOL     OW 1249   1.135   6.818   6.813
  117SOL    HW1 1250   1.206   6.766   6.765
  117SOL    HW2 1251   1.126   6.784   6.907
  118SOL     OW 1252   2.413   1.294   3.003
  118SOL    HW1 1253   2.388   1.198   2.991
  118SOL    HW2 1254   2.431   1.312   3.100
  119SOL     OW 1255   6.660   2.454   6.135
  119SOL    HW1 1256   6.653   2.532   6.197
  119SOL    HW2 1257   6.750   2.454   6.091
  120SOL     OW 1258   5.090   6.344   1.602
  120SOL    HW1 1259   5.051   6.432   1.575
  120SOL    HW2 1260   5.124   6.350   1.696
  121SOL     OW 1261   2.952   2.971   5.665
  121SOL    HW1 1262   2.911   2.880   5.656
  121SOL    HW2 1263   3.027   2.979   5.599
  122SOL     OW 1264   0.909   3.557   4.707
  122SOL    HW1 1265   0.908   3.564   4.806
  122SOL    HW2 1266   0.923   3.648   4.668
  123SOL     OW 1267   0.126   2.172   1.739
  123SOL    HW1 1268   0.107   2.217   1.826
  123SOL    HW2 1269   0.224   2.169   1.723
  124SOL     OW 1270   4.952   3.707   1.299
  124SOL    HW1 1271   5.038   3.677   1.339
  124SOL    HW2 1272   4.935   3.802   1.324
  125SOL     OW 1273   2.228   3.458   1.637
  125SOL    HW1 1274   2.216   3.556   1.619
  125SOL    HW2 1275   2.263   3.445   1.729
  126SOL     OW 1276   4.359   4.235   0.764
  126SOL    HW1 1277   4.397   4.207   0.676
  126SOL    HW2 1278   4.289   4.305   0.750
  127SOL     OW 1279   0.861   5.443   5.771
  127SOL    HW1 1280   0.952   5.476   5.750
  127SOL    HW2 1281   0.853   5.347   5.743
  128SOL     OW 1282   4.479   2.380   0.615
  128SOL    HW1 1283   4.400   2.414   0.563
  128SOL    HW2 1284   4.545   2.338   0.552
  129SOL     OW 1285   2.613   3.735   0.120
  129SOL    HW1 1286   2.713   3.733   0.111
  129SOL    HW2 1287   2.581   3.829   0.107
  130SOL     OW 1288   1.864   2.446   4.705
  130SOL    HW1 1289   1.791   2.437   4.637
  130SOL    HW2 1290   1.897   2.541   4.706
  131SOL     OW 1291   5.747   1.617   2.039
  131SOL    HW1 1292   5.799   1.533   2.055
  131SOL    HW2 1293   5.650   1.595   2.028
  132SOL     OW 1294   0.646   2.147   2.201
  132SOL    HW1 1295   0.739   2.182   2.192
  132SOL    HW2 1296   0.604   2.139   2.111
  133SOL     OW 1297   6.661   5.706   2.868
  133SOL    HW1 1298   6.580   5.739   2.820
  133SOL    HW2 1299   6.684   5.769   2.943
  134SOL     OW 1300   1.309   3.366   2.791
  134SOL    HW1 1301   1.341   3.279   2.828
  134SOL    HW2 1302   1.388   3.423   2.768
  135SOL     OW 1303   4.330   1.219   4.292
  135SOL    HW1 1304   4.366   1.284   4.359
  135SOL    HW2 1305   4.233   1.235   4.279
  136SOL     OW 1306   4.845   4.769   5.776
  136SOL    HW1 1307   4.864   4.689   5.832
  136SOL    HW2 1308   4.884   4.756   5.685
  137SOL     OW 1309   3.758   0.716   5.729
  137SOL    HW1 1310   3.787   0.665   5.810
  137SOL    HW2 1311   3.822   0.699   5.654
  138SOL     OW 1312   5.912   4.398   5.702
  138SOL    HW1 1313   5.815   4.380   5.688
  138SOL    HW2 1314   5.963   4.370   5.621
  139SOL     OW 1315   3.307   5.688   5.663
  139SOL    HW1 1316   3.395   5.709   5.622
  139SOL    HW2 1317   3.254   5.629   5.602
  140SOL     OW 1318   6.805   4.091   4.784
  140SOL    HW1 1319   6.758   4.138   4.858
  140SOL    HW2 1320   6.883   4.145   4.754
  141SOL     OW 1321   1.165   1.845   2.311
  141SOL    HW1 1322   1.070   1.826   2.285
  141SOL    HW2 1323   1.171   1.937   2.350
  142SOL     OW 1324   1.683   5.033   1.133
  142SOL    HW1 1325   1.714   5.109   1.191
  142SOL    HW2 1326   1.746   4.956   1.143
  143SOL     OW 1327   5.124   4.210   2.313
  143SOL    HW1 1328   5.102   4.115   2.333
  143SOL    HW2 1329   5.083   4.269   2.382
  144SOL     OW 1330   2.682   6.415   0.917
  144SOL    HW1 1331   2.584   6.415   0.936
  144SOL    HW2 1332   2.717   6.509   0.921
  145SOL     OW 1333   6.455   5.490   0.605
  145SOL    HW1 1334   6.457   5.434   0.688
  145SOL    HW2 1335   6.537   5.547   0.601
  146SOL     OW 1336   6.581   4.768   0.605
  146SOL    HW1 1337   6.498   4.725   0.643
  146SOL    HW2 1338   6.593   4.739   0.510
  147SOL     OW 1339   6.183   2.500   0.952
  147SOL    HW1 1340   6.126   2.563   1.005
  147SOL    HW2 1341   6.260   2.550   0.912
  148SOL     OW 1342   0.983   5.396   5.297
  148SOL    HW1 1343   0.919   5.379   5.223
  148SOL    HW2 1344   0.987   5.495   5.317
  149SOL     OW 1345   3.124   1.369   6.177
  149SOL    HW1 1346   3.040   1.320   6.154
  149SOL    HW2 1347   3.200   1.304   6.184
  150SOL     OW 1348   6.943   5.874   5.022
  150SOL    HW1 1349   6.910   5.860   5.116
  150SOL    HW2 1350   6.960   5.971   5.008
  151SOL     OW 1351   4.089   0.854   1.927
  151SOL    HW1 1352   4.140   0.913   1.865
  151SOL    HW2 1353   4.102   0.758   1.900
  152SOL     OW 1354   2.712   1.060   4.738
  152SOL    HW1 1355   2.794   1.097   4.693
  152SOL    HW2 1356   2.738   1.018   4.825
  153SOL     OW 1357   1.180   0.510   2.863
  153SOL    HW1 1358   1.154   0.432   2.806
  153SOL    HW2 1359   1.135   0.592   2.828
  154SOL     OW 1360   7.019   1.852   2.789
  154SOL    HW1 1361   7.000   1.915   2.865
  154SOL    HW2 1362   6.970   1.883   2.707
  155SOL     OW 1363   0.474   1.173   2.799
  155SOL    HW1 1364   0.506   1.158   2.892
  155SOL    HW2 1365   0.391   1.230   2.801
  156SOL     OW 1366   0.199   2.433   1.423
  156SOL    HW1 1367   0.254   2.464   1.346
  156SOL    HW2 1368   0.103   2.457   1.408
  157SOL     OW 1369   6.504   2.762   2.784
  157SOL    HW1 1370   6.501   2.786   2.881
  157SOL    HW2 1371   6.412   2.768   2.746
  158SOL     OW 1372   1.754   1.993   3.839
  158SOL    HW1 1373   1.750   2.083   3.881
  158SOL    HW2 1374   1.842   1.950   3.859
  159SOL     OW 1375   4.982   3.170   2.023
  159SOL    HW1 1376   4.904   3.108   2.029
  159SOL    HW2 1377   5.028   3.158   1.935
  160SOL     OW 1378   6.286   4.333   6.024
  160SOL    HW1 1379   6.227   4.316   6.103
  160SOL    HW2 1380   6.347   4.410   6.044
  161SOL     OW 1381   3.037   4.691   5.300
  161SOL    HW1 1382   2.977   4.638   5.240
  161SOL    HW2 1383   3.057   4.780   5.258
  162SOL     OW 1384   4.669   6.138   2.464
  162SOL    HW1 1385   4.759   6.122   2.422
  162SOL    HW2 1386   4.603   6.073   2.427
  163SOL     OW 1387   5.977   0.703   1.677
  163SOL    HW1 1388   5.905   0.772   1.681
  163SOL    HW2 1389   6.041   0.726   1.604
  164SOL     OW 1390   6.529   3.096   1.143
  164SOL    HW1 1391   6.599   3.142   1.200
  164SOL    HW2 1392   6.496   3.015   1.191
  165SOL     OW 1393   6.460   3.628   6.978
  165SOL    HW1 1394   6.489   3.614   6.883
  165SOL    HW2 1395   6.476   3.544   0.009
  166SOL     OW 1396   1.565   0.540   1.022
  166SOL    HW1 1397   1.611   0.533   1.110
  166SOL    HW2 1398   1.468   0.559   1.036
  167SOL     OW 1399   6.572   2.288   1.197
  167SOL    HW1 1400   6.473   2.277   1.190
  167SOL    HW2 1401   6.596   2.314   1.291
  168SOL     OW 1402   2.480   5.476   1.610
  168SOL    HW1 1403   2.454   5.543   1.540
  168SOL    HW2 1404   2.510   5.392   1.565
  169SOL     OW 1405   1.040   0.070   1.300
  169SOL    HW1 1406   0.986   0.137   1.249
  169SOL    HW2 1407   1.080   0.114   1.381
  170SOL     OW 1408   0.437   1.480   3.103
  170SOL    HW1 1409   0.442   1.571   3.061
  170SOL    HW2 1410   0.360   1.430   3.063
  171SOL     OW 1411   3.721   3.908   0.297
  171SOL    HW1 1412   3.776   3.847   0.354
  171SOL    HW2 1413   3.681   3.857   0.221
  172SOL     OW 1414   0.189   2.934   1.749
  172SOL    HW1 1415   0.215   2.854   1.804
  172SOL    HW2 1416   0.200   3.017   1.804
  173SOL     OW 1417   0.277   6.346   5.830
  173SOL    HW1 1418   0.275   6.247   5.844
  173SOL    HW2 1419   0.321   6.367   5.742
  174SOL     OW 1420   2.714   5.871   3.933
  174SOL    HW1 1421   2.680   5.780   3.957
  174SOL    HW2 1422   2.799   5.889   3.984
  175SOL     OW 1423   0.548   4.964   3.479
  175SOL    HW1 1424   0.612   4.993   3.550
  175SOL    HW2 1425   0.454   4.974   3.513
  176SOL     OW 1426   2.533   5.006   6.893
  176SOL    HW1 1427   2.563   4.984   6.986
  176SOL    HW2 1428   2.606   4.988   6.828
  177SOL     OW 1429   4.549   1.975   2.963
  177SOL    HW1 1430   4.591   1.975   2.873
  177SOL    HW2 1431   4.456   1.938   2.958
  178SOL     OW 1432   5.360   4.091   5.916
  178SOL    HW1 1433   5.264   4.081   5.942
  178SOL    HW2 1434   5.369   4.086   5.817
  179SOL     OW 1435   3.080   6.592   0.755
  179SOL    HW1 1436   3.084   6.598   0.855
  179SOL    HW2 1437   2.987   6.611   0.724
  180SOL     OW 1438   1.065   1.851   0.016
  180SOL    HW1 1439   1.043   1.935   0.066
  180SOL    HW2 1440   0.986   1.823   6.983
  181SOL     OW 1441   2.985   3.391   4.459
  181SOL    HW1 1442   2.979   3.488   4.484
  181SOL    HW2 1443   3.079   3.369   4.434
  182SOL     OW 1444   5.146   2.735   4.710
  182SOL    HW1 1445   5.213   2.666   4.736
  182SOL    HW2 1446   5.061   2.722   4.762
  183SOL     OW 1447   5.883   1.775   2.572
  183SOL    HW1 1448   5.874   1.757   2.670
  183SOL    HW2 1449   5.971   1.738   2.540
  184SOL     OW 1450   0.494   4.855   2.979
  184SOL    HW1 1451   0.503   4.852   3.079
  184SOL    HW2 1452   0.585   4.855   2.938
  185SOL     OW 1453   2.465   3.423   6.325
  185SOL    HW1 1454   2.434   3.346   6.379
  185SOL    HW2 1455   2.397   3.445   6.255
  186SOL     OW 1456   6.145   6.180   3.464
  186SOL    HW1 1457   6.083   6.227   3.402
  186SOL    HW2 1458   6.096   6.106   3.510
  187SOL     OW 1459   5.200   6.923   4.048
  187SOL    HW1 1460   5.211   7.010   4.095
  187SOL    HW2 1461   5.254   6.923   3.964
  188SOL     OW 1462   6.045   2.024   4.633
  188SOL    HW1 1463   6.131   1.995   4.591
  188SOL    HW2 1464   5.975   2.033   4.562
  189SOL     OW 1465   1.563   4.542   3.121
  189SOL    HW1 1466   1.583   4.640   3.118
  189SOL    HW2 1467   1.624   4.493   3.059
  190SOL     OW 1468   3.511   1.150   6.510
  190SOL    HW1 1469   3.446   1.225   6.524
  190SOL    HW2 1470   3.578   1.177   6.441
  191SOL     OW 1471   5.287   6.033   6.238
  191SOL    HW1 1472   5.261   5.937   6.230
  191SOL    HW2 1473   5.306   6.070   6.147
  192SOL     OW 1474   5.949   0.908   0.281
  192SOL    HW1 1475   5.879   0.846   0.317
  192SOL    HW2 1476   6.039   0.867   0.296
  193SOL     OW 1477   5.832   4.294   6.982
  193SOL    HW1 1478   5.842   4.387   6.946
  193SOL    HW2 1479   5.906   4.275   0.025
  194SOL     OW 1480   4.141   0.275   4.679
  194SOL    HW1 1481   4.206   0.347   4.704
  194SOL    HW2 1482   4.189   0.188   4.669
  195SOL     OW 1483   6.745   5.141   2.934
  195SOL    HW1 1484   6.813   5.067   2.936
  195SOL    HW2 1485   6.727   5.173   3.026
  196SOL     OW 1486   0.586   1.160   0.770
  196SOL    HW1 1487   0.656   1.229   0.790
  196SOL    HW2 1488   0.565   1.162   0.672
  197SOL     OW 1489   1.680   0.711   0.628
  197SOL    HW1 1490   1.721   0.622   0.607
  197SOL    HW2 1491   1.632   0.745   0.548
  198SOL     OW 1492   2.904   1.028   4.195
  198SOL    HW1 1493   2.822   1.063   4.240
  198SOL    HW2 1494   2.983   1.081   4.224
  199SOL     OW 1495   1.154   1.674   4.722
  199SOL    HW1 1496   1.132   1.733   4.644
  199SOL    HW2 1497   1.253   1.662   4.728
  200SOL     OW 1498   6.210   2.442   6.907
  200SOL    HW1 1499   6.174   2.494   6.984
  200SOL    HW2 1500   6.210   2.499   6.825
  201SOL     OW 1501   6.865   1.503   5.833
  201SOL    HW1 1502   6.800   1.555   5.889
  201SOL    HW2 1503   6.840   1.406   5.834
  202SOL     OW 1504   5.065   0.239   0.189
  202SOL    HW1 1505   5.019   0.151   0.202
  202SOL    HW2 1506   5.106   0.242   0.098
  203SOL     OW 1507   6.528   3.176   6.537
  203SOL    HW1 1508   6.604   3.216   6.588
  203SOL    HW2 1509   6.548   3.182   6.439
  204SOL     OW 1510   6.410   0.619   5.355
  204SOL    HW1 1511   6.509   0.613   5.365
  204SOL    HW2 1512   6.370   0.528   5.368
  205SOL     OW 1513   1.972   4.372   3.133
  205SOL    HW1 1514   1.924   4.423   3.205
  205SOL    HW2 1515   1.913   4.298   3.100
  206SOL     OW 1516   0.599   4.118   0.761
  206SOL    HW1 1517   0.514   4.112   0.814
  206SOL    HW2 1518   0.602   4.044   0.694
  207SOL     OW 1519   6.228   3.150   4.879
  207SOL    HW1 1520   6.314   3.179   4.837
  207SOL    HW2 1521   6.209   3.207   4.959
  208SOL     OW 1522   1.166   3.020   4.987
  208SOL    HW1 1523   1.179   3.075   5.069
  208SOL    HW2 1524   1.068   3.009   4.969
  209SOL     OW 1525   6.652   4.469   2.682
  209SOL    HW1 1526   6.607   4.558   2.673
  209SOL    HW2 1527   6.739   4.481   2.730
  210SOL     OW 1528   4.680   3.476   1.003
  210SOL    HW1 1529   4.630   3.400   0.962
  210SOL    HW2 1530   4.704   3.542   0.932
  211SOL     OW 1531   1.487   1.259   1.713
  211SOL    HW1 1532   1.456   1.207   1.793
  211SOL    HW2 1533   1.529   1.345   1.744
  212SOL     OW 1534   2.261   3.980   1.578
  212SOL    HW1 1535   2.225   3.971   1.671
  212SOL    HW2 1536   2.219   4.060   1.535
  213SOL     OW 1537   0.997   5.462   1.188
  213SOL    HW1 1538   0.963   5.505   1.104
  213SOL    HW2 1539   0.921   5.420   1.237
  214SOL     OW 1540   5.559   6.710   2.115
  214SOL    HW1 1541   5.586   6.614   2.125
  214SOL    HW2 1542   5.466   6.714   2.078
  215SOL     OW 1543   1.925   4.982   2.732
  215SOL    HW1 1544   1.869   4.914   2.685
  215SOL    HW2 1545   2.013   4.991   2.685
  216SOL     OW 1546   1.799   6.127   3.306
  216SOL    HW1 1547   1.760   6.180   3.381
  216SOL    HW2 1548   1.731   6.063   3.270
  217SOL     OW 1549   0.364   5.333   5.264
  217SOL    HW1 1550   0.352   5.272   5.186
  217SOL    HW2 1551   0.458   5.328   5.297
  218SOL     OW 1552   2.696   2.170   5.645
  218SOL    HW1 1553   2.724   2.233   5.573
  218SOL    HW2 1554   2.678   2.080   5.606
  219SOL     OW 1555   4.559   2.203   1.205
  219SOL    HW1 1556   4.506   2.267   1.149
  219SOL    HW2 1557   4.560   2.113   1.160
  220SOL     OW 1558   2.784   6.491   0.615
  220SOL    HW1 1559   2.709   6.556   0.603
  220SOL    HW2 1560   2.759   6.423   0.683
  221SOL     OW 1561   4.813   4.742   2.087
  221SOL    HW1 1562   4.901   4.727   2.044
  221SOL    HW2 1563   4.783   4.836   2.072
  222SOL     OW 1564   1.748   4.533   6.680
  222SOL    HW1 1565   1.776   4.620   6.638
  222SOL    HW2 1566   1.827   4.471   6.683
  223SOL     OW 1567   6.337   2.281   5.089
  223SOL    HW1 1568   6.313   2.330   5.005
  223SOL    HW2 1569   6.424   2.317   5.125
  224SOL     OW 1570   3.517   2.355   5.812
  224SOL    HW1 1571   3.543   2.270   5.765
  224SOL    HW2 1572   3.584   2.426   5.792
  225SOL     OW 1573   4.141   5.707   6.770
  225SOL    HW1 1574   4.225   5.680   6.723
  225SOL    HW2 1575   4.134   5.657   6.857
  226SOL     OW 1576   1.878   2.435   0.267
  226SOL    HW1 1577   1.782   2.440   0.293
  226SOL    HW2 1578   1.931   2.502   0.319
  227SOL     OW 1579   1.421   4.076   0.959
  227SOL    HW1 1580   1.367   4.102   1.039
  227SOL    HW2 1581   1.453   4.158   0.912
  228SOL     OW 1582   0.981   0.696   2.470
  228SOL    HW1 1583   0.964   0.612   2.418
  228SOL    HW2 1584   1.071   0.732   2.446
  229SOL     OW 1585   4.104   0.330   5.968
  229SOL    HW1 1586   4.156   0.266   5.911
  229SOL    HW2 1587   4.151   0.344   6.055
  230SOL     OW 1588   5.822   4.263   6.066
  230SOL    HW1 1589   5.902   4.303   6.021
  230SOL    HW2 1590   5.772   4.207   6.000
  231SOL     OW 1591   5.268   1.378   6.852
  231SOL    HW1 1592   5.297   1.283   6.861
  231SOL    HW2 1593   5.218   1.405   6.934
  232SOL     OW 1594   1.338   2.019   5.634
  232SOL    HW1 1595   1.286   2.075   5.570
  232SOL    HW2 1596   1.358   1.930   5.593
  233SOL     OW 1597   3.589   1.521   3.202
  233SOL    HW1 1598   3.682   1.489   3.221
  233SOL    HW2 1599   3.586   1.562   3.111
  234SOL     OW 1600   5.061   0.309   0.634
  234SOL    HW1 1601   5.145   0.292   0.686
  234SOL    HW2 1602   5.044   0.231   0.574
  235SOL     OW 1603   5.268   3.179   2.781
  235SOL    HW1 1604   5.216   3.143   2.703
  235SOL    HW2 1605   5.351   3.125   2.793
  236SOL     OW 1606   3.812   3.239   6.099
  236SOL    HW1 1607   3.833   3.301   6.023
  236SOL    HW2 1608   3.723   3.263   6.136
  237SOL     OW 1609   5.623   3.765   2.848
  237SOL    HW1 1610   5.667   3.736   2.763
  237SOL    HW2 1611   5.624   3.690   2.914
  238SOL     OW 1612   6.179   1.876   0.477
  238SOL    HW1 1613   6.141   1.784   0.485
  238SOL    HW2 1614   6.106   1.944   0.487
  239SOL     OW 1615   1.181   3.516   0.443
  239SOL    HW1 1616   1.209   3.464   0.362
  239SOL    HW2 1617   1.163   3.611   0.418
  240SOL     OW 1618   4.986   3.422   4.348
  240SOL    HW1 1619   4.960   3.427   4.252
  240SOL    HW2 1620   5.010   3.328   4.371
  241SOL     OW 1621   2.362   2.210   3.949
  241SOL    HW1 1622   2.429   2.247   3.885
  241SOL    HW2 1623   2.355   2.111   3.936
  242SOL     OW 1624   3.796   3.335   2.419
  242SOL    HW1 1625   3.865   3.365   2.353
  242SOL    HW2 1626   3.797   3.395   2.499
  243SOL     OW 1627   3.852   2.841   6.127
  243SOL    HW1 1628   3.888   2.759   6.172
  243SOL    HW2 1629   3.811   2.901   6.195
  244SOL     OW 1630   5.045   3.480   5.069
  244SOL    HW1 1631   5.030   3.414   5.142
  244SOL    HW2 1632   4.966   3.541   5.062
  245SOL     OW 1633   3.678   1.143   3.332
  245SOL    HW1 1634   3.596   1.171   3.380
  245SOL    HW2 1635   3.735   1.222   3.312
  246SOL     OW 1636   6.669   1.210   2.335
  246SOL    HW1 1637   6.602   1.141   2.309
  246SOL    HW2 1638   6.761   1.177   2.314
  247SOL     OW 1639   1.789   1.439   1.525
  247SOL    HW1 1640   1.793   1.468   1.429
  247SOL    HW2 1641   1.843   1.502   1.581
  248SOL     OW 1642   3.209   3.670   1.428
  248SOL    HW1 1643   3.153   3.588   1.436
  248SOL    HW2 1644   3.152   3.751   1.443
  249SOL     OW 1645   5.147   6.662   5.108
  249SOL    HW1 1646   5.237   6.669   5.065
  249SOL    HW2 1647   5.083   6.619   5.043
  250SOL     OW 1648   4.147   2.244   6.942
  250SOL    HW1 1649   4.120   2.237   0.017
  250SOL    HW2 1650   4.194   2.331   6.927
  251SOL     OW 1651   4.437   5.146   5.294
  251SOL    HW1 1652   4.371   5.106   5.357
  251SOL    HW2 1653   4.518   5.088   5.289
  252SOL     OW 1654   6.630   6.403   5.066
  252SOL    HW1 1655   6.548   6.447   5.103
  252SOL    HW2 1656   6.624   6.304   5.083
  253SOL     OW 1657   4.255   6.012   6.577
  253SOL    HW1 1658   4.207   6.096   6.554
  253SOL    HW2 1659   4.229   5.940   6.511
  254SOL     OW 1660   6.382   1.801   5.357
  254SOL    HW1 1661   6.317   1.853   5.413
  254SOL    HW2 1662   6.392   1.709   5.396
  255SOL     OW 1663   1.024   4.404   6.912
  255SOL    HW1 1664   0.950   4.428   6.975
  255SOL    HW2 1665   1.111   4.406   6.962
  256SOL     OW 1666   5.315   2.311   5.123
  256SOL    HW1 1667   5.313   2.282   5.219
  256SOL    HW2 1668   5.273   2.402   5.115
  257SOL     OW 1669   4.634   6.413   2.123
  257SOL    HW1 1670   4.627   6.503   2.079
  257SOL    HW2 1671   4.549   6.393   2.172
  258SOL     OW 1672   2.067   3.317   5.773
  258SOL    HW1 1673   1.985   3.269   5.743
  258SOL    HW2 1674   2.106   3.369   5.696
  259SOL     OW 1675   3.319   6.792   3.969
  259SOL    HW1 1676   3.268   6.823   4.049
  259SOL    HW2 1677   3.344   6.696   3.981
  260SOL     OW 1678   3.962   5.473   3.051
  260SOL    HW1 1679   4.002   5.412   2.982
  260SOL    HW2 1680   4.016   5.557   3.056
  261SOL     OW 1681   4.103   5.200   0.059
  261SOL    HW1 1682   4.042   5.176   7.005
  261SOL    HW2 1683   4.049   5.239   0.134
  262SOL     OW 1684   0.961   3.853   6.622
  262SOL    HW1 1685   0.871   3.838   6.662
  262SOL    HW2 1686   1.022   3.890   6.692
  263SOL     OW 1687   1.170   0.301   3.933
  263SOL    HW1 1688   1.166   0.329   4.028
  263SOL    HW2 1689   1.262   0.270   3.911
  264SOL     OW 1690   6.496   2.901   6.485
  264SOL    HW1 1691   6.548   2.841   6.546
  264SOL    HW2 1692   6.508   2.996   6.514
  265SOL     OW 1693   0.048   0.296   3.196
  265SOL    HW1 1694   6.972   0.319   3.188
  265SOL    HW2 1695   0.070   0.277   3.292
  266SOL     OW 1696   3.853   0.533   5.903
  266SOL    HW1 1697   3.948   0.502   5.909
  266SOL    HW2 1698   3.806   0.515   5.989
  267SOL     OW 1699   2.250   0.186   2.960
  267SOL    HW1 1700   2.163   0.163   2.918
  267SOL    HW2 1701   2.321   0.122   2.929
  268SOL     OW 1702   3.213   2.239   0.846
  268SOL    HW1 1703   3.202   2.218   0.749
  268SOL    HW2 1704   3.285   2.181   0.885
  269SOL     OW 1705   5.264   1.982   0.387
  269SOL    HW1 1706   5.250   1.885   0.366
  269SOL    HW2 1707   5.338   1.991   0.453
  270SOL     OW 1708   5.709   0.794   0.492
  270SOL    HW1 1709   5.801   0.759   0.512
  270SOL    HW2 1710   5.703   0.890   0.520
  271SOL     OW 1711   0.626   4.196   6.418
  271SOL    HW1 1712   0.593   4.290   6.433
  271SOL    HW2 1713   0.593   4.163   6.329
  272SOL     OW 1714   2.920   5.930   3.082
  272SOL    HW1 1715   2.969   5.944   2.996
  272SOL    HW2 1716   2.898   6.018   3.123
  273SOL     OW 1717   1.876   5.410   6.089
  273SOL    HW1 1718   1.941   5.486   6.083
  273SOL    HW2 1719   1.806   5.431   6.158
  274SOL     OW 1720   4.645   2.370   4.026
  274SOL    HW1 1721   4.636   2.303   3.952
  274SOL    HW2 1722   4.559   2.420   4.035
  275SOL     OW 1723   5.990   6.620   1.487
  275SOL    HW1 1724   6.047   6.693   1.526
  275SOL    HW2 1725   5.921   6.660   1.427
  276SOL     OW 1726   0.817   0.160   4.848
  276SOL    HW1 1727   0.825   0.107   4.933
  276SOL    HW2 1728   0.767   0.107   4.780
  277SOL     OW 1729   1.956   4.476   1.022
  277SOL    HW1 1730   1.938   4.409   1.094
  277SOL    HW2 1731   2.029   4.538   1.050
  278SOL     OW 1732   0.576   2.838   2.919
  278SOL    HW1 1733   0.649   2.899   2.890
  278SOL    HW2 1734   0.613   2.748   2.938
  279SOL     OW 1735   6.458   0.993   3.312
  279SOL    HW1 1736   6.530   0.940   3.268
  279SOL    HW2 1737   6.439   0.954   3.403
  280SOL     OW 1738   1.905   4.641   2.808
  280SOL    HW1 1739   1.888   4.700   2.729
  280SOL    HW2 1740   2.000   4.651   2.837
  281SOL     OW 1741   2.350   4.889   0.975
  281SOL    HW1 1742   2.420   4.845   1.031
  281SOL    HW2 1743   2.287   4.819   0.940
  282SOL     OW 1744   2.082   1.317   5.724
  282SOL    HW1 1745   2.051   1.379   5.796
  282SOL    HW2 1746   2.122   1.371   5.650
  283SOL     OW 1747   3.561   3.082   5.926
  283SOL    HW1 1748   3.631   3.011   5.923
  283SOL    HW2 1749   3.470   3.040   5.931
  284SOL     OW 1750   0.530   3.303   3.951
  284SOL    HW1 1751   0.485   3.368   3.890
  284SOL    HW2 1752   0.520   3.334   4.046
  285SOL     OW 1753   5.235   4.596   4.054
  285SOL    HW1 1754   5.175   4.550   3.989
  285SOL    HW2 1755   5.268   4.529   4.121
  286SOL     OW 1756   3.011   4.562   0.364
  286SOL    HW1 1757   2.957   4.566   0.448
  286SOL    HW2 1758   3.102   4.524   0.384
  287SOL     OW 1759   1.158   2.719   0.289
  287SOL    HW1 1760   1.196   2.800   0.333
  287SOL    HW2 1761   1.183   2.718   0.193
  288SOL     OW 1762   4.848   3.153   1.246
  288SOL    HW1 1763   4.848   3.097   1.164
  288SOL    HW2 1764   4.826   3.248   1.222
  289SOL     OW 1765   3.875   5.375   6.784
  289SOL    HW1 1766   3.861   5.337   6.693
  289SOL    HW2 1767   3.844   5.470   6.786
  290SOL     OW 1768   1.570   1.092   4.743
  290SOL    HW1 1769   1.620   1.166   4.698
  290SOL    HW2 1770   1.624   1.058   4.820
  291SOL     OW 1771   6.285   2.278   3.170
  291SOL    HW1 1772   6.349   2.202   3.172
  291SOL    HW2 1773   6.193   2.244   3.150
  292SOL     OW 1774   3.470   0.473   3.634
  292SOL    HW1 1775   3.377   0.502   3.656
  292SOL    HW2 1776   3.482   0.377   3.659
  293SOL     OW 1777   3.790   5.182   3.204
  293SOL    HW1 1778   3.693   5.206   3.211
  293SOL    HW2 1779   3.846   5.262   3.228
  294SOL     OW 1780   4.967   0.528   0.844
  294SOL    HW1 1781   5.024   0.605   0.873
  294SOL    HW2 1782   5.024   0.461   0.795
  295SOL     OW 1783   5.749   7.004   3.788
  295SOL    HW1 1784   5.715   0.057   3.731
  295SOL    HW2 1785   5.843   6.982   3.762
  296SOL     OW 1786   2.568   1.985   3.082
  296SOL    HW1 1787   2.667   1.997   3.083
  296SOL    HW2 1788   2.542   1.927   3.005
  297SOL     OW 1789   1.878   4.938   2.349
  297SOL    HW1 1790   1.871   5.022   2.403
  297SOL    HW2 1791   1.918   4.959   2.260
  298SOL     OW 1792   6.288   4.973   0.816
  298SOL    HW1 1793   6.273   5.013   0.906
  298SOL    HW2 1794   6.237   5.025   0.747
  299SOL     OW 1795   5.974   2.259   4.362
  299SOL    HW1 1796   5.918   2.317   4.302
  299SOL    HW2 1797   6.055   2.228   4.312
  300SOL     OW 1798   6.033   6.617   1.924
  300SOL    HW1 1799   6.082   6.566   1.853
  300SOL    HW2 1800   6.032   6.714   1.901
  301SOL     OW 1801   4.844   2.655   5.387
  301SOL    HW1 1802   4.750   2.687   5.377
  301SOL    HW2 1803   4.844   2.555   5.391
  302SOL     OW 1804   1.104   5.852   4.214
  302SOL    HW1 1805   1.102   5.876   4.311
  302SOL    HW2 1806   1.013   5.819   4.186
  303SOL     OW 1807   6.240   0.312   3.533
  303SOL    HW1 1808   6.177   0.274   3.466
  303SOL    HW2 1809   6.189   0.346   3.612
  304SOL     OW 1810   3.738   0.126   3.442
  304SOL    HW1 1811   3.810   0.106   3.509
  304SOL    HW2 1812   3.652   0.084   3.472
  305SOL     OW 1813   1.431   4.848   0.905
  305SOL    HW1 1814   1.460   4.937   0.940
  305SOL    HW2 1815   1.346   4.820   0.950
  306SOL     OW 1816   2.277   1.090   3.460
  306SOL    HW1 1817   2.294   1.108   3.556
  306SOL    HW2 1818   2.349   1.131   3.404
  307SOL     OW 1819   3.304   0.495   1.592
  307SOL    HW1 1820   3.226   0.531   1.644
  307SOL    HW2 1821   3.389   0.511   1.642
  308SOL     OW 1822   0.540   4.721   3.688
  308SOL    HW1 1823   0.598   4.678   3.620
  308SOL    HW2 1824   0.454   4.749   3.646
  309SOL     OW 1825   3.645   4.691   5.298
  309SOL    HW1 1826   3.737   4.652   5.288
  309SOL    HW2 1827   3.580   4.618   5.319
  310SOL     OW 1828   1.479   6.145   6.278
  310SOL    HW1 1829   1.462   6.121   6.182
  310SOL    HW2 1830   1.563   6.101   6.309
  311SOL     OW 1831   0.315   0.680   1.442
  311SOL    HW1 1832   0.398   0.654   1.491
  311SOL    HW2 1833   0.333   0.683   1.344
  312SOL     OW 1834   4.295   1.334   5.552
  312SOL    HW1 1835   4.370   1.398   5.535
  312SOL    HW2 1836   4.310   1.287   5.639
  313SOL     OW 1837   0.057   4.856   1.276
  313SOL    HW1 1838   0.030   4.917   1.351
  313SOL    HW2 1839   0.002   4.773   1.280
  314SOL     OW 1840   3.414   5.787   2.157
  314SOL    HW1 1841   3.510   5.765   2.139
  314SOL    HW2 1842   3.371   5.823   2.075
  315SOL     OW 1843   0.920   3.625   2.670
  315SOL    HW1 1844   0.981   3.685   2.617
  315SOL    HW2 1845   0.967   3.539   2.689
  316SOL     OW 1846   1.968   3.073   4.642
  316SOL    HW1 1847   2.003   3.039   4.730
  316SOL    HW2 1848   2.036   3.135   4.602
  317SOL     OW 1849   6.694   1.339   0.187
  317SOL    HW1 1850   6.778   1.300   0.226
  317SOL    HW2 1851   6.615   1.303   0.237
  318SOL     OW 1852   3.028   4.086   1.035
  318SOL    HW1 1853   3.116   4.052   1.001
  318SOL    HW2 1854   2.995   4.025   1.107
  319SOL     OW 1855   1.082   0.559   6.209
  319SOL    HW1 1856   1.097   0.657   6.192
  319SOL    HW2 1857   1.144   0.506   6.152
  320SOL     OW 1858   5.243   3.199   1.100
  320SOL    HW1 1859   5.331   3.201   1.148
  320SOL    HW2 1860   5.172   3.166   1.162
  321SOL     OW 1861   2.155   1.475   2.530
  321SOL    HW1 1862   2.170   1.574   2.519
  321SOL    HW2 1863   2.243   1.429   2.541
  322SOL     OW 1864   3.292   2.750   5.225
  322SOL    HW1 1865   3.261   2.804   5.147
  322SOL    HW2 1866   3.241   2.664   5.228
  323SOL     OW 1867   1.580   4.215   1.954
  323SOL    HW1 1868   1.600   4.121   1.927
  323SOL    HW2 1869   1.657   4.274   1.929
  324SOL     OW 1870   6.816   2.603   4.254
  324SOL    HW1 1871   6.881   2.556   4.195
  324SOL    HW2 1872   6.727   2.609   4.209
  325SOL     OW 1873   2.065   2.194   2.629
  325SOL    HW1 1874   2.056   2.095   2.623
  325SOL    HW2 1875   2.135   2.225   2.563
  326SOL     OW 1876   1.749   3.987   4.579
  326SOL    HW1 1877   1.806   3.980   4.661
  326SOL    HW2 1878   1.780   3.919   4.512
  327SOL     OW 1879   6.208   3.547   6.332
  327SOL    HW1 1880   6.177   3.548   6.237
  327SOL    HW2 1881   6.303   3.519   6.337
  328SOL     OW 1882   3.478   5.793   2.784
  328SOL    HW1 1883   3.520   5.836   2.704
  328SOL    HW2 1884   3.456   5.698   2.763
  329SOL     OW 1885   3.685   3.818   2.329
  329SOL    HW1 1886   3.611   3.793   2.392
  329SOL    HW2 1887   3.657   3.895   2.273
  330SOL     OW 1888   2.418   2.209   1.932
  330SOL    HW1 1889   2.518   2.210   1.935
  330SOL    HW2 1890   2.382   2.164   2.014
  331SOL     OW 1891   6.336   3.961   5.451
  331SOL    HW1 1892   6.398   3.973   5.528
  331SOL    HW2 1893   6.261   3.900   5.477
  332SOL     OW 1894   3.886   1.940   3.833
  332SOL    HW1 1895   3.957   1.942   3.762
  332SOL    HW2 1896   3.930   1.947   3.923
  333SOL     OW 1897   4.731   6.511   0.612
  333SOL    HW1 1898   4.672   6.498   0.692
  333SOL    HW2 1899   4.765   6.605   0.611
  334SOL     OW 1900   4.871   6.450   2.846
  334SOL    HW1 1901   4.786   6.494   2.815
  334SOL    HW2 1902   4.927   6.516   2.895
  335SOL     OW 1903   3.269   0.253   2.498
  335SOL    HW1 1904   3.358   0.285   2.531
  335SOL    HW2 1905   3.246   0.167   2.542
  336SOL     OW 1906   3.934   0.493   5.037
  336SOL    HW1 1907   3.874   0.418   5.065
  336SOL    HW2 1908   3.890   0.545   4.964
  337SOL     OW 1909   0.565   4.250   1.987
  337SOL    HW1 1910   0.628   4.204   2.049
  337SOL    HW2 1911   0.542   4.340   2.023
  338SOL     OW 1912   2.335   2.271   1.311
  338SOL    HW1 1913   2.393   2.330   1.367
  338SOL    HW2 1914   2.293   2.202   1.370
  339SOL     OW 1915   4.145   1.324   3.409
  339SOL    HW1 1916   4.131   1.420   3.384
  339SOL    HW2 1917   4.133   1.266   3.328
  340SOL     OW 1918   4.843   3.871   4.752
  340SOL    HW1 1919   4.796   3.784   4.765
  340SOL    HW2 1920   4.849   3.919   4.840
  341SOL     OW 1921   4.473   4.665   5.718
  341SOL    HW1 1922   4.383   4.655   5.761
  341SOL    HW2 1923   4.544   4.634   5.781
  342SOL     OW 1924   6.167   3.996   0.674
  342SOL    HW1 1925   6.070   3.973   0.682
  342SOL    HW2 1926   6.222   3.920   0.708
  343SOL     OW 1927   2.338   0.861   2.508
  343SOL    HW1 1928   2.370   0.893   2.598
  343SOL    HW2 1929   2.372   0.768   2.493
  344SOL     OW 1930   3.614   6.594   0.113
  344SOL    HW1 1931   3.702   6.597   0.064
  344SOL    HW2 1932   3.626   6.633   0.204
  345SOL     OW 1933   1.416   1.601   5.130
  345SOL    HW1 1934   1.344   1.646   5.183
  345SOL    HW2 1935   1.492   1.576   5.190
  346SOL     OW 1936   2.933   0.975   5.403
  346SOL    HW1 1937   2.920   0.893   5.347
  346SOL    HW2 1938   2.850   0.993   5.456
  347SOL     OW 1939   5.172   6.252   6.045
  347SOL    HW1 1940   5.181   6.317   5.969
  347SOL    HW2 1941   5.213   6.165   6.019
  348SOL     OW 1942   2.821   6.858   3.038
  348SOL    HW1 1943   2.842   6.895   3.128
  348SOL    HW2 1944   2.879   6.779   3.020
  349SOL     OW 1945   2.364   5.385   2.168
  349SOL    HW1 1946   2.341   5.433   2.253
  349SOL    HW2 1947   2.320   5.295   2.167
  350SOL     OW 1948   4.821   3.020   0.994
  350SOL    HW1 1949   4.721   3.028   0.992
  350SOL    HW2 1950   4.860   3.077   0.922
  351SOL     OW 1951   3.413   1.903   1.002
  351SOL    HW1 1952   3.317   1.880   1.017
  351SOL    HW2 1953   3.433   1.991   1.044
  352SOL     OW 1954   3.054   2.080   6.360
  352SOL    HW1 1955   3.127   2.086   6.291
  352SOL    HW2 1956   3.059   2.159   6.421
  353SOL     OW 1957   2.261   0.024   1.325
  353SOL    HW1 1958   2.188   6.981   1.349
  353SOL    HW2 1959   2.350   7.000   1.336
  354SOL     OW 1960   5.153   0.216   2.166
  354SOL    HW1 1961   5.188   0.189   2.256
  354SOL    HW2 1962   5.077   0.156   2.141
  355SOL     OW 1963   0.901   1.343   2.244
  355SOL    HW1 1964   0.913   1.415   2.313
  355SOL    HW2 1965   0.872   1.383   2.158
  356SOL     OW 1966   3.276   0.100   2.896
  356SOL    HW1 1967   3.227   0.185   2.915
  356SOL    HW2 1968   3.247   0.063   2.808
  357SOL     OW 1969   1.303   5.231   5.009
  357SOL    HW1 1970   1.207   5.214   5.028
  357SOL    HW2 1971   1.356   5.222   5.093
  358SOL     OW 1972   4.632   1.157   3.149
  358SOL    HW1 1973   4.711   1.211   3.122
  358SOL    HW2 1974   4.573   1.211   3.208
  359SOL     OW 1975   0.074   1.603   0.446
  359SOL    HW1 1976   0.045   1.548   0.368
  359SOL    HW2 1977   0.008   1.678   0.459
  360SOL     OW 1978   4.857   0.362   6.807
  360SOL    HW1 1979   4.845   0.274   6.760
  360SOL    HW2 1980   4.899   0.427   6.744
  361SOL     OW 1981   3.080   0.428   2.467
  361SOL    HW1 1982   3.155   0.369   2.438
  361SOL    HW2 1983   3.115   0.502   2.525
  362SOL     OW 1984   2.895   3.846   0.823
  362SOL    HW1 1985   2.801   3.811   0.826
  362SOL    HW2 1986   2.893   3.942   0.796
  363SOL     OW 1987   5.054   4.351   3.697
  363SOL    HW1 1988   5.024   4.287   3.768
  363SOL    HW2 1989   4.988   4.352   3.622
  364SOL     OW 1990   2.627   5.876   6.635
  364SOL    HW1 1991   2.714   5.831   6.656
  364SOL    HW2 1992   2.643   5.951   6.572
  365SOL     OW 1993   4.964   6.591   3.122
  365SOL    HW1 1994   4.909   6.672   3.140
  365SOL    HW2 1995   5.053   6.600   3.166
  366SOL     OW 1996   5.374   0.972   0.385
  366SOL    HW1 1997   5.324   1.001   0.467
  366SOL    HW2 1998   5.458   1.025   0.377
  367SOL     OW 1999   5.488   2.363   2.092
  367SOL    HW1 2000   5.458   2.324   2.179
  367SOL    HW2 2001   5.470   2.298   2.018
  368SOL     OW 2002   0.178   5.161   5.131
  368SOL    HW1 2003   0.267   5.163   5.086
  368SOL    HW2 2004   0.141   5.069   5.127
  369SOL     OW 2005   1.077   3.960   1.813
  369SOL    HW1 2006   1.109   3.871   1.844
  369SOL    HW2 2007   1.041   4.012   1.890
  370SOL     OW 2008   3.917   1.463   6.752
  370SOL    HW1 2009   3.864   1.455   6.836
  370SOL    HW2 2010   3.859   1.498   6.679
  371SOL     OW 2011   3.609   2.789   6.483
  371SOL    HW1 2012   3.572   2.867   6.433
  371SOL    HW2 2013   3.560   2.706   6.456
  372SOL     OW 2014   2.083   5.366   0.144
  372SOL    HW1 2015   2.013   5.437   0.154
  372SOL    HW2 2016   2.173   5.405   0.165
  373SOL     OW 2017   6.144   6.633   6.438
  373SOL    HW1 2018   6.172   6.540   6.462
  373SOL    HW2 2019   6.121   6.637   6.341
  374SOL     OW 2020   5.114   0.747   0.927
  374SOL    HW1 2021   5.031   0.801   0.941
  374SOL    HW2 2022   5.181   0.802   0.877
  375SOL     OW 2023   6.605   4.530   1.427
  375SOL    HW1 2024   6.681   4.595   1.426
  375SOL    HW2 2025   6.579   4.507   1.333
  376SOL     OW 2026   2.041   4.023   5.025
  376SOL    HW1 2027   2.034   3.937   5.076
  376SOL    HW2 2028   2.137   4.041   5.004
  377SOL     OW 2029   5.088   1.208   4.080
  377SOL    HW1 2030   5.125   1.125   4.122
  377SOL    HW2 2031   5.075   1.192   3.982
  378SOL     OW 2032   5.288   2.214   5.375
  378SOL    HW1 2033   5.350   2.188   5.449
  378SOL    HW2 2034   5.213   2.269   5.411
  379SOL     OW 2035   6.370   2.887   1.267
  379SOL    HW1 2036   6.382   2.790   1.242
  379SOL    HW2 2037   6.341   2.894   1.362
  380SOL     OW 2038   0.932   2.349   0.121
  380SOL    HW1 2039   0.919   2.416   0.193
  380SOL    HW2 2040   0.854   2.286   0.119
  381SOL     OW 2041   4.589   4.821   0.086
  381SOL    HW1 2042   4.587   4.902   0.145
  381SOL    HW2 2043   4.519   4.831   0.015
  382SOL     OW 2044   1.891   5.685   6.649
  382SOL    HW1 2045   1.935   5.635   6.574
  382SOL    HW2 2046   1.941   5.769   6.667
  383SOL     OW 2047   6.398   1.299   7.020
  383SOL    HW1 2048   6.373   1.380   0.052
  383SOL    HW2 2049   6.334   1.288   6.944
  384SOL     OW 2050   1.310   5.674   4.206
  384SOL    HW1 2051   1.278   5.584   4.177
  384SOL    HW2 2052   1.231   5.734   4.221
  385SOL     OW 2053   4.709   5.003   1.127
  385SOL    HW1 2054   4.771   5.006   1.205
  385SOL    HW2 2055   4.637   4.935   1.144
  386SOL     OW 2056   2.341   5.873   4.452
  386SOL    HW1 2057   2.439   5.888   4.435
  386SOL    HW2 2058   2.301   5.825   4.373
  387SOL     OW 2059   0.458   0.750   5.415
  387SOL    HW1 2060   0.546   0.796   5.426
  387SOL    HW2 2061   0.414   0.781   5.331
  388SOL     OW 2062   0.602   1.955   4.516
  388SOL    HW1 2063   0.669   1.936   4.588
  388SOL    HW2 2064   0.649   1.960   4.428
  389SOL     OW 2065   4.933   3.284   2.404
  389SOL    HW1 2066   4.893   3.238   2.484
  389SOL    HW2 2067   5.009   3.230   2.368
  390SOL     OW 2068   3.512   2.710   0.566
  390SOL    HW1 2069   3.472   2.794   0.528
  390SOL    HW2 2070   3.512   2.639   0.496
  391SOL     OW 2071   4.025   3.788   3.763
  391SOL    HW1 2072   4.060   3.802   3.670
  391SOL    HW2 2073   4.096   3.748   3.820
  392SOL     OW 2074   2.147   3.718   1.537
  392SOL    HW1 2075   2.066   3.741   1.483
  392SOL    HW2 2076   2.191   3.802   1.569
  393SOL     OW 2077   1.421   6.179   1.205
  393SOL    HW1 2078   1.324   6.199   1.190
  393SOL    HW2 2079   1.445   6.095   1.156
  394SOL     OW 2080   5.813   1.119   6.143
  394SOL    HW1 2081   5.838   1.207   6.184
  394SOL    HW2 2082   5.724   1.091   6.177
  395SOL     OW 2083   6.106   5.161   6.854
  395SOL    HW1 2084   6.143   5.094   6.790
  395SOL    HW2 2085   6.052   5.228   6.804
  396SOL     OW 2086   0.859   0.764   1.348
  396SOL    HW1 2087   0.946   0.806   1.323
  396SOL    HW2 2088   0.814   0.729   1.265
  397SOL     OW 2089   4.779   1.926   4.725
  397SOL    HW1 2090   4.828   1.973   4.651
  397SOL    HW2 2091   4.782   1.982   4.807
  398SOL     OW 2092   0.064   1.575   2.786
  398SOL    HW1 2093   0.027   1.666   2.805
  398SOL    HW2 2094   0.024   1.509   2.850
  399SOL     OW 2095   5.900   5.541   3.913
  399SOL    HW1 2096   5.865   5.482   3.840
  399SOL    HW2 2097   5.907   5.488   3.997
  400SOL     OW 2098   6.940   6.474   3.168
  400SOL    HW1 2099   6.897   6.385   3.186
  400SOL    HW2 2100   6.876   6.532   3.116
  401SOL     OW 2101   1.239   6.002   4.840
  401SOL    HW1 2102   1.308   6.042   4.900
  401SOL    HW2 2103   1.228   5.905   4.862
  402SOL     OW 2104   6.167   1.056   4.510
  402SOL    HW1 2105   6.136   1.037   4.417
  402SOL    HW2 2106   6.136   0.982   4.570
  403SOL     OW 2107   2.389   1.844   5.222
  403SOL    HW1 2108   2.326   1.879   5.291
  403SOL    HW2 2109   2.433   1.920   5.175
  404SOL     OW 2110   2.783   5.874   3.443
  404SOL    HW1 2111   2.790   5.954   3.382
  404SOL    HW2 2112   2.767   5.905   3.537
  405SOL     OW 2113   2.713   4.604   3.930
  405SOL    HW1 2114   2.793   4.637   3.880
  405SOL    HW2 2115   2.736   4.593   4.027
  406SOL     OW 2116   0.838   6.828   6.800
  406SOL    HW1 2117   0.880   6.842   6.710
  406SOL    HW2 2118   0.786   6.909   6.826
  407SOL     OW 2119   2.146   3.538   4.185
  407SOL    HW1 2120   2.162   3.447   4.222
  407SOL    HW2 2121   2.147   3.534   4.085
  408SOL     OW 2122   2.635   2.401   2.182
  408SOL    HW1 2123   2.589   2.446   2.106
  408SOL    HW2 2124   2.723   2.366   2.152
  409SOL     OW 2125   0.545   2.559   2.152
  409SOL    HW1 2126   0.456   2.592   2.183
  409SOL    HW2 2127   0.551   2.460   2.166
  410SOL     OW 2128   1.776   3.351   1.697
  410SOL    HW1 2129   1.849   3.406   1.738
  410SOL    HW2 2130   1.759   3.381   1.604
  411SOL     OW 2131   6.819   1.682   1.140
  411SOL    HW1 2132   6.871   1.599   1.159
  411SOL    HW2 2133   6.763   1.668   1.058
  412SOL     OW 2134   2.417   4.367   2.941
  412SOL    HW1 2135   2.369   4.292   2.988
  412SOL    HW2 2136   2.514   4.363   2.962
  413SOL     OW 2137   6.423   5.347   2.671
  413SOL    HW1 2138   6.438   5.387   2.762
  413SOL    HW2 2139   6.498   5.374   2.611
  414SOL     OW 2140   2.320   0.180   2.568
  414SOL    HW1 2141   2.391   0.151   2.504
  414SOL    HW2 2142   2.362   0.229   2.644
  415SOL     OW 2143   5.895   2.843   0.706
  415SOL    HW1 2144   5.987   2.860   0.669
  415SOL    HW2 2145   5.880   2.902   0.785
  416SOL     OW 2146   6.308   3.257   0.052
  416SOL    HW1 2147   6.235   3.239   0.117
  416SOL    HW2 2148   6.276   3.319   7.002
  417SOL     OW 2149   2.360   2.300   5.400
  417SOL    HW1 2150   2.453   2.262   5.392
  417SOL    HW2 2151   2.300   2.252   5.337
  418SOL     OW 2152   3.805   6.061   6.604
  418SOL    HW1 2153   3.777   6.120   6.680
  418SOL    HW2 2154   3.847   5.978   6.640
  419SOL     OW 2155   5.690   0.375   0.663
  419SOL    HW1 2156   5.778   0.356   0.706
  419SOL    HW2 2157   5.701   0.382   0.564
  420SOL     OW 2158   3.076   6.730   1.028
  420SOL    HW1 2159   3.153   6.786   0.996
  420SOL    HW2 2160   3.084   6.716   1.126
  421SOL     OW 2161   5.178   4.717   2.697
  421SOL    HW1 2162   5.089   4.760   2.710
  421SOL    HW2 2163   5.243   4.785   2.664
  422SOL     OW 2164   4.256   1.457   2.242
  422SOL    HW1 2165   4.317   1.535   2.258
  422SOL    HW2 2166   4.161   1.489   2.241
  423SOL     OW 2167   2.294   0.871   5.651
  423SOL    HW1 2168   2.302   0.965   5.685
  423SOL    HW2 2169   2.312   0.807   5.726
  424SOL     OW 2170   1.317   4.404   4.437
  424SOL    HW1 2171   1.327   4.337   4.363
  424SOL    HW2 2172   1.407   4.441   4.461
  425SOL     OW 2173   3.078   1.470   0.047
  425SOL    HW1 2174   3.037   1.505   6.983
  425SOL    HW2 2175   3.054   1.374   0.058
  426SOL     OW 2176   2.479   2.478   3.302
  426SOL    HW1 2177   2.537   2.472   3.221
  426SOL    HW2 2178   2.384   2.491   3.275
  427SOL     OW 2179   4.393   1.439   4.460
  427SOL    HW1 2180   4.482   1.431   4.506
  427SOL    HW2 2181   4.325   1.474   4.525
  428SOL     OW 2182   2.263   2.201   5.904
  428SOL    HW1 2183   2.175   2.159   5.879
  428SOL    HW2 2184   2.311   2.229   5.822
  429SOL     OW 2185   6.787   0.082   3.116
  429SOL    HW1 2186   6.856   0.033   3.169
  429SOL    HW2 2187   6.787   0.179   3.141
  430SOL     OW 2188   2.005   1.344   3.389
  430SOL    HW1 2189   1.977   1.438   3.370
  430SOL    HW2 2190   2.073   1.315   3.322
  431SOL     OW 2191   2.193   0.880   1.319
  431SOL    HW1 2192   2.262   0.941   1.281
  431SOL    HW2 2193   2.180   0.901   1.416
  432SOL     OW 2194   5.501   1.736   1.785
  432SOL    HW1 2195   5.436   1.726   1.709
  432SOL    HW2 2196   5.544   1.826   1.781
  433SOL     OW 2197   1.986   4.325   6.975
  433SOL    HW1 2198   1.933   4.240   6.976
  433SOL    HW2 2199   2.048   4.327   0.032
  434SOL     OW 2200   3.564   5.455   2.744
  434SOL    HW1 2201   3.621   5.431   2.823
  434SOL    HW2 2202   3.610   5.425   2.660
  435SOL     OW 2203   2.848   2.560   6.597
  435SOL    HW1 2204   2.852   2.461   6.586
  435SOL    HW2 2205   2.853   2.604   6.508
  436SOL     OW 2206   5.200   6.404   2.566
  436SOL    HW1 2207   5.255   6.487   2.559
  436SOL    HW2 2208   5.103   6.428   2.567
  437SOL     OW 2209   6.911   0.891   5.854
  437SOL    HW1 2210   6.865   0.850   5.932
  437SOL    HW2 2211   6.844   0.918   5.785
  438SOL     OW 2212   0.936   3.835   1.586
  438SOL    HW1 2213   0.919   3.854   1.682
  438SOL    HW2 2214   1.034   3.819   1.572
  439SOL     OW 2215   0.453   1.272   6.382
  439SOL    HW1 2216   0.380   1.220   6.337
  439SOL    HW2 2217   0.491   1.339   6.319
  440SOL     OW 2218   3.667   1.490   1.426
  440SOL    HW1 2219   3.675   1.390   1.429
  440SOL    HW2 2220   3.697   1.523   1.337
  441SOL     OW 2221   1.132   4.515   2.525
  441SOL    HW1 2222   1.077   4.561   2.455
  441SOL    HW2 2223   1.114   4.556   2.614
  442SOL     OW 2224   3.119   3.328   5.080
  442SOL    HW1 2225   3.063   3.323   4.997
  442SOL    HW2 2226   3.145   3.236   5.109
  443SOL     OW 2227   4.781   2.481   2.191
  443SOL    HW1 2228   4.749   2.452   2.101
  443SOL    HW2 2229   4.705   2.478   2.256
  444SOL     OW 2230   3.989   2.688   1.225
  444SOL    HW1 2231   3.894   2.718   1.231
  444SOL    HW2 2232   4.002   2.609   1.285
  445SOL     OW 2233   1.955   5.789   3.839
  445SOL    HW1 2234   1.918   5.825   3.754
  445SOL    HW2 2235   2.020   5.855   3.878
  446SOL     OW 2236   0.129   6.548   0.530
  446SOL    HW1 2237   0.173   6.580   0.446
  446SOL    HW2 2238   0.179   6.585   0.609
  447SOL     OW 2239   6.516   3.414   0.169
  447SOL    HW1 2240   6.613   3.396   0.183
  447SOL    HW2 2241   6.474   3.336   0.123
  448SOL     OW 2242   3.642   6.714   4.181
  448SOL    HW1 2243   3.731   6.758   4.193
  448SOL    HW2 2244   3.626   6.698   4.084
  449SOL     OW 2245   0.867   3.826   4.860
  449SOL    HW1 2246   0.779   3.779   4.854
  449SOL    HW2 2247   0.853   3.924   4.842
  450SOL     OW 2248   6.162   4.016   3.642
  450SOL    HW1 2249   6.207   4.102   3.668
  450SOL    HW2 2250   6.187   3.991   3.549
  451SOL     OW 2251   2.625   1.614   6.210
  451SOL    HW1 2252   2.683   1.683   6.252
  451SOL    HW2 2253   2.539   1.656   6.180
  452SOL     OW 2254   4.696   5.292   1.460
  452SOL    HW1 2255   4.787   5.256   1.480
  452SOL    HW2 2256   4.662   5.250   1.376
  453SOL     OW 2257   3.929   0.836   0.130
  453SOL    HW1 2258   4.009   0.884   0.166
  453SOL    HW2 2259   3.861   0.825   0.203
  454SOL     OW 2260   6.854   2.977   3.831
  454SOL    HW1 2261   6.891   2.933   3.749
  454SOL    HW2 2262   6.904   2.945   3.911
  455SOL     OW 2263   6.039   5.227   0.397
  455SOL    HW1 2264   6.013   5.241   0.302
  455SOL    HW2 2265   6.055   5.315   0.441
  456SOL     OW 2266   1.632   1.190   3.322
  456SOL    HW1 2267   1.617   1.191   3.421
  456SOL    HW2 2268   1.619   1.097   3.288
  457SOL     OW 2269   3.228   5.832   0.708
  457SOL    HW1 2270   3.328   5.833   0.714
  457SOL    HW2 2271   3.198   5.742   0.677
  458SOL     OW 2272   3.100   1.164   4.296
  458SOL    HW1 2273   3.191   1.126   4.316
  458SOL    HW2 2274   3.101   1.263   4.311
  459SOL     OW 2275   3.110   1.236   3.747
  459SOL    HW1 2276   3.154   1.147   3.750
  459SOL    HW2 2277   3.011   1.224   3.732
  460SOL     OW 2278   1.101   1.563   6.932
  460SOL    HW1 2279   1.009   1.602   6.934
  460SOL    HW2 2280   1.163   1.628   6.888
  461SOL     OW 2281   1.271   6.779   4.981
  461SOL    HW1 2282   1.212   6.849   5.020
  461SOL    HW2 2283   1.231   6.689   4.998
  462SOL     OW 2284   3.558   4.213   5.370
  462SOL    HW1 2285   3.543   4.118   5.398
  462SOL    HW2 2286   3.644   4.219   5.319
  463SOL     OW 2287   5.713   6.346   3.347
  463SOL    HW1 2288   5.630   6.365   3.400
  463SOL    HW2 2289   5.692   6.352   3.249
  464SOL     OW 2290   4.493   6.042   4.768
  464SOL    HW1 2291   4.486   5.942   4.769
  464SOL    HW2 2292   4.502   6.076   4.861
  465SOL     OW 2293   0.712   5.374   0.894
  465SOL    HW1 2294   0.757   5.458   0.924
  465SOL    HW2 2295   0.758   5.339   0.812
  466SOL     OW 2296   3.311   4.912   3.636
  466SOL    HW1 2297   3.383   4.848   3.663
  466SOL    HW2 2298   3.264   4.946   3.717
  467SOL     OW 2299   6.748   6.714   1.483
  467SOL    HW1 2300   6.734   6.660   1.566
  467SOL    HW2 2301   6.697   6.673   1.408
  468SOL     OW 2302   2.418   6.629   6.748
  468SOL    HW1 2303   2.446   6.617   6.843
  468SOL    HW2 2304   2.489   6.677   6.697
  469SOL     OW 2305   3.693   4.629   5.640
  469SOL    HW1 2306   3.705   4.552   5.578
  469SOL    HW2 2307   3.649   4.705   5.591
  470SOL     OW 2308   2.590   5.101   2.219
  470SOL    HW1 2309   2.608   5.197   2.243
  470SOL    HW2 2310   2.496   5.092   2.186
  471SOL     OW 2311   1.602   1.942   4.758
  471SOL    HW1 2312   1.683   1.891   4.729
  471SOL    HW2 2313   1.589   1.930   4.857
  472SOL     OW 2314   5.075   4.070   6.511
  472SOL    HW1 2315   4.983   4.105   6.491
  472SOL    HW2 2316   5.139   4.104   6.442
  473SOL     OW 2317   5.628   3.427   1.713
  473SOL    HW1 2318   5.531   3.423   1.687
  473SOL    HW2 2319   5.673   3.342   1.685
  474SOL     OW 2320   5.092   4.646   3.652
  474SOL    HW1 2321   5.064   4.553   3.676
  474SOL    HW2 2322   5.179   4.643   3.603
  475SOL     OW 2323   4.495   1.492   0.603
  475SOL    HW1 2324   4.533   1.521   0.515
  475SOL    HW2 2325   4.548   1.415   0.639
  476SOL     OW 2326   1.148   2.755   0.025
  476SOL    HW1 2327   1.198   2.692   6.988
  476SOL    HW2 2328   1.168   2.849   7.019
  477SOL     OW 2329   5.704   5.699   3.765
  477SOL    HW1 2330   5.777   5.663   3.823
  477SOL    HW2 2331   5.645   5.760   3.819
  478SOL     OW 2332   6.616   4.943   2.040
  478SOL    HW1 2333   6.525   4.950   2.000
  478SOL    HW2 2334   6.609   4.936   2.139
  479SOL     OW 2335   3.457   3.922   3.093
  479SOL    HW1 2336   3.399   3.990   3.140
  479SOL    HW2 2337   3.543   3.965   3.066
  480SOL     OW 2338   0.208   0.083   2.097
  480SOL    HW1 2339   0.203   0.165   2.040
  480SOL    HW2 2340   0.223   0.002   2.039
  481SOL     OW 2341   6.244   5.984   0.746
  481SOL    HW1 2342   6.183   5.907   0.726
  481SOL    HW2 2343   6.252   5.996   0.845
  482SOL     OW 2344   3.605   5.048   2.608
  482SOL    HW1 2345   3.548   5.047   2.526
  482SOL    HW2 2346   3.548   5.061   2.689
  483SOL     OW 2347   6.075   1.635   4.468
  483SOL    HW1 2348   6.084   1.537   4.452
  483SOL    HW2 2349   6.160   1.669   4.509
  484SOL     OW 2350   2.613   5.370   3.589
  484SOL    HW1 2351   2.686   5.417   3.540
  484SOL    HW2 2352   2.650   5.288   3.634
  485SOL     OW 2353   4.652   2.193   0.764
  485SOL    HW1 2354   4.590   2.271   0.771
  485SOL    HW2 2355   4.746   2.226   0.767
  486SOL     OW 2356   6.004   6.113   5.494
  486SOL    HW1 2357   6.064   6.181   5.538
  486SOL    HW2 2358   6.060   6.043   5.449
  487SOL     OW 2359   6.521   0.823   6.881
  487SOL    HW1 2360   6.506   0.893   6.812
  487SOL    HW2 2361   6.437   0.808   6.932
  488SOL     OW 2362   1.791   6.244   3.829
  488SOL    HW1 2363   1.749   6.267   3.917
  488SOL    HW2 2364   1.881   6.287   3.822
  489SOL     OW 2365   2.584   4.524   5.228
  489SOL    HW1 2366   2.551   4.453   5.290
  489SOL    HW2 2367   2.676   4.499   5.195
  490SOL     OW 2368   1.445   3.630   5.053
  490SOL    HW1 2369   1.356   3.588   5.069
  490SOL    HW2 2370   1.473   3.616   4.958
  491SOL     OW 2371   6.276   3.290   1.650
  491SOL    HW1 2372   6.326   3.287   1.736
  491SOL    HW2 2373   6.332   3.251   1.577
  492SOL     OW 2374   1.719   2.534   5.500
  492SOL    HW1 2375   1.660   2.514   5.579
  492SOL    HW2 2376   1.780   2.457   5.484
  493SOL     OW 2377   1.306   5.617   3.651
  493SOL    HW1 2378   1.397   5.619   3.609
  493SOL    HW2 2379   1.242   5.664   3.590
  494SOL     OW 2380   2.865   0.235   2.653
  494SOL    HW1 2381   2.942   0.295   2.673
  494SOL    HW2 2382   2.878   0.147   2.697
  495SOL     OW 2383   3.971   4.598   0.341
  495SOL    HW1 2384   3.955   4.651   0.425
  495SOL    HW2 2385   3.964   4.659   0.262
  496SOL     OW 2386   4.881   0.208   3.331
  496SOL    HW1 2387   4.786   0.199   3.360
  496SOL    HW2 2388   4.886   0.202   3.231
  497SOL     OW 2389   4.774   2.668   0.949
  497SOL    HW1 2390   4.803   2.731   1.021
  497SOL    HW2 2391   4.773   2.575   0.984
  498SOL     OW 2392   0.901   0.152   1.060
  498SOL    HW1 2393   0.842   0.096   1.118
  498SOL    HW2 2394   0.929   0.099   0.979
  499SOL     OW 2395   3.202   6.609   6.642
  499SOL    HW1 2396   3.108   6.643   6.636
  499SOL    HW2 2397   3.244   6.612   6.551
  500SOL     OW 2398   6.298   1.444   6.414
  500SOL    HW1 2399   6.356   1.513   6.370
  500SOL    HW2 2400   6.335   1.422   6.505
  501SOL     OW 2401   2.004   2.237   4.606
  501SOL    HW1 2402   2.021   2.256   4.510
  501SOL    HW2 2403   1.959   2.316   4.649
  502SOL     OW 2404   2.641   2.819   7.000
  502SOL    HW1 2405   2.633   2.748   6.931
  502SOL    HW2 2406   2.727   2.869   6.988
  503SOL     OW 2407   4.429   5.336   0.867
  503SOL    HW1 2408   4.412   5.389   0.949
  503SOL    HW2 2409   4.417   5.238   0.887
  504SOL     OW 2410   5.892   0.569   0.222
  504SOL    HW1 2411   5.931   0.480   0.199
  504SOL    HW2 2412   5.930   0.639   0.162
  505SOL     OW 2413   0.315   3.793   5.340
  505SOL    HW1 2414   0.401   3.814   5.294
  505SOL    HW2 2415   0.251   3.869   5.329
  506SOL     OW 2416   2.780   5.788   2.193
  506SOL    HW1 2417   2.706   5.811   2.257
  506SOL    HW2 2418   2.740   5.764   2.104
  507SOL     OW 2419   2.772   6.740   3.702
  507SOL    HW1 2420   2.716   6.803   3.648
  507SOL    HW2 2421   2.850   6.709   3.646
  508SOL     OW 2422   0.469   5.313   3.038
  508SOL    HW1 2423   0.440   5.399   2.998
  508SOL    HW2 2424   0.418   5.237   2.997
  509SOL     OW 2425   4.950   0.492   5.907
  509SOL    HW1 2426   4.995   0.402   5.907
  509SOL    HW2 2427   5.010   0.559   5.951
  510SOL     OW 2428   6.429   4.245   0.490
  510SOL    HW1 2429   6.339   4.205   0.477
  510SOL    HW2 2430   6.499   4.173   0.481
  511SOL     OW 2431   0.082   1.968   0.713
  511SOL    HW1 2432   0.078   1.887   0.772
  511SOL    HW2 2433   0.107   1.940   0.620
  512SOL     OW 2434   1.657   2.218   4.901
  512SOL    HW1 2435   1.677   2.123   4.925
  512SOL    HW2 2436   1.714   2.245   4.824
  513SOL     OW 2437   5.700   5.751   2.850
  513SOL    HW1 2438   5.766   5.770   2.778
  513SOL    HW2 2439   5.735   5.786   2.937
  514SOL     OW 2440   4.939   1.510   4.368
  514SOL    HW1 2441   4.949   1.530   4.466
  514SOL    HW2 2442   4.844   1.523   4.341
  515SOL     OW 2443   3.210   0.658   6.689
  515SOL    HW1 2444   3.188   0.565   6.661
  515SOL    HW2 2445   3.159   0.681   6.771
  516SOL     OW 2446   0.482   5.622   2.685
  516SOL    HW1 2447   0.537   5.546   2.651
  516SOL    HW2 2448   0.462   5.608   2.782
  517SOL     OW 2449   3.801   5.339   0.849
  517SOL    HW1 2450   3.721   5.327   0.908
  517SOL    HW2 2451   3.877   5.374   0.903
  518SOL     OW 2452   2.090   0.095   3.882
  518SOL    HW1 2453   2.185   0.120   3.900
  518SOL    HW2 2454   2.045   0.166   3.827
  519SOL     OW 2455   6.618   6.920   2.989
  519SOL    HW1 2456   6.670   6.982   3.048
  519SOL    HW2 2457   6.656   6.922   2.897
  520SOL     OW 2458   3.683   5.733   0.543
  520SOL    HW1 2459   3.699   5.635   0.535
  520SOL    HW2 2460   3.612   5.749   0.612
  521SOL     OW 2461   7.006   6.807   5.271
  521SOL    HW1 2462   6.974   6.743   5.201
  521SOL    HW2 2463   6.934   6.820   5.339
  522SOL     OW 2464   3.646   4.863   6.446
  522SOL    HW1 2465   3.555   4.824   6.432
  522SOL    HW2 2466   3.711   4.790   6.466
  523SOL     OW 2467   1.663   0.238   5.966
  523SOL    HW1 2468   1.608   0.282   5.895
  523SOL    HW2 2469   1.760   0.242   5.941
  524SOL     OW 2470   6.433   1.376   1.013
  524SOL    HW1 2471   6.531   1.362   0.996
  524SOL    HW2 2472   6.416   1.375   1.111
  525SOL     OW 2473   0.717   3.123   3.655
  525SOL    HW1 2474   0.735   3.200   3.593
  525SOL    HW2 2475   0.713   3.157   3.749
  526SOL     OW 2476   3.931   6.032   4.297
  526SOL    HW1 2477   3.841   6.047   4.339
  526SOL    HW2 2478   3.984   6.117   4.302
  527SOL     OW 2479   6.715   1.231   0.958
  527SOL    HW1 2480   6.795   1.214   0.900
  527SOL    HW2 2481   6.644   1.165   0.938
  528SOL     OW 2482   0.062   1.616   3.826
  528SOL    HW1 2483   0.122   1.694   3.839
  528SOL    HW2 2484   0.008   1.627   3.743
  529SOL     OW 2485   1.262   1.547   6.154
  529SOL    HW1 2486   1.168   1.534   6.123
  529SOL    HW2 2487   1.312   1.460   6.150
  530SOL     OW 2488   3.470   4.514   1.659
  530SOL    HW1 2489   3.509   4.576   1.727
  530SOL    HW2 2490   3.478   4.555   1.568
  531SOL     OW 2491   6.760   1.852   5.889
  531SOL    HW1 2492   6.858   1.841   5.870
  531SOL    HW2 2493   6.725   1.769   5.933
  532SOL     OW 2494   3.745   1.064   6.791
  532SOL    HW1 2495   3.697   0.996   6.847
  532SOL    HW2 2496   3.829   1.024   6.754
  533SOL     OW 2497   3.880   0.139   4.959
  533SOL    HW1 2498   3.873   0.166   5.055
  533SOL    HW2 2499   3.841   0.210   4.901
  534SOL     OW 2500   1.998   4.193   1.194
  534SOL    HW1 2501   2.086   4.158   1.227
  534SOL    HW2 2502   1.942   4.221   1.272
  535SOL     OW 2503   4.385   4.664   3.323
  535SOL    HW1 2504   4.384   4.730   3.399
  535SOL    HW2 2505   4.411   4.574   3.357
  536SOL     OW 2506   6.457   6.567   1.452
  536SOL    HW1 2507   6.425   6.622   1.375
  536SOL    HW2 2508   6.487   6.477   1.419
  537SOL     OW 2509   3.397   1.712   2.986
  537SOL    HW1 2510   3.355   1.648   2.921
  537SOL    HW2 2511   3.326   1.769   3.028
  538SOL     OW 2512   4.099   5.347   5.873
  538SOL    HW1 2513   4.102   5.361   5.972
  538SOL    HW2 2514   4.153   5.418   5.828
  539SOL     OW 2515   2.187   0.252   0.068
  539SOL    HW1 2516   2.239   0.168   0.050
  539SOL    HW2 2517   2.126   0.271   7.013
  540SOL     OW 2518   2.464   1.639   5.419
  540SOL    HW1 2519   2.502   1.576   5.350
  540SOL    HW2 2520   2.444   1.727   5.376
  541SOL     OW 2521   5.460   5.888   2.326
  541SOL    HW1 2522   5.471   5.818   2.256
  541SOL    HW2 2523   5.408   5.965   2.289
  542SOL     OW 2524   3.936   5.689   5.856
  542SOL    HW1 2525   3.912   5.784   5.876
  542SOL    HW2 2526   4.036   5.681   5.849
  543SOL     OW 2527   6.378   1.922   5.126
  543SOL    HW1 2528   6.341   2.015   5.133
  543SOL    HW2 2529   6.369   1.876   5.214
  544SOL     OW 2530   1.235   2.475   1.197
  544SOL    HW1 2531   1.246   2.471   1.098
  544SOL    HW2 2532   1.161   2.539   1.220
  545SOL     OW 2533   6.965   5.332   0.685
  545SOL    HW1 2534   6.902   5.304   0.758
  545SOL    HW2 2535   6.927   5.307   0.596
  546SOL     OW 2536   6.638   5.991   2.703
  546SOL    HW1 2537   6.734   6.020   2.705
  546SOL    HW2 2538   6.582   6.059   2.750
  547SOL     OW 2539   3.726   6.372   6.734
  547SOL    HW1 2540   3.645   6.431   6.730
  547SOL    HW2 2541   3.709   6.296   6.796
  548SOL     OW 2542   4.051   2.732   6.805
  548SOL    HW1 2543   4.076   2.719   6.709
  548SOL    HW2 2544   4.133   2.727   6.861
  549SOL     OW 2545   5.495   2.522   3.876
  549SOL    HW1 2546   5.423   2.501   3.809
  549SOL    HW2 2547   5.463   2.498   3.967
  550SOL     OW 2548   0.251   5.564   3.760
  550SOL    HW1 2549   0.197   5.601   3.836
  550SOL    HW2 2550   0.348   5.571   3.781
  551SOL     OW 2551   5.557   0.759   0.757
  551SOL    HW1 2552   5.619   0.782   0.683
  551SOL    HW2 2553   5.520   0.667   0.742
  552SOL     OW 2554   0.494   0.538   4.635
  552SOL    HW1 2555   0.447   0.509   4.718
  552SOL    HW2 2556   0.559   0.467   4.607
  553SOL     OW 2557   3.608   2.316   5.372
  553SOL    HW1 2558   3.693   2.362   5.347
  553SOL    HW2 2559   3.561   2.283   5.290
  554SOL     OW 2560   0.016   4.986   0.507
  554SOL    HW1 2561   0.028   4.887   0.516
  554SOL    HW2 2562   0.078   5.033   0.569
  555SOL     OW 2563   3.522   4.342   5.878
  555SOL    HW1 2564   3.487   4.262   5.828
  555SOL    HW2 2565   3.479   4.425   5.842
  556SOL     OW 2566   5.625   6.049   3.141
  556SOL    HW1 2567   5.546   6.065   3.200
  556SOL    HW2 2568   5.656   6.136   3.102
  557SOL     OW 2569   6.386   3.729   0.201
  557SOL    HW1 2570   6.407   3.699   0.108
  557SOL    HW2 2571   6.397   3.652   0.264
  558SOL     OW 2572   3.183   3.371   2.029
  558SOL    HW1 2573   3.215   3.449   1.975
  558SOL    HW2 2574   3.226   3.288   1.995
  559SOL     OW 2575   6.114   0.942   6.378
  559SOL    HW1 2576   6.110   0.974   6.283
  559SOL    HW2 2577   6.029   0.964   6.425
  560SOL     OW 2578   1.459   2.269   3.402
  560SOL    HW1 2579   1.501   2.183   3.373
  560SOL    HW2 2580   1.501   2.299   3.488
  561SOL     OW 2581   0.133   4.208   0.394
  561SOL    HW1 2582   0.220   4.177   0.432
  561SOL    HW2 2583   0.148   4.290   0.339
  562SOL     OW 2584   3.425   5.874   3.510
  562SOL    HW1 2585   3.408   5.885   3.412
  562SOL    HW2 2586   3.524   5.875   3.527
  563SOL     OW 2587   0.545   1.097   4.436
  563SOL    HW1 2588   0.558   1.155   4.356
  563SOL    HW2 2589   0.623   1.106   4.497
  564SOL     OW 2590   5.630   1.466   5.530
  564SOL    HW1 2591   5.696   1.423   5.469
  564SOL    HW2 2592   5.626   1.564   5.511
  565SOL     OW 2593   3.349   3.395   3.729
  565SOL    HW1 2594   3.304   3.434   3.649
  565SOL    HW2 2595   3.387   3.468   3.785
  566SOL     OW 2596   1.449   2.602   3.562
  566SOL    HW1 2597   1.393   2.549   3.498
  566SOL    HW2 2598   1.394   2.624   3.643
  567SOL     OW 2599   1.569   3.182   5.369
  567SOL    HW1 2600   1.668   3.189   5.384
  567SOL    HW2 2601   1.523   3.261   5.409
  568SOL     OW 2602   1.174   0.674   6.766
  568SOL    HW1 2603   1.112   0.712   6.697
  568SOL    HW2 2604   1.121   0.645   6.846
  569SOL     OW 2605   5.220   3.461   5.403
  569SOL    HW1 2606   5.288   3.528   5.435
  569SOL    HW2 2607   5.155   3.442   5.477
  570SOL     OW 2608   3.376   0.556   6.082
  570SOL    HW1 2609   3.333   0.483   6.028
  570SOL    HW2 2610   3.349   0.546   6.178
  571SOL     OW 2611   2.382   4.547   1.937
  571SOL    HW1 2612   2.428   4.623   1.890
  571SOL    HW2 2613   2.431   4.526   2.022
  572SOL     OW 2614   2.790   1.610   4.820
  572SOL    HW1 2615   2.691   1.620   4.809
  572SOL    HW2 2616   2.810   1.517   4.851
  573SOL     OW 2617   0.678   6.981   5.878
  573SOL    HW1 2618   0.585   6.985   5.841
  573SOL    HW2 2619   0.734   0.029   5.833
  574SOL     OW 2620   2.548   0.742   5.841
  574SOL    HW1 2621   2.480   0.782   5.902
  574SOL    HW2 2622   2.628   0.802   5.834
  575SOL     OW 2623   3.877   3.482   0.480
  575SOL    HW1 2624   3.844   3.400   0.432
  575SOL    HW2 2625   3.852   3.475   0.576
  576SOL     OW 2626   0.301   0.826   3.189
  576SOL    HW1 2627   0.241   0.877   3.250
  576SOL    HW2 2628   0.247   0.760   3.137
  577SOL     OW 2629   6.938   6.785   2.310
  577SOL    HW1 2630   6.919   6.867   2.364
  577SOL    HW2 2631   6.861   6.721   2.319
  578SOL     OW 2632   3.928   6.596   0.653
  578SOL    HW1 2633   3.882   6.508   0.639
  578SOL    HW2 2634   3.951   6.637   0.565
  579SOL     OW 2635   0.600   3.712   2.121
  579SOL    HW1 2636   0.664   3.741   2.193
  579SOL    HW2 2637   0.627   3.621   2.088
  580SOL     OW 2638   4.761   4.717   4.599
  580SOL    HW1 2639   4.748   4.815   4.612
  580SOL    HW2 2640   4.859   4.695   4.603
  581SOL     OW 2641   2.170   2.450   3.660
  581SOL    HW1 2642   2.156   2.351   3.673
  581SOL    HW2 2643   2.167   2.495   3.749
  582SOL     OW 2644   5.675   3.941   4.891
  582SOL    HW1 2645   5.707   4.016   4.834
  582SOL    HW2 2646   5.599   3.895   4.846
  583SOL     OW 2647   3.511   5.639   5.328
  583SOL    HW1 2648   3.503   5.539   5.330
  583SOL    HW2 2649   3.532   5.673   5.420
  584SOL     OW 2650   3.956   0.847   5.112
  584SOL    HW1 2651   3.996   0.890   5.193
  584SOL    HW2 2652   3.990   0.754   5.103
  585SOL     OW 2653   3.587   6.543   1.718
  585SOL    HW1 2654   3.647   6.525   1.640
  585SOL    HW2 2655   3.533   6.625   1.701
  586SOL     OW 2656   3.783   0.284   1.045
  586SOL    HW1 2657   3.877   0.263   1.070
  586SOL    HW2 2658   3.777   0.294   0.945
  587SOL     OW 2659   4.638   0.492   2.966
  587SOL    HW1 2660   4.585   0.575   2.950
  587SOL    HW2 2661   4.677   0.494   3.058
  588SOL     OW 2662   2.310   4.277   2.431
  588SOL    HW1 2663   2.336   4.335   2.353
  588SOL    HW2 2664   2.211   4.282   2.443
  589SOL     OW 2665   3.393   4.392   6.539
  589SOL    HW1 2666   3.419   4.477   6.584
  589SOL    HW2 2667   3.294   4.377   6.549
  590SOL     OW 2668   2.526   1.912   6.046
  590SOL    HW1 2669   2.502   2.003   6.080
  590SOL    HW2 2670   2.477   1.842   6.098
  591SOL     OW 2671   3.132   0.388   4.121
  591SOL    HW1 2672   3.215   0.406   4.174
  591SOL    HW2 2673   3.066   0.340   4.178
  592SOL     OW 2674   4.594   2.077   4.363
  592SOL    HW1 2675   4.539   2.066   4.280
  592SOL    HW2 2676   4.682   2.116   4.339
  593SOL     OW 2677   1.401   0.117   0.238
  593SOL    HW1 2678   1.420   0.215   0.236
  593SOL    HW2 2679   1.407   0.084   0.332
  594SOL     OW 2680   3.438   1.262   5.088
  594SOL    HW1 2681   3.399   1.204   5.161
  594SOL    HW2 2682   3.380   1.256   5.007
  595SOL     OW 2683   6.395   3.823   2.171
  595SOL    HW1 2684   6.315   3.834   2.230
  595SOL    HW2 2685   6.449   3.744   2.202
  596SOL     OW 2686   6.069   4.638   4.124
  596SOL    HW1 2687   6.089   4.676   4.034
  596SOL    HW2 2688   6.061   4.539   4.118
  597SOL     OW 2689   3.927   1.508   6.384
  597SOL    HW1 2690   4.022   1.530   6.365
  597SOL    HW2 2691   3.921   1.452   6.466
  598SOL     OW 2692   3.267   2.966   2.664
  598SOL    HW1 2693   3.282   2.955   2.763
  598SOL    HW2 2694   3.355   2.963   2.616
  599SOL     OW 2695   1.896   4.836   1.069
  599SOL    HW1 2696   1.929   4.885   0.987
  599SOL    HW2 2697   1.966   4.841   1.140
  600SOL     OW 2698   0.258   3.401   5.956
  600SOL    HW1 2699   0.173   3.351   5.936
  600SOL    HW2 2700   0.308   3.417   5.872
  601SOL     OW 2701   6.981   0.176   5.758
  601SOL    HW1 2702   0.039   0.187   5.698
  601SOL    HW2 2703   7.013   0.166   5.852
  602SOL     OW 2704   0.560   0.585   3.380
  602SOL    HW1 2705   0.605   0.654   3.436
  602SOL    HW2 2706   0.557   0.616   3.285
  603SOL     OW 2707   1.236   1.801   3.918
  603SOL    HW1 2708   1.277   1.848   3.839
  603SOL    HW2 2709   1.279   1.711   3.929
  604SOL     OW 2710   5.424   2.305   0.587
  604SOL    HW1 2711   5.468   2.355   0.513
  604SOL    HW2 2712   5.325   2.303   0.572
  605SOL     OW 2713   5.610   6.439   2.106
  605SOL    HW1 2714   5.623   6.358   2.164
  605SOL    HW2 2715   5.551   6.416   2.029
  606SOL     OW 2716   3.158   6.542   5.052
  606SOL    HW1 2717   3.128   6.481   5.126
  606SOL    HW2 2718   3.080   6.594   5.018
  607SOL     OW 2719   1.528   3.352   5.949
  607SOL    HW1 2720   1.508   3.448   5.967
  607SOL    HW2 2721   1.605   3.323   6.005
  608SOL     OW 2722   3.155   1.289   0.491
  608SOL    HW1 2723   3.072   1.345   0.490
  608SOL    HW2 2724   3.144   1.213   0.554
  609SOL     OW 2725   3.982   3.116   2.413
  609SOL    HW1 2726   3.990   3.122   2.313
  609SOL    HW2 2727   3.944   3.202   2.448
  610SOL     OW 2728   5.202   2.865   2.005
  610SOL    HW1 2729   5.141   2.864   1.926
  610SOL    HW2 2730   5.188   2.782   2.059
  611SOL     OW 2731   3.712   1.774   2.179
  611SOL    HW1 2732   3.649   1.829   2.124
  611SOL    HW2 2733   3.766   1.715   2.118
  612SOL     OW 2734   4.346   5.262   4.369
  612SOL    HW1 2735   4.282   5.273   4.445
  612SOL    HW2 2736   4.435   5.232   4.405
  613SOL     OW 2737   3.677   5.355   6.101
  613SOL    HW1 2738   3.578   5.366   6.100
  613SOL    HW2 2739   3.720   5.441   6.075
  614SOL     OW 2740   3.518   6.131   6.013
  614SOL    HW1 2741   3.466   6.202   5.965
  614SOL    HW2 2742   3.483   6.123   6.107
  615SOL     OW 2743   6.757   5.024   3.778
  615SOL    HW1 2744   6.738   5.103   3.719
  615SOL    HW2 2745   6.810   5.054   3.857
  616SOL     OW 2746   6.002   2.675   4.108
  616SOL    HW1 2747   6.049   2.711   4.027
  616SOL    HW2 2748   6.052   2.701   4.190
  617SOL     OW 2749   2.282   0.501   6.183
  617SOL    HW1 2750   2.247   0.556   6.106
  617SOL    HW2 2751   2.379   0.522   6.197
  618SOL     OW 2752   2.188   0.652   2.782
  618SOL    HW1 2753   2.170   0.554   2.786
  618SOL    HW2 2754   2.277   0.669   2.742
  619SOL     OW 2755   1.193   2.419   6.646
  619SOL    HW1 2756   1.238   2.421   6.557
  619SOL    HW2 2757   1.174   2.325   6.672
  620SOL     OW 2758   4.322   3.758   0.722
  620SOL    HW1 2759   4.338   3.844   0.770
  620SOL    HW2 2760   4.319   3.683   0.788
  621SOL     OW 2761   0.124   6.059   0.950
  621SOL    HW1 2762   0.174   6.113   1.018
  621SOL    HW2 2763   0.123   5.963   0.978
  622SOL     OW 2764   0.907   1.081   0.042
  622SOL    HW1 2765   0.939   1.145   6.993
  622SOL    HW2 2766   0.820   1.041   0.014
  623SOL     OW 2767   6.778   5.888   5.249
  623SOL    HW1 2768   6.732   5.801   5.235
  623SOL    HW2 2769   6.716   5.951   5.296
  624SOL     OW 2770   0.534   1.749   1.297
  624SOL    HW1 2771   0.610   1.685   1.307
  624SOL    HW2 2772   0.567   1.836   1.260
  625SOL     OW 2773   1.428   1.150   1.934
  625SOL    HW1 2774   1.399   1.192   2.020
  625SOL    HW2 2775   1.495   1.078   1.953
  626SOL     OW 2776   3.637   5.489   4.612
  626SOL    HW1 2777   3.613   5.568   4.668
  626SOL    HW2 2778   3.702   5.431   4.661
  627SOL     OW 2779   4.260   5.876   0.176
  627SOL    HW1 2780   4.168   5.869   0.138
  627SOL    HW2 2781   4.326   5.840   0.110
  628SOL     OW 2782   4.869   3.628   3.535
  628SOL    HW1 2783   4.872   3.533   3.505
  628SOL    HW2 2784   4.898   3.688   3.460
  629SOL     OW 2785   1.863   6.948   1.213
  629SOL    HW1 2786   1.821   6.923   1.126
  629SOL    HW2 2787   1.880   0.025   1.215
  630SOL     OW 2788   2.465   1.093   2.346
  630SOL    HW1 2789   2.482   1.015   2.285
  630SOL    HW2 2790   2.402   1.065   2.418
  631SOL     OW 2791   2.340   1.331   4.158
  631SOL    HW1 2792   2.279   1.408   4.140
  631SOL    HW2 2793   2.286   1.252   4.186
  632SOL     OW 2794   3.058   0.166   0.401
  632SOL    HW1 2795   2.983   0.114   0.361
  632SOL    HW2 2796   3.024   0.252   0.438
  633SOL     OW 2797   1.973   0.163   4.843
  633SOL    HW1 2798   2.006   0.254   4.817
  633SOL    HW2 2799   2.031   0.093   4.801
  634SOL     OW 2800   3.144   5.556   1.951
  634SOL    HW1 2801   3.100   5.472   1.921
  634SOL    HW2 2802   3.077   5.616   1.994
  635SOL     OW 2803   3.027   0.169   2.114
  635SOL    HW1 2804   2.984   0.080   2.129
  635SOL    HW2 2805   3.015   0.196   2.019
  636SOL     OW 2806   5.079   4.674   6.691
  636SOL    HW1 2807   5.160   4.730   6.707
  636SOL    HW2 2808   5.003   4.732   6.660
  637SOL     OW 2809   5.957   4.950   6.309
  637SOL    HW1 2810   5.857   4.950   6.314
  637SOL    HW2 2811   5.990   4.856   6.300
  638SOL     OW 2812   5.801   1.545   3.291
  638SOL    HW1 2813   5.879   1.485   3.274
  638SOL    HW2 2814   5.736   1.500   3.352
  639SOL     OW 2815   3.649   3.665   1.763
  639SOL    HW1 2816   3.614   3.585   1.812
  639SOL    HW2 2817   3.637   3.747   1.820
  640SOL     OW 2818   2.939   2.163   5.123
  640SOL    HW1 2819   3.023   2.198   5.081
  640SOL    HW2 2820   2.935   2.191   5.219
  641SOL     OW 2821   0.263   6.794   4.719
  641SOL    HW1 2822   0.164   6.795   4.737
  641SOL    HW2 2823   0.302   6.883   4.743
  642SOL     OW 2824   0.304   4.517   5.825
  642SOL    HW1 2825   0.350   4.570   5.754
  642SOL    HW2 2826   0.335   4.422   5.821
  643SOL     OW 2827   5.470   6.250   4.777
  643SOL    HW1 2828   5.432   6.289   4.694
  643SOL    HW2 2829   5.452   6.311   4.854
  644SOL     OW 2830   3.252   6.275   1.506
  644SOL    HW1 2831   3.236   6.215   1.427
  644SOL    HW2 2832   3.330   6.240   1.558
  645SOL     OW 2833   0.769   2.994   2.862
  645SOL    HW1 2834   0.792   2.999   2.765
  645SOL    HW2 2835   0.851   2.974   2.915
  646SOL     OW 2836   1.752   2.943   4.245
  646SOL    HW1 2837   1.766   3.015   4.313
  646SOL    HW2 2838   1.732   2.984   4.156
  647SOL     OW 2839   5.632   4.663   0.400
  647SOL    HW1 2840   5.688   4.615   0.333
  647SOL    HW2 2841   5.609   4.754   0.367
  648SOL     OW 2842   4.186   2.207   4.137
  648SOL    HW1 2843   4.192   2.150   4.218
  648SOL    HW2 2844   4.095   2.249   4.132
  649SOL     OW 2845   4.052   4.378   1.353
  649SOL    HW1 2846   4.089   4.312   1.418
  649SOL    HW2 2847   4.108   4.461   1.355
  650SOL     OW 2848   5.561   4.893   0.285
  650SOL    HW1 2849   5.482   4.953   0.295
  650SOL    HW2 2850   5.645   4.948   0.292
  651SOL     OW 2851   1.303   5.791   6.253
  651SOL    HW1 2852   1.398   5.810   6.226
  651SOL    HW2 2853   1.263   5.725   6.189
  652SOL     OW 2854   5.044   2.491   1.519
  652SOL    HW1 2855   5.012   2.427   1.449
  652SOL    HW2 2856   5.144   2.491   1.520
  653SOL     OW 2857   3.310   5.482   2.737
  653SOL    HW1 2858   3.278   5.451   2.648
  653SOL    HW2 2859   3.410   5.487   2.738
  654SOL     OW 2860   0.019   5.200   6.789
  654SOL    HW1 2861   0.116   5.203   6.765
  654SOL    HW2 2862   0.001   5.116   6.841
  655SOL     OW 2863   1.668   1.797   0.320
  655SOL    HW1 2864   1.735   1.870   0.305
  655SOL    HW2 2865   1.704   1.711   0.282
  656SOL     OW 2866   1.955   6.675   1.172
  656SOL    HW1 2867   1.935   6.763   1.129
  656SOL    HW2 2868   2.044   6.679   1.218
  657SOL     OW 2869   3.938   0.455   0.199
  657SOL    HW1 2870   4.037   0.449   0.209
  657SOL    HW2 2871   3.915   0.491   0.109
  658SOL     OW 2872   3.298   5.535   0.089
  658SOL    HW1 2873   3.320   5.467   0.019
  658SOL    HW2 2874   3.305   5.627   0.051
  659SOL     OW 2875   3.733   0.209   6.289
  659SOL    HW1 2876   3.640   0.187   6.319
  659SOL    HW2 2877   3.778   0.267   6.357
  660SOL     OW 2878   3.026   6.654   3.632
  660SOL    HW1 2879   3.059   6.632   3.540
  660SOL    HW2 2880   3.102   6.687   3.687
  661SOL     OW 2881   6.598   4.791   2.789
  661SOL    HW1 2882   6.563   4.735   2.714
  661SOL    HW2 2883   6.550   4.879   2.789
  662SOL     OW 2884   4.476   2.238   6.934
  662SOL    HW1 2885   4.498   2.142   6.950
  662SOL    HW2 2886   4.426   2.247   6.848
  663SOL     OW 2887   1.253   4.273   4.682
  663SOL    HW1 2888   1.286   4.344   4.620
  663SOL    HW2 2889   1.154   4.281   4.694
  664SOL     OW 2890   5.719   6.914   6.451
  664SOL    HW1 2891   5.813   6.947   6.463
  664SOL    HW2 2892   5.676   6.902   6.540
  665SOL     OW 2893   1.658   3.881   2.154
  665SOL    HW1 2894   1.609   3.796   2.135
  665SOL    HW2 2895   1.704   3.913   2.071
  666SOL     OW 2896   3.958   0.728   2.676
  666SOL    HW1 2897   3.885   0.719   2.609
  666SOL    HW2 2898   4.016   0.647   2.672
  667SOL     OW 2899   0.438   0.440   1.219
  667SOL    HW1 2900   0.509   0.432   1.289
  667SOL    HW2 2901   0.419   0.536   1.201
  668SOL     OW 2902   5.258   3.169   6.967
  668SOL    HW1 2903   5.251   3.069   6.959
  668SOL    HW2 2904   5.309   3.205   6.889
  669SOL     OW 2905   5.179   1.563   3.199
  669SOL    HW1 2906   5.186   1.467   3.171
  669SOL    HW2 2907   5.139   1.617   3.124
  670SOL     OW 2908   4.081   2.015   2.273
  670SOL    HW1 2909   3.999   1.976   2.315
  670SOL    HW2 2910   4.056   2.059   2.186
  671SOL     OW 2911   1.243   5.681   1.665
  671SOL    HW1 2912   1.154   5.640   1.645
  671SOL    HW2 2913   1.315   5.615   1.648
  672SOL     OW 2914   0.686   0.020   1.230
  672SOL    HW1 2915   0.605   6.992   1.198
  672SOL    HW2 2916   0.678   0.038   1.328
  673SOL     OW 2917   5.967   0.024   6.466
  673SOL    HW1 2918   5.948   0.076   6.549
  673SOL    HW2 2919   5.956   0.084   6.386
  674SOL     OW 2920   5.187   6.903   4.405
  674SOL    HW1 2921   5.259   6.906   4.475
  674SOL    HW2 2922   5.174   6.809   4.373
  675SOL     OW 2923   1.061   4.930   2.263
  675SOL    HW1 2924   1.041   4.990   2.341
  675SOL    HW2 2925   1.007   4.960   2.184
  676SOL     OW 2926   2.340   5.825   6.687
  676SOL    HW1 2927   2.312   5.884   6.763
  676SOL    HW2 2928   2.437   5.839   6.668
  677SOL     OW 2929   5.593   0.758   1.499
  677SOL    HW1 2930   5.504   0.782   1.462
  677SOL    HW2 2931   5.648   0.715   1.427
  678SOL     OW 2932   0.731   5.303   4.090
  678SOL    HW1 2933   0.660   5.287   4.158
  678SOL    HW2 2934   0.802   5.362   4.129
  679SOL     OW 2935   5.461   1.335   5.682
  679SOL    HW1 2936   5.410   1.285   5.613
  679SOL    HW2 2937   5.511   1.410   5.639
  680SOL     OW 2938   5.979   6.497   4.311
  680SOL    HW1 2939   5.933   6.480   4.223
  680SOL    HW2 2940   6.073   6.464   4.306
  681SOL     OW 2941   4.137   4.774   2.681
  681SOL    HW1 2942   4.188   4.730   2.607
  681SOL    HW2 2943   4.045   4.796   2.648
  682SOL     OW 2944   6.070   1.089   2.911
  682SOL    HW1 2945   6.022   1.075   2.998
  682SOL    HW2 2946   6.152   1.031   2.909
  683SOL     OW 2947   3.232   5.145   6.988
  683SOL    HW1 2948   3.286   5.075   6.941
  683SOL    HW2 2949   3.233   5.128   0.065
  684SOL     OW 2950   6.167   1.955   6.241
  684SOL    HW1 2951   6.174   1.940   6.143
  684SOL    HW2 2952   6.203   2.046   6.263
  685SOL     OW 2953   3.212   6.838   3.715
  685SOL    HW1 2954   3.194   6.936   3.712
  685SOL    HW2 2955   3.272   6.817   3.791
  686SOL     OW 2956   3.631   0.183   5.596
  686SOL    HW1 2957   3.714   0.211   5.645
  686SOL    HW2 2958   3.578   0.265   5.571
  687SOL     OW 2959   0.165   0.930   4.243
  687SOL    HW1 2960   0.245   0.944   4.302
  687SOL    HW2 2961   0.082   0.959   4.291
  688SOL     OW 2962   5.104   3.493   0.106
  688SOL    HW1 2963   5.148   3.500   0.017
  688SOL    HW2 2964   5.115   3.579   0.156
  689SOL     OW 2965   2.657   5.684   0.174
  689SOL    HW1 2966   2.562   5.688   0.204
  689SOL    HW2 2967   2.664   5.719   0.081
  690SOL     OW 2968   5.757   3.783   4.085
  690SOL    HW1 2969   5.790   3.715   4.151
  690SOL    HW2 2970   5.668   3.817   4.115
  691SOL     OW 2971   5.574   0.999   2.230
  691SOL    HW1 2972   5.548   1.086   2.272
  691SOL    HW2 2973   5.513   0.927   2.264
  692SOL     OW 2974   1.038   0.070   3.246
  692SOL    HW1 2975   1.068   0.019   3.326
  692SOL    HW2 2976   1.082   0.160   3.246
  693SOL     OW 2977   5.876   4.100   2.503
  693SOL    HW1 2978   5.961   4.151   2.496
  693SOL    HW2 2979   5.807   4.143   2.444
  694SOL     OW 2980   4.452   4.618   4.477
  694SOL    HW1 2981   4.379   4.554   4.453
  694SOL    HW2 2982   4.476   4.607   4.573
  695SOL     OW 2983   4.692   6.759   3.984
  695SOL    HW1 2984   4.623   6.805   4.040
  695SOL    HW2 2985   4.775   6.814   3.981
  696SOL     OW 2986   6.436   4.470   1.750
  696SOL    HW1 2987   6.457   4.558   1.792
  696SOL    HW2 2988   6.512   4.407   1.766
  697SOL     OW 2989   0.261   6.229   2.779
  697SOL    HW1 2990   0.221   6.295   2.842
  697SOL    HW2 2991   0.191   6.199   2.714
  698SOL     OW 2992   6.011   6.107   6.079
  698SOL    HW1 2993   6.078   6.106   6.154
  698SOL    HW2 2994   6.026   6.189   6.023
  699SOL     OW 2995   4.030   2.973   0.889
  699SOL    HW1 2996   3.931   2.984   0.900
  699SOL    HW2 2997   4.077   3.027   0.959
  700SOL     OW 2998   3.822   6.644   5.374
  700SOL    HW1 2999   3.920   6.650   5.390
  700SOL    HW2 3000   3.803   6.659   5.277
  701SOL     OW 3001   4.514   4.495   1.795
  701SOL    HW1 3002   4.530   4.545   1.880
  701SOL    HW2 3003   4.494   4.399   1.816
  702SOL     OW 3004   4.215   0.425   5.076
  702SOL    HW1 3005   4.115   0.425   5.076
  702SOL    HW2 3006   4.248   0.419   4.982
  703SOL     OW 3007   3.733   2.752   0.697
  703SOL    HW1 3008   3.796   2.794   0.632
  703SOL    HW2 3009   3.643   2.742   0.655
  704SOL     OW 3010   3.622   1.805   0.227
  704SOL    HW1 3011   3.612   1.755   0.313
  704SOL    HW2 3012   3.711   1.850   0.226
  705SOL     OW 3013   0.400   6.387   5.597
  705SOL    HW1 3014   0.328   6.423   5.537
  705SOL    HW2 3015   0.458   6.323   5.546
  706SOL     OW 3016   4.148   0.174   4.932
  706SOL    HW1 3017   4.117   0.218   4.847
  706SOL    HW2 3018   4.074   0.118   4.968
  707SOL     OW 3019   3.416   4.900   3.912
  707SOL    HW1 3020   3.411   4.995   3.941
  707SOL    HW2 3021   3.343   4.847   3.956
  708SOL     OW 3022   2.960   6.255   4.004
  708SOL    HW1 3023   2.991   6.318   3.933
  708SOL    HW2 3024   3.038   6.222   4.057
  709SOL     OW 3025   1.981   7.002   1.943
  709SOL    HW1 3026   2.042   6.926   1.966
  709SOL    HW2 3027   1.941   6.987   1.853
  710SOL     OW 3028   4.847   2.631   2.721
  710SOL    HW1 3029   4.788   2.647   2.642
  710SOL    HW2 3030   4.919   2.700   2.724
  711SOL     OW 3031   6.992   1.432   1.143
  711SOL    HW1 3032   7.014   1.339   1.170
  711SOL    HW2 3033   0.054   1.484   1.128
  712SOL     OW 3034   5.049   4.126   0.172
  712SOL    HW1 3035   5.098   4.077   0.100
  712SOL    HW2 3036   5.076   4.222   0.172
  713SOL     OW 3037   4.097   2.861   5.987
  713SOL    HW1 3038   4.125   2.954   5.962
  713SOL    HW2 3039   3.997   2.857   5.993
  714SOL     OW 3040   4.233   6.761   3.105
  714SOL    HW1 3041   4.330   6.740   3.096
  714SOL    HW2 3042   4.187   6.745   3.018
  715SOL     OW 3043   6.004   4.293   5.468
  715SOL    HW1 3044   6.101   4.274   5.484
  715SOL    HW2 3045   5.949   4.215   5.499
  716SOL     OW 3046   3.334   1.844   3.820
  716SOL    HW1 3047   3.366   1.926   3.866
  716SOL    HW2 3048   3.254   1.807   3.868
  717SOL     OW 3049   4.769   4.810   3.608
  717SOL    HW1 3050   4.813   4.750   3.675
  717SOL    HW2 3051   4.773   4.767   3.518
  718SOL     OW 3052   6.664   1.667   5.264
  718SOL    HW1 3053   6.565   1.667   5.279
  718SOL    HW2 3054   6.684   1.696   5.171
  719SOL     OW 3055   4.540   5.909   2.697
  719SOL    HW1 3056   4.556   5.902   2.796
  719SOL    HW2 3057   4.527   5.817   2.659
  720SOL     OW 3058   2.951   1.631   0.919
  720SOL    HW1 3059   3.008   1.695   0.970
  720SOL    HW2 3060   2.862   1.672   0.903
  721SOL     OW 3061   0.164   2.922   2.315
  721SOL    HW1 3062   0.256   2.961   2.308
  721SOL    HW2 3063   0.162   2.856   2.390
  722SOL     OW 3064   5.446   6.398   1.870
  722SOL    HW1 3065   5.488   6.363   1.787
  722SOL    HW2 3066   5.354   6.431   1.850
  723SOL     OW 3067   2.002   0.863   4.680
  723SOL    HW1 3068   2.095   0.849   4.645
  723SOL    HW2 3069   1.948   0.913   4.612
  724SOL     OW 3070   1.316   2.803   4.827
  724SOL    HW1 3071   1.296   2.889   4.873
  724SOL    HW2 3072   1.368   2.744   4.888
  725SOL     OW 3073   1.793   4.154   3.525
  725SOL    HW1 3074   1.877   4.136   3.475
  725SOL    HW2 3075   1.750   4.068   3.551
  726SOL     OW 3076   2.228   3.875   0.327
  726SOL    HW1 3077   2.303   3.810   0.312
  726SOL    HW2 3078   2.173   3.882   0.244
  727SOL     OW 3079   3.796   5.297   4.705
  727SOL    HW1 3080   3.806   5.318   4.802
  727SOL    HW2 3081   3.870   5.236   4.676
  728SOL     OW 3082   6.116   3.550   3.174
  728SOL    HW1 3083   6.126   3.649   3.166
  728SOL    HW2 3084   6.019   3.528   3.183
  729SOL     OW 3085   0.726   5.228   0.461
  729SOL    HW1 3086   0.638   5.252   0.420
  729SOL    HW2 3087   0.736   5.129   0.465
  730SOL     OW 3088   4.181   1.835   3.139
  730SOL    HW1 3089   4.231   1.904   3.086
  730SOL    HW2 3090   4.181   1.861   3.235
  731SOL     OW 3091   4.901   4.395   4.948
  731SOL    HW1 3092   4.918   4.298   4.965
  731SOL    HW2 3093   4.970   4.450   4.994
  732SOL     OW 3094   4.504   0.769   4.368
  732SOL    HW1 3095   4.505   0.699   4.297
  732SOL    HW2 3096   4.466   0.853   4.331
  733SOL     OW 3097   0.637   5.023   4.201
  733SOL    HW1 3098   0.646   5.022   4.102
  733SOL    HW2 3099   0.571   4.953   4.229
  734SOL     OW 3100   5.942   5.761   3.464
  734SOL    HW1 3101   5.872   5.699   3.429
  734SOL    HW2 3102   6.012   5.776   3.394
  735SOL     OW 3103   4.457   0.578   2.651
  735SOL    HW1 3104   4.365   0.548   2.626
  735SOL    HW2 3105   4.477   0.548   2.744
  736SOL     OW 3106   1.989   1.972   3.620
  736SOL    HW1 3107   1.979   2.071   3.612
  736SOL    HW2 3108   1.899   1.929   3.612
  737SOL     OW 3109   3.289   1.138   6.207
  737SOL    HW1 3110   3.385   1.167   6.205
  737SOL    HW2 3111   3.279   1.054   6.154
  738SOL     OW 3112   1.651   5.422   0.225
  738SOL    HW1 3113   1.726   5.420   0.291
  738SOL    HW2 3114   1.573   5.373   0.263
  739SOL     OW 3115   1.730   0.669   3.324
  739SOL    HW1 3116   1.732   0.613   3.240
  739SOL    HW2 3117   1.707   0.610   3.402
  740SOL     OW 3118   4.662   2.377   2.828
  740SOL    HW1 3119   4.729   2.445   2.797
  740SOL    HW2 3120   4.609   2.345   2.749
  741SOL     OW 3121   3.204   1.617   2.806
  741SOL    HW1 3122   3.204   1.557   2.726
  741SOL    HW2 3123   3.243   1.705   2.782
  742SOL     OW 3124   2.378   0.588   2.181
  742SOL    HW1 3125   2.317   0.633   2.247
  742SOL    HW2 3126   2.346   0.495   2.165
  743SOL     OW 3127   7.019   6.775   2.675
  743SOL    HW1 3128   0.091   6.796   2.648
  743SOL    HW2 3129   7.019   6.735   2.767
  744SOL     OW 3130   5.415   1.426   0.976
  744SOL    HW1 3131   5.507   1.425   0.936
  744SOL    HW2 3132   5.374   1.516   0.964
  745SOL     OW 3133   1.826   0.083   5.579
  745SOL    HW1 3134   1.757   0.063   5.510
  745SOL    HW2 3135   1.837   0.183   5.588
  746SOL     OW 3136   6.173   5.744   4.636
  746SOL    HW1 3137   6.074   5.741   4.630
  746SOL    HW2 3138   6.204   5.839   4.645
  747SOL     OW 3139   3.719   5.162   2.348
  747SOL    HW1 3140   3.621   5.148   2.339
  747SOL    HW2 3141   3.767   5.104   2.283
  748SOL     OW 3142   5.951   4.832   2.342
  748SOL    HW1 3143   5.867   4.884   2.359
  748SOL    HW2 3144   6.023   4.894   2.312
  749SOL     OW 3145   4.710   4.242   4.347
  749SOL    HW1 3146   4.761   4.227   4.432
  749SOL    HW2 3147   4.725   4.164   4.286
  750SOL     OW 3148   2.839   2.038   3.048
  750SOL    HW1 3149   2.869   2.015   2.955
  750SOL    HW2 3150   2.899   2.108   3.087
  751SOL     OW 3151   3.845   0.072   0.446
  751SOL    HW1 3152   3.852   0.043   0.541
  751SOL    HW2 3153   3.934   0.107   0.415
  752SOL     OW 3154   3.248   3.030   4.395
  752SOL    HW1 3155   3.190   2.951   4.412
  752SOL    HW2 3156   3.339   2.999   4.366
  753SOL     OW 3157   3.785   3.653   3.729
  753SOL    HW1 3158   3.873   3.672   3.774
  753SOL    HW2 3159   3.770   3.721   3.657
  754SOL     OW 3160   4.619   0.685   6.701
  754SOL    HW1 3161   4.551   0.612   6.702
  754SOL    HW2 3162   4.704   0.651   6.660
  755SOL     OW 3163   4.648   4.246   5.120
  755SOL    HW1 3164   4.625   4.231   5.216
  755SOL    HW2 3165   4.628   4.340   5.095
  756SOL     OW 3166   3.080   5.720   5.816
  756SOL    HW1 3167   3.170   5.704   5.775
  756SOL    HW2 3168   3.025   5.636   5.809
  757SOL     OW 3169   1.360   0.026   1.940
  757SOL    HW1 3170   1.263   0.046   1.954
  757SOL    HW2 3171   1.369   6.970   1.877
  758SOL     OW 3172   3.688   1.252   5.008
  758SOL    HW1 3173   3.612   1.285   5.064
  758SOL    HW2 3174   3.654   1.185   4.942
  759SOL     OW 3175   6.959   2.852   3.590
  759SOL    HW1 3176   6.985   2.835   3.494
  759SOL    HW2 3177   0.003   2.807   3.650
  760SOL     OW 3178   0.194   5.595   4.072
  760SOL    HW1 3179   0.272   5.533   4.079
  760SOL    HW2 3180   0.172   5.632   4.162
  761SOL     OW 3181   5.105   4.758   6.015
  761SOL    HW1 3182   5.186   4.817   6.020
  761SOL    HW2 3183   5.039   4.786   6.085
  762SOL     OW 3184   4.066   6.019   3.442
  762SOL    HW1 3185   4.091   5.922   3.447
  762SOL    HW2 3186   3.976   6.033   3.482
  763SOL     OW 3187   5.802   1.357   0.597
  763SOL    HW1 3188   5.712   1.351   0.553
  763SOL    HW2 3189   5.794   1.411   0.681
  764SOL     OW 3190   5.141   6.221   4.707
  764SOL    HW1 3191   5.050   6.209   4.747
  764SOL    HW2 3192   5.203   6.153   4.746
  765SOL     OW 3193   5.559   6.276   0.385
  765SOL    HW1 3194   5.647   6.264   0.432
  765SOL    HW2 3195   5.575   6.291   0.288
  766SOL     OW 3196   2.301   1.942   3.950
  766SOL    HW1 3197   2.307   1.898   3.860
  766SOL    HW2 3198   2.206   1.940   3.982
  767SOL     OW 3199   6.627   6.023   3.315
  767SOL    HW1 3200   6.565   5.991   3.387
  767SOL    HW2 3201   6.719   5.986   3.331
  768SOL     OW 3202   2.776   5.395   1.598
  768SOL    HW1 3203   2.680   5.379   1.619
  768SOL    HW2 3204   2.829   5.314   1.624
  769SOL     OW 3205   3.454   1.743   5.427
  769SOL    HW1 3206   3.392   1.665   5.416
  769SOL    HW2 3207   3.406   1.818   5.473
  770SOL     OW 3208   0.878   4.688   5.809
  770SOL    HW1 3209   0.922   4.653   5.726
  770SOL    HW2 3210   0.943   4.742   5.861
  771SOL     OW 3211   1.378   4.702   2.435
  771SOL    HW1 3212   1.448   4.714   2.505
  771SOL    HW2 3213   1.303   4.646   2.472
  772SOL     OW 3214   6.058   4.827   0.351
  772SOL    HW1 3215   6.073   4.738   0.308
  772SOL    HW2 3216   6.099   4.899   0.294
  773SOL     OW 3217   1.847   4.954   4.316
  773SOL    HW1 3218   1.840   4.937   4.218
  773SOL    HW2 3219   1.838   5.052   4.334
  774SOL     OW 3220   1.935   2.241   3.666
  774SOL    HW1 3221   1.865   2.312   3.667
  774SOL    HW2 3222   1.973   2.231   3.758
  775SOL     OW 3223   0.697   4.422   2.207
  775SOL    HW1 3224   0.750   4.387   2.130
  775SOL    HW2 3225   0.610   4.459   2.173
  776SOL     OW 3226   2.854   4.923   7.002
  776SOL    HW1 3227   2.853   4.899   6.905
  776SOL    HW2 3228   2.938   4.889   0.022
  777SOL     OW 3229   1.846   3.744   6.571
  777SOL    HW1 3230   1.810   3.731   6.663
  777SOL    HW2 3231   1.929   3.800   6.575
  778SOL     OW 3232   3.369   5.390   6.897
  778SOL    HW1 3233   3.350   5.294   6.880
  778SOL    HW2 3234   3.319   5.446   6.831
  779SOL     OW 3235   5.858   1.734   3.520
  779SOL    HW1 3236   5.909   1.676   3.583
  779SOL    HW2 3237   5.830   1.680   3.440
  780SOL     OW 3238   5.811   1.633   4.655
  780SOL    HW1 3239   5.840   1.606   4.563
  780SOL    HW2 3240   5.766   1.723   4.650
  781SOL     OW 3241   0.583   5.358   6.376
  781SOL    HW1 3242   0.583   5.421   6.454
  781SOL    HW2 3243   0.494   5.311   6.373
  782SOL     OW 3244   2.134   4.197   5.491
  782SOL    HW1 3245   2.126   4.278   5.550
  782SOL    HW2 3246   2.163   4.225   5.400
  783SOL     OW 3247   0.004   4.984   6.240
  783SOL    HW1 3248   7.000   4.955   6.332
  783SOL    HW2 3249   0.104   4.978   6.230
  784SOL     OW 3250   2.101   6.134   6.115
  784SOL    HW1 3251   2.187   6.107   6.157
  784SOL    HW2 3252   2.104   6.231   6.091
  785SOL     OW 3253   0.443   0.068   3.823
  785SOL    HW1 3254   0.462   0.134   3.896
  785SOL    HW2 3255   0.354   0.024   3.840
  786SOL     OW 3256   6.063   1.012   4.910
  786SOL    HW1 3257   6.037   0.918   4.887
  786SOL    HW2 3258   6.163   1.018   4.916
  787SOL     OW 3259   2.218   6.665   0.596
  787SOL    HW1 3260   2.166   6.730   0.651
  787SOL    HW2 3261   2.250   6.710   0.513
  788SOL     OW 3262   2.060   3.340   2.174
  788SOL    HW1 3263   2.063   3.370   2.269
  788SOL    HW2 3264   2.100   3.410   2.115
  789SOL     OW 3265   3.222   5.207   2.571
  789SOL    HW1 3266   3.267   5.181   2.656
  789SOL    HW2 3267   3.282   5.186   2.494
  790SOL     OW 3268   0.115   3.289   2.535
  790SOL    HW1 3269   0.125   3.336   2.447
  790SOL    HW2 3270   0.039   3.224   2.529
  791SOL     OW 3271   3.572   1.453   3.459
  791SOL    HW1 3272   3.632   1.498   3.525
  791SOL    HW2 3273   3.594   1.484   3.366
  792SOL     OW 3274   2.492   0.588   0.379
  792SOL    HW1 3275   2.535   0.498   0.381
  792SOL    HW2 3276   2.515   0.635   0.294
  793SOL     OW 3277   2.006   5.688   4.514
  793SOL    HW1 3278   1.970   5.753   4.581
  793SOL    HW2 3279   2.012   5.732   4.424
  794SOL     OW 3280   3.148   3.622   2.520
  794SOL    HW1 3281   3.145   3.532   2.478
  794SOL    HW2 3282   3.133   3.692   2.451
  795SOL     OW 3283   4.331   6.682   5.543
  795SOL    HW1 3284   4.426   6.697   5.572
  795SOL    HW2 3285   4.308   6.747   5.471
  796SOL     OW 3286   1.045   2.681   6.604
  796SOL    HW1 3287   1.091   2.593   6.593
  796SOL    HW2 3288   0.958   2.668   6.651
  797SOL     OW 3289   3.324   6.829   0.975
  797SOL    HW1 3290   3.405   6.805   1.030
  797SOL    HW2 3291   3.344   6.814   0.879
  798SOL     OW 3292   4.988   4.138   1.645
  798SOL    HW1 3293   5.054   4.179   1.709
  798SOL    HW2 3294   5.036   4.075   1.583
  799SOL     OW 3295   3.659   3.353   5.284
  799SOL    HW1 3296   3.654   3.293   5.364
  799SOL    HW2 3297   3.567   3.372   5.251
  800SOL     OW 3298   5.549   3.277   3.121
  800SOL    HW1 3299   5.559   3.326   3.207
  800SOL    HW2 3300   5.452   3.261   3.103
  801SOL     OW 3301   2.064   5.249   6.886
  801SOL    HW1 3302   1.981   5.276   6.935
  801SOL    HW2 3303   2.143   5.296   6.925
  802SOL     OW 3304   4.037   2.201   5.950
  802SOL    HW1 3305   3.953   2.146   5.953
  802SOL    HW2 3306   4.013   2.297   5.937
  803SOL     OW 3307   2.714   2.384   3.434
  803SOL    HW1 3308   2.660   2.467   3.419
  803SOL    HW2 3309   2.704   2.323   3.355
  804SOL     OW 3310   4.561   6.815   3.046
  804SOL    HW1 3311   4.515   6.905   3.042
  804SOL    HW2 3312   4.653   6.823   3.008
  805SOL     OW 3313   3.584   1.724   4.073
  805SOL    HW1 3314   3.640   1.675   4.007
  805SOL    HW2 3315   3.488   1.694   4.064
  806SOL     OW 3316   4.429   5.889   6.339
  806SOL    HW1 3317   4.330   5.892   6.335
  806SOL    HW2 3318   4.461   5.913   6.431
  807SOL     OW 3319   1.035   6.666   6.376
  807SOL    HW1 3320   1.036   6.734   6.450
  807SOL    HW2 3321   1.110   6.686   6.313
  808SOL     OW 3322   5.477   2.066   6.042
  808SOL    HW1 3323   5.433   2.152   6.016
  808SOL    HW2 3324   5.562   2.055   5.991
  809SOL     OW 3325   3.114   6.659   6.010
  809SOL    HW1 3326   3.018   6.632   6.022
  809SOL    HW2 3327   3.119   6.731   5.941
  810SOL     OW 3328   4.037   4.016   6.837
  810SOL    HW1 3329   3.997   4.008   6.745
  810SOL    HW2 3330   4.120   3.962   6.842
  811SOL     OW 3331   5.545   5.451   5.261
  811SOL    HW1 3332   5.551   5.518   5.335
  811SOL    HW2 3333   5.550   5.499   5.173
  812SOL     OW 3334   1.428   2.722   0.906
  812SOL    HW1 3335   1.405   2.625   0.902
  812SOL    HW2 3336   1.500   2.736   0.974
  813SOL     OW 3337   3.038   1.906   5.264
  813SOL    HW1 3338   3.051   1.821   5.213
  813SOL    HW2 3339   3.118   1.965   5.252
  814SOL     OW 3340   0.358   4.862   1.374
  814SOL    HW1 3341   0.430   4.908   1.322
  814SOL    HW2 3342   0.283   4.837   1.313
  815SOL     OW 3343   4.646   0.857   3.829
  815SOL    HW1 3344   4.706   0.842   3.908
  815SOL    HW2 3345   4.554   0.877   3.861
  816SOL     OW 3346   5.313   3.851   6.359
  816SOL    HW1 3347   5.259   3.921   6.313
  816SOL    HW2 3348   5.410   3.864   6.339
  817SOL     OW 3349   6.874   5.370   6.954
  817SOL    HW1 3350   6.808   5.314   7.004
  817SOL    HW2 3351   6.930   5.312   6.896
  818SOL     OW 3352   6.483   0.956   5.683
  818SOL    HW1 3353   6.431   0.965   5.768
  818SOL    HW2 3354   6.483   0.860   5.654
  819SOL     OW 3355   5.690   3.603   2.051
  819SOL    HW1 3356   5.663   3.696   2.027
  819SOL    HW2 3357   5.761   3.572   1.988
  820SOL     OW 3358   2.308   1.995   5.632
  820SOL    HW1 3359   2.358   1.950   5.706
  820SOL    HW2 3360   2.373   2.036   5.568
  821SOL     OW 3361   5.109   3.149   6.130
  821SOL    HW1 3362   5.039   3.146   6.059
  821SOL    HW2 3363   5.155   3.060   6.134
  822SOL     OW 3364   6.597   4.286   3.310
  822SOL    HW1 3365   6.525   4.328   3.364
  822SOL    HW2 3366   6.623   4.347   3.235
  823SOL     OW 3367   1.894   2.730   4.160
  823SOL    HW1 3368   1.852   2.800   4.216
  823SOL    HW2 3369   1.833   2.707   4.084
  824SOL     OW 3370   5.135   0.409   6.429
  824SOL    HW1 3371   5.227   0.447   6.420
  824SOL    HW2 3372   5.072   0.460   6.371
  825SOL     OW 3373   6.041   5.816   1.017
  825SOL    HW1 3374   5.970   5.777   0.958
  825SOL    HW2 3375   6.064   5.750   1.089
  826SOL     OW 3376   3.647   2.049   0.507
  826SOL    HW1 3377   3.715   1.989   0.549
  826SOL    HW2 3378   3.671   2.065   0.411
  827SOL     OW 3379   3.507   3.278   4.812
  827SOL    HW1 3380   3.563   3.243   4.887
  827SOL    HW2 3381   3.539   3.238   4.726
  828SOL     OW 3382   0.355   6.566   5.992
  828SOL    HW1 3383   0.347   6.488   5.930
  828SOL    HW2 3384   0.399   6.642   5.944
  829SOL     OW 3385   3.828   3.283   1.598
  829SOL    HW1 3386   3.884   3.343   1.655
  829SOL    HW2 3387   3.735   3.319   1.593
  830SOL     OW 3388   0.080   3.599   6.150
  830SOL    HW1 3389   0.106   3.552   6.234
  830SOL    HW2 3390   0.160   3.607   6.090
  831SOL     OW 3391   5.964   1.369   3.153
  831SOL    HW1 3392   6.011   1.425   3.084
  831SOL    HW2 3393   5.950   1.277   3.117
  832SOL     OW 3394   3.321   2.102   4.816
  832SOL    HW1 3395   3.293   2.178   4.875
  832SOL    HW2 3396   3.273   2.019   4.845
  833SOL     OW 3397   3.936   3.032   6.540
  833SOL    HW1 3398   4.025   3.075   6.555
  833SOL    HW2 3399   3.874   3.056   6.615
  834SOL     OW 3400   6.034   3.501   1.014
  834SOL    HW1 3401   5.969   3.576   1.020
  834SOL    HW2 3402   6.095   3.503   1.094
  835SOL     OW 3403   6.438   6.756   5.384
  835SOL    HW1 3404   6.413   6.853   5.379
  835SOL    HW2 3405   6.426   6.714   5.294
  836SOL     OW 3406   5.900   6.564   4.007
  836SOL    HW1 3407   5.912   6.467   3.983
  836SOL    HW2 3408   5.832   6.573   4.079
  837SOL     OW 3409   0.734   0.883   6.570
  837SOL    HW1 3410   0.754   0.797   6.521
  837SOL    HW2 3411   0.658   0.868   6.633
  838SOL     OW 3412   1.287   5.714   3.202
  838SOL    HW1 3413   1.321   5.688   3.112
  838SOL    HW2 3414   1.323   5.804   3.227
  839SOL     OW 3415   1.442   2.228   0.112
  839SOL    HW1 3416   1.456   2.220   0.013
  839SOL    HW2 3417   1.490   2.153   0.159
  840SOL     OW 3418   4.465   5.346   0.504
  840SOL    HW1 3419   4.495   5.413   0.573
  840SOL    HW2 3420   4.377   5.375   0.467
  841SOL     OW 3421   2.847   5.311   6.491
  841SOL    HW1 3422   2.782   5.324   6.566
  841SOL    HW2 3423   2.905   5.392   6.482
  842SOL     OW 3424   4.739   6.862   1.356
  842SOL    HW1 3425   4.639   6.862   1.353
  842SOL    HW2 3426   4.771   6.950   1.389
  843SOL     OW 3427   1.387   0.280   2.145
  843SOL    HW1 3428   1.302   0.264   2.094
  843SOL    HW2 3429   1.464   0.243   2.093
  844SOL     OW 3430   7.011   6.707   1.698
  844SOL    HW1 3431   6.998   6.647   1.777
  844SOL    HW2 3432   6.927   6.759   1.682
  845SOL     OW 3433   3.944   1.421   1.694
  845SOL    HW1 3434   3.967   1.514   1.663
  845SOL    HW2 3435   3.855   1.395   1.657
  846SOL     OW 3436   1.286   1.060   1.041
  846SOL    HW1 3437   1.266   0.967   1.012
  846SOL    HW2 3438   1.311   1.060   1.138
  847SOL     OW 3439   2.487   3.183   1.216
  847SOL    HW1 3440   2.501   3.280   1.194
  847SOL    HW2 3441   2.451   3.135   1.136
  848SOL     OW 3442   6.470   5.947   1.042
  848SOL    HW1 3443   6.444   6.027   0.988
  848SOL    HW2 3444   6.504   5.875   0.980
  849SOL     OW 3445   5.185   3.507   6.144
  849SOL    HW1 3446   5.196   3.548   6.235
  849SOL    HW2 3447   5.138   3.420   6.152
  850SOL     OW 3448   2.127   1.428   4.910
  850SOL    HW1 3449   2.140   1.505   4.848
  850SOL    HW2 3450   2.212   1.377   4.919
  851SOL     OW 3451   4.943   2.468   6.279
  851SOL    HW1 3452   4.926   2.498   6.185
  851SOL    HW2 3453   5.008   2.391   6.278
  852SOL     OW 3454   6.528   4.906   1.664
  852SOL    HW1 3455   6.575   4.956   1.592
  852SOL    HW2 3456   6.431   4.929   1.663
  853SOL     OW 3457   3.407   2.715   0.896
  853SOL    HW1 3458   3.409   2.670   0.807
  853SOL    HW2 3459   3.487   2.688   0.949
  854SOL     OW 3460   0.012   0.211   6.336
  854SOL    HW1 3461   0.066   0.127   6.329
  854SOL    HW2 3462   6.999   0.236   6.246
  855SOL     OW 3463   4.678   1.998   0.213
  855SOL    HW1 3464   4.680   1.900   0.232
  855SOL    HW2 3465   4.584   2.028   0.198
  856SOL     OW 3466   1.848   5.547   1.778
  856SOL    HW1 3467   1.814   5.455   1.798
  856SOL    HW2 3468   1.947   5.545   1.767
  857SOL     OW 3469   0.078   6.466   5.076
  857SOL    HW1 3470   0.150   6.458   5.144
  857SOL    HW2 3471   0.114   6.443   4.986
  858SOL     OW 3472   3.344   4.136   0.418
  858SOL    HW1 3473   3.284   4.096   0.487
  858SOL    HW2 3474   3.300   4.133   0.328
  859SOL     OW 3475   4.659   5.924   5.691
  859SOL    HW1 3476   4.658   5.970   5.779
  859SOL    HW2 3477   4.636   5.827   5.704
  860SOL     OW 3478   4.540   3.048   6.587
  860SOL    HW1 3479   4.624   3.026   6.538
  860SOL    HW2 3480   4.554   3.129   6.643
  861SOL     OW 3481   0.721   6.118   2.484
  861SOL    HW1 3482   0.656   6.148   2.554
  861SOL    HW2 3483   0.671   6.087   2.403
  862SOL     OW 3484   0.894   4.655   4.103
  862SOL    HW1 3485   0.924   4.566   4.137
  862SOL    HW2 3486   0.818   4.643   4.039
  863SOL     OW 3487   5.459   0.418   1.600
  863SOL    HW1 3488   5.451   0.484   1.674
  863SOL    HW2 3489   5.414   0.454   1.518
  864SOL     OW 3490   6.015   4.871   3.320
  864SOL    HW1 3491   6.005   4.897   3.416
  864SOL    HW2 3492   6.076   4.936   3.275
  865SOL     OW 3493   1.428   5.230   4.649
  865SOL    HW1 3494   1.480   5.185   4.722
  865SOL    HW2 3495   1.490   5.283   4.592
  866SOL     OW 3496   4.019   6.911   1.431
  866SOL    HW1 3497   3.958   6.989   1.440
  866SOL    HW2 3498   3.985   6.835   1.487
  867SOL     OW 3499   5.783   3.678   4.972
  867SOL    HW1 3500   5.762   3.773   4.998
  867SOL    HW2 3501   5.873   3.675   4.929
  868SOL     OW 3502   0.753   1.503   2.036
  868SOL    HW1 3503   0.682   1.511   2.106
  868SOL    HW2 3504   0.718   1.538   1.949
  869SOL     OW 3505   0.779   3.024   1.841
  869SOL    HW1 3506   0.702   2.961   1.839
  869SOL    HW2 3507   0.858   2.979   1.882
  870SOL     OW 3508   3.799   4.791   1.746
  870SOL    HW1 3509   3.713   4.765   1.790
  870SOL    HW2 3510   3.831   4.718   1.686
  871SOL     OW 3511   4.450   1.632   3.859
  871SOL    HW1 3512   4.398   1.564   3.912
  871SOL    HW2 3513   4.386   1.694   3.813
  872SOL     OW 3514   1.690   2.794   5.394
  872SOL    HW1 3515   1.678   2.698   5.419
  872SOL    HW2 3516   1.786   2.812   5.373
  873SOL     OW 3517   3.830   0.362   6.508
  873SOL    HW1 3518   3.754   0.425   6.526
  873SOL    HW2 3519   3.865   0.327   6.594
  874SOL     OW 3520   6.237   3.823   2.442
  874SOL    HW1 3521   6.295   3.785   2.513
  874SOL    HW2 3522   6.161   3.761   2.423
  875SOL     OW 3523   5.599   5.391   2.321
  875SOL    HW1 3524   5.678   5.330   2.329
  875SOL    HW2 3525   5.515   5.339   2.339
  876SOL     OW 3526   6.079   1.027   6.132
  876SOL    HW1 3527   6.136   1.105   6.105
  876SOL    HW2 3528   5.983   1.057   6.138
  877SOL     OW 3529   1.395   3.341   6.649
  877SOL    HW1 3530   1.394   3.268   6.718
  877SOL    HW2 3531   1.422   3.303   6.561
  878SOL     OW 3532   4.193   6.334   4.533
  878SOL    HW1 3533   4.214   6.236   4.537
  878SOL    HW2 3534   4.198   6.373   4.625
  879SOL     OW 3535   5.667   6.939   6.189
  879SOL    HW1 3536   5.684   6.920   6.286
  879SOL    HW2 3537   5.598   7.011   6.181
  880SOL     OW 3538   3.325   2.934   3.199
  880SOL    HW1 3539   3.345   3.029   3.175
  880SOL    HW2 3540   3.232   2.911   3.169
  881SOL     OW 3541   4.196   2.379   0.461
  881SOL    HW1 3542   4.137   2.311   0.505
  881SOL    HW2 3543   4.257   2.332   0.397
  882SOL     OW 3544   1.933   2.977   3.334
  882SOL    HW1 3545   1.961   3.002   3.427
  882SOL    HW2 3546   1.892   2.886   3.335
  883SOL     OW 3547   2.513   6.618   2.763
  883SOL    HW1 3548   2.556   6.635   2.851
  883SOL    HW2 3549   2.428   6.671   2.756
  884SOL     OW 3550   2.353   3.440   6.039
  884SOL    HW1 3551   2.436   3.383   6.035
  884SOL    HW2 3552   2.369   3.525   5.988
  885SOL     OW 3553   4.293   2.888   6.645
  885SOL    HW1 3554   4.382   2.931   6.637
  885SOL    HW2 3555   4.243   2.928   6.722
  886SOL     OW 3556   3.669   1.492   6.613
  886SOL    HW1 3557   3.595   1.522   6.554
  886SOL    HW2 3558   3.639   1.413   6.667
  887SOL     OW 3559   4.127   1.026   5.293
  887SOL    HW1 3560   4.094   1.110   5.334
  887SOL    HW2 3561   4.197   1.047   5.225
  888SOL     OW 3562   0.822   0.088   1.953
  888SOL    HW1 3563   0.845   0.143   2.033
  888SOL    HW2 3564   0.755   0.018   1.979
  889SOL     OW 3565   0.333   4.064   0.795
  889SOL    HW1 3566   0.301   4.149   0.754
  889SOL    HW2 3567   0.254   4.010   0.825
  890SOL     OW 3568   2.262   5.754   4.687
  890SOL    HW1 3569   2.269   5.655   4.689
  890SOL    HW2 3570   2.290   5.788   4.597
  891SOL     OW 3571   4.874   4.789   2.356
  891SOL    HW1 3572   4.862   4.764   2.260
  891SOL    HW2 3573   4.971   4.803   2.375
  892SOL     OW 3574   2.358   4.394   1.083
  892SOL    HW1 3575   2.310   4.378   0.998
  892SOL    HW2 3576   2.313   4.345   1.157
  893SOL     OW 3577   1.610   5.027   2.590
  893SOL    HW1 3578   1.676   5.079   2.535
  893SOL    HW2 3579   1.537   5.087   2.621
  894SOL     OW 3580   0.936   4.710   1.316
  894SOL    HW1 3581   0.912   4.624   1.271
  894SOL    HW2 3582   1.027   4.738   1.285
  895SOL     OW 3583   6.916   5.298   4.217
  895SOL    HW1 3584   6.888   5.363   4.288
  895SOL    HW2 3585   6.943   5.212   4.259
  896SOL     OW 3586   0.205   1.094   6.263
  896SOL    HW1 3587   0.133   1.026   6.273
  896SOL    HW2 3588   0.238   1.095   6.169
  897SOL     OW 3589   5.675   0.809   1.017
  897SOL    HW1 3590   5.621   0.775   0.941
  897SOL    HW2 3591   5.613   0.841   1.090
  898SOL     OW 3592   3.841   1.375   3.309
  898SOL    HW1 3593   3.930   1.390   3.266
  898SOL    HW2 3594   3.846   1.400   3.406
  899SOL     OW 3595   6.264   6.384   0.044
  899SOL    HW1 3596   6.285   6.364   0.140
  899SOL    HW2 3597   6.270   6.483   0.029
  900SOL     OW 3598   5.153   5.499   6.450
  900SOL    HW1 3599   5.213   5.498   6.370
  900SOL    HW2 3600   5.125   5.593   6.470
  901SOL     OW 3601   1.323   0.839   3.116
  901SOL    HW1 3602   1.355   0.799   3.030
  901SOL    HW2 3603   1.233   0.802   3.139
  902SOL     OW 3604   0.147   3.247   1.614
  902SOL    HW1 3605   0.094   3.289   1.688
  902SOL    HW2 3606   0.095   3.171   1.575
  903SOL     OW 3607   6.734   0.644   0.446
  903SOL    HW1 3608   6.659   0.585   0.476
  903SOL    HW2 3609   6.748   0.716   0.513
  904SOL     OW 3610   2.695   1.018   3.350
  904SOL    HW1 3611   2.657   0.987   3.436
  904SOL    HW2 3612   2.638   0.986   3.274
  905SOL     OW 3613   6.089   2.207   6.042
  905SOL    HW1 3614   6.127   2.272   6.108
  905SOL    HW2 3615   5.997   2.235   6.015
  906SOL     OW 3616   5.749   3.430   0.644
  906SOL    HW1 3617   5.711   3.514   0.683
  906SOL    HW2 3618   5.829   3.453   0.587
  907SOL     OW 3619   5.527   4.052   6.561
  907SOL    HW1 3620   5.523   4.042   6.462
  907SOL    HW2 3621   5.537   3.962   6.603
  908SOL     OW 3622   0.316   3.793   3.268
  908SOL    HW1 3623   0.400   3.745   3.291
  908SOL    HW2 3624   0.287   3.849   3.345
  909SOL     OW 3625   5.332   4.960   5.942
  909SOL    HW1 3626   5.345   5.041   5.885
  909SOL    HW2 3627   5.379   4.882   5.900
  910SOL     OW 3628   3.462   4.493   0.085
  910SOL    HW1 3629   3.486   4.421   0.151
  910SOL    HW2 3630   3.538   4.509   0.023
  911SOL     OW 3631   1.128   4.649   5.916
  911SOL    HW1 3632   1.216   4.615   5.948
  911SOL    HW2 3633   1.054   4.592   5.954
  912SOL     OW 3634   5.123   1.297   5.303
  912SOL    HW1 3635   5.078   1.387   5.301
  912SOL    HW2 3636   5.056   1.227   5.328
  913SOL     OW 3637   4.652   6.184   3.150
  913SOL    HW1 3638   4.731   6.235   3.186
  913SOL    HW2 3639   4.630   6.109   3.212
  914SOL     OW 3640   3.182   6.869   5.585
  914SOL    HW1 3641   3.267   6.898   5.541
  914SOL    HW2 3642   3.189   6.882   5.684
  915SOL     OW 3643   5.499   5.581   1.789
  915SOL    HW1 3644   5.558   5.547   1.716
  915SOL    HW2 3645   5.526   5.538   1.875
  916SOL     OW 3646   1.252   3.640   2.929
  916SOL    HW1 3647   1.266   3.556   2.877
  916SOL    HW2 3648   1.205   3.707   2.872
  917SOL     OW 3649   0.479   7.009   6.633
  917SOL    HW1 3650   0.495   6.934   6.568
  917SOL    HW2 3651   0.553   7.010   6.701
  918SOL     OW 3652   3.415   6.052   6.689
  918SOL    HW1 3653   3.511   6.080   6.692
  918SOL    HW2 3654   3.359   6.127   6.656
  919SOL     OW 3655   4.628   0.855   6.205
  919SOL    HW1 3656   4.565   0.777   6.207
  919SOL    HW2 3657   4.576   0.939   6.222
  920SOL     OW 3658   3.138   4.758   1.852
  920SOL    HW1 3659   3.038   4.748   1.850
  920SOL    HW2 3660   3.162   4.843   1.899
  921SOL     OW 3661   4.844   5.466   5.256
  921SOL    HW1 3662   4.757   5.451   5.208
  921SOL    HW2 3663   4.829   5.458   5.355
  922SOL     OW 3664   3.330   3.910   3.458
  922SOL    HW1 3665   3.386   3.990   3.478
  922SOL    HW2 3666   3.374   3.855   3.386
  923SOL     OW 3667   2.263   3.961   5.593
  923SOL    HW1 3668   2.237   4.045   5.545
  923SOL    HW2 3669   2.196   3.940   5.664
  924SOL     OW 3670   0.882   3.555   1.523
  924SOL    HW1 3671   0.952   3.557   1.452
  924SOL    HW2 3672   0.822   3.476   1.507
  925SOL     OW 3673   0.522   1.424   6.868
  925SOL    HW1 3674   0.532   1.357   6.795
  925SOL    HW2 3675   0.541   1.515   6.832
  926SOL     OW 3676   2.210   2.085   1.006
  926SOL    HW1 3677   2.181   2.016   1.071
  926SOL    HW2 3678   2.140   2.157   1.001
  927SOL     OW 3679   6.719   3.331   4.908
  927SOL    HW1 3680   6.816   3.336   4.883
  927SOL    HW2 3681   6.686   3.237   4.897
  928SOL     OW 3682   2.818   5.220   5.698
  928SOL    HW1 3683   2.743   5.219   5.764
  928SOL    HW2 3684   2.786   5.186   5.610
  929SOL     OW 3685   0.769   1.926   4.722
  929SOL    HW1 3686   0.842   1.858   4.738
  929SOL    HW2 3687   0.752   1.976   4.806
  930SOL     OW 3688   6.180   5.250   5.152
  930SOL    HW1 3689   6.123   5.190   5.209
  930SOL    HW2 3690   6.215   5.200   5.074
  931SOL     OW 3691   6.256   0.742   3.645
  931SOL    HW1 3692   6.179   0.804   3.659
  931SOL    HW2 3693   6.271   0.688   3.728
  932SOL     OW 3694   3.860   6.861   3.534
  932SOL    HW1 3695   3.898   6.942   3.579
  932SOL    HW2 3696   3.933   6.795   3.516
  933SOL     OW 3697   1.257   5.694   1.990
  933SOL    HW1 3698   1.290   5.611   1.943
  933SOL    HW2 3699   1.331   5.733   2.044
  934SOL     OW 3700   1.930   2.898   0.608
  934SOL    HW1 3701   1.848   2.938   0.567
  934SOL    HW2 3702   1.958   2.952   0.687
  935SOL     OW 3703   5.385   2.827   5.397
  935SOL    HW1 3704   5.426   2.866   5.315
  935SOL    HW2 3705   5.431   2.742   5.421
  936SOL     OW 3706   2.053   0.632   6.407
  936SOL    HW1 3707   2.009   0.655   6.320
  936SOL    HW2 3708   2.152   0.644   6.397
  937SOL     OW 3709   3.407   2.607   6.418
  937SOL    HW1 3710   3.324   2.586   6.469
  937SOL    HW2 3711   3.384   2.631   6.324
  938SOL     OW 3712   4.985   6.330   5.217
  938SOL    HW1 3713   5.030   6.364   5.134
  938SOL    HW2 3714   5.054   6.300   5.283
  939SOL     OW 3715   1.378   0.352   4.768
  939SOL    HW1 3716   1.369   0.408   4.686
  939SOL    HW2 3717   1.435   0.400   4.835
  940SOL     OW 3718   1.967   5.367   0.624
  940SOL    HW1 3719   2.050   5.316   0.648
  940SOL    HW2 3720   1.955   5.443   0.688
  941SOL     OW 3721   3.829   0.007   0.734
  941SOL    HW1 3722   3.817   0.098   0.774
  941SOL    HW2 3723   3.911   6.986   0.772
  942SOL     OW 3724   6.385   5.349   0.368
  942SOL    HW1 3725   6.469   5.399   0.389
  942SOL    HW2 3726   6.322   5.356   0.445
  943SOL     OW 3727   3.747   6.299   1.134
  943SOL    HW1 3728   3.652   6.329   1.126
  943SOL    HW2 3729   3.751   6.213   1.184
  944SOL     OW 3730   6.605   6.265   3.184
  944SOL    HW1 3731   6.647   6.251   3.095
  944SOL    HW2 3732   6.589   6.176   3.228
  945SOL     OW 3733   0.308   5.289   6.717
  945SOL    HW1 3734   0.307   5.315   6.621
  945SOL    HW2 3735   0.394   5.244   6.740
  946SOL     OW 3736   5.864   1.897   3.939
  946SOL    HW1 3737   5.846   1.993   3.961
  946SOL    HW2 3738   5.875   1.887   3.840
  947SOL     OW 3739   3.855   4.008   2.556
  947SOL    HW1 3740   3.816   4.026   2.466
  947SOL    HW2 3741   3.942   3.959   2.546
  948SOL     OW 3742   3.426   1.474   3.700
  948SOL    HW1 3743   3.437   1.563   3.655
  948SOL    HW2 3744   3.444   1.401   3.635
  949SOL     OW 3745   2.730   6.987   5.418
  949SOL    HW1 3746   2.716   7.014   5.323
  949SOL    HW2 3747   2.641   6.969   5.461
  950SOL     OW 3748   0.219   6.820   1.665
  950SOL    HW1 3749   0.307   6.773   1.665
  950SOL    HW2 3750   0.145   6.752   1.672
  951SOL     OW 3751   1.485   0.181   3.345
  951SOL    HW1 3752   1.425   0.135   3.280
  951SOL    HW2 3753   1.580   0.167   3.318
  952SOL     OW 3754   3.841   1.628   3.048
  952SOL    HW1 3755   3.929   1.659   3.011
  952SOL    HW2 3756   3.831   1.661   3.142
  953SOL     OW 3757   1.099   6.327   5.781
  953SOL    HW1 3758   1.007   6.362   5.764
  953SOL    HW2 3759   1.111   6.308   5.878
  954SOL     OW 3760   4.628   6.812   2.646
  954SOL    HW1 3761   4.560   6.882   2.667
  954SOL    HW2 3762   4.708   6.826   2.705
  955SOL     OW 3763   3.121   4.674   1.554
  955SOL    HW1 3764   3.139   4.708   1.646
  955SOL    HW2 3765   3.026   4.643   1.548
  956SOL     OW 3766   3.174   0.389   1.041
  956SOL    HW1 3767   3.149   0.485   1.027
  956SOL    HW2 3768   3.271   0.384   1.065
  957SOL     OW 3769   5.957   6.837   3.318
  957SOL    HW1 3770   5.896   6.760   3.333
  957SOL    HW2 3771   5.908   6.923   3.335
  958SOL     OW 3772   5.577   5.897   1.823
  958SOL    HW1 3773   5.666   5.871   1.785
  958SOL    HW2 3774   5.587   5.977   1.881
  959SOL     OW 3775   4.742   0.387   2.748
  959SOL    HW1 3776   4.742   0.287   2.752
  959SOL    HW2 3777   4.702   0.423   2.833
  960SOL     OW 3778   1.457   6.470   5.500
  960SOL    HW1 3779   1.365   6.495   5.468
  960SOL    HW2 3780   1.512   6.439   5.422
  961SOL     OW 3781   4.040   1.310   3.965
  961SOL    HW1 3782   4.050   1.265   3.876
  961SOL    HW2 3783   3.943   1.311   3.991
  962SOL     OW 3784   0.145   0.072   4.956
  962SOL    HW1 3785   0.106   0.147   4.902
  962SOL    HW2 3786   0.110   7.006   4.922
  963SOL     OW 3787   5.890   2.409   1.275
  963SOL    HW1 3788   5.858   2.496   1.238
  963SOL    HW2 3789   5.874   2.337   1.207
  964SOL     OW 3790   3.637   6.409   4.993
  964SOL    HW1 3791   3.668   6.439   5.084
  964SOL    HW2 3792   3.584   6.483   4.951
  965SOL     OW 3793   5.196   1.719   4.204
  965SOL    HW1 3794   5.294   1.711   4.222
  965SOL    HW2 3795   5.164   1.638   4.155
  966SOL     OW 3796   5.166   1.031   3.171
  966SOL    HW1 3797   5.149   0.973   3.251
  966SOL    HW2 3798   5.224   0.983   3.106
  967SOL     OW 3799   3.581   5.434   5.737
  967SOL    HW1 3800   3.615   5.466   5.825
  967SOL    HW2 3801   3.632   5.351   5.711
  968SOL     OW 3802   3.986   0.392   1.579
  968SOL    HW1 3803   3.909   0.338   1.612
  968SOL    HW2 3804   3.960   0.443   1.497
  969SOL     OW 3805   2.758   3.710   6.862
  969SOL    HW1 3806   2.730   3.617   6.882
  969SOL    HW2 3807   2.847   3.709   6.816
  970SOL     OW 3808   4.340   6.159   5.427
  970SOL    HW1 3809   4.251   6.184   5.389
  970SOL    HW2 3810   4.355   6.061   5.416
  971SOL     OW 3811   5.231   3.342   3.430
  971SOL    HW1 3812   5.148   3.385   3.394
  971SOL    HW2 3813   5.247   3.256   3.382
  972SOL     OW 3814   0.825   1.895   0.759
  972SOL    HW1 3815   0.734   1.860   0.782
  972SOL    HW2 3816   0.844   1.976   0.813
  973SOL     OW 3817   6.444   2.724   4.885
  973SOL    HW1 3818   6.453   2.629   4.856
  973SOL    HW2 3819   6.530   2.755   4.926
  974SOL     OW 3820   1.225   3.222   1.629
  974SOL    HW1 3821   1.226   3.256   1.536
  974SOL    HW2 3822   1.314   3.181   1.651
  975SOL     OW 3823   3.051   0.362   1.769
  975SOL    HW1 3824   3.037   0.461   1.766
  975SOL    HW2 3825   3.136   0.341   1.816
  976SOL     OW 3826   7.014   2.888   4.043
  976SOL    HW1 3827   6.976   2.890   4.136
  976SOL    HW2 3828   0.070   2.825   4.040
  977SOL     OW 3829   6.510   1.421   2.198
  977SOL    HW1 3830   6.539   1.414   2.103
  977SOL    HW2 3831   6.536   1.337   2.247
  978SOL     OW 3832   5.487   2.132   0.998
  978SOL    HW1 3833   5.531   2.164   1.082
  978SOL    HW2 3834   5.469   2.209   0.937
  979SOL     OW 3835   0.285   5.046   6.490
  979SOL    HW1 3836   0.272   5.145   6.499
  979SOL    HW2 3837   0.274   5.019   6.394
  980SOL     OW 3838   4.777   1.632   3.805
  980SOL    HW1 3839   4.702   1.567   3.816
  980SOL    HW2 3840   4.753   1.697   3.733
  981SOL     OW 3841   0.861   5.739   5.501
  981SOL    HW1 3842   0.772   5.763   5.462
  981SOL    HW2 3843   0.862   5.642   5.527
  982SOL     OW 3844   0.095   1.153   6.758
  982SOL    HW1 3845   0.083   1.072   6.700
  982SOL    HW2 3846   0.008   1.174   6.804
  983SOL     OW 3847   0.033   3.789   2.211
  983SOL    HW1 3848   6.989   3.863   2.222
  983SOL    HW2 3849   0.122   3.817   2.248
  984SOL     OW 3850   0.349   3.453   3.805
  984SOL    HW1 3851   0.256   3.451   3.842
  984SOL    HW2 3852   0.364   3.539   3.756
  985SOL     OW 3853   5.650   5.296   5.607
  985SOL    HW1 3854   5.692   5.297   5.516
  985SOL    HW2 3855   5.674   5.380   5.655
  986SOL     OW 3856   4.080   5.135   1.427
  986SOL    HW1 3857   4.006   5.085   1.474
  986SOL    HW2 3858   4.166   5.119   1.475
  987SOL     OW 3859   4.662   4.513   4.297
  987SOL    HW1 3860   4.651   4.414   4.291
  987SOL    HW2 3861   4.629   4.545   4.386
  988SOL     OW 3862   3.045   4.893   2.304
  988SOL    HW1 3863   2.958   4.872   2.258
  988SOL    HW2 3864   3.121   4.862   2.248
  989SOL     OW 3865   0.467   2.762   1.050
  989SOL    HW1 3866   0.415   2.843   1.078
  989SOL    HW2 3867   0.555   2.791   1.010
  990SOL     OW 3868   3.487   0.208   5.281
  990SOL    HW1 3869   3.535   0.259   5.353
  990SOL    HW2 3870   3.553   0.171   5.216
  991SOL     OW 3871   1.489   6.305   3.830
  991SOL    HW1 3872   1.529   6.390   3.796
  991SOL    HW2 3873   1.542   6.272   3.909
  992SOL     OW 3874   6.180   3.373   0.792
  992SOL    HW1 3875   6.115   3.435   0.835
  992SOL    HW2 3876   6.256   3.356   0.855
  993SOL     OW 3877   1.972   5.515   6.405
  993SOL    HW1 3878   1.994   5.420   6.425
  993SOL    HW2 3879   2.029   5.547   6.329
  994SOL     OW 3880   3.049   6.992   1.559
  994SOL    HW1 3881   3.140   0.004   1.536
  994SOL    HW2 3882   2.982   0.013   1.497
  995SOL     OW 3883   5.630   4.329   5.619
  995SOL    HW1 3884   5.603   4.318   5.524
  995SOL    HW2 3885   5.555   4.372   5.670
  996SOL     OW 3886   4.158   6.594   5.073
  996SOL    HW1 3887   4.239   6.625   5.123
  996SOL    HW2 3888   4.117   6.671   5.025
  997SOL     OW 3889   1.251   6.200   3.204
  997SOL    HW1 3890   1.322   6.163   3.144
  997SOL    HW2 3891   1.288   6.210   3.296
  998SOL     OW 3892   4.492   0.187   0.352
  998SOL    HW1 3893   4.508   0.181   0.253
  998SOL    HW2 3894   4.519   0.277   0.385
  999SOL     OW 3895   5.635   3.202   2.528
  999SOL    HW1 3896   5.548   3.191   2.480
  999SOL    HW2 3897   5.711   3.184   2.465
 1000SOL     OW 3898   5.735   1.767   2.299
 1000SOL    HW1 3899   5.753   1.712   2.217
 1000SOL    HW2 3900   5.820   1.776   2.352
 1001SOL     OW 3901   2.227   6.573   3.457
 1001SOL    HW1 3902   2.316   6.560   3.499
 1001SOL    HW2 3903   2.183   6.654   3.497
 1002SOL     OW 3904   3.681   2.180   0.754
 1002SOL    HW1 3905   3.659   2.278   0.755
 1002SOL    HW2 3906   3.677   2.147   0.660
 1003SOL     OW 3907   0.578   1.427   3.787
 1003SOL    HW1 3908   0.522   1.432   3.704
 1003SOL    HW2 3909   0.576   1.334   3.823
 1004SOL     OW 3910   4.659   1.495   4.541
 1004SOL    HW1 3911   4.731   1.564   4.532
 1004SOL    HW2 3912   4.677   1.440   4.622
 1005SOL     OW 3913   0.814   5.674   1.899
 1005SOL    HW1 3914   0.847   5.628   1.981
 1005SOL    HW2 3915   0.815   5.611   1.822
 1006SOL     OW 3916   1.991   4.497   1.306
 1006SOL    HW1 3917   2.000   4.411   1.355
 1006SOL    HW2 3918   1.909   4.545   1.338
 1007SOL     OW 3919   4.694   1.285   6.420
 1007SOL    HW1 3920   4.626   1.219   6.386
 1007SOL    HW2 3921   4.780   1.237   6.438
 1008SOL     OW 3922   0.423   4.634   4.525
 1008SOL    HW1 3923   0.454   4.621   4.620
 1008SOL    HW2 3924   0.502   4.645   4.465
 1009SOL     OW 3925   6.484   6.286   6.364
 1009SOL    HW1 3926   6.502   6.376   6.403
 1009SOL    HW2 3927   6.449   6.296   6.270
 1010SOL     OW 3928   2.956   4.021   0.385
 1010SOL    HW1 3929   2.859   4.044   0.376
 1010SOL    HW2 3930   2.982   4.023   0.482
 1011SOL     OW 3931   0.109   5.300   2.415
 1011SOL    HW1 3932   0.158   5.353   2.485
 1011SOL    HW2 3933   0.141   5.326   2.324
 1012SOL     OW 3934   5.407   6.154   3.275
 1012SOL    HW1 3935   5.307   6.153   3.279
 1012SOL    HW2 3936   5.442   6.223   3.338
 1013SOL     OW 3937   0.576   1.001   6.270
 1013SOL    HW1 3938   0.585   1.091   6.312
 1013SOL    HW2 3939   0.576   1.010   6.170
 1014SOL     OW 3940   1.007   4.785   4.315
 1014SOL    HW1 3941   0.977   4.754   4.224
 1014SOL    HW2 3942   1.016   4.706   4.376
 1015SOL     OW 3943   3.033   6.438   0.140
 1015SOL    HW1 3944   3.025   6.404   0.234
 1015SOL    HW2 3945   2.997   6.369   0.077
 1016SOL     OW 3946   6.655   4.624   0.300
 1016SOL    HW1 3947   6.649   4.552   0.369
 1016SOL    HW2 3948   6.749   4.657   0.293
 1017SOL     OW 3949   1.923   0.948   2.356
 1017SOL    HW1 3950   1.912   1.035   2.307
 1017SOL    HW2 3951   1.920   0.965   2.454
 1018SOL     OW 3952   5.861   6.578   5.554
 1018SOL    HW1 3953   5.894   6.503   5.611
 1018SOL    HW2 3954   5.890   6.665   5.593
 1019SOL     OW 3955   6.181   3.555   1.647
 1019SOL    HW1 3956   6.185   3.458   1.622
 1019SOL    HW2 3957   6.222   3.568   1.737
 1020SOL     OW 3958   5.116   0.825   1.199
 1020SOL    HW1 3959   5.139   0.922   1.197
 1020SOL    HW2 3960   5.030   0.812   1.248
 1021SOL     OW 3961   1.482   6.726   0.573
 1021SOL    HW1 3962   1.455   6.755   0.665
 1021SOL    HW2 3963   1.513   6.631   0.576
 1022SOL     OW 3964   1.528   5.036   5.954
 1022SOL    HW1 3965   1.463   5.098   5.999
 1022SOL    HW2 3966   1.528   4.948   6.000
 1023SOL     OW 3967   1.337   1.513   2.211
 1023SOL    HW1 3968   1.412   1.578   2.209
 1023SOL    HW2 3969   1.285   1.525   2.296
 1024SOL     OW 3970   1.971   2.412   4.056
 1024SOL    HW1 3971   2.057   2.436   4.101
 1024SOL    HW2 3972   1.903   2.483   4.072
 1025SOL     OW 3973   4.397   3.949   0.953
 1025SOL    HW1 3974   4.384   3.874   1.018
 1025SOL    HW2 3975   4.331   4.021   0.971
 1026SOL     OW 3976   3.130   2.899   1.789
 1026SOL    HW1 3977   3.087   2.809   1.797
 1026SOL    HW2 3978   3.092   2.960   1.859
 1027SOL     OW 3979   6.370   0.010   0.100
 1027SOL    HW1 3980   6.437   7.013   0.027
 1027SOL    HW2 3981   6.417   0.042   0.182
 1028SOL     OW 3982   0.853   4.736   3.316
 1028SOL    HW1 3983   0.823   4.821   3.271
 1028SOL    HW2 3984   0.948   4.718   3.293
 1029SOL     OW 3985   0.334   0.664   4.875
 1029SOL    HW1 3986   0.423   0.693   4.841
 1029SOL    HW2 3987   0.264   0.679   4.805
 1030SOL     OW 3988   3.953   3.658   0.794
 1030SOL    HW1 3989   3.999   3.738   0.755
 1030SOL    HW2 3990   3.990   3.640   0.885
 1031SOL     OW 3991   3.681   2.462   0.712
 1031SOL    HW1 3992   3.715   2.554   0.735
 1031SOL    HW2 3993   3.711   2.438   0.620
 1032SOL     OW 3994   1.294   1.044   1.403
 1032SOL    HW1 3995   1.353   1.123   1.387
 1032SOL    HW2 3996   1.279   1.033   1.501
 1033SOL     OW 3997   6.429   6.941   2.155
 1033SOL    HW1 3998   6.353   7.003   2.134
 1033SOL    HW2 3999   6.404   6.847   2.131
 1034SOL     OW 4000   2.492   0.892   5.458
 1034SOL    HW1 4001   2.425   0.833   5.502
 1034SOL    HW2 4002   2.564   0.836   5.418
 1035SOL     OW 4003   1.501   0.405   0.273
 1035SOL    HW1 4004   1.569   0.463   0.228
 1035SOL    HW2 4005   1.485   0.438   0.366
 1036SOL     OW 4006   5.225   1.439   2.229
 1036SOL    HW1 4007   5.270   1.431   2.318
 1036SOL    HW2 4008   5.129   1.464   2.242
 1037SOL     OW 4009   1.491   3.796   2.859
 1037SOL    HW1 4010   1.497   3.728   2.932
 1037SOL    HW2 4011   1.413   3.856   2.877
 1038SOL     OW 4012   1.886   6.549   6.940
 1038SOL    HW1 4013   1.880   6.641   6.903
 1038SOL    HW2 4014   1.852   6.548   0.013
 1039SOL     OW 4015   2.891   3.535   3.142
 1039SOL    HW1 4016   2.877   3.576   3.052
 1039SOL    HW2 4017   2.933   3.602   3.204
 1040SOL     OW 4018   3.853   1.380   2.910
 1040SOL    HW1 4019   3.791   1.396   2.833
 1040SOL    HW2 4020   3.837   1.450   2.980
 1041SOL     OW 4021   6.719   6.640   6.955
 1041SOL    HW1 4022   6.700   6.697   6.875
 1041SOL    HW2 4023   6.647   6.652   0.001
 1042SOL     OW 4024   5.205   3.877   4.093
 1042SOL    HW1 4025   5.150   3.904   4.014
 1042SOL    HW2 4026   5.146   3.832   4.161
 1043SOL     OW 4027   2.468   2.187   3.482
 1043SOL    HW1 4028   2.543   2.253   3.475
 1043SOL    HW2 4029   2.446   2.151   3.391
 1044SOL     OW 4030   5.801   4.333   2.098
 1044SOL    HW1 4031   5.803   4.234   2.082
 1044SOL    HW2 4032   5.886   4.373   2.063
 1045SOL     OW 4033   2.251   0.450   2.509
 1045SOL    HW1 4034   2.196   0.442   2.592
 1045SOL    HW2 4035   2.262   0.360   2.467
 1046SOL     OW 4036   3.150   2.576   0.725
 1046SOL    HW1 4037   3.150   2.664   0.678
 1046SOL    HW2 4038   3.142   2.590   0.823
 1047SOL     OW 4039   3.946   0.831   3.745
 1047SOL    HW1 4040   3.878   0.760   3.759
 1047SOL    HW2 4041   3.923   0.884   3.663
 1048SOL     OW 4042   0.642   0.198   2.333
 1048SOL    HW1 4043   0.630   0.100   2.349
 1048SOL    HW2 4044   0.575   0.228   2.265
 1049SOL     OW 4045   3.343   6.818   0.701
 1049SOL    HW1 4046   3.377   6.828   0.607
 1049SOL    HW2 4047   3.244   6.828   0.702
 1050SOL     OW 4048   2.419   2.109   4.638
 1050SOL    HW1 4049   2.444   2.021   4.677
 1050SOL    HW2 4050   2.366   2.094   4.555
 1051SOL     OW 4051   1.590   2.068   5.317
 1051SOL    HW1 4052   1.526   2.106   5.251
 1051SOL    HW2 4053   1.618   2.138   5.382
 1052SOL     OW 4054   4.282   2.282   6.310
 1052SOL    HW1 4055   4.242   2.335   6.384
 1052SOL    HW2 4056   4.316   2.195   6.345
 1053SOL     OW 4057   4.969   2.780   3.979
 1053SOL    HW1 4058   4.984   2.790   4.077
 1053SOL    HW2 4059   4.927   2.863   3.943
 1054SOL     OW 4060   4.752   5.357   6.631
 1054SOL    HW1 4061   4.797   5.435   6.588
 1054SOL    HW2 4062   4.661   5.384   6.665
 1055SOL     OW 4063   5.388   5.509   6.140
 1055SOL    HW1 4064   5.296   5.470   6.133
 1055SOL    HW2 4065   5.447   5.465   6.073
 1056SOL     OW 4066   3.860   3.761   0.452
 1056SOL    HW1 4067   3.930   3.788   0.518
 1056SOL    HW2 4068   3.849   3.661   0.455
 1057SOL     OW 4069   2.623   3.279   6.636
 1057SOL    HW1 4070   2.535   3.247   6.600
 1057SOL    HW2 4071   2.675   3.201   6.672
 1058SOL     OW 4072   3.056   2.092   2.140
 1058SOL    HW1 4073   3.023   2.183   2.116
 1058SOL    HW2 4074   3.028   2.027   2.070
 1059SOL     OW 4075   2.157   5.830   2.571
 1059SOL    HW1 4076   2.168   5.896   2.497
 1059SOL    HW2 4077   2.088   5.863   2.635
 1060SOL     OW 4078   6.522   0.363   5.570
 1060SOL    HW1 4079   6.576   0.422   5.511
 1060SOL    HW2 4080   6.444   0.414   5.607
 1061SOL     OW 4081   0.094   3.495   6.414
 1061SOL    HW1 4082   0.103   3.541   6.502
 1061SOL    HW2 4083   0.124   3.400   6.422
 1062SOL     OW 4084   3.339   4.520   5.620
 1062SOL    HW1 4085   3.366   4.599   5.676
 1062SOL    HW2 4086   3.242   4.526   5.599
 1063SOL     OW 4087   2.792   6.496   4.257
 1063SOL    HW1 4088   2.725   6.477   4.186
 1063SOL    HW2 4089   2.770   6.443   4.339
 1064SOL     OW 4090   0.866   4.190   0.725
 1064SOL    HW1 4091   0.896   4.146   0.810
 1064SOL    HW2 4092   0.766   4.191   0.722
 1065SOL     OW 4093   5.762   0.879   5.119
 1065SOL    HW1 4094   5.664   0.872   5.105
 1065SOL    HW2 4095   5.807   0.904   5.033
 1066SOL     OW 4096   4.813   6.138   0.914
 1066SOL    HW1 4097   4.816   6.067   0.844
 1066SOL    HW2 4098   4.905   6.173   0.930
 1067SOL     OW 4099   3.165   1.157   0.241
 1067SOL    HW1 4100   3.164   1.233   0.306
 1067SOL    HW2 4101   3.249   1.105   0.251
 1068SOL     OW 4102   5.892   3.184   1.994
 1068SOL    HW1 4103   5.857   3.178   2.088
 1068SOL    HW2 4104   5.988   3.158   1.993
 1069SOL     OW 4105   6.982   2.526   2.767
 1069SOL    HW1 4106   7.005   2.478   2.683
 1069SOL    HW2 4107   6.981   2.461   2.843
 1070SOL     OW 4108   0.690   1.129   2.229
 1070SOL    HW1 4109   0.707   1.032   2.248
 1070SOL    HW2 4110   0.774   1.181   2.243
 1071SOL     OW 4111   0.538   2.988   5.409
 1071SOL    HW1 4112   0.632   3.020   5.418
 1071SOL    HW2 4113   0.530   2.933   5.326
 1072SOL     OW 4114   2.465   1.134   1.903
 1072SOL    HW1 4115   2.540   1.200   1.898
 1072SOL    HW2 4116   2.429   1.116   1.812
 1073SOL     OW 4117   5.330   2.224   2.970
 1073SOL    HW1 4118   5.324   2.129   2.938
 1073SOL    HW2 4119   5.373   2.280   2.899
 1074SOL     OW 4120   3.356   5.534   2.109
 1074SOL    HW1 4121   3.278   5.511   2.051
 1074SOL    HW2 4122   3.353   5.631   2.132
 1075SOL     OW 4123   0.003   3.877   4.806
 1075SOL    HW1 4124   0.029   3.841   4.896
 1075SOL    HW2 4125   6.947   3.939   4.816
 1076SOL     OW 4126   2.256   4.207   5.211
 1076SOL    HW1 4127   2.283   4.127   5.157
 1076SOL    HW2 4128   2.199   4.268   5.155
 1077SOL     OW 4129   6.970   6.303   0.905
 1077SOL    HW1 4130   6.982   6.314   0.807
 1077SOL    HW2 4131   0.012   6.233   0.939
 1078SOL     OW 4132   5.700   6.566   4.207
 1078SOL    HW1 4133   5.647   6.500   4.155
 1078SOL    HW2 4134   5.643   6.644   4.231
 1079SOL     OW 4135   1.089   6.278   1.731
 1079SOL    HW1 4136   1.038   6.213   1.675
 1079SOL    HW2 4137   1.158   6.324   1.676
 1080SOL     OW 4138   4.917   5.746   0.268
 1080SOL    HW1 4139   5.004   5.720   0.226
 1080SOL    HW2 4140   4.842   5.727   0.205
 1081SOL     OW 4141   6.823   6.826   3.391
 1081SOL    HW1 4142   6.840   6.781   3.303
 1081SOL    HW2 4143   6.872   6.913   3.393
 1082SOL     OW 4144   4.283   0.171   7.012
 1082SOL    HW1 4145   4.306   0.075   0.002
 1082SOL    HW2 4146   4.254   0.187   6.918
 1083SOL     OW 4147   6.378   4.290   2.146
 1083SOL    HW1 4148   6.303   4.291   2.212
 1083SOL    HW2 4149   6.454   4.345   2.181
 1084SOL     OW 4150   4.492   0.921   5.176
 1084SOL    HW1 4151   4.455   0.991   5.238
 1084SOL    HW2 4152   4.454   0.935   5.085
 1085SOL     OW 4153   1.669   3.338   5.012
 1085SOL    HW1 4154   1.582   3.324   4.965
 1085SOL    HW2 4155   1.701   3.431   4.996
 1086SOL     OW 4156   5.963   4.565   1.997
 1086SOL    HW1 4157   6.049   4.568   1.946
 1086SOL    HW2 4158   5.891   4.607   1.942
 1087SOL     OW 4159   3.981   7.019   5.820
 1087SOL    HW1 4160   3.991   6.987   5.914
 1087SOL    HW2 4161   3.966   6.941   5.759
 1088SOL     OW 4162   6.474   5.259   4.494
 1088SOL    HW1 4163   6.513   5.325   4.430
 1088SOL    HW2 4164   6.507   5.168   4.472
 1089SOL     OW 4165   5.957   5.015   4.430
 1089SOL    HW1 4166   6.042   5.065   4.415
 1089SOL    HW2 4167   5.938   5.009   4.528
 1090SOL     OW 4168   5.918   2.664   5.002
 1090SOL    HW1 4169   5.996   2.618   5.045
 1090SOL    HW2 4170   5.858   2.699   5.074
 1091SOL     OW 4171   2.154   3.832   2.926
 1091SOL    HW1 4172   2.061   3.825   2.962
 1091SOL    HW2 4173   2.164   3.769   2.849
 1092SOL     OW 4174   1.478   6.411   0.660
 1092SOL    HW1 4175   1.497   6.407   0.758
 1092SOL    HW2 4176   1.492   6.320   0.619
 1093SOL     OW 4177   1.576   0.556   2.985
 1093SOL    HW1 4178   1.584   0.607   2.900
 1093SOL    HW2 4179   1.666   0.525   3.015
 1094SOL     OW 4180   0.155   0.253   2.946
 1094SOL    HW1 4181   0.113   0.279   3.033
 1094SOL    HW2 4182   0.254   0.255   2.954
 1095SOL     OW 4183   6.242   3.810   0.989
 1095SOL    HW1 4184   6.253   3.723   1.037
 1095SOL    HW2 4185   6.288   3.806   0.901
 1096SOL     OW 4186   1.896   6.051   2.023
 1096SOL    HW1 4187   1.870   6.147   2.024
 1096SOL    HW2 4188   1.996   6.044   2.024
 1097SOL     OW 4189   2.965   5.869   4.704
 1097SOL    HW1 4190   2.975   5.866   4.803
 1097SOL    HW2 4191   3.019   5.945   4.667
 1098SOL     OW 4192   6.665   4.108   0.195
 1098SOL    HW1 4193   6.582   4.069   0.234
 1098SOL    HW2 4194   6.742   4.094   0.257
 1099SOL     OW 4195   5.299   0.482   6.743
 1099SOL    HW1 4196   5.322   0.572   6.781
 1099SOL    HW2 4197   5.249   0.494   6.658
 1100SOL     OW 4198   4.783   1.397   4.042
 1100SOL    HW1 4199   4.883   1.396   4.037
 1100SOL    HW2 4200   4.755   1.445   4.126
 1101SOL     OW 4201   4.879   3.077   6.981
 1101SOL    HW1 4202   4.854   2.983   6.958
 1101SOL    HW2 4203   4.945   3.076   0.034
 1102SOL     OW 4204   3.446   0.963   4.196
 1102SOL    HW1 4205   3.440   1.023   4.276
 1102SOL    HW2 4206   3.465   0.870   4.226
 1103SOL     OW 4207   3.417   6.236   0.882
 1103SOL    HW1 4208   3.383   6.315   0.832
 1103SOL    HW2 4209   3.346   6.165   0.885
 1104SOL     OW 4210   6.361   1.243   3.349
 1104SOL    HW1 4211   6.395   1.156   3.313
 1104SOL    HW2 4212   6.403   1.261   3.438
 1105SOL     OW 4213   4.882   0.978   6.173
 1105SOL    HW1 4214   4.880   1.075   6.149
 1105SOL    HW2 4215   4.789   0.944   6.182
 1106SOL     OW 4216   6.093   1.953   2.053
 1106SOL    HW1 4217   6.087   1.989   1.960
 1106SOL    HW2 4218   6.005   1.963   2.099
 1107SOL     OW 4219   1.365   2.093   6.798
 1107SOL    HW1 4220   1.417   2.026   6.851
 1107SOL    HW2 4221   1.301   2.045   6.738
 1108SOL     OW 4222   2.398   1.492   3.722
 1108SOL    HW1 4223   2.376   1.542   3.806
 1108SOL    HW2 4224   2.317   1.440   3.693
 1109SOL     OW 4225   5.068   1.771   5.053
 1109SOL    HW1 4226   5.029   1.779   5.145
 1109SOL    HW2 4227   5.151   1.826   5.047
 1110SOL     OW 4228   1.260   0.891   2.629
 1110SOL    HW1 4229   1.203   0.841   2.694
 1110SOL    HW2 4230   1.280   0.832   2.550
 1111SOL     OW 4231   5.578   2.916   6.074
 1111SOL    HW1 4232   5.511   2.977   6.117
 1111SOL    HW2 4233   5.666   2.962   6.069
 1112SOL     OW 4234   5.685   0.655   2.322
 1112SOL    HW1 4235   5.719   0.610   2.404
 1112SOL    HW2 4236   5.758   0.658   2.253
 1113SOL     OW 4237   0.016   2.469   3.109
 1113SOL    HW1 4238   0.109   2.452   3.078
 1113SOL    HW2 4239   6.973   2.412   3.057
 1114SOL     OW 4240   3.254   3.447   4.737
 1114SOL    HW1 4241   3.338   3.401   4.764
 1114SOL    HW2 4242   3.176   3.386   4.747
 1115SOL     OW 4243   2.085   5.090   5.705
 1115SOL    HW1 4244   2.148   5.048   5.771
 1115SOL    HW2 4245   2.048   5.174   5.744
 1116SOL     OW 4246   4.278   0.105   0.496
 1116SOL    HW1 4247   4.202   0.111   0.432
 1116SOL    HW2 4248   4.364   0.105   0.445
 1117SOL     OW 4249   2.002   2.561   1.645
 1117SOL    HW1 4250   1.944   2.548   1.565
 1117SOL    HW2 4251   1.960   2.517   1.725
 1118SOL     OW 4252   4.813   6.440   0.073
 1118SOL    HW1 4253   4.735   6.390   0.035
 1118SOL    HW2 4254   4.853   6.497   0.001
 1119SOL     OW 4255   2.661   5.584   3.830
 1119SOL    HW1 4256   2.752   5.560   3.864
 1119SOL    HW2 4257   2.644   5.537   3.744
 1120SOL     OW 4258   0.203   3.437   1.438
 1120SOL    HW1 4259   0.290   3.476   1.465
 1120SOL    HW2 4260   0.172   3.373   1.509
 1121SOL     OW 4261   5.643   4.722   5.638
 1121SOL    HW1 4262   5.618   4.664   5.560
 1121SOL    HW2 4263   5.742   4.726   5.647
 1122SOL     OW 4264   6.180   0.757   1.994
 1122SOL    HW1 4265   6.232   0.693   2.050
 1122SOL    HW2 4266   6.093   0.715   1.966
 1123SOL     OW 4267   3.897   1.675   4.914
 1123SOL    HW1 4268   3.878   1.762   4.960
 1123SOL    HW2 4269   3.831   1.606   4.943
 1124SOL     OW 4270   2.367   2.822   3.421
 1124SOL    HW1 4271   2.465   2.824   3.402
 1124SOL    HW2 4272   2.352   2.829   3.519
 1125SOL     OW 4273   1.525   3.316   4.194
 1125SOL    HW1 4274   1.520   3.255   4.273
 1125SOL    HW2 4275   1.564   3.267   4.116
 1126SOL     OW 4276   4.403   4.537   3.816
 1126SOL    HW1 4277   4.440   4.465   3.875
 1126SOL    HW2 4278   4.458   4.620   3.825
 1127SOL     OW 4279   6.216   6.596   0.914
 1127SOL    HW1 4280   6.195   6.517   0.856
 1127SOL    HW2 4281   6.165   6.675   0.883
 1128SOL     OW 4282   4.133   1.822   4.984
 1128SOL    HW1 4283   4.072   1.757   4.937
 1128SOL    HW2 4284   4.079   1.893   5.028
 1129SOL     OW 4285   1.121   0.842   7.004
 1129SOL    HW1 4286   1.202   0.783   7.008
 1129SOL    HW2 4287   1.123   0.906   0.059
 1130SOL     OW 4288   2.254   5.151   1.417
 1130SOL    HW1 4289   2.255   5.159   1.318
 1130SOL    HW2 4290   2.212   5.232   1.457
 1131SOL     OW 4291   1.455   5.480   3.872
 1131SOL    HW1 4292   1.522   5.422   3.825
 1131SOL    HW2 4293   1.383   5.507   3.808
 1132SOL     OW 4294   1.561   1.944   2.994
 1132SOL    HW1 4295   1.554   1.957   3.093
 1132SOL    HW2 4296   1.469   1.932   2.956
 1133SOL     OW 4297   1.332   6.600   6.695
 1133SOL    HW1 4298   1.429   6.616   6.714
 1133SOL    HW2 4299   1.314   6.616   6.598
 1134SOL     OW 4300   4.703   5.712   0.861
 1134SOL    HW1 4301   4.799   5.685   0.871
 1134SOL    HW2 4302   4.654   5.692   0.946
 1135SOL     OW 4303   1.867   0.504   3.055
 1135SOL    HW1 4304   1.945   0.529   3.112
 1135SOL    HW2 4305   1.894   0.509   2.958
 1136SOL     OW 4306   1.699   4.500   2.589
 1136SOL    HW1 4307   1.793   4.516   2.620
 1136SOL    HW2 4308   1.666   4.414   2.627
 1137SOL     OW 4309   1.202   5.552   4.532
 1137SOL    HW1 4310   1.107   5.538   4.507
 1137SOL    HW2 4311   1.219   5.649   4.547
 1138SOL     OW 4312   2.116   4.138   4.647
 1138SOL    HW1 4313   2.179   4.147   4.570
 1138SOL    HW2 4314   2.103   4.042   4.668
 1139SOL     OW 4315   3.260   5.832   4.828
 1139SOL    HW1 4316   3.172   5.848   4.872
 1139SOL    HW2 4317   3.261   5.740   4.788
 1140SOL     OW 4318   2.203   2.604   1.434
 1140SOL    HW1 4319   2.294   2.564   1.443
 1140SOL    HW2 4320   2.160   2.610   1.524
 1141SOL     OW 4321   6.464   4.918   5.529
 1141SOL    HW1 4322   6.426   5.009   5.516
 1141SOL    HW2 4323   6.391   4.856   5.560
 1142SOL     OW 4324   0.790   5.381   2.752
 1142SOL    HW1 4325   0.770   5.475   2.781
 1142SOL    HW2 4326   0.780   5.374   2.653
 1143SOL     OW 4327   6.718   4.412   1.656
 1143SOL    HW1 4328   6.797   4.356   1.630
 1143SOL    HW2 4329   6.673   4.447   1.574
 1144SOL     OW 4330   5.262   4.568   0.390
 1144SOL    HW1 4331   5.280   4.574   0.292
 1144SOL    HW2 4332   5.324   4.500   0.431
 1145SOL     OW 4333   6.346   6.797   0.495
 1145SOL    HW1 4334   6.247   6.802   0.507
 1145SOL    HW2 4335   6.387   6.749   0.573
 1146SOL     OW 4336   1.636   0.852   1.479
 1146SOL    HW1 4337   1.726   0.816   1.501
 1146SOL    HW2 4338   1.576   0.778   1.449
 1147SOL     OW 4339   1.938   6.348   1.213
 1147SOL    HW1 4340   1.899   6.266   1.172
 1147SOL    HW2 4341   2.007   6.387   1.152
 1148SOL     OW 4342   3.664   6.073   2.270
 1148SOL    HW1 4343   3.640   6.105   2.178
 1148SOL    HW2 4344   3.655   5.973   2.273
 1149SOL     OW 4345   5.617   2.311   1.174
 1149SOL    HW1 4346   5.582   2.368   1.248
 1149SOL    HW2 4347   5.663   2.231   1.212
 1150SOL     OW 4348   1.336   2.456   0.930
 1150SOL    HW1 4349   1.376   2.378   0.979
 1150SOL    HW2 4350   1.338   2.438   0.832
 1151SOL     OW 4351   5.621   4.959   4.209
 1151SOL    HW1 4352   5.598   4.892   4.138
 1151SOL    HW2 4353   5.698   4.926   4.263
 1152SOL     OW 4354   3.185   6.419   5.863
 1152SOL    HW1 4355   3.193   6.452   5.769
 1152SOL    HW2 4356   3.177   6.498   5.925
 1153SOL     OW 4357   5.421   6.747   1.494
 1153SOL    HW1 4358   5.362   6.734   1.574
 1153SOL    HW2 4359   5.436   6.844   1.479
 1154SOL     OW 4360   1.717   3.120   0.701
 1154SOL    HW1 4361   1.659   3.075   0.633
 1154SOL    HW2 4362   1.755   3.051   0.763
 1155SOL     OW 4363   3.692   6.272   4.059
 1155SOL    HW1 4364   3.601   6.246   4.027
 1155SOL    HW2 4365   3.685   6.310   4.151
 1156SOL     OW 4366   2.422   1.072   1.643
 1156SOL    HW1 4367   2.447   0.976   1.657
 1156SOL    HW2 4368   2.474   1.109   1.566
 1157SOL     OW 4369   2.465   2.096   0.425
 1157SOL    HW1 4370   2.495   2.031   0.494
 1157SOL    HW2 4371   2.367   2.113   0.435
 1158SOL     OW 4372   5.593   4.470   4.094
 1158SOL    HW1 4373   5.525   4.417   4.042
 1158SOL    HW2 4374   5.660   4.407   4.133
 1159SOL     OW 4375   5.638   4.932   0.608
 1159SOL    HW1 4376   5.697   4.978   0.541
 1159SOL    HW2 4377   5.677   4.843   0.631
 1160SOL     OW 4378   4.319   1.943   0.727
 1160SOL    HW1 4379   4.328   2.027   0.780
 1160SOL    HW2 4380   4.400   1.886   0.739
 1161SOL     OW 4381   0.096   5.139   0.932
 1161SOL    HW1 4382   0.054   5.089   0.857
 1161SOL    HW2 4383   0.065   5.234   0.930
 1162SOL     OW 4384   2.118   2.633   4.745
 1162SOL    HW1 4385   2.151   2.547   4.707
 1162SOL    HW2 4386   2.087   2.693   4.671
 1163SOL     OW 4387   5.006   1.968   1.749
 1163SOL    HW1 4388   5.016   2.009   1.659
 1163SOL    HW2 4389   5.057   1.881   1.752
 1164SOL     OW 4390   4.105   2.130   5.530
 1164SOL    HW1 4391   4.111   2.226   5.557
 1164SOL    HW2 4392   4.103   2.072   5.612
 1165SOL     OW 4393   4.463   0.098   3.553
 1165SOL    HW1 4394   4.373   0.065   3.524
 1165SOL    HW2 4395   4.505   0.029   3.613
 1166SOL     OW 4396   3.716   4.049   6.397
 1166SOL    HW1 4397   3.668   4.136   6.410
 1166SOL    HW2 4398   3.669   3.995   6.328
 1167SOL     OW 4399   5.395   4.163   3.529
 1167SOL    HW1 4400   5.494   4.148   3.527
 1167SOL    HW2 4401   5.370   4.232   3.461
 1168SOL     OW 4402   0.945   6.765   0.912
 1168SOL    HW1 4403   0.970   6.668   0.919
 1168SOL    HW2 4404   0.849   6.772   0.883
 1169SOL     OW 4405   4.911   1.944   5.457
 1169SOL    HW1 4406   4.937   2.029   5.503
 1169SOL    HW2 4407   4.994   1.890   5.438
 1170SOL     OW 4408   4.814   4.579   2.543
 1170SOL    HW1 4409   4.759   4.581   2.627
 1170SOL    HW2 4410   4.798   4.663   2.491
 1171SOL     OW 4411   0.673   6.384   0.922
 1171SOL    HW1 4412   0.639   6.470   0.884
 1171SOL    HW2 4413   0.599   6.338   0.972
 1172SOL     OW 4414   6.003   3.171   0.069
 1172SOL    HW1 4415   5.915   3.176   0.117
 1172SOL    HW2 4416   6.000   3.230   7.010
 1173SOL     OW 4417   4.461   2.559   1.263
 1173SOL    HW1 4418   4.535   2.500   1.296
 1173SOL    HW2 4419   4.385   2.556   1.327
 1174SOL     OW 4420   3.268   4.902   0.432
 1174SOL    HW1 4421   3.222   4.889   0.520
 1174SOL    HW2 4422   3.298   4.813   0.397
 1175SOL     OW 4423   3.271   4.109   4.134
 1175SOL    HW1 4424   3.287   4.130   4.231
 1175SOL    HW2 4425   3.173   4.111   4.115
 1176SOL     OW 4426   5.722   3.267   0.222
 1176SOL    HW1 4427   5.695   3.219   0.138
 1176SOL    HW2 4428   5.660   3.344   0.238
 1177SOL     OW 4429   0.919   1.886   5.099
 1177SOL    HW1 4430   0.825   1.870   5.128
 1177SOL    HW2 4431   0.927   1.871   5.000
 1178SOL     OW 4432   4.544   6.707   0.049
 1178SOL    HW1 4433   4.575   6.672   0.138
 1178SOL    HW2 4434   4.607   6.778   0.017
 1179SOL     OW 4435   0.036   5.785   0.576
 1179SOL    HW1 4436   7.007   5.870   0.592
 1179SOL    HW2 4437   0.130   5.795   0.608
 1180SOL     OW 4438   3.793   6.361   0.633
 1180SOL    HW1 4439   3.732   6.322   0.702
 1180SOL    HW2 4440   3.786   6.309   0.548
 1181SOL     OW 4441   6.396   6.047   6.506
 1181SOL    HW1 4442   6.484   5.999   6.511
 1181SOL    HW2 4443   6.403   6.124   6.443
 1182SOL     OW 4444   4.861   3.865   3.993
 1182SOL    HW1 4445   4.884   3.893   4.086
 1182SOL    HW2 4446   4.763   3.873   3.978
 1183SOL     OW 4447   1.881   4.659   6.915
 1183SOL    HW1 4448   1.793   4.675   6.960
 1183SOL    HW2 4449   1.909   4.564   6.929
 1184SOL     OW 4450   6.918   1.010   5.439
 1184SOL    HW1 4451   7.014   1.036   5.442
 1184SOL    HW2 4452   6.868   1.072   5.379
 1185SOL     OW 4453   6.491   1.804   6.706
 1185SOL    HW1 4454   6.516   1.880   6.767
 1185SOL    HW2 4455   6.403   1.767   6.735
 1186SOL     OW 4456   5.486   6.436   4.573
 1186SOL    HW1 4457   5.497   6.496   4.652
 1186SOL    HW2 4458   5.567   6.443   4.515
 1187SOL     OW 4459   6.434   2.222   5.885
 1187SOL    HW1 4460   6.428   2.140   5.941
 1187SOL    HW2 4461   6.467   2.198   5.793
 1188SOL     OW 4462   4.110   1.772   6.698
 1188SOL    HW1 4463   4.133   1.680   6.668
 1188SOL    HW2 4464   4.081   1.827   6.619
 1189SOL     OW 4465   5.979   3.561   3.640
 1189SOL    HW1 4466   5.920   3.630   3.597
 1189SOL    HW2 4467   5.959   3.471   3.602
 1190SOL     OW 4468   3.188   0.309   3.830
 1190SOL    HW1 4469   3.224   0.390   3.783
 1190SOL    HW2 4470   3.203   0.319   3.928
 1191SOL     OW 4471   3.268   6.757   2.865
 1191SOL    HW1 4472   3.212   6.802   2.934
 1191SOL    HW2 4473   3.215   6.748   2.780
 1192SOL     OW 4474   6.262   5.479   3.818
 1192SOL    HW1 4475   6.260   5.578   3.834
 1192SOL    HW2 4476   6.267   5.431   3.906
 1193SOL     OW 4477   6.517   6.128   4.572
 1193SOL    HW1 4478   6.582   6.145   4.498
 1193SOL    HW2 4479   6.561   6.147   4.660
 1194SOL     OW 4480   3.539   0.249   0.887
 1194SOL    HW1 4481   3.513   0.190   0.963
 1194SOL    HW2 4482   3.638   0.246   0.875
 1195SOL     OW 4483   4.651   2.594   3.062
 1195SOL    HW1 4484   4.596   2.523   3.018
 1195SOL    HW2 4485   4.638   2.589   3.161
 1196SOL     OW 4486   0.338   6.609   5.129
 1196SOL    HW1 4487   0.361   6.614   5.032
 1196SOL    HW2 4488   0.394   6.540   5.174
 1197SOL     OW 4489   1.958   6.294   0.197
 1197SOL    HW1 4490   1.941   6.286   0.099
 1197SOL    HW2 4491   1.872   6.301   0.246
 1198SOL     OW 4492   1.685   2.541   7.000
 1198SOL    HW1 4493   1.680   2.453   0.027
 1198SOL    HW2 4494   1.624   2.607   0.023
 1199SOL     OW 4495   5.938   3.810   2.393
 1199SOL    HW1 4496   5.865   3.877   2.379
 1199SOL    HW2 4497   6.006   3.818   2.320
 1200SOL     OW 4498   3.290   3.974   2.680
 1200SOL    HW1 4499   3.241   3.894   2.716
 1200SOL    HW2 4500   3.388   3.965   2.701
 1201SOL     OW 4501   1.741   2.332   5.133
 1201SOL    HW1 4502   1.696   2.283   5.058
 1201SOL    HW2 4503   1.801   2.402   5.095
 1202SOL     OW 4504   1.430   6.138   5.044
 1202SOL    HW1 4505   1.433   6.047   5.086
 1202SOL    HW2 4506   1.428   6.207   5.116
 1203SOL     OW 4507   4.163   6.004   5.178
 1203SOL    HW1 4508   4.106   6.072   5.225
 1203SOL    HW2 4509   4.232   5.968   5.241
 1204SOL     OW 4510   2.042   6.898   2.784
 1204SOL    HW1 4511   2.050   6.964   2.709
 1204SOL    HW2 4512   1.946   6.889   2.811
 1205SOL     OW 4513   5.573   3.670   2.481
 1205SOL    HW1 4514   5.566   3.604   2.406
 1205SOL    HW2 4515   5.632   3.633   2.552
 1206SOL     OW 4516   3.187   3.706   4.172
 1206SOL    HW1 4517   3.171   3.629   4.110
 1206SOL    HW2 4518   3.105   3.763   4.176
 1207SOL     OW 4519   1.088   5.745   2.726
 1207SOL    HW1 4520   1.037   5.740   2.811
 1207SOL    HW2 4521   1.025   5.733   2.649
 1208SOL     OW 4522   3.266   3.303   6.466
 1208SOL    HW1 4523   3.209   3.251   6.403
 1208SOL    HW2 4524   3.298   3.243   6.539
 1209SOL     OW 4525   4.012   6.385   5.121
 1209SOL    HW1 4526   4.090   6.445   5.102
 1209SOL    HW2 4527   3.957   6.375   5.038
 1210SOL     OW 4528   3.158   1.042   2.763
 1210SOL    HW1 4529   3.194   1.085   2.846
 1210SOL    HW2 4530   3.058   1.041   2.767
 1211SOL     OW 4531   0.670   2.846   0.462
 1211SOL    HW1 4532   0.618   2.865   0.379
 1211SOL    HW2 4533   0.675   2.747   0.476
 1212SOL     OW 4534   0.717   6.790   0.401
 1212SOL    HW1 4535   0.773   6.708   0.383
 1212SOL    HW2 4536   0.623   6.762   0.419
 1213SOL     OW 4537   5.839   2.922   1.235
 1213SOL    HW1 4538   5.891   2.938   1.319
 1213SOL    HW2 4539   5.760   2.984   1.232
 1214SOL     OW 4540   6.919   2.630   2.413
 1214SOL    HW1 4541   6.968   2.697   2.470
 1214SOL    HW2 4542   6.940   2.538   2.444
 1215SOL     OW 4543   1.995   5.878   2.795
 1215SOL    HW1 4544   1.959   5.967   2.766
 1215SOL    HW2 4545   2.049   5.889   2.878
 1216SOL     OW 4546   4.259   0.030   1.715
 1216SOL    HW1 4547   4.281   0.126   1.730
 1216SOL    HW2 4548   4.294   0.002   1.625
 1217SOL     OW 4549   2.681   4.054   6.663
 1217SOL    HW1 4550   2.669   4.129   6.728
 1217SOL    HW2 4551   2.593   4.006   6.650
 1218SOL     OW 4552   2.176   5.128   3.737
 1218SOL    HW1 4553   2.203   5.224   3.735
 1218SOL    HW2 4554   2.119   5.111   3.817
 1219SOL     OW 4555   3.825   5.450   2.029
 1219SOL    HW1 4556   3.903   5.474   2.088
 1219SOL    HW2 4557   3.859   5.417   1.941
 1220SOL     OW 4558   0.367   4.660   2.271
 1220SOL    HW1 4559   0.367   4.685   2.367
 1220SOL    HW2 4560   0.281   4.690   2.229
 1221SOL     OW 4561   4.542   4.440   6.889
 1221SOL    HW1 4562   4.468   4.378   6.860
 1221SOL    HW2 4563   4.502   4.522   6.929
 1222SOL     OW 4564   6.777   0.936   6.784
 1222SOL    HW1 4565   6.711   0.862   6.788
 1222SOL    HW2 4566   6.747   1.005   6.718
 1223SOL     OW 4567   3.944   6.662   1.248
 1223SOL    HW1 4568   3.896   6.730   1.194
 1223SOL    HW2 4569   4.043   6.680   1.245
 1224SOL     OW 4570   3.065   1.060   1.606
 1224SOL    HW1 4571   2.970   1.029   1.610
 1224SOL    HW2 4572   3.112   1.033   1.689
 1225SOL     OW 4573   3.040   3.740   6.013
 1225SOL    HW1 4574   3.013   3.820   5.959
 1225SOL    HW2 4575   3.134   3.751   6.044
 1226SOL     OW 4576   2.400   4.967   0.529
 1226SOL    HW1 4577   2.316   5.020   0.513
 1226SOL    HW2 4578   2.477   5.030   0.542
 1227SOL     OW 4579   1.536   4.367   6.098
 1227SOL    HW1 4580   1.557   4.277   6.138
 1227SOL    HW2 4581   1.620   4.407   6.062
 1228SOL     OW 4582   3.813   2.078   6.667
 1228SOL    HW1 4583   3.876   2.150   6.695
 1228SOL    HW2 4584   3.819   2.002   6.732
 1229SOL     OW 4585   3.520   3.811   6.685
 1229SOL    HW1 4586   3.449   3.786   6.618
 1229SOL    HW2 4587   3.479   3.814   6.776
 1230SOL     OW 4588   4.401   0.333   3.878
 1230SOL    HW1 4589   4.432   0.418   3.836
 1230SOL    HW2 4590   4.303   0.340   3.899
 1231SOL     OW 4591   0.999   3.351   3.975
 1231SOL    HW1 4592   1.076   3.305   4.020
 1231SOL    HW2 4593   1.015   3.354   3.876
 1232SOL     OW 4594   1.922   2.934   2.692
 1232SOL    HW1 4595   1.962   2.844   2.705
 1232SOL    HW2 4596   1.979   3.003   2.736
 1233SOL     OW 4597   0.910   2.111   4.309
 1233SOL    HW1 4598   0.825   2.079   4.268
 1233SOL    HW2 4599   0.966   2.156   4.239
 1234SOL     OW 4600   6.312   4.519   4.315
 1234SOL    HW1 4601   6.340   4.464   4.394
 1234SOL    HW2 4602   6.217   4.547   4.326
 1235SOL     OW 4603   6.428   5.081   3.299
 1235SOL    HW1 4604   6.342   5.049   3.259
 1235SOL    HW2 4605   6.497   5.009   3.291
 1236SOL     OW 4606   5.530   0.846   6.657
 1236SOL    HW1 4607   5.505   0.849   6.560
 1236SOL    HW2 4608   5.557   0.937   6.687
 1237SOL     OW 4609   1.974   4.718   6.291
 1237SOL    HW1 4610   1.948   4.783   6.219
 1237SOL    HW2 4611   1.899   4.710   6.356
 1238SOL     OW 4612   1.817   1.487   1.241
 1238SOL    HW1 4613   1.910   1.452   1.247
 1238SOL    HW2 4614   1.762   1.428   1.181
 1239SOL     OW 4615   0.846   0.160   5.762
 1239SOL    HW1 4616   0.796   0.148   5.676
 1239SOL    HW2 4617   0.925   0.218   5.747
 1240SOL     OW 4618   5.792   5.756   0.889
 1240SOL    HW1 4619   5.721   5.686   0.882
 1240SOL    HW2 4620   5.796   5.807   0.803
 1241SOL     OW 4621   0.222   2.205   4.520
 1241SOL    HW1 4622   0.144   2.180   4.576
 1241SOL    HW2 4623   0.204   2.292   4.473
 1242SOL     OW 4624   2.185   2.391   6.729
 1242SOL    HW1 4625   2.242   2.417   6.807
 1242SOL    HW2 4626   2.118   2.322   6.758
 1243SOL     OW 4627   3.084   5.159   5.175
 1243SOL    HW1 4628   3.059   5.090   5.107
 1243SOL    HW2 4629   3.162   5.211   5.142
 1244SOL     OW 4630   0.722   1.695   2.823
 1244SOL    HW1 4631   0.734   1.793   2.809
 1244SOL    HW2 4632   0.711   1.650   2.734
 1245SOL     OW 4633   2.938   2.775   5.354
 1245SOL    HW1 4634   2.865   2.759   5.420
 1245SOL    HW2 4635   2.953   2.873   5.344
 1246SOL     OW 4636   1.270   6.604   1.648
 1246SOL    HW1 4637   1.281   6.561   1.558
 1246SOL    HW2 4638   1.187   6.660   1.648
 1247SOL     OW 4639   0.854   6.504   6.645
 1247SOL    HW1 4640   0.763   6.515   6.685
 1247SOL    HW2 4641   0.915   6.574   6.680
 1248SOL     OW 4642   2.685   0.100   4.106
 1248SOL    HW1 4643   2.764   0.050   4.141
 1248SOL    HW2 4644   2.612   0.035   4.082
 1249SOL     OW 4645   5.773   3.148   3.040
 1249SOL    HW1 4646   5.687   3.192   3.067
 1249SOL    HW2 4647   5.794   3.172   2.945
 1250SOL     OW 4648   0.103   3.132   4.639
 1250SOL    HW1 4649   0.092   3.176   4.550
 1250SOL    HW2 4650   0.194   3.150   4.675
 1251SOL     OW 4651   3.206   0.722   6.369
 1251SOL    HW1 4652   3.185   0.692   6.462
 1251SOL    HW2 4653   3.289   0.777   6.369
 1252SOL     OW 4654   3.341   3.792   0.295
 1252SOL    HW1 4655   3.400   3.871   0.281
 1252SOL    HW2 4656   3.290   3.802   0.380
 1253SOL     OW 4657   4.856   1.284   3.019
 1253SOL    HW1 4658   4.875   1.383   3.021
 1253SOL    HW2 4659   4.865   1.251   2.925
 1254SOL     OW 4660   5.542   1.161   3.741
 1254SOL    HW1 4661   5.619   1.217   3.713
 1254SOL    HW2 4662   5.508   1.191   3.830
 1255SOL     OW 4663   5.964   0.605   1.925
 1255SOL    HW1 4664   5.866   0.586   1.926
 1255SOL    HW2 4665   5.990   0.643   1.836
 1256SOL     OW 4666   4.983   2.652   3.736
 1256SOL    HW1 4667   4.931   2.571   3.707
 1256SOL    HW2 4668   4.964   2.670   3.833
 1257SOL     OW 4669   5.671   1.100   4.320
 1257SOL    HW1 4670   5.741   1.057   4.264
 1257SOL    HW2 4671   5.655   1.045   4.402
 1258SOL     OW 4672   0.271   5.057   3.537
 1258SOL    HW1 4673   0.203   5.127   3.561
 1258SOL    HW2 4674   0.269   5.043   3.438
 1259SOL     OW 4675   5.477   2.285   4.481
 1259SOL    HW1 4676   5.462   2.213   4.413
 1259SOL    HW2 4677   5.454   2.250   4.572
 1260SOL     OW 4678   0.961   1.809   4.839
 1260SOL    HW1 4679   1.034   1.767   4.786
 1260SOL    HW2 4680   0.898   1.738   4.871
 1261SOL     OW 4681   6.675   3.591   1.127
 1261SOL    HW1 4682   6.617   3.537   1.187
 1261SOL    HW2 4683   6.666   3.559   1.033
 1262SOL     OW 4684   4.859   6.245   2.064
 1262SOL    HW1 4685   4.900   6.190   2.137
 1262SOL    HW2 4686   4.772   6.283   2.096
 1263SOL     OW 4687   0.850   2.063   3.085
 1263SOL    HW1 4688   0.856   1.969   3.117
 1263SOL    HW2 4689   0.829   2.123   3.162
 1264SOL     OW 4690   1.313   2.640   5.494
 1264SOL    HW1 4691   1.276   2.559   5.447
 1264SOL    HW2 4692   1.310   2.719   5.433
 1265SOL     OW 4693   5.939   0.084   5.743
 1265SOL    HW1 4694   5.995   0.165   5.759
 1265SOL    HW2 4695   5.867   0.080   5.812
 1266SOL     OW 4696   3.359   1.093   5.570
 1266SOL    HW1 4697   3.367   0.994   5.556
 1266SOL    HW2 4698   3.265   1.122   5.551
 1267SOL     OW 4699   3.033   0.522   2.214
 1267SOL    HW1 4700   3.034   0.480   2.305
 1267SOL    HW2 4701   2.951   0.493   2.165
 1268SOL     OW 4702   4.273   2.104   5.327
 1268SOL    HW1 4703   4.314   2.013   5.336
 1268SOL    HW2 4704   4.220   2.125   5.409
 1269SOL     OW 4705   5.569   1.780   3.693
 1269SOL    HW1 4706   5.500   1.780   3.765
 1269SOL    HW2 4707   5.660   1.777   3.733
 1270SOL     OW 4708   5.798   5.362   3.178
 1270SOL    HW1 4709   5.761   5.279   3.219
 1270SOL    HW2 4710   5.738   5.391   3.103
 1271SOL     OW 4711   1.574   0.917   2.001
 1271SOL    HW1 4712   1.658   0.884   2.042
 1271SOL    HW2 4713   1.561   0.873   1.912
 1272SOL     OW 4714   6.268   2.084   0.314
 1272SOL    HW1 4715   6.242   2.006   0.372
 1272SOL    HW2 4716   6.191   2.149   0.310
 1273SOL     OW 4717   1.816   4.381   5.424
 1273SOL    HW1 4718   1.730   4.340   5.455
 1273SOL    HW2 4719   1.891   4.346   5.479
 1274SOL     OW 4720   0.276   4.580   4.224
 1274SOL    HW1 4721   0.241   4.537   4.141
 1274SOL    HW2 4722   0.223   4.549   4.303
 1275SOL     OW 4723   1.880   1.488   3.054
 1275SOL    HW1 4724   1.970   1.502   3.094
 1275SOL    HW2 4725   1.864   1.556   2.982
 1276SOL     OW 4726   5.778   4.126   3.888
 1276SOL    HW1 4727   5.817   4.156   3.801
 1276SOL    HW2 4728   5.733   4.037   3.875
 1277SOL     OW 4729   1.468   6.371   6.411
 1277SOL    HW1 4730   1.544   6.349   6.471
 1277SOL    HW2 4731   1.452   6.296   6.347
 1278SOL     OW 4732   6.867   6.108   2.701
 1278SOL    HW1 4733   6.800   6.182   2.696
 1278SOL    HW2 4734   6.953   6.137   2.659
 1279SOL     OW 4735   2.949   3.543   0.552
 1279SOL    HW1 4736   3.036   3.527   0.506
 1279SOL    HW2 4737   2.963   3.545   0.651
 1280SOL     OW 4738   2.689   2.369   4.011
 1280SOL    HW1 4739   2.615   2.345   3.947
 1280SOL    HW2 4740   2.772   2.321   3.984
 1281SOL     OW 4741   5.338   6.456   5.549
 1281SOL    HW1 4742   5.299   6.546   5.529
 1281SOL    HW2 4743   5.438   6.461   5.544
 1282SOL     OW 4744   1.212   2.882   0.890
 1282SOL    HW1 4745   1.142   2.816   0.860
 1282SOL    HW2 4746   1.302   2.840   0.882
 1283SOL     OW 4747   0.630   1.242   4.209
 1283SOL    HW1 4748   0.588   1.310   4.149
 1283SOL    HW2 4749   0.688   1.181   4.155
 1284SOL     OW 4750   3.901   2.339   1.725
 1284SOL    HW1 4751   3.813   2.338   1.773
 1284SOL    HW2 4752   3.975   2.329   1.792
 1285SOL     OW 4753   4.175   1.249   4.523
 1285SOL    HW1 4754   4.169   1.337   4.570
 1285SOL    HW2 4755   4.098   1.239   4.461
 1286SOL     OW 4756   4.904   1.060   2.110
 1286SOL    HW1 4757   4.833   1.094   2.171
 1286SOL    HW2 4758   4.902   0.960   2.108
 1287SOL     OW 4759   5.354   4.926   6.201
 1287SOL    HW1 4760   5.388   5.007   6.249
 1287SOL    HW2 4761   5.357   4.943   6.102
 1288SOL     OW 4762   4.642   4.386   6.452
 1288SOL    HW1 4763   4.637   4.393   6.552
 1288SOL    HW2 4764   4.551   4.403   6.413
 1289SOL     OW 4765   1.169   6.880   0.419
 1289SOL    HW1 4766   1.190   6.790   0.383
 1289SOL    HW2 4767   1.254   6.924   0.448
 1290SOL     OW 4768   1.135   6.737   4.763
 1290SOL    HW1 4769   1.198   6.742   4.840
 1290SOL    HW2 4770   1.187   6.740   4.677
 1291SOL     OW 4771   5.362   5.239   3.120
 1291SOL    HW1 4772   5.410   5.192   3.193
 1291SOL    HW2 4773   5.390   5.335   3.118
 1292SOL     OW 4774   0.316   6.526   2.942
 1292SOL    HW1 4775   0.404   6.514   2.988
 1292SOL    HW2 4776   0.302   6.623   2.923
 1293SOL     OW 4777   4.996   0.061   0.908
 1293SOL    HW1 4778   4.997   0.009   0.823
 1293SOL    HW2 4779   5.086   0.102   0.923
 1294SOL     OW 4780   2.064   4.638   5.521
 1294SOL    HW1 4781   2.093   4.592   5.437
 1294SOL    HW2 4782   2.098   4.732   5.521
 1295SOL     OW 4783   0.179   4.453   0.329
 1295SOL    HW1 4784   0.246   4.503   0.383
 1295SOL    HW2 4785   0.185   4.481   0.233
 1296SOL     OW 4786   4.337   0.766   5.348
 1296SOL    HW1 4787   4.412   0.806   5.295
 1296SOL    HW2 4788   4.313   0.828   5.423
 1297SOL     OW 4789   6.361   6.763   6.745
 1297SOL    HW1 4790   6.301   6.810   6.680
 1297SOL    HW2 4791   6.306   6.725   6.820
 1298SOL     OW 4792   5.033   0.686   3.207
 1298SOL    HW1 4793   5.052   0.643   3.295
 1298SOL    HW2 4794   4.960   0.754   3.217
 1299SOL     OW 4795   1.014   4.664   4.683
 1299SOL    HW1 4796   1.093   4.724   4.696
 1299SOL    HW2 4797   1.028   4.609   4.600
 1300SOL     OW 4798   1.517   5.598   6.952
 1300SOL    HW1 4799   1.497   5.624   6.857
 1300SOL    HW2 4800   1.445   5.633   7.011
 1301SOL     OW 4801   6.296   1.111   0.169
 1301SOL    HW1 4802   6.341   1.163   0.097
 1301SOL    HW2 4803   6.223   1.054   0.129
 1302SOL     OW 4804   6.794   6.853   5.022
 1302SOL    HW1 4805   6.700   6.858   4.988
 1302SOL    HW2 4806   6.810   6.763   5.063
 1303SOL     OW 4807   3.177   6.727   1.298
 1303SOL    HW1 4808   3.176   6.823   1.325
 1303SOL    HW2 4809   3.259   6.683   1.332
 1304SOL     OW 4810   6.804   7.019   0.083
 1304SOL    HW1 4811   6.896   0.028   0.059
 1304SOL    HW2 4812   6.751   7.004   7.020
 1305SOL     OW 4813   4.241   3.827   5.791
 1305SOL    HW1 4814   4.147   3.840   5.760
 1305SOL    HW2 4815   4.265   3.898   5.857
 1306SOL     OW 4816   2.804   6.278   4.463
 1306SOL    HW1 4817   2.824   6.190   4.420
 1306SOL    HW2 4818   2.888   6.332   4.470
 1307SOL     OW 4819   2.198   3.308   4.285
 1307SOL    HW1 4820   2.234   3.215   4.286
 1307SOL    HW2 4821   2.153   3.327   4.373
 1308SOL     OW 4822   0.331   3.894   6.371
 1308SOL    HW1 4823   0.365   3.801   6.386
 1308SOL    HW2 4824   0.337   3.916   6.274
 1309SOL     OW 4825   6.085   3.784   6.718
 1309SOL    HW1 4826   6.041   3.870   6.747
 1309SOL    HW2 4827   6.094   3.784   6.618
 1310SOL     OW 4828   2.149   3.214   3.099
 1310SOL    HW1 4829   2.168   3.206   3.001
 1310SOL    HW2 4830   2.199   3.143   3.148
 1311SOL     OW 4831   6.172   5.011   0.195
 1311SOL    HW1 4832   6.261   4.967   0.202
 1311SOL    HW2 4833   6.178   5.105   0.230
 1312SOL     OW 4834   2.725   1.387   6.363
 1312SOL    HW1 4835   2.721   1.470   6.308
 1312SOL    HW2 4836   2.632   1.362   6.393
 1313SOL     OW 4837   5.830   5.255   2.284
 1313SOL    HW1 4838   5.852   5.165   2.247
 1313SOL    HW2 4839   5.869   5.326   2.225
 1314SOL     OW 4840   2.407   1.616   3.968
 1314SOL    HW1 4841   2.386   1.662   4.054
 1314SOL    HW2 4842   2.482   1.551   3.982
 1315SOL     OW 4843   6.068   0.815   3.102
 1315SOL    HW1 4844   6.143   0.829   3.038
 1315SOL    HW2 4845   5.981   0.838   3.058
 1316SOL     OW 4846   5.264   0.027   6.191
 1316SOL    HW1 4847   5.276   6.949   6.186
 1316SOL    HW2 4848   5.259   0.055   6.287
 1317SOL     OW 4849   3.969   3.074   4.255
 1317SOL    HW1 4850   3.995   3.163   4.293
 1317SOL    HW2 4851   3.968   3.079   4.156
 1318SOL     OW 4852   1.969   1.377   6.521
 1318SOL    HW1 4853   2.018   1.459   6.554
 1318SOL    HW2 4854   1.871   1.394   6.524
 1319SOL     OW 4855   6.442   1.506   0.429
 1319SOL    HW1 4856   6.465   1.416   0.393
 1319SOL    HW2 4857   6.343   1.512   0.444
 1320SOL     OW 4858   2.620   2.990   6.001
 1320SOL    HW1 4859   2.674   2.985   6.085
 1320SOL    HW2 4860   2.604   2.898   5.966
 1321SOL     OW 4861   0.072   2.703   1.304
 1321SOL    HW1 4862   0.143   2.706   1.375
 1321SOL    HW2 4863   0.003   2.636   1.330
 1322SOL     OW 4864   2.358   2.427   6.923
 1322SOL    HW1 4865   2.332   2.359   6.991
 1322SOL    HW2 4866   2.438   2.477   6.956
 1323SOL     OW 4867   4.031   0.591   1.362
 1323SOL    HW1 4868   4.037   0.559   1.267
 1323SOL    HW2 4869   4.123   0.604   1.398
 1324SOL     OW 4870   2.113   3.939   5.838
 1324SOL    HW1 4871   2.016   3.956   5.852
 1324SOL    HW2 4872   2.140   3.857   5.890
 1325SOL     OW 4873   4.267   6.073   4.594
 1325SOL    HW1 4874   4.188   6.037   4.644
 1325SOL    HW2 4875   4.350   6.058   4.648
 1326SOL     OW 4876   4.563   1.253   4.834
 1326SOL    HW1 4877   4.614   1.208   4.760
 1326SOL    HW2 4878   4.500   1.320   4.795
 1327SOL     OW 4879   4.980   5.864   2.111
 1327SOL    HW1 4880   4.976   5.802   2.190
 1327SOL    HW2 4881   4.901   5.847   2.052
 1328SOL     OW 4882   1.844   2.189   5.591
 1328SOL    HW1 4883   1.832   2.228   5.500
 1328SOL    HW2 4884   1.756   2.156   5.626
 1329SOL     OW 4885   1.041   2.983   4.042
 1329SOL    HW1 4886   0.950   3.023   4.036
 1329SOL    HW2 4887   1.092   3.004   3.959
 1330SOL     OW 4888   6.432   3.229   3.035
 1330SOL    HW1 4889   6.372   3.274   3.101
 1330SOL    HW2 4890   6.457   3.138   3.069
 1331SOL     OW 4891   4.265   1.978   2.924
 1331SOL    HW1 4892   4.221   1.928   2.850
 1331SOL    HW2 4893   4.214   2.062   2.942
 1332SOL     OW 4894   2.325   6.163   6.588
 1332SOL    HW1 4895   2.264   6.100   6.541
 1332SOL    HW2 4896   2.292   6.257   6.576
 1333SOL     OW 4897   3.832   3.483   2.672
 1333SOL    HW1 4898   3.927   3.485   2.704
 1333SOL    HW2 4899   3.776   3.540   2.732
 1334SOL     OW 4900   6.453   4.254   1.189
 1334SOL    HW1 4901   6.514   4.198   1.244
 1334SOL    HW2 4902   6.364   4.261   1.234
 1335SOL     OW 4903   0.333   3.545   3.061
 1335SOL    HW1 4904   0.248   3.505   3.025
 1335SOL    HW2 4905   0.343   3.520   3.157
 1336SOL     OW 4906   2.109   6.697   6.008
 1336SOL    HW1 4907   2.025   6.730   6.049
 1336SOL    HW2 4908   2.164   6.775   5.978
 1337SOL     OW 4909   0.661   6.932   2.081
 1337SOL    HW1 4910   0.581   6.878   2.058
 1337SOL    HW2 4911   0.657   6.959   2.177
 1338SOL     OW 4912   0.184   3.989   5.227
 1338SOL    HW1 4913   0.087   4.007   5.242
 1338SOL    HW2 4914   0.220   4.057   5.163
 1339SOL     OW 4915   5.591   1.157   0.331
 1339SOL    HW1 4916   5.530   1.208   0.271
 1339SOL    HW2 4917   5.681   1.147   0.289
 1340SOL     OW 4918   2.940   2.647   0.958
 1340SOL    HW1 4919   3.005   2.574   0.978
 1340SOL    HW2 4920   2.957   2.724   1.020
 1341SOL     OW 4921   5.768   6.120   6.508
 1341SOL    HW1 4922   5.757   6.062   6.589
 1341SOL    HW2 4923   5.678   6.143   6.471
 1342SOL     OW 4924   1.632   5.520   1.619
 1342SOL    HW1 4925   1.717   5.531   1.671
 1342SOL    HW2 4926   1.554   5.543   1.677
 1343SOL     OW 4927   4.965   6.040   2.771
 1343SOL    HW1 4928   4.886   6.085   2.728
 1343SOL    HW2 4929   4.971   6.070   2.867
 1344SOL     OW 4930   0.945   0.694   3.981
 1344SOL    HW1 4931   0.882   0.640   3.925
 1344SOL    HW2 4932   0.976   0.774   3.928
 1345SOL     OW 4933   1.894   6.549   5.706
 1345SOL    HW1 4934   1.812   6.581   5.753
 1345SOL    HW2 4935   1.870   6.515   5.615
 1346SOL     OW 4936   3.266   5.733   3.988
 1346SOL    HW1 4937   3.346   5.726   3.928
 1346SOL    HW2 4938   3.270   5.659   4.056
 1347SOL     OW 4939   1.403   0.895   6.617
 1347SOL    HW1 4940   1.345   0.941   6.684
 1347SOL    HW2 4941   1.352   0.820   6.574
 1348SOL     OW 4942   1.498   6.918   4.766
 1348SOL    HW1 4943   1.541   6.856   4.700
 1348SOL    HW2 4944   1.463   6.864   4.843
 1349SOL     OW 4945   5.454   3.776   4.117
 1349SOL    HW1 4946   5.359   3.797   4.092
 1349SOL    HW2 4947   5.458   3.687   4.161
 1350SOL     OW 4948   5.176   4.863   6.443
 1350SOL    HW1 4949   5.239   4.858   6.520
 1350SOL    HW2 4950   5.227   4.880   6.359
 1351SOL     OW 4951   0.070   2.585   6.436
 1351SOL    HW1 4952   6.998   2.618   6.423
 1351SOL    HW2 4953   0.068   2.495   6.481
 1352SOL     OW 4954   6.925   0.934   2.907
 1352SOL    HW1 4955   6.947   0.842   2.875
 1352SOL    HW2 4956   6.830   0.937   2.938
 1353SOL     OW 4957   6.539   2.240   6.241
 1353SOL    HW1 4958   6.610   2.225   6.310
 1353SOL    HW2 4959   6.569   2.312   6.178
 1354SOL     OW 4960   4.933   4.841   2.727
 1354SOL    HW1 4961   4.838   4.813   2.738
 1354SOL    HW2 4962   4.938   4.939   2.708
 1355SOL     OW 4963   4.123   3.596   5.057
 1355SOL    HW1 4964   4.153   3.552   4.973
 1355SOL    HW2 4965   4.203   3.627   5.109
 1356SOL     OW 4966   2.754   3.443   6.801
 1356SOL    HW1 4967   2.720   3.395   6.720
 1356SOL    HW2 4968   2.848   3.471   6.786
 1357SOL     OW 4969   1.019   3.112   5.531
 1357SOL    HW1 4970   1.021   3.211   5.512
 1357SOL    HW2 4971   1.111   3.075   5.520
 1358SOL     OW 4972   2.380   6.936   6.638
 1358SOL    HW1 4973   2.425   6.961   6.724
 1358SOL    HW2 4974   2.333   7.016   6.600
 1359SOL     OW 4975   6.172   4.735   6.829
 1359SOL    HW1 4976   6.215   4.810   6.778
 1359SOL    HW2 4977   6.111   4.772   6.898
 1360SOL     OW 4978   2.510   1.300   5.769
 1360SOL    HW1 4979   2.525   1.365   5.844
 1360SOL    HW2 4980   2.454   1.343   5.698
 1361SOL     OW 4981   6.571   5.210   5.014
 1361SOL    HW1 4982   6.542   5.191   4.920
 1361SOL    HW2 4983   6.537   5.137   5.074
 1362SOL     OW 4984   3.593   3.924   4.247
 1362SOL    HW1 4985   3.516   3.911   4.184
 1362SOL    HW2 4986   3.667   3.861   4.223
 1363SOL     OW 4987   0.213   6.680   3.585
 1363SOL    HW1 4988   0.155   6.725   3.654
 1363SOL    HW2 4989   0.158   6.616   3.532
 1364SOL     OW 4990   3.901   4.048   0.045
 1364SOL    HW1 4991   3.945   4.047   6.977
 1364SOL    HW2 4992   3.902   3.956   0.085
 1365SOL     OW 4993   5.444   2.535   6.078
 1365SOL    HW1 4994   5.474   2.523   5.984
 1365SOL    HW2 4995   5.522   2.526   6.140
 1366SOL     OW 4996   2.186   0.730   5.255
 1366SOL    HW1 4997   2.207   0.813   5.307
 1366SOL    HW2 4998   2.095   0.739   5.215
 1367SOL     OW 4999   2.458   1.787   2.339
 1367SOL    HW1 5000   2.486   1.734   2.259
 1367SOL    HW2 5001   2.536   1.840   2.372
 1368SOL     OW 5002   0.031   0.396   3.501
 1368SOL    HW1 5003   0.016   0.468   3.432
 1368SOL    HW2 5004   0.069   0.437   3.584
 1369SOL     OW 5005   6.995   0.272   2.520
 1369SOL    HW1 5006   6.928   0.284   2.593
 1369SOL    HW2 5007   0.036   0.198   2.544
 1370SOL     OW 5008   1.687   0.821   2.487
 1370SOL    HW1 5009   1.765   0.859   2.536
 1370SOL    HW2 5010   1.676   0.869   2.400
 1371SOL     OW 5011   3.272   0.326   5.982
 1371SOL    HW1 5012   3.250   0.271   6.063
 1371SOL    HW2 5013   3.265   0.268   5.900
 1372SOL     OW 5014   2.816   1.833   1.738
 1372SOL    HW1 5015   2.862   1.871   1.658
 1372SOL    HW2 5016   2.720   1.860   1.738
 1373SOL     OW 5017   1.565   5.747   6.458
 1373SOL    HW1 5018   1.532   5.705   6.543
 1373SOL    HW2 5019   1.624   5.825   6.480
 1374SOL     OW 5020   5.197   3.965   5.346
 1374SOL    HW1 5021   5.286   3.974   5.300
 1374SOL    HW2 5022   5.153   3.881   5.314
 1375SOL     OW 5023   1.391   3.981   4.386
 1375SOL    HW1 5024   1.434   4.052   4.442
 1375SOL    HW2 5025   1.296   4.005   4.369
 1376SOL     OW 5026   4.984   0.473   2.013
 1376SOL    HW1 5027   4.957   0.395   1.956
 1376SOL    HW2 5028   4.956   0.457   2.108
 1377SOL     OW 5029   0.269   4.244   4.934
 1377SOL    HW1 5030   0.293   4.151   4.962
 1377SOL    HW2 5031   0.270   4.304   5.015
 1378SOL     OW 5032   1.959   1.704   0.518
 1378SOL    HW1 5033   1.859   1.705   0.509
 1378SOL    HW2 5034   1.989   1.613   0.546
 1379SOL     OW 5035   4.208   5.507   1.739
 1379SOL    HW1 5036   4.143   5.572   1.778
 1379SOL    HW2 5037   4.295   5.553   1.721
 1380SOL     OW 5038   6.042   4.968   2.618
 1380SOL    HW1 5039   6.129   4.920   2.628
 1380SOL    HW2 5040   5.970   4.902   2.596
 1381SOL     OW 5041   4.212   6.997   2.582
 1381SOL    HW1 5042   4.231   6.909   2.537
 1381SOL    HW2 5043   4.284   7.016   2.649
 1382SOL     OW 5044   0.261   4.320   0.689
 1382SOL    HW1 5045   0.179   4.371   0.662
 1382SOL    HW2 5046   0.326   4.321   0.613
 1383SOL     OW 5047   2.625   0.106   0.602
 1383SOL    HW1 5048   2.715   0.069   0.623
 1383SOL    HW2 5049   2.605   0.184   0.663
 1384SOL     OW 5050   1.227   1.406   1.726
 1384SOL    HW1 5051   1.291   1.330   1.723
 1384SOL    HW2 5052   1.257   1.473   1.795
 1385SOL     OW 5053   4.916   3.522   4.073
 1385SOL    HW1 5054   4.935   3.601   4.014
 1385SOL    HW2 5055   4.825   3.485   4.052
 1386SOL     OW 5056   2.785   2.259   3.649
 1386SOL    HW1 5057   2.771   2.315   3.567
 1386SOL    HW2 5058   2.883   2.251   3.668
 1387SOL     OW 5059   3.498   0.759   3.772
 1387SOL    HW1 5060   3.449   0.698   3.709
 1387SOL    HW2 5061   3.439   0.780   3.850
 1388SOL     OW 5062   4.831   2.125   3.757
 1388SOL    HW1 5063   4.735   2.102   3.775
 1388SOL    HW2 5064   4.885   2.041   3.752
 1389SOL     OW 5065   6.325   0.394   3.867
 1389SOL    HW1 5066   6.342   0.455   3.944
 1389SOL    HW2 5067   6.234   0.411   3.830
 1390SOL     OW 5068   5.430   1.727   2.442
 1390SOL    HW1 5069   5.512   1.767   2.481
 1390SOL    HW2 5070   5.447   1.630   2.421
 1391SOL     OW 5071   5.496   0.845   5.206
 1391SOL    HW1 5072   5.426   0.916   5.219
 1391SOL    HW2 5073   5.511   0.796   5.292
 1392SOL     OW 5074   3.719   6.890   5.241
 1392SOL    HW1 5075   3.748   6.965   5.181
 1392SOL    HW2 5076   3.744   6.911   5.335
 1393SOL     OW 5077   5.131   0.315   6.926
 1393SOL    HW1 5078   5.032   0.319   6.915
 1393SOL    HW2 5079   5.173   0.392   6.877
 1394SOL     OW 5080   4.016   1.007   4.410
 1394SOL    HW1 5081   4.075   0.937   4.369
 1394SOL    HW2 5082   4.017   0.998   4.509
 1395SOL     OW 5083   0.673   4.878   2.409
 1395SOL    HW1 5084   0.684   4.780   2.397
 1395SOL    HW2 5085   0.703   4.904   2.501
 1396SOL     OW 5086   1.198   1.597   3.641
 1396SOL    HW1 5087   1.099   1.583   3.640
 1396SOL    HW2 5088   1.244   1.514   3.673
 1397SOL     OW 5089   2.551   4.290   5.663
 1397SOL    HW1 5090   2.606   4.302   5.745
 1397SOL    HW2 5091   2.603   4.237   5.595
 1398SOL     OW 5092   3.333   6.947   6.327
 1398SOL    HW1 5093   3.410   6.885   6.335
 1398SOL    HW2 5094   3.357   0.002   6.267
 1399SOL     OW 5095   3.580   0.126   6.944
 1399SOL    HW1 5096   3.544   0.102   0.012
 1399SOL    HW2 5097   3.672   0.088   6.934
 1400SOL     OW 5098   0.468   1.662   5.528
 1400SOL    HW1 5099   0.487   1.611   5.444
 1400SOL    HW2 5100   0.399   1.732   5.509
 1401SOL     OW 5101   4.531   0.199   2.189
 1401SOL    HW1 5102   4.450   0.236   2.144
 1401SOL    HW2 5103   4.508   0.169   2.281
 1402SOL     OW 5104   4.900   3.975   2.116
 1402SOL    HW1 5105   4.834   3.930   2.057
 1402SOL    HW2 5106   4.871   4.069   2.133
 1403SOL     OW 5107   3.183   3.077   6.914
 1403SOL    HW1 5108   3.276   3.103   6.941
 1403SOL    HW2 5109   3.161   3.122   6.827
 1404SOL     OW 5110   3.498   6.368   6.974
 1404SOL    HW1 5111   3.467   6.396   6.884
 1404SOL    HW2 5112   3.542   6.445   7.021
 1405SOL     OW 5113   1.309   4.329   6.566
 1405SOL    HW1 5114   1.327   4.231   6.557
 1405SOL    HW2 5115   1.280   4.366   6.478
 1406SOL     OW 5116   1.991   2.442   7.018
 1406SOL    HW1 5117   2.050   2.522   0.012
 1406SOL    HW2 5118   1.936   2.425   0.079
 1407SOL     OW 5119   6.870   2.718   1.551
 1407SOL    HW1 5120   6.808   2.787   1.590
 1407SOL    HW2 5121   6.955   2.763   1.523
 1408SOL     OW 5122   5.712   6.344   1.151
 1408SOL    HW1 5123   5.698   6.261   1.096
 1408SOL    HW2 5124   5.779   6.403   1.106
 1409SOL     OW 5125   5.699   2.046   5.873
 1409SOL    HW1 5126   5.706   1.972   5.806
 1409SOL    HW2 5127   5.740   2.129   5.836
 1410SOL     OW 5128   2.986   0.425   0.504
 1410SOL    HW1 5129   2.916   0.413   0.574
 1410SOL    HW2 5130   3.076   0.429   0.547
 1411SOL     OW 5131   3.064   6.781   0.119
 1411SOL    HW1 5132   3.092   6.703   0.176
 1411SOL    HW2 5133   3.133   6.798   0.049
 1412SOL     OW 5134   2.366   1.549   6.603
 1412SOL    HW1 5135   2.326   1.574   6.515
 1412SOL    HW2 5136   2.434   1.617   6.630
 1413SOL     OW 5137   2.520   1.577   4.846
 1413SOL    HW1 5138   2.496   1.492   4.798
 1413SOL    HW2 5139   2.466   1.583   4.931
 1414SOL     OW 5140   0.213   5.047   1.977
 1414SOL    HW1 5141   0.194   4.980   2.048
 1414SOL    HW2 5142   0.283   5.011   1.915
 1415SOL     OW 5143   3.703   1.823   5.298
 1415SOL    HW1 5144   3.764   1.845   5.374
 1415SOL    HW2 5145   3.611   1.804   5.334
 1416SOL     OW 5146   4.746   0.369   5.072
 1416SOL    HW1 5147   4.809   0.331   5.004
 1416SOL    HW2 5148   4.705   0.452   5.036
 1417SOL     OW 5149   3.823   3.762   4.435
 1417SOL    HW1 5150   3.884   3.790   4.509
 1417SOL    HW2 5151   3.855   3.802   4.349
 1418SOL     OW 5152   3.296   3.765   5.053
 1418SOL    HW1 5153   3.301   3.820   4.970
 1418SOL    HW2 5154   3.337   3.675   5.035
 1419SOL     OW 5155   0.312   5.357   1.725
 1419SOL    HW1 5156   0.390   5.311   1.767
 1419SOL    HW2 5157   0.344   5.422   1.657
 1420SOL     OW 5158   2.749   6.698   3.376
 1420SOL    HW1 5159   2.805   6.779   3.363
 1420SOL    HW2 5160   2.804   6.616   3.362
 1421SOL     OW 5161   1.874   5.135   0.508
 1421SOL    HW1 5162   1.961   5.109   0.467
 1421SOL    HW2 5163   1.888   5.213   0.569
 1422SOL     OW 5164   1.805   4.107   6.940
 1422SOL    HW1 5165   1.754   4.183   6.982
 1422SOL    HW2 5166   1.751   4.069   6.864
 1423SOL     OW 5167   4.696   1.182   4.586
 1423SOL    HW1 5168   4.761   1.224   4.523
 1423SOL    HW2 5169   4.672   1.091   4.552
 1424SOL     OW 5170   6.540   3.428   1.304
 1424SOL    HW1 5171   6.455   3.415   1.252
 1424SOL    HW2 5172   6.519   3.438   1.401
 1425SOL     OW 5173   5.860   6.136   3.351
 1425SOL    HW1 5174   5.799   6.210   3.325
 1425SOL    HW2 5175   5.826   6.092   3.434
 1426SOL     OW 5176   3.818   1.361   1.034
 1426SOL    HW1 5177   3.783   1.280   0.985
 1426SOL    HW2 5178   3.855   1.332   1.122
 1427SOL     OW 5179   1.083   1.115   4.070
 1427SOL    HW1 5180   1.169   1.150   4.106
 1427SOL    HW2 5181   1.097   1.025   4.030
 1428SOL     OW 5182   1.840   3.674   3.706
 1428SOL    HW1 5183   1.772   3.604   3.682
 1428SOL    HW2 5184   1.830   3.697   3.803
 1429SOL     OW 5185   6.331   0.602   1.430
 1429SOL    HW1 5186   6.256   0.610   1.364
 1429SOL    HW2 5187   6.412   0.648   1.393
 1430SOL     OW 5188   2.136   3.762   4.338
 1430SOL    HW1 5189   2.155   3.675   4.291
 1430SOL    HW2 5190   2.141   3.837   4.273
 1431SOL     OW 5191   3.428   2.047   0.776
 1431SOL    HW1 5192   3.496   2.113   0.807
 1431SOL    HW2 5193   3.407   1.983   0.850
 1432SOL     OW 5194   3.104   0.315   2.723
 1432SOL    HW1 5195   3.155   0.296   2.639
 1432SOL    HW2 5196   3.164   0.362   2.788
 1433SOL     OW 5197   3.003   1.895   4.396
 1433SOL    HW1 5198   2.970   1.845   4.477
 1433SOL    HW2 5199   3.021   1.990   4.421
 1434SOL     OW 5200   5.786   3.282   0.887
 1434SOL    HW1 5201   5.754   3.352   0.822
 1434SOL    HW2 5202   5.818   3.202   0.836
 1435SOL     OW 5203   0.205   6.211   4.374
 1435SOL    HW1 5204   0.300   6.180   4.373
 1435SOL    HW2 5205   0.146   6.138   4.338
 1436SOL     OW 5206   5.741   0.895   7.010
 1436SOL    HW1 5207   5.750   0.973   0.050
 1436SOL    HW2 5208   5.673   0.831   0.026
 1437SOL     OW 5209   4.303   0.876   0.394
 1437SOL    HW1 5210   4.336   0.794   0.442
 1437SOL    HW2 5211   4.244   0.928   0.455
 1438SOL     OW 5212   2.527   0.007   3.191
 1438SOL    HW1 5213   2.501   0.100   3.215
 1438SOL    HW2 5214   2.488   7.005   3.102
 1439SOL     OW 5215   6.837   5.298   4.982
 1439SOL    HW1 5216   6.838   5.383   5.035
 1439SOL    HW2 5217   6.756   5.244   5.005
 1440SOL     OW 5218   3.646   3.218   2.707
 1440SOL    HW1 5219   3.724   3.270   2.673
 1440SOL    HW2 5220   3.654   3.205   2.806
 1441SOL     OW 5221   0.561   2.111   6.150
 1441SOL    HW1 5222   0.563   2.034   6.214
 1441SOL    HW2 5223   0.533   2.194   6.198
 1442SOL     OW 5224   5.330   6.009   6.806
 1442SOL    HW1 5225   5.365   6.077   6.870
 1442SOL    HW2 5226   5.236   5.987   6.830
 1443SOL     OW 5227   1.667   3.127   4.029
 1443SOL    HW1 5228   1.731   3.190   3.987
 1443SOL    HW2 5229   1.593   3.107   3.966
 1444SOL     OW 5230   4.880   6.675   4.580
 1444SOL    HW1 5231   4.941   6.731   4.636
 1444SOL    HW2 5232   4.924   6.658   4.491
 1445SOL     OW 5233   6.802   2.361   6.901
 1445SOL    HW1 5234   6.718   2.397   6.942
 1445SOL    HW2 5235   6.780   2.282   6.844
 1446SOL     OW 5236   3.022   5.827   2.082
 1446SOL    HW1 5237   3.081   5.887   2.136
 1446SOL    HW2 5238   2.929   5.831   2.118
 1447SOL     OW 5239   6.796   0.954   4.845
 1447SOL    HW1 5240   6.849   1.006   4.912
 1447SOL    HW2 5241   6.839   0.865   4.830
 1448SOL     OW 5242   5.656   1.092   0.585
 1448SOL    HW1 5243   5.634   1.147   0.505
 1448SOL    HW2 5244   5.634   1.142   0.668
 1449SOL     OW 5245   4.700   5.452   0.399
 1449SOL    HW1 5246   4.637   5.389   0.445
 1449SOL    HW2 5247   4.759   5.400   0.337
 1450SOL     OW 5248   5.252   1.357   3.464
 1450SOL    HW1 5249   5.164   1.404   3.455
 1450SOL    HW2 5250   5.301   1.394   3.542
 1451SOL     OW 5251   0.660   6.940   2.399
 1451SOL    HW1 5252   0.752   6.946   2.438
 1451SOL    HW2 5253   0.604   6.879   2.455
 1452SOL     OW 5254   2.035   0.232   6.175
 1452SOL    HW1 5255   1.992   0.143   6.189
 1452SOL    HW2 5256   2.006   0.295   6.247
 1453SOL     OW 5257   6.118   4.192   4.408
 1453SOL    HW1 5258   6.160   4.172   4.320
 1453SOL    HW2 5259   6.185   4.237   4.468
 1454SOL     OW 5260   5.741   3.805   1.377
 1454SOL    HW1 5261   5.834   3.805   1.415
 1454SOL    HW2 5262   5.731   3.882   1.313
 1455SOL     OW 5263   2.077   1.962   1.768
 1455SOL    HW1 5264   1.993   2.009   1.795
 1455SOL    HW2 5265   2.064   1.920   1.678
 1456SOL     OW 5266   5.467   5.097   4.902
 1456SOL    HW1 5267   5.555   5.143   4.895
 1456SOL    HW2 5268   5.401   5.157   4.947
 1457SOL     OW 5269   1.999   1.165   4.895
 1457SOL    HW1 5270   2.026   1.261   4.902
 1457SOL    HW2 5271   2.036   1.126   4.811
 1458SOL     OW 5272   6.739   5.320   0.263
 1458SOL    HW1 5273   6.756   5.285   0.354
 1458SOL    HW2 5274   6.706   5.246   0.204
 1459SOL     OW 5275   2.928   0.115   1.795
 1459SOL    HW1 5276   2.955   0.210   1.780
 1459SOL    HW2 5277   2.981   0.054   1.735
 1460SOL     OW 5278   0.231   1.382   6.736
 1460SOL    HW1 5279   0.157   1.315   6.732
 1460SOL    HW2 5280   0.318   1.336   6.719
 1461SOL     OW 5281   4.682   4.226   2.705
 1461SOL    HW1 5282   4.696   4.221   2.804
 1461SOL    HW2 5283   4.624   4.304   2.683
 1462SOL     OW 5284   5.882   6.892   5.120
 1462SOL    HW1 5285   5.865   6.847   5.032
 1462SOL    HW2 5286   5.978   6.919   5.125
 1463SOL     OW 5287   1.041   2.060   5.616
 1463SOL    HW1 5288   1.061   2.135   5.678
 1463SOL    HW2 5289   1.010   1.980   5.668
 1464SOL     OW 5290   0.611   0.997   1.136
 1464SOL    HW1 5291   0.528   1.042   1.169
 1464SOL    HW2 5292   0.691   1.044   1.173
 1465SOL     OW 5293   1.846   1.220   3.913
 1465SOL    HW1 5294   1.771   1.154   3.912
 1465SOL    HW2 5295   1.873   1.241   3.819
 1466SOL     OW 5296   6.019   5.736   4.083
 1466SOL    HW1 5297   5.958   5.676   4.031
 1466SOL    HW2 5298   6.032   5.698   4.175
 1467SOL     OW 5299   0.088   4.134   4.732
 1467SOL    HW1 5300   0.064   4.037   4.733
 1467SOL    HW2 5301   0.139   4.156   4.816
 1468SOL     OW 5302   4.464   0.271   2.640
 1468SOL    HW1 5303   4.410   0.318   2.571
 1468SOL    HW2 5304   4.532   0.333   2.679
 1469SOL     OW 5305   6.778   0.524   2.331
 1469SOL    HW1 5306   6.874   0.500   2.344
 1469SOL    HW2 5307   6.721   0.442   2.339
 1470SOL     OW 5308   0.550   0.459   2.926
 1470SOL    HW1 5309   0.470   0.515   2.902
 1470SOL    HW2 5310   0.615   0.461   2.851
 1471SOL     OW 5311   6.157   1.366   1.095
 1471SOL    HW1 5312   6.170   1.425   1.174
 1471SOL    HW2 5313   6.246   1.342   1.055
 1472SOL     OW 5314   4.357   5.004   5.023
 1472SOL    HW1 5315   4.436   5.031   5.078
 1472SOL    HW2 5316   4.322   4.915   5.055
 1473SOL     OW 5317   0.231   3.046   4.094
 1473SOL    HW1 5318   0.293   3.062   4.018
 1473SOL    HW2 5319   0.156   2.987   4.065
 1474SOL     OW 5320   4.506   6.395   2.408
 1474SOL    HW1 5321   4.466   6.378   2.498
 1474SOL    HW2 5322   4.550   6.312   2.375
 1475SOL     OW 5323   6.051   6.544   2.882
 1475SOL    HW1 5324   6.129   6.487   2.908
 1475SOL    HW2 5325   6.011   6.510   2.797
 1476SOL     OW 5326   1.097   2.367   0.732
 1476SOL    HW1 5327   1.186   2.368   0.687
 1476SOL    HW2 5328   1.093   2.290   0.796
 1477SOL     OW 5329   2.405   6.361   4.733
 1477SOL    HW1 5330   2.313   6.389   4.707
 1477SOL    HW2 5331   2.400   6.284   4.796
 1478SOL     OW 5332   0.428   3.968   1.240
 1478SOL    HW1 5333   0.485   4.043   1.275
 1478SOL    HW2 5334   0.331   3.992   1.251
 1479SOL     OW 5335   1.619   5.199   6.810
 1479SOL    HW1 5336   1.631   5.148   6.724
 1479SOL    HW2 5337   1.589   5.136   6.882
 1480SOL     OW 5338   3.316   0.516   0.214
 1480SOL    HW1 5339   3.286   0.609   0.234
 1480SOL    HW2 5340   3.367   0.515   0.128
 1481SOL     OW 5341   0.372   3.616   0.647
 1481SOL    HW1 5342   0.374   3.520   0.675
 1481SOL    HW2 5343   0.424   3.671   0.713
 1482SOL     OW 5344   5.547   0.553   6.089
 1482SOL    HW1 5345   5.576   0.614   6.015
 1482SOL    HW2 5346   5.620   0.487   6.109
 1483SOL     OW 5347   0.305   2.864   0.584
 1483SOL    HW1 5348   0.236   2.809   0.537
 1483SOL    HW2 5349   0.274   2.883   0.677
 1484SOL     OW 5350   6.401   6.706   3.220
 1484SOL    HW1 5351   6.448   6.789   3.251
 1484SOL    HW2 5352   6.330   6.682   3.287
 1485SOL     OW 5353   5.345   3.588   4.339
 1485SOL    HW1 5354   5.306   3.573   4.248
 1485SOL    HW2 5355   5.387   3.503   4.371
 1486SOL     OW 5356   5.102   2.927   1.552
 1486SOL    HW1 5357   5.187   2.912   1.602
 1486SOL    HW2 5358   5.071   2.840   1.513
 1487SOL     OW 5359   0.638   6.907   5.505
 1487SOL    HW1 5360   0.617   6.818   5.464
 1487SOL    HW2 5361   0.579   6.922   5.584
 1488SOL     OW 5362   5.027   2.009   4.157
 1488SOL    HW1 5363   4.989   1.924   4.120
 1488SOL    HW2 5364   5.098   1.987   4.224
 1489SOL     OW 5365   3.290   4.961   4.901
 1489SOL    HW1 5366   3.318   4.884   4.844
 1489SOL    HW2 5367   3.340   4.959   4.987
 1490SOL     OW 5368   2.797   3.020   0.392
 1490SOL    HW1 5369   2.860   2.943   0.381
 1490SOL    HW2 5370   2.742   3.007   0.474
 1491SOL     OW 5371   0.892   2.063   3.888
 1491SOL    HW1 5372   0.948   1.990   3.928
 1491SOL    HW2 5373   0.795   2.042   3.902
 1492SOL     OW 5374   0.453   2.286   1.702
 1492SOL    HW1 5375   0.435   2.206   1.646
 1492SOL    HW2 5376   0.506   2.353   1.649
 1493SOL     OW 5377   6.483   3.001   5.158
 1493SOL    HW1 5378   6.528   3.024   5.072
 1493SOL    HW2 5379   6.535   2.930   5.205
 1494SOL     OW 5380   5.325   1.929   3.848
 1494SOL    HW1 5381   5.382   1.950   3.928
 1494SOL    HW2 5382   5.300   1.833   3.849
 1495SOL     OW 5383   1.659   4.026   1.621
 1495SOL    HW1 5384   1.632   3.972   1.541
 1495SOL    HW2 5385   1.759   4.034   1.622
 1496SOL     OW 5386   0.543   0.686   2.449
 1496SOL    HW1 5387   0.525   0.588   2.447
 1496SOL    HW2 5388   0.606   0.707   2.524
 1497SOL     OW 5389   5.694   4.991   5.840
 1497SOL    HW1 5390   5.701   4.893   5.855
 1497SOL    HW2 5391   5.705   5.039   5.927
 1498SOL     OW 5392   2.951   5.489   6.820
 1498SOL    HW1 5393   2.935   5.564   6.885
 1498SOL    HW2 5394   2.914   5.404   6.858
 1499SOL     OW 5395   1.390   4.313   4.175
 1499SOL    HW1 5396   1.424   4.223   4.146
 1499SOL    HW2 5397   1.373   4.369   4.094
 1500SOL     OW 5398   4.051   6.127   5.957
 1500SOL    HW1 5399   4.139   6.151   5.996
 1500SOL    HW2 5400   4.019   6.201   5.897
 1501SOL     OW 5401   3.428   0.422   1.194
 1501SOL    HW1 5402   3.527   0.433   1.203
 1501SOL    HW2 5403   3.382   0.501   1.235
 1502SOL     OW 5404   0.358   0.954   6.466
 1502SOL    HW1 5405   0.296   1.013   6.416
 1502SOL    HW2 5406   0.451   0.989   6.459
 1503SOL     OW 5407   3.730   3.808   5.159
 1503SOL    HW1 5408   3.801   3.796   5.229
 1503SOL    HW2 5409   3.752   3.888   5.103
 1504SOL     OW 5410   2.842   6.986   3.495
 1504SOL    HW1 5411   2.942   6.996   3.495
 1504SOL    HW2 5412   2.806   7.021   3.408
 1505SOL     OW 5413   5.284   6.755   2.974
 1505SOL    HW1 5414   5.247   6.815   3.045
 1505SOL    HW2 5415   5.349   6.691   3.015
 1506SOL     OW 5416   0.150   6.077   4.123
 1506SOL    HW1 5417   0.173   6.014   4.048
 1506SOL    HW2 5418   0.085   6.033   4.184
 1507SOL     OW 5419   2.088   1.730   0.078
 1507SOL    HW1 5420   2.050   1.802   0.021
 1507SOL    HW2 5421   2.111   1.767   0.168
 1508SOL     OW 5422   4.771   6.419   0.895
 1508SOL    HW1 5423   4.766   6.324   0.863
 1508SOL    HW2 5424   4.715   6.429   0.977
 1509SOL     OW 5425   5.453   1.560   6.785
 1509SOL    HW1 5426   5.537   1.507   6.790
 1509SOL    HW2 5427   5.377   1.506   6.821
 1510SOL     OW 5428   6.630   1.711   2.175
 1510SOL    HW1 5429   6.652   1.763   2.257
 1510SOL    HW2 5430   6.555   1.648   2.194
 1511SOL     OW 5431   0.426   3.169   0.468
 1511SOL    HW1 5432   0.420   3.071   0.488
 1511SOL    HW2 5433   0.519   3.190   0.437
 1512SOL     OW 5434   7.020   0.566   2.529
 1512SOL    HW1 5435   7.016   0.468   2.549
 1512SOL    HW2 5436   0.075   0.585   2.467
 1513SOL     OW 5437   2.100   0.900   2.815
 1513SOL    HW1 5438   2.138   0.973   2.758
 1513SOL    HW2 5439   2.127   0.811   2.778
 1514SOL     OW 5440   4.398   0.449   6.034
 1514SOL    HW1 5441   4.395   0.498   5.947
 1514SOL    HW2 5442   4.429   0.512   6.106
 1515SOL     OW 5443   5.930   5.286   5.905
 1515SOL    HW1 5444   5.975   5.371   5.877
 1515SOL    HW2 5445   5.832   5.302   5.916
 1516SOL     OW 5446   6.093   1.629   2.480
 1516SOL    HW1 5447   6.091   1.647   2.381
 1516SOL    HW2 5448   6.186   1.647   2.514
 1517SOL     OW 5449   3.677   5.207   1.932
 1517SOL    HW1 5450   3.748   5.159   1.881
 1517SOL    HW2 5451   3.711   5.297   1.959
 1518SOL     OW 5452   0.910   4.968   1.024
 1518SOL    HW1 5453   0.945   4.876   1.002
 1518SOL    HW2 5454   0.980   5.019   1.075
 1519SOL     OW 5455   0.414   4.585   1.264
 1519SOL    HW1 5456   0.431   4.602   1.166
 1519SOL    HW2 5457   0.419   4.672   1.313
 1520SOL     OW 5458   1.507   4.313   2.766
 1520SOL    HW1 5459   1.471   4.400   2.799
 1520SOL    HW2 5460   1.588   4.289   2.819
 1521SOL     OW 5461   2.408   5.970   5.307
 1521SOL    HW1 5462   2.499   5.935   5.331
 1521SOL    HW2 5463   2.344   5.894   5.297
 1522SOL     OW 5464   1.529   2.431   5.685
 1522SOL    HW1 5465   1.544   2.399   5.779
 1522SOL    HW2 5466   1.444   2.483   5.681
 1523SOL     OW 5467   5.694   0.759   1.736
 1523SOL    HW1 5468   5.651   0.772   1.647
 1523SOL    HW2 5469   5.653   0.680   1.782
 1524SOL     OW 5470   0.793   2.075   0.970
 1524SOL    HW1 5471   0.873   2.079   1.028
 1524SOL    HW2 5472   0.711   2.064   1.026
 1525SOL     OW 5473   4.950   0.952   5.038
 1525SOL    HW1 5474   4.998   0.866   5.023
 1525SOL    HW2 5475   4.889   0.944   5.116
 1526SOL     OW 5476   5.584   2.909   0.310
 1526SOL    HW1 5477   5.520   2.986   0.318
 1526SOL    HW2 5478   5.623   2.890   0.400
 1527SOL     OW 5479   2.563   0.515   5.184
 1527SOL    HW1 5480   2.573   0.451   5.108
 1527SOL    HW2 5481   2.477   0.497   5.232
 1528SOL     OW 5482   5.282   6.129   3.807
 1528SOL    HW1 5483   5.358   6.194   3.805
 1528SOL    HW2 5484   5.284   6.071   3.726
 1529SOL     OW 5485   1.673   6.680   5.349
 1529SOL    HW1 5486   1.607   6.673   5.424
 1529SOL    HW2 5487   1.761   6.641   5.378
 1530SOL     OW 5488   3.040   6.429   1.396
 1530SOL    HW1 5489   3.084   6.499   1.340
 1530SOL    HW2 5490   3.110   6.371   1.437
 1531SOL     OW 5491   5.882   1.290   6.511
 1531SOL    HW1 5492   5.911   1.380   6.478
 1531SOL    HW2 5493   5.785   1.277   6.491
 1532SOL     OW 5494   3.015   1.425   5.403
 1532SOL    HW1 5495   2.947   1.450   5.471
 1532SOL    HW2 5496   3.035   1.505   5.346
 1533SOL     OW 5497   4.710   3.428   0.666
 1533SOL    HW1 5498   4.619   3.403   0.631
 1533SOL    HW2 5499   4.763   3.472   0.594
 1534SOL     OW 5500   0.511   0.239   0.398
 1534SOL    HW1 5501   0.572   0.161   0.384
 1534SOL    HW2 5502   0.495   0.285   0.310
 1535SOL     OW 5503   5.218   4.136   4.444
 1535SOL    HW1 5504   5.176   4.154   4.533
 1535SOL    HW2 5505   5.275   4.054   4.450
 1536SOL     OW 5506   2.988   6.402   3.111
 1536SOL    HW1 5507   2.939   6.441   3.190
 1536SOL    HW2 5508   3.082   6.380   3.138
 1537SOL     OW 5509   1.749   5.818   4.168
 1537SOL    HW1 5510   1.684   5.846   4.238
 1537SOL    HW2 5511   1.703   5.761   4.100
 1538SOL     OW 5512   3.326   6.152   0.078
 1538SOL    HW1 5513   3.385   6.073   0.094
 1538SOL    HW2 5514   3.377   6.222   0.029
 1539SOL     OW 5515   2.558   6.611   2.267
 1539SOL    HW1 5516   2.540   6.517   2.296
 1539SOL    HW2 5517   2.628   6.651   2.326
 1540SOL     OW 5518   6.066   0.222   5.163
 1540SOL    HW1 5519   6.041   0.308   5.119
 1540SOL    HW2 5520   6.102   0.159   5.094
 1541SOL     OW 5521   5.411   2.168   1.821
 1541SOL    HW1 5522   5.318   2.205   1.821
 1541SOL    HW2 5523   5.470   2.226   1.765
 1542SOL     OW 5524   6.881   5.372   1.587
 1542SOL    HW1 5525   6.886   5.412   1.496
 1542SOL    HW2 5526   6.790   5.334   1.602
 1543SOL     OW 5527   3.426   3.261   2.957
 1543SOL    HW1 5528   3.469   3.309   2.881
 1543SOL    HW2 5529   3.438   3.163   2.945
 1544SOL     OW 5530   3.437   3.582   1.563
 1544SOL    HW1 5531   3.360   3.609   1.505
 1544SOL    HW2 5532   3.491   3.662   1.587
 1545SOL     OW 5533   0.510   6.670   5.458
 1545SOL    HW1 5534   0.420   6.711   5.443
 1545SOL    HW2 5535   0.533   6.610   5.382
 1546SOL     OW 5536   0.455   6.746   0.493
 1546SOL    HW1 5537   0.382   6.719   0.430
 1546SOL    HW2 5538   0.430   6.829   0.541
 1547SOL     OW 5539   2.837   6.069   0.332
 1547SOL    HW1 5540   2.927   6.078   0.290
 1547SOL    HW2 5541   2.845   6.022   0.420
 1548SOL     OW 5542   6.315   4.358   3.291
 1548SOL    HW1 5543   6.294   4.365   3.194
 1548SOL    HW2 5544   6.298   4.265   3.322
 1549SOL     OW 5545   5.896   1.897   1.132
 1549SOL    HW1 5546   5.919   1.923   1.038
 1549SOL    HW2 5547   5.972   1.846   1.173
 1550SOL     OW 5548   2.336   5.120   2.446
 1550SOL    HW1 5549   2.321   5.178   2.366
 1550SOL    HW2 5550   2.400   5.165   2.508
 1551SOL     OW 5551   1.125   2.403   1.733
 1551SOL    HW1 5552   1.038   2.451   1.744
 1551SOL    HW2 5553   1.143   2.387   1.636
 1552SOL     OW 5554   1.685   6.690   2.254
 1552SOL    HW1 5555   1.774   6.675   2.298
 1552SOL    HW2 5556   1.657   6.606   2.208
 1553SOL     OW 5557   5.819   1.789   5.473
 1553SOL    HW1 5558   5.767   1.813   5.554
 1553SOL    HW2 5559   5.854   1.695   5.481
 1554SOL     OW 5560   2.887   3.266   0.303
 1554SOL    HW1 5561   2.804   3.302   0.261
 1554SOL    HW2 5562   2.871   3.173   0.337
 1555SOL     OW 5563   4.760   1.389   1.055
 1555SOL    HW1 5564   4.708   1.421   1.134
 1555SOL    HW2 5565   4.854   1.424   1.060
 1556SOL     OW 5566   2.913   2.262   0.889
 1556SOL    HW1 5567   2.932   2.330   0.959
 1556SOL    HW2 5568   2.926   2.302   0.798
 1557SOL     OW 5569   2.467   2.422   1.492
 1557SOL    HW1 5570   2.447   2.466   1.579
 1557SOL    HW2 5571   2.545   2.360   1.503
 1558SOL     OW 5572   4.619   2.682   0.081
 1558SOL    HW1 5573   4.543   2.636   0.035
 1558SOL    HW2 5574   4.585   2.727   0.164
 1559SOL     OW 5575   2.481   6.603   3.594
 1559SOL    HW1 5576   2.531   6.668   3.651
 1559SOL    HW2 5577   2.544   6.531   3.562
 1560SOL     OW 5578   4.916   2.734   1.467
 1560SOL    HW1 5579   4.938   2.636   1.462
 1560SOL    HW2 5580   4.834   2.747   1.523
 1561SOL     OW 5581   6.254   6.432   0.654
 1561SOL    HW1 5582   6.273   6.353   0.596
 1561SOL    HW2 5583   6.340   6.473   0.684
 1562SOL     OW 5584   2.416   6.975   2.926
 1562SOL    HW1 5585   2.402   6.904   2.856
 1562SOL    HW2 5586   2.511   7.006   2.923
 1563SOL     OW 5587   2.317   4.248   3.784
 1563SOL    HW1 5588   2.219   4.234   3.798
 1563SOL    HW2 5589   2.352   4.310   3.853
 1564SOL     OW 5590   1.725   2.064   3.304
 1564SOL    HW1 5591   1.781   2.143   3.329
 1564SOL    HW2 5592   1.767   2.016   3.227
 1565SOL     OW 5593   5.443   1.671   5.435
 1565SOL    HW1 5594   5.481   1.748   5.385
 1565SOL    HW2 5595   5.454   1.587   5.382
 1566SOL     OW 5596   1.452   3.167   3.839
 1566SOL    HW1 5597   1.496   3.256   3.832
 1566SOL    HW2 5598   1.432   3.132   3.747
 1567SOL     OW 5599   5.338   0.484   4.698
 1567SOL    HW1 5600   5.357   0.581   4.715
 1567SOL    HW2 5601   5.339   0.434   4.785
 1568SOL     OW 5602   2.183   4.409   0.827
 1568SOL    HW1 5603   2.092   4.375   0.848
 1568SOL    HW2 5604   2.183   4.509   0.831
 1569SOL     OW 5605   2.163   1.154   2.387
 1569SOL    HW1 5606   2.141   1.250   2.405
 1569SOL    HW2 5607   2.186   1.142   2.291
 1570SOL     OW 5608   3.104   6.091   6.167
 1570SOL    HW1 5609   3.042   6.111   6.091
 1570SOL    HW2 5610   3.153   6.006   6.148
 1571SOL     OW 5611   0.865   1.100   5.011
 1571SOL    HW1 5612   0.921   1.183   5.002
 1571SOL    HW2 5613   0.769   1.125   5.013
 1572SOL     OW 5614   1.665   6.256   3.512
 1572SOL    HW1 5615   1.730   6.331   3.501
 1572SOL    HW2 5616   1.680   6.210   3.600
 1573SOL     OW 5617   5.466   5.981   0.337
 1573SOL    HW1 5618   5.448   5.964   0.434
 1573SOL    HW2 5619   5.562   5.962   0.317
 1574SOL     OW 5620   0.385   3.191   3.092
 1574SOL    HW1 5621   0.446   3.197   3.012
 1574SOL    HW2 5622   0.431   3.229   3.172
 1575SOL     OW 5623   6.790   2.299   0.229
 1575SOL    HW1 5624   6.793   2.200   0.244
 1575SOL    HW2 5625   6.716   2.320   0.166
 1576SOL     OW 5626   1.196   6.373   2.487
 1576SOL    HW1 5627   1.204   6.391   2.389
 1576SOL    HW2 5628   1.127   6.303   2.503
 1577SOL     OW 5629   4.492   5.862   3.691
 1577SOL    HW1 5630   4.403   5.823   3.712
 1577SOL    HW2 5631   4.496   5.957   3.722
 1578SOL     OW 5632   5.388   2.022   1.578
 1578SOL    HW1 5633   5.479   2.031   1.538
 1578SOL    HW2 5634   5.382   2.081   1.659
 1579SOL     OW 5635   1.511   3.390   2.310
 1579SOL    HW1 5636   1.421   3.384   2.267
 1579SOL    HW2 5637   1.502   3.380   2.409
 1580SOL     OW 5638   3.302   3.678   3.876
 1580SOL    HW1 5639   3.397   3.678   3.907
 1580SOL    HW2 5640   3.254   3.600   3.917
 1581SOL     OW 5641   4.970   4.245   5.417
 1581SOL    HW1 5642   4.981   4.164   5.475
 1581SOL    HW2 5643   5.059   4.273   5.382
 1582SOL     OW 5644   3.884   6.038   3.659
 1582SOL    HW1 5645   3.925   6.120   3.699
 1582SOL    HW2 5646   3.907   5.959   3.716
 1583SOL     OW 5647   0.528   5.671   4.687
 1583SOL    HW1 5648   0.593   5.605   4.726
 1583SOL    HW2 5649   0.449   5.622   4.652
 1584SOL     OW 5650   0.264   4.222   6.931
 1584SOL    HW1 5651   0.210   4.187   7.008
 1584SOL    HW2 5652   0.331   4.153   6.904
 1585SOL     OW 5653   4.605   6.157   4.197
 1585SOL    HW1 5654   4.696   6.179   4.235
 1585SOL    HW2 5655   4.556   6.242   4.177
 1586SOL     OW 5656   2.704   5.974   3.679
 1586SOL    HW1 5657   2.623   6.032   3.694
 1586SOL    HW2 5658   2.711   5.907   3.753
 1587SOL     OW 5659   3.977   0.122   6.879
 1587SOL    HW1 5660   3.967   0.108   6.978
 1587SOL    HW2 5661   3.908   0.069   6.830
 1588SOL     OW 5662   6.290   1.824   4.036
 1588SOL    HW1 5663   6.312   1.739   4.083
 1588SOL    HW2 5664   6.251   1.804   3.946
 1589SOL     OW 5665   6.983   1.517   4.056
 1589SOL    HW1 5666   0.011   1.560   3.980
 1589SOL    HW2 5667   6.900   1.570   4.076
 1590SOL     OW 5668   5.804   0.755   3.688
 1590SOL    HW1 5669   5.854   0.681   3.643
 1590SOL    HW2 5670   5.714   0.723   3.716
 1591SOL     OW 5671   0.130   5.414   0.861
 1591SOL    HW1 5672   0.067   5.378   0.793
 1591SOL    HW2 5673   0.224   5.391   0.835
 1592SOL     OW 5674   6.976   4.766   4.810
 1592SOL    HW1 5675   6.967   4.771   4.711
 1592SOL    HW2 5676   6.887   4.742   4.850
 1593SOL     OW 5677   3.678   5.241   1.456
 1593SOL    HW1 5678   3.723   5.330   1.459
 1593SOL    HW2 5679   3.732   5.175   1.508
 1594SOL     OW 5680   5.639   1.044   2.634
 1594SOL    HW1 5681   5.686   1.066   2.719
 1594SOL    HW2 5682   5.696   0.985   2.578
 1595SOL     OW 5683   0.086   3.942   0.555
 1595SOL    HW1 5684   0.174   3.966   0.515
 1595SOL    HW2 5685   0.049   4.021   0.604
 1596SOL     OW 5686   5.255   4.353   4.299
 1596SOL    HW1 5687   5.319   4.323   4.228
 1596SOL    HW2 5688   5.217   4.273   4.345
 1597SOL     OW 5689   4.056   6.995   1.175
 1597SOL    HW1 5690   4.065   6.990   1.274
 1597SOL    HW2 5691   3.990   6.927   1.143
 1598SOL     OW 5692   0.646   5.752   5.850
 1598SOL    HW1 5693   0.679   5.846   5.855
 1598SOL    HW2 5694   0.560   5.750   5.800
 1599SOL     OW 5695   5.271   5.052   4.213
 1599SOL    HW1 5696   5.246   5.089   4.123
 1599SOL    HW2 5697   5.371   5.042   4.218
 1600SOL     OW 5698   4.978   1.236   1.450
 1600SOL    HW1 5699   4.937   1.202   1.366
 1600SOL    HW2 5700   4.919   1.308   1.489
 1601SOL     OW 5701   6.220   0.650   4.899
 1601SOL    HW1 5702   6.253   0.635   4.806
 1601SOL    HW2 5703   6.206   0.748   4.914
 1602SOL     OW 5704   3.748   5.876   3.277
 1602SOL    HW1 5705   3.670   5.884   3.215
 1602SOL    HW2 5706   3.807   5.956   3.265
 1603SOL     OW 5707   3.187   5.359   1.646
 1603SOL    HW1 5708   3.123   5.350   1.722
 1603SOL    HW2 5709   3.225   5.268   1.624
 1604SOL     OW 5710   4.444   5.284   1.556
 1604SOL    HW1 5711   4.420   5.208   1.496
 1604SOL    HW2 5712   4.543   5.301   1.549
 1605SOL     OW 5713   4.511   5.010   0.246
 1605SOL    HW1 5714   4.446   5.078   0.214
 1605SOL    HW2 5715   4.512   5.010   0.346
 1606SOL     OW 5716   4.621   5.384   4.813
 1606SOL    HW1 5717   4.655   5.297   4.850
 1606SOL    HW2 5718   4.534   5.368   4.766
 1607SOL     OW 5719   4.666   4.247   3.931
 1607SOL    HW1 5720   4.696   4.210   4.019
 1607SOL    HW2 5721   4.630   4.339   3.945
 1608SOL     OW 5722   6.518   3.501   3.048
 1608SOL    HW1 5723   6.567   3.531   3.129
 1608SOL    HW2 5724   6.546   3.408   3.025
 1609SOL     OW 5725   1.366   0.355   0.829
 1609SOL    HW1 5726   1.408   0.445   0.815
 1609SOL    HW2 5727   1.342   0.345   0.926
 1610SOL     OW 5728   5.670   5.912   1.133
 1610SOL    HW1 5729   5.583   5.930   1.087
 1610SOL    HW2 5730   5.729   5.858   1.073
 1611SOL     OW 5731   0.033   4.368   6.824
 1611SOL    HW1 5732   0.117   4.330   6.863
 1611SOL    HW2 5733   0.014   4.325   6.736
 1612SOL     OW 5734   5.398   1.075   1.951
 1612SOL    HW1 5735   5.458   1.154   1.959
 1612SOL    HW2 5736   5.340   1.068   2.032
 1613SOL     OW 5737   0.472   6.130   2.636
 1613SOL    HW1 5738   0.398   6.154   2.698
 1613SOL    HW2 5739   0.438   6.067   2.566
 1614SOL     OW 5740   5.448   1.180   5.888
 1614SOL    HW1 5741   5.456   1.230   5.802
 1614SOL    HW2 5742   5.352   1.165   5.910
 1615SOL     OW 5743   6.308   3.256   6.006
 1615SOL    HW1 5744   6.362   3.297   5.933
 1615SOL    HW2 5745   6.363   3.186   6.052
 1616SOL     OW 5746   1.099   1.303   3.602
 1616SOL    HW1 5747   1.067   1.353   3.522
 1616SOL    HW2 5748   1.199   1.312   3.609
 1617SOL     OW 5749   0.276   5.905   4.417
 1617SOL    HW1 5750   0.289   5.997   4.380
 1617SOL    HW2 5751   0.262   5.910   4.515
 1618SOL     OW 5752   2.738   5.740   3.214
 1618SOL    HW1 5753   2.795   5.782   3.143
 1618SOL    HW2 5754   2.767   5.774   3.303
 1619SOL     OW 5755   0.974   3.707   6.132
 1619SOL    HW1 5756   0.951   3.729   6.227
 1619SOL    HW2 5757   1.008   3.613   6.126
 1620SOL     OW 5758   2.663   0.098   4.622
 1620SOL    HW1 5759   2.570   0.074   4.594
 1620SOL    HW2 5760   2.709   0.145   4.546
 1621SOL     OW 5761   5.761   4.746   1.063
 1621SOL    HW1 5762   5.684   4.797   1.101
 1621SOL    HW2 5763   5.812   4.805   1.001
 1622SOL     OW 5764   6.190   3.069   2.909
 1622SOL    HW1 5765   6.227   3.043   2.821
 1622SOL    HW2 5766   6.239   3.149   2.944
 1623SOL     OW 5767   0.369   2.248   4.165
 1623SOL    HW1 5768   0.467   2.247   4.145
 1623SOL    HW2 5769   0.355   2.224   4.261
 1624SOL     OW 5770   4.401   2.910   0.710
 1624SOL    HW1 5771   4.311   2.949   0.692
 1624SOL    HW2 5772   4.396   2.850   0.790
 1625SOL     OW 5773   1.122   6.373   0.283
 1625SOL    HW1 5774   1.051   6.390   0.215
 1625SOL    HW2 5775   1.086   6.311   0.354
 1626SOL     OW 5776   2.623   1.923   2.069
 1626SOL    HW1 5777   2.538   1.881   2.037
 1626SOL    HW2 5778   2.691   1.851   2.087
 1627SOL     OW 5779   4.586   1.442   6.221
 1627SOL    HW1 5780   4.643   1.446   6.139
 1627SOL    HW2 5781   4.618   1.368   6.280
 1628SOL     OW 5782   5.279   5.890   1.384
 1628SOL    HW1 5783   5.336   5.880   1.466
 1628SOL    HW2 5784   5.183   5.878   1.408
 1629SOL     OW 5785   1.443   6.437   3.181
 1629SOL    HW1 5786   1.392   6.357   3.214
 1629SOL    HW2 5787   1.386   6.487   3.115
 1630SOL     OW 5788   0.264   4.989   6.216
 1630SOL    HW1 5789   0.313   5.069   6.182
 1630SOL    HW2 5790   0.298   4.907   6.170
 1631SOL     OW 5791   5.146   4.376   0.127
 1631SOL    HW1 5792   5.244   4.390   0.111
 1631SOL    HW2 5793   5.095   4.456   0.095
 1632SOL     OW 5794   6.185   6.279   2.601
 1632SOL    HW1 5795   6.132   6.363   2.591
 1632SOL    HW2 5796   6.190   6.232   2.513
 1633SOL     OW 5797   6.687   3.952   4.562
 1633SOL    HW1 5798   6.735   3.994   4.639
 1633SOL    HW2 5799   6.754   3.905   4.504
 1634SOL     OW 5800   1.257   3.995   6.274
 1634SOL    HW1 5801   1.163   4.002   6.242
 1634SOL    HW2 5802   1.285   3.899   6.272
 1635SOL     OW 5803   2.678   1.115   4.343
 1635SOL    HW1 5804   2.637   1.036   4.387
 1635SOL    HW2 5805   2.657   1.198   4.394
 1636SOL     OW 5806   0.302   6.316   1.611
 1636SOL    HW1 5807   0.247   6.305   1.694
 1636SOL    HW2 5808   0.351   6.231   1.592
 1637SOL     OW 5809   1.127   1.136   2.006
 1637SOL    HW1 5810   1.059   1.203   1.977
 1637SOL    HW2 5811   1.216   1.180   2.018
 1638SOL     OW 5812   5.410   2.113   3.674
 1638SOL    HW1 5813   5.331   2.173   3.682
 1638SOL    HW2 5814   5.397   2.033   3.733
 1639SOL     OW 5815   5.248   2.338   1.283
 1639SOL    HW1 5816   5.279   2.243   1.284
 1639SOL    HW2 5817   5.148   2.340   1.282
 1640SOL     OW 5818   6.451   1.031   6.718
 1640SOL    HW1 5819   6.493   1.116   6.686
 1640SOL    HW2 5820   6.356   1.027   6.686
 1641SOL     OW 5821   5.558   1.551   2.701
 1641SOL    HW1 5822   5.550   1.455   2.674
 1641SOL    HW2 5823   5.648   1.567   2.741
 1642SOL     OW 5824   6.999   3.236   6.201
 1642SOL    HW1 5825   6.982   3.272   6.110
 1642SOL    HW2 5826   0.076   3.216   6.212
 1643SOL     OW 5827   2.321   5.381   4.418
 1643SOL    HW1 5828   2.234   5.342   4.387
 1643SOL    HW2 5829   2.303   5.459   4.478
 1644SOL     OW 5830   5.891   1.354   1.131
 1644SOL    HW1 5831   5.872   1.450   1.155
 1644SOL    HW2 5832   5.985   1.346   1.098
 1645SOL     OW 5833   2.191   0.977   4.036
 1645SOL    HW1 5834   2.104   0.937   4.062
 1645SOL    HW2 5835   2.175   1.054   3.973
 1646SOL     OW 5836   0.186   5.643   2.081
 1646SOL    HW1 5837   0.119   5.716   2.067
 1646SOL    HW2 5838   0.254   5.646   2.008
 1647SOL     OW 5839   6.488   3.538   5.256
 1647SOL    HW1 5840   6.457   3.511   5.347
 1647SOL    HW2 5841   6.496   3.457   5.198
 1648SOL     OW 5842   5.506   5.821   2.580
 1648SOL    HW1 5843   5.509   5.863   2.489
 1648SOL    HW2 5844   5.415   5.784   2.596
 1649SOL     OW 5845   4.052   0.857   3.059
 1649SOL    HW1 5846   4.114   0.932   3.039
 1649SOL    HW2 5847   3.972   0.892   3.108
 1650SOL     OW 5848   2.530   2.519   5.144
 1650SOL    HW1 5849   2.552   2.489   5.237
 1650SOL    HW2 5850   2.522   2.618   5.141
 1651SOL     OW 5851   1.671   2.103   4.152
 1651SOL    HW1 5852   1.716   2.147   4.075
 1651SOL    HW2 5853   1.576   2.082   4.128
 1652SOL     OW 5854   0.046   4.272   1.864
 1652SOL    HW1 5855   7.020   4.266   1.952
 1652SOL    HW2 5856   0.137   4.311   1.877
 1653SOL     OW 5857   6.264   4.173   1.897
 1653SOL    HW1 5858   6.305   4.083   1.911
 1653SOL    HW2 5859   6.292   4.234   1.971
 1654SOL     OW 5860   6.754   3.581   1.594
 1654SOL    HW1 5861   6.833   3.573   1.533
 1654SOL    HW2 5862   6.784   3.577   1.689
 1655SOL     OW 5863   6.894   0.494   6.058
 1655SOL    HW1 5864   6.924   0.511   6.152
 1655SOL    HW2 5865   6.973   0.469   6.002
 1656SOL     OW 5866   2.291   4.180   2.670
 1656SOL    HW1 5867   2.288   4.085   2.637
 1656SOL    HW2 5868   2.330   4.238   2.598
 1657SOL     OW 5869   0.322   1.367   5.962
 1657SOL    HW1 5870   0.311   1.270   5.945
 1657SOL    HW2 5871   0.258   1.419   5.905
 1658SOL     OW 5872   5.064   0.154   5.616
 1658SOL    HW1 5873   5.104   0.246   5.612
 1658SOL    HW2 5874   5.013   0.144   5.701
 1659SOL     OW 5875   2.937   0.676   6.493
 1659SOL    HW1 5876   2.846   0.635   6.490
 1659SOL    HW2 5877   2.955   0.723   6.406
 1660SOL     OW 5878   2.850   1.132   1.909
 1660SOL    HW1 5879   2.787   1.165   1.838
 1660SOL    HW2 5880   2.811   1.051   1.953
 1661SOL     OW 5881   4.769   4.919   3.284
 1661SOL    HW1 5882   4.858   4.910   3.241
 1661SOL    HW2 5883   4.759   4.849   3.355
 1662SOL     OW 5884   0.481   1.743   3.496
 1662SOL    HW1 5885   0.472   1.647   3.524
 1662SOL    HW2 5886   0.524   1.795   3.570
 1663SOL     OW 5887   5.970   3.971   0.994
 1663SOL    HW1 5888   5.988   4.070   0.997
 1663SOL    HW2 5889   6.047   3.922   1.035
 1664SOL     OW 5890   1.384   1.784   6.252
 1664SOL    HW1 5891   1.351   1.700   6.208
 1664SOL    HW2 5892   1.322   1.859   6.229
 1665SOL     OW 5893   1.563   3.985   0.166
 1665SOL    HW1 5894   1.610   3.968   0.253
 1665SOL    HW2 5895   1.586   4.077   0.133
 1666SOL     OW 5896   5.486   6.377   5.218
 1666SOL    HW1 5897   5.518   6.393   5.311
 1666SOL    HW2 5898   5.552   6.412   5.152
 1667SOL     OW 5899   6.686   4.947   1.425
 1667SOL    HW1 5900   6.750   4.871   1.418
 1667SOL    HW2 5901   6.706   5.015   1.355
 1668SOL     OW 5902   6.756   3.250   1.630
 1668SOL    HW1 5903   6.691   3.325   1.629
 1668SOL    HW2 5904   6.722   3.174   1.574
 1669SOL     OW 5905   6.243   2.708   5.407
 1669SOL    HW1 5906   6.147   2.732   5.399
 1669SOL    HW2 5907   6.296   2.788   5.435
 1670SOL     OW 5908   2.885   4.363   5.369
 1670SOL    HW1 5909   2.859   4.428   5.298
 1670SOL    HW2 5910   2.984   4.354   5.370
 1671SOL     OW 5911   6.195   2.311   0.719
 1671SOL    HW1 5912   6.212   2.219   0.754
 1671SOL    HW2 5913   6.177   2.373   0.795
 1672SOL     OW 5914   0.787   2.091   1.323
 1672SOL    HW1 5915   0.767   2.189   1.324
 1672SOL    HW2 5916   0.714   2.042   1.369
 1673SOL     OW 5917   0.903   0.560   5.938
 1673SOL    HW1 5918   0.843   0.482   5.955
 1673SOL    HW2 5919   0.917   0.611   6.023
 1674SOL     OW 5920   4.752   2.887   3.292
 1674SOL    HW1 5921   4.680   2.821   3.315
 1674SOL    HW2 5922   4.840   2.853   3.325
 1675SOL     OW 5923   5.240   0.844   1.864
 1675SOL    HW1 5924   5.188   0.872   1.783
 1675SOL    HW2 5925   5.287   0.923   1.903
 1676SOL     OW 5926   1.497   2.422   3.862
 1676SOL    HW1 5927   1.498   2.510   3.814
 1676SOL    HW2 5928   1.475   2.436   3.958
 1677SOL     OW 5929   3.295   3.904   2.122
 1677SOL    HW1 5930   3.384   3.945   2.140
 1677SOL    HW2 5931   3.307   3.809   2.094
 1678SOL     OW 5932   0.055   6.932   0.264
 1678SOL    HW1 5933   0.050   6.989   0.182
 1678SOL    HW2 5934   0.119   6.973   0.330
 1679SOL     OW 5935   5.935   2.008   0.486
 1679SOL    HW1 5936   5.954   2.013   0.388
 1679SOL    HW2 5937   5.922   2.100   0.522
 1680SOL     OW 5938   5.626   2.463   3.434
 1680SOL    HW1 5939   5.569   2.449   3.353
 1680SOL    HW2 5940   5.589   2.541   3.486
 1681SOL     OW 5941   3.943   6.086   4.027
 1681SOL    HW1 5942   3.987   6.074   4.115
 1681SOL    HW2 5943   3.852   6.127   4.040
 1682SOL     OW 5944   3.926   1.512   5.373
 1682SOL    HW1 5945   3.830   1.511   5.345
 1682SOL    HW2 5946   3.933   1.544   5.467
 1683SOL     OW 5947   0.913   3.557   3.078
 1683SOL    HW1 5948   0.918   3.656   3.065
 1683SOL    HW2 5949   0.827   3.522   3.041
 1684SOL     OW 5950   3.157   5.378   1.226
 1684SOL    HW1 5951   3.113   5.389   1.315
 1684SOL    HW2 5952   3.119   5.445   1.162
 1685SOL     OW 5953   0.174   2.149   5.847
 1685SOL    HW1 5954   0.117   2.104   5.917
 1685SOL    HW2 5955   0.234   2.082   5.805
 1686SOL     OW 5956   3.399   5.201   1.358
 1686SOL    HW1 5957   3.489   5.227   1.395
 1686SOL    HW2 5958   3.401   5.104   1.335
 1687SOL     OW 5959   4.728   4.104   0.360
 1687SOL    HW1 5960   4.661   4.162   0.406
 1687SOL    HW2 5961   4.761   4.151   0.278
 1688SOL     OW 5962   3.208   0.369   3.017
 1688SOL    HW1 5963   3.291   0.415   2.986
 1688SOL    HW2 5964   3.195   0.387   3.115
 1689SOL     OW 5965   4.104   0.588   1.834
 1689SOL    HW1 5966   4.049   0.610   1.754
 1689SOL    HW2 5967   4.198   0.568   1.806
 1690SOL     OW 5968   0.111   4.465   4.428
 1690SOL    HW1 5969   0.095   4.551   4.477
 1690SOL    HW2 5970   0.133   4.393   4.494
 1691SOL     OW 5971   4.009   2.667   5.355
 1691SOL    HW1 5972   4.068   2.706   5.426
 1691SOL    HW2 5973   4.066   2.629   5.282
 1692SOL     OW 5974   6.316   5.434   2.233
 1692SOL    HW1 5975   6.395   5.483   2.269
 1692SOL    HW2 5976   6.312   5.445   2.134
 1693SOL     OW 5977   5.712   7.019   5.276
 1693SOL    HW1 5978   5.745   6.976   5.192
 1693SOL    HW2 5979   5.757   0.086   5.288
 1694SOL     OW 5980   4.928   1.168   6.534
 1694SOL    HW1 5981   4.923   1.167   6.634
 1694SOL    HW2 5982   5.020   1.196   6.505
 1695SOL     OW 5983   4.779   6.976   4.914
 1695SOL    HW1 5984   4.860   6.920   4.899
 1695SOL    HW2 5985   4.803   0.034   4.969
 1696SOL     OW 5986   5.204   6.883   1.102
 1696SOL    HW1 5987   5.186   6.852   1.196
 1696SOL    HW2 5988   5.151   6.827   1.038
 1697SOL     OW 5989   4.130   3.428   1.737
 1697SOL    HW1 5990   4.064   3.464   1.804
 1697SOL    HW2 5991   4.109   3.332   1.719
 1698SOL     OW 5992   4.813   1.418   1.534
 1698SOL    HW1 5993   4.750   1.350   1.497
 1698SOL    HW2 5994   4.798   1.427   1.633
 1699SOL     OW 5995   1.775   0.769   0.993
 1699SOL    HW1 5996   1.831   0.802   1.069
 1699SOL    HW2 5997   1.718   0.693   1.024
 1700SOL     OW 5998   5.950   2.926   2.794
 1700SOL    HW1 5999   5.912   2.835   2.777
 1700SOL    HW2 6000   6.049   2.918   2.808
 1701SOL     OW 6001   1.278   5.310   5.386
 1701SOL    HW1 6002   1.259   5.265   5.474
 1701SOL    HW2 6003   1.192   5.326   5.338
 1702SOL     OW 6004   2.229   2.110   0.102
 1702SOL    HW1 6005   2.271   2.027   0.063
 1702SOL    HW2 6006   2.301   2.169   0.138
 1703SOL     OW 6007   1.430   2.335   1.821
 1703SOL    HW1 6008   1.476   2.246   1.819
 1703SOL    HW2 6009   1.379   2.344   1.906
 1704SOL     OW 6010   3.096   3.156   6.656
 1704SOL    HW1 6011   3.106   3.073   6.602
 1704SOL    HW2 6012   3.053   3.227   6.601
 1705SOL     OW 6013   5.620   2.904   1.044
 1705SOL    HW1 6014   5.675   2.834   0.997
 1705SOL    HW2 6015   5.572   2.862   1.120
 1706SOL     OW 6016   5.446   0.679   5.568
 1706SOL    HW1 6017   5.446   0.778   5.585
 1706SOL    HW2 6018   5.381   0.634   5.629
 1707SOL     OW 6019   3.418   1.350   2.334
 1707SOL    HW1 6020   3.416   1.257   2.296
 1707SOL    HW2 6021   3.499   1.361   2.391
 1708SOL     OW 6022   2.590   4.793   1.916
 1708SOL    HW1 6023   2.644   4.735   1.977
 1708SOL    HW2 6024   2.652   4.847   1.859
 1709SOL     OW 6025   5.518   5.125   1.775
 1709SOL    HW1 6026   5.457   5.203   1.760
 1709SOL    HW2 6027   5.465   5.040   1.772
 1710SOL     OW 6028   4.714   2.768   2.020
 1710SOL    HW1 6029   4.717   2.743   2.116
 1710SOL    HW2 6030   4.720   2.868   2.012
 1711SOL     OW 6031   4.469   5.321   6.964
 1711SOL    HW1 6032   4.434   5.276   0.025
 1711SOL    HW2 6033   4.539   5.263   6.922
 1712SOL     OW 6034   0.306   2.265   1.921
 1712SOL    HW1 6035   0.302   2.362   1.948
 1712SOL    HW2 6036   0.369   2.255   1.844
 1713SOL     OW 6037   3.143   1.351   2.327
 1713SOL    HW1 6038   3.240   1.365   2.345
 1713SOL    HW2 6039   3.125   1.359   2.229
 1714SOL     OW 6040   2.941   4.827   1.295
 1714SOL    HW1 6041   2.941   4.825   1.195
 1714SOL    HW2 6042   3.005   4.898   1.326
 1715SOL     OW 6043   1.632   6.058   0.941
 1715SOL    HW1 6044   1.628   6.055   0.841
 1715SOL    HW2 6045   1.550   6.015   0.978
 1716SOL     OW 6046   5.120   1.747   2.994
 1716SOL    HW1 6047   5.195   1.726   2.931
 1716SOL    HW2 6048   5.128   1.842   3.024
 1717SOL     OW 6049   3.364   6.518   4.003
 1717SOL    HW1 6050   3.290   6.494   3.940
 1717SOL    HW2 6051   3.363   6.456   4.081
 1718SOL     OW 6052   1.697   3.931   1.883
 1718SOL    HW1 6053   1.780   3.878   1.866
 1718SOL    HW2 6054   1.659   3.963   1.797
 1719SOL     OW 6055   1.591   4.728   3.635
 1719SOL    HW1 6056   1.683   4.729   3.596
 1719SOL    HW2 6057   1.585   4.793   3.710
 1720SOL     OW 6058   1.276   3.021   5.502
 1720SOL    HW1 6059   1.341   2.993   5.431
 1720SOL    HW2 6060   1.283   2.960   5.580
 1721SOL     OW 6061   2.258   2.514   0.360
 1721SOL    HW1 6062   2.293   2.605   0.383
 1721SOL    HW2 6063   2.234   2.465   0.444
 1722SOL     OW 6064   3.500   2.089   2.886
 1722SOL    HW1 6065   3.576   2.048   2.937
 1722SOL    HW2 6066   3.526   2.097   2.790
 1723SOL     OW 6067   6.278   4.991   1.690
 1723SOL    HW1 6068   6.265   5.075   1.637
 1723SOL    HW2 6069   6.191   4.942   1.697
 1724SOL     OW 6070   6.063   3.747   1.303
 1724SOL    HW1 6071   6.006   3.712   1.229
 1724SOL    HW2 6072   6.042   3.844   1.319
 1725SOL     OW 6073   1.158   6.521   5.023
 1725SOL    HW1 6074   1.073   6.473   5.003
 1725SOL    HW2 6075   1.235   6.458   5.015
 1726SOL     OW 6076   5.047   4.573   3.345
 1726SOL    HW1 6077   5.134   4.611   3.375
 1726SOL    HW2 6078   5.061   4.517   3.264
 1727SOL     OW 6079   2.859   3.515   4.120
 1727SOL    HW1 6080   2.874   3.540   4.215
 1727SOL    HW2 6081   2.877   3.417   4.108
 1728SOL     OW 6082   5.532   2.101   4.807
 1728SOL    HW1 6083   5.474   2.174   4.843
 1728SOL    HW2 6084   5.592   2.068   4.879
 1729SOL     OW 6085   1.522   3.571   3.056
 1729SOL    HW1 6086   1.425   3.564   3.075
 1729SOL    HW2 6087   1.569   3.613   3.133
 1730SOL     OW 6088   2.445   0.974   4.737
 1730SOL    HW1 6089   2.543   0.991   4.747
 1730SOL    HW2 6090   2.407   0.944   4.825
 1731SOL     OW 6091   6.057   4.395   3.514
 1731SOL    HW1 6092   6.142   4.367   3.556
 1731SOL    HW2 6093   6.062   4.492   3.490
 1732SOL     OW 6094   4.145   3.466   5.352
 1732SOL    HW1 6095   4.161   3.523   5.432
 1732SOL    HW2 6096   4.212   3.489   5.281
 1733SOL     OW 6097   1.309   1.701   0.135
 1733SOL    HW1 6098   1.259   1.668   0.055
 1733SOL    HW2 6099   1.358   1.625   0.177
 1734SOL     OW 6100   0.917   4.293   2.010
 1734SOL    HW1 6101   0.925   4.284   1.910
 1734SOL    HW2 6102   0.886   4.206   2.048
 1735SOL     OW 6103   3.312   5.430   5.812
 1735SOL    HW1 6104   3.253   5.489   5.756
 1735SOL    HW2 6105   3.405   5.430   5.775
 1736SOL     OW 6106   4.484   1.874   5.516
 1736SOL    HW1 6107   4.533   1.837   5.595
 1736SOL    HW2 6108   4.549   1.920   5.456
 1737SOL     OW 6109   2.410   0.872   6.847
 1737SOL    HW1 6110   2.414   0.967   6.817
 1737SOL    HW2 6111   2.496   0.827   6.828
 1738SOL     OW 6112   1.138   4.050   2.064
 1738SOL    HW1 6113   1.231   4.020   2.046
 1738SOL    HW2 6114   1.133   4.094   2.154
 1739SOL     OW 6115   4.536   5.568   2.378
 1739SOL    HW1 6116   4.563   5.478   2.343
 1739SOL    HW2 6117   4.560   5.638   2.311
 1740SOL     OW 6118   6.357   2.519   4.531
 1740SOL    HW1 6119   6.419   2.579   4.480
 1740SOL    HW2 6120   6.379   2.523   4.628
 1741SOL     OW 6121   1.245   2.817   4.409
 1741SOL    HW1 6122   1.336   2.858   4.416
 1741SOL    HW2 6123   1.239   2.765   4.323
 1742SOL     OW 6124   5.804   7.000   0.026
 1742SOL    HW1 6125   5.827   0.045   0.098
 1742SOL    HW2 6126   5.755   0.025   6.973
 1743SOL     OW 6127   1.052   2.003   1.559
 1743SOL    HW1 6128   1.058   2.038   1.466
 1743SOL    HW2 6129   0.958   2.007   1.591
 1744SOL     OW 6130   3.306   1.894   5.601
 1744SOL    HW1 6131   3.281   1.990   5.615
 1744SOL    HW2 6132   3.301   1.845   5.688
 1745SOL     OW 6133   6.470   6.516   0.963
 1745SOL    HW1 6134   6.380   6.561   0.967
 1745SOL    HW2 6135   6.483   6.463   1.046
 1746SOL     OW 6136   2.267   5.180   2.820
 1746SOL    HW1 6137   2.225   5.110   2.762
 1746SOL    HW2 6138   2.230   5.173   2.912
 1747SOL     OW 6139   2.768   6.934   1.961
 1747SOL    HW1 6140   2.831   6.970   1.891
 1747SOL    HW2 6141   2.781   6.984   2.046
 1748SOL     OW 6142   0.166   1.533   3.318
 1748SOL    HW1 6143   0.233   1.461   3.299
 1748SOL    HW2 6144   0.126   1.519   3.409
 1749SOL     OW 6145   6.654   5.389   2.490
 1749SOL    HW1 6146   6.685   5.433   2.574
 1749SOL    HW2 6147   6.734   5.357   2.438
 1750SOL     OW 6148   2.348   1.343   1.319
 1750SOL    HW1 6149   2.296   1.271   1.271
 1750SOL    HW2 6150   2.426   1.301   1.366
 1751SOL     OW 6151   6.251   4.648   4.711
 1751SOL    HW1 6152   6.203   4.568   4.748
 1751SOL    HW2 6153   6.189   4.701   4.653
 1752SOL     OW 6154   6.114   0.454   2.914
 1752SOL    HW1 6155   6.135   0.470   3.011
 1752SOL    HW2 6156   6.055   0.374   2.905
 1753SOL     OW 6157   6.626   1.577   0.976
 1753SOL    HW1 6158   6.559   1.645   1.004
 1753SOL    HW2 6159   6.589   1.523   0.900
 1754SOL     OW 6160   2.134   4.742   3.770
 1754SOL    HW1 6161   2.183   4.823   3.739
 1754SOL    HW2 6162   2.198   4.667   3.784
 1755SOL     OW 6163   5.974   6.434   5.223
 1755SOL    HW1 6164   5.952   6.450   5.320
 1755SOL    HW2 6165   5.903   6.378   5.182
 1756SOL     OW 6166   4.539   5.781   1.446
 1756SOL    HW1 6167   4.576   5.704   1.497
 1756SOL    HW2 6168   4.471   5.829   1.502
 1757SOL     OW 6169   2.866   5.053   4.816
 1757SOL    HW1 6170   2.890   4.959   4.791
 1757SOL    HW2 6171   2.925   5.117   4.768
 1758SOL     OW 6172   0.498   6.265   3.873
 1758SOL    HW1 6173   0.439   6.187   3.851
 1758SOL    HW2 6174   0.467   6.307   3.959
 1759SOL     OW 6175   1.508   5.490   6.178
 1759SOL    HW1 6176   1.450   5.503   6.259
 1759SOL    HW2 6177   1.583   5.427   6.201
 1760SOL     OW 6178   5.964   1.328   4.232
 1760SOL    HW1 6179   5.889   1.319   4.167
 1760SOL    HW2 6180   5.930   1.370   4.316
 1761SOL     OW 6181   5.319   2.484   4.090
 1761SOL    HW1 6182   5.335   2.427   4.171
 1761SOL    HW2 6183   5.224   2.473   4.061
 1762SOL     OW 6184   0.777   1.647   5.917
 1762SOL    HW1 6185   0.743   1.598   5.837
 1762SOL    HW2 6186   0.711   1.716   5.945
 1763SOL     OW 6187   1.776   5.029   3.863
 1763SOL    HW1 6188   1.684   5.016   3.900
 1763SOL    HW2 6189   1.803   4.948   3.811
 1764SOL     OW 6190   0.559   5.364   3.415
 1764SOL    HW1 6191   0.559   5.329   3.509
 1764SOL    HW2 6192   0.497   5.443   3.410
 1765SOL     OW 6193   5.356   3.847   2.055
 1765SOL    HW1 6194   5.261   3.873   2.036
 1765SOL    HW2 6195   5.371   3.847   2.154
 1766SOL     OW 6196   4.188   4.969   3.790
 1766SOL    HW1 6197   4.231   4.889   3.832
 1766SOL    HW2 6198   4.097   4.944   3.755
 1767SOL     OW 6199   1.988   4.461   1.594
 1767SOL    HW1 6200   2.007   4.558   1.578
 1767SOL    HW2 6201   2.022   4.435   1.685
 1768SOL     OW 6202   3.359   5.108   2.796
 1768SOL    HW1 6203   3.269   5.069   2.812
 1768SOL    HW2 6204   3.376   5.182   2.862
 1769SOL     OW 6205   5.287   0.272   0.782
 1769SOL    HW1 6206   5.320   0.235   0.869
 1769SOL    HW2 6207   5.326   0.218   0.707
 1770SOL     OW 6208   2.673   4.682   0.586
 1770SOL    HW1 6209   2.732   4.758   0.612
 1770SOL    HW2 6210   2.627   4.703   0.499
 1771SOL     OW 6211   1.354   3.072   5.934
 1771SOL    HW1 6212   1.272   3.016   5.943
 1771SOL    HW2 6213   1.434   3.013   5.922
 1772SOL     OW 6214   3.071   5.419   2.293
 1772SOL    HW1 6215   3.030   5.329   2.282
 1772SOL    HW2 6216   3.167   5.409   2.318
 1773SOL     OW 6217   2.152   6.361   4.602
 1773SOL    HW1 6218   2.085   6.297   4.641
 1773SOL    HW2 6219   2.179   6.329   4.511
 1774SOL     OW 6220   5.624   5.510   1.521
 1774SOL    HW1 6221   5.660   5.562   1.444
 1774SOL    HW2 6222   5.567   5.435   1.487
 1775SOL     OW 6223   1.823   6.863   0.954
 1775SOL    HW1 6224   1.910   6.853   0.906
 1775SOL    HW2 6225   1.768   6.780   0.941
 1776SOL     OW 6226   4.831   3.351   6.150
 1776SOL    HW1 6227   4.839   3.356   6.050
 1776SOL    HW2 6228   4.816   3.443   6.186
 1777SOL     OW 6229   4.852   4.849   6.665
 1777SOL    HW1 6230   4.806   4.924   6.619
 1777SOL    HW2 6231   4.913   4.885   6.736
 1778SOL     OW 6232   6.937   0.538   3.295
 1778SOL    HW1 6233   6.928   0.631   3.330
 1778SOL    HW2 6234   7.006   0.535   3.223
 1779SOL     OW 6235   6.734   7.012   4.501
 1779SOL    HW1 6236   6.737   7.014   4.601
 1779SOL    HW2 6237   6.651   0.037   4.468
 1780SOL     OW 6238   2.735   6.781   4.536
 1780SOL    HW1 6239   2.764   6.827   4.620
 1780SOL    HW2 6240   2.673   6.840   4.485
 1781SOL     OW 6241   4.918   1.260   6.136
 1781SOL    HW1 6242   4.956   1.339   6.088
 1781SOL    HW2 6243   4.838   1.289   6.189
 1782SOL     OW 6244   5.286   0.605   2.579
 1782SOL    HW1 6245   5.200   0.652   2.559
 1782SOL    HW2 6246   5.306   0.612   2.677
 1783SOL     OW 6247   1.796   3.245   0.271
 1783SOL    HW1 6248   1.785   3.336   0.230
 1783SOL    HW2 6249   1.834   3.182   0.203
 1784SOL     OW 6250   2.331   5.707   1.522
 1784SOL    HW1 6251   2.326   5.763   1.439
 1784SOL    HW2 6252   2.375   5.760   1.595
 1785SOL     OW 6253   2.077   5.296   4.496
 1785SOL    HW1 6254   1.993   5.318   4.446
 1785SOL    HW2 6255   2.103   5.201   4.479
 1786SOL     OW 6256   0.573   5.655   2.213
 1786SOL    HW1 6257   0.560   5.590   2.138
 1786SOL    HW2 6258   0.644   5.622   2.275
 1787SOL     OW 6259   2.680   2.602   6.166
 1787SOL    HW1 6260   2.699   2.504   6.168
 1787SOL    HW2 6261   2.671   2.632   6.071
 1788SOL     OW 6262   3.909   4.279   0.553
 1788SOL    HW1 6263   3.892   4.245   0.461
 1788SOL    HW2 6264   3.840   4.244   0.616
 1789SOL     OW 6265   5.716   2.750   2.894
 1789SOL    HW1 6266   5.675   2.693   2.822
 1789SOL    HW2 6267   5.706   2.847   2.870
 1790SOL     OW 6268   2.535   1.997   4.959
 1790SOL    HW1 6269   2.568   2.079   5.004
 1790SOL    HW2 6270   2.437   2.006   4.940
 1791SOL     OW 6271   6.109   0.551   3.179
 1791SOL    HW1 6272   6.180   0.567   3.248
 1791SOL    HW2 6273   6.051   0.632   3.170
 1792SOL     OW 6274   0.009   3.208   5.831
 1792SOL    HW1 6275   6.985   3.173   5.749
 1792SOL    HW2 6276   7.002   3.154   5.910
 1793SOL     OW 6277   0.790   1.612   4.929
 1793SOL    HW1 6278   0.690   1.608   4.936
 1793SOL    HW2 6279   0.830   1.609   5.020
 1794SOL     OW 6280   6.423   1.715   6.401
 1794SOL    HW1 6281   6.510   1.707   6.450
 1794SOL    HW2 6282   6.436   1.690   6.305
 1795SOL     OW 6283   5.866   4.539   0.730
 1795SOL    HW1 6284   5.892   4.450   0.692
 1795SOL    HW2 6285   5.896   4.544   0.825
 1796SOL     OW 6286   6.099   0.167   6.754
 1796SOL    HW1 6287   6.135   0.083   6.793
 1796SOL    HW2 6288   6.061   0.224   6.827
 1797SOL     OW 6289   3.208   6.157   5.847
 1797SOL    HW1 6290   3.202   6.257   5.839
 1797SOL    HW2 6291   3.116   6.119   5.852
 1798SOL     OW 6292   2.393   3.994   6.864
 1798SOL    HW1 6293   2.411   4.036   6.775
 1798SOL    HW2 6294   2.316   3.931   6.857
 1799SOL     OW 6295   3.485   1.644   1.906
 1799SOL    HW1 6296   3.392   1.608   1.901
 1799SOL    HW2 6297   3.536   1.617   1.824
 1800SOL     OW 6298   5.888   2.077   5.621
 1800SOL    HW1 6299   5.897   1.979   5.635
 1800SOL    HW2 6300   5.968   2.124   5.659
 1801SOL     OW 6301   0.875   2.003   1.976
 1801SOL    HW1 6302   0.945   1.931   1.965
 1801SOL    HW2 6303   0.785   1.960   1.981
 1802SOL     OW 6304   6.377   4.859   4.838
 1802SOL    HW1 6305   6.350   4.778   4.786
 1802SOL    HW2 6306   6.398   4.934   4.775
 1803SOL     OW 6307   6.829   6.806   3.675
 1803SOL    HW1 6308   6.800   6.784   3.583
 1803SOL    HW2 6309   6.750   6.811   3.736
 1804SOL     OW 6310   1.023   3.192   6.138
 1804SOL    HW1 6311   0.983   3.182   6.229
 1804SOL    HW2 6312   1.118   3.222   6.147
 1805SOL     OW 6313   6.420   4.752   5.954
 1805SOL    HW1 6314   6.503   4.794   5.916
 1805SOL    HW2 6315   6.348   4.751   5.885
 1806SOL     OW 6316   0.360   1.095   1.245
 1806SOL    HW1 6317   0.346   1.099   1.344
 1806SOL    HW2 6318   0.280   1.055   1.202
 1807SOL     OW 6319   6.274   2.367   2.245
 1807SOL    HW1 6320   6.250   2.443   2.305
 1807SOL    HW2 6321   6.204   2.296   2.252
 1808SOL     OW 6322   6.508   0.429   0.042
 1808SOL    HW1 6323   6.464   0.388   6.984
 1808SOL    HW2 6324   6.548   0.357   0.099
 1809SOL     OW 6325   4.292   0.498   4.764
 1809SOL    HW1 6326   4.363   0.523   4.697
 1809SOL    HW2 6327   4.303   0.554   4.846
 1810SOL     OW 6328   1.140   1.558   5.022
 1810SOL    HW1 6329   1.169   1.614   4.945
 1810SOL    HW2 6330   1.219   1.536   5.080
 1811SOL     OW 6331   3.459   5.465   1.714
 1811SOL    HW1 6332   3.359   5.454   1.713
 1811SOL    HW2 6333   3.502   5.375   1.721
 1812SOL     OW 6334   4.166   0.950   6.738
 1812SOL    HW1 6335   4.219   0.957   6.823
 1812SOL    HW2 6336   4.071   0.930   6.759
 1813SOL     OW 6337   5.731   3.670   1.726
 1813SOL    HW1 6338   5.685   3.582   1.730
 1813SOL    HW2 6339   5.793   3.672   1.647
 1814SOL     OW 6340   6.446   5.595   1.065
 1814SOL    HW1 6341   6.520   5.638   1.013
 1814SOL    HW2 6342   6.441   5.636   1.156
 1815SOL     OW 6343   5.994   5.217   1.413
 1815SOL    HW1 6344   5.948   5.287   1.466
 1815SOL    HW2 6345   5.944   5.131   1.421
 1816SOL     OW 6346   3.535   4.966   4.577
 1816SOL    HW1 6347   3.607   4.981   4.510
 1816SOL    HW2 6348   3.574   4.963   4.669
 1817SOL     OW 6349   6.572   2.930   3.867
 1817SOL    HW1 6350   6.671   2.947   3.865
 1817SOL    HW2 6351   6.528   3.002   3.921
 1818SOL     OW 6352   2.382   1.779   0.382
 1818SOL    HW1 6353   2.446   1.785   0.305
 1818SOL    HW2 6354   2.434   1.778   0.468
 1819SOL     OW 6355   1.067   3.525   1.327
 1819SOL    HW1 6356   1.064   3.426   1.315
 1819SOL    HW2 6357   1.065   3.569   1.238
 1820SOL     OW 6358   4.105   6.803   4.879
 1820SOL    HW1 6359   4.065   6.866   4.812
 1820SOL    HW2 6360   4.198   6.832   4.901
 1821SOL     OW 6361   3.749   1.408   2.314
 1821SOL    HW1 6362   3.745   1.455   2.402
 1821SOL    HW2 6363   3.800   1.323   2.324
 1822SOL     OW 6364   2.223   4.250   4.859
 1822SOL    HW1 6365   2.246   4.181   4.928
 1822SOL    HW2 6366   2.183   4.204   4.779
 1823SOL     OW 6367   4.504   6.878   4.194
 1823SOL    HW1 6368   4.559   6.810   4.242
 1823SOL    HW2 6369   4.485   6.954   4.255
 1824SOL     OW 6370   4.652   2.686   1.752
 1824SOL    HW1 6371   4.672   2.674   1.849
 1824SOL    HW2 6372   4.659   2.783   1.728
 1825SOL     OW 6373   1.290   4.039   0.190
 1825SOL    HW1 6374   1.263   4.072   0.280
 1825SOL    HW2 6375   1.387   4.015   0.191
 1826SOL     OW 6376   3.903   3.114   0.128
 1826SOL    HW1 6377   3.874   3.121   0.223
 1826SOL    HW2 6378   3.881   3.024   0.092
 1827SOL     OW 6379   5.327   4.628   0.718
 1827SOL    HW1 6380   5.305   4.662   0.810
 1827SOL    HW2 6381   5.349   4.706   0.659
 1828SOL     OW 6382   2.756   5.633   5.145
 1828SOL    HW1 6383   2.693   5.659   5.071
 1828SOL    HW2 6384   2.732   5.542   5.179
 1829SOL     OW 6385   1.626   6.383   2.590
 1829SOL    HW1 6386   1.553   6.451   2.595
 1829SOL    HW2 6387   1.631   6.333   2.676
 1830SOL     OW 6388   4.360   1.140   6.696
 1830SOL    HW1 6389   4.439   1.080   6.685
 1830SOL    HW2 6390   4.277   1.084   6.699
 1831SOL     OW 6391   3.632   4.465   6.836
 1831SOL    HW1 6392   3.652   4.370   6.809
 1831SOL    HW2 6393   3.702   4.497   6.899
 1832SOL     OW 6394   2.074   2.636   5.744
 1832SOL    HW1 6395   2.120   2.692   5.674
 1832SOL    HW2 6396   2.012   2.571   5.699
 1833SOL     OW 6397   5.612   1.703   0.299
 1833SOL    HW1 6398   5.671   1.694   0.219
 1833SOL    HW2 6399   5.585   1.799   0.310
 1834SOL     OW 6400   2.036   4.150   6.427
 1834SOL    HW1 6401   1.942   4.116   6.415
 1834SOL    HW2 6402   2.034   4.248   6.442
 1835SOL     OW 6403   5.926   6.861   6.750
 1835SOL    HW1 6404   6.010   6.897   6.791
 1835SOL    HW2 6405   5.852   6.926   6.761
 1836SOL     OW 6406   5.889   0.749   4.840
 1836SOL    HW1 6407   5.914   0.729   4.745
 1836SOL    HW2 6408   5.822   0.682   4.872
 1837SOL     OW 6409   1.319   1.987   1.124
 1837SOL    HW1 6410   1.357   2.060   1.181
 1837SOL    HW2 6411   1.382   1.909   1.124
 1838SOL     OW 6412   5.143   0.500   0.438
 1838SOL    HW1 6413   5.084   0.463   0.510
 1838SOL    HW2 6414   5.214   0.433   0.416
 1839SOL     OW 6415   6.718   1.619   6.042
 1839SOL    HW1 6416   6.782   1.563   6.095
 1839SOL    HW2 6417   6.625   1.607   6.078
 1840SOL     OW 6418   2.538   6.785   5.551
 1840SOL    HW1 6419   2.627   6.787   5.598
 1840SOL    HW2 6420   2.468   6.823   5.611
 1841SOL     OW 6421   2.205   6.809   1.995
 1841SOL    HW1 6422   2.250   6.826   1.907
 1841SOL    HW2 6423   2.205   6.711   2.014
 1842SOL     OW 6424   6.782   4.510   1.900
 1842SOL    HW1 6425   6.772   4.482   1.804
 1842SOL    HW2 6426   6.824   4.436   1.953
 1843SOL     OW 6427   2.836   0.979   6.896
 1843SOL    HW1 6428   2.870   0.986   6.802
 1843SOL    HW2 6429   2.829   0.883   6.922
 1844SOL     OW 6430   4.933   3.375   1.042
 1844SOL    HW1 6431   4.845   3.419   1.021
 1844SOL    HW2 6432   4.945   3.295   0.983
 1845SOL     OW 6433   0.617   2.664   4.517
 1845SOL    HW1 6434   0.609   2.589   4.583
 1845SOL    HW2 6435   0.652   2.746   4.563
 1846SOL     OW 6436   3.973   1.546   2.236
 1846SOL    HW1 6437   3.893   1.494   2.264
 1846SOL    HW2 6438   3.956   1.588   2.147
 1847SOL     OW 6439   2.994   5.923   6.646
 1847SOL    HW1 6440   2.984   6.001   6.584
 1847SOL    HW2 6441   3.052   5.949   6.723
 1848SOL     OW 6442   3.433   5.731   4.552
 1848SOL    HW1 6443   3.365   5.671   4.594
 1848SOL    HW2 6444   3.516   5.679   4.532
 1849SOL     OW 6445   4.716   2.648   2.483
 1849SOL    HW1 6446   4.700   2.727   2.423
 1849SOL    HW2 6447   4.640   2.583   2.473
 1850SOL     OW 6448   5.043   1.605   1.054
 1850SOL    HW1 6449   5.089   1.517   1.044
 1850SOL    HW2 6450   4.993   1.607   1.140
 1851SOL     OW 6451   1.395   5.143   3.796
 1851SOL    HW1 6452   1.472   5.157   3.734
 1851SOL    HW2 6453   1.310   5.149   3.745
 1852SOL     OW 6454   0.360   0.216   3.611
 1852SOL    HW1 6455   0.364   0.310   3.644
 1852SOL    HW2 6456   0.407   0.156   3.677
 1853SOL     OW 6457   0.903   1.911   5.413
 1853SOL    HW1 6458   0.955   1.978   5.466
 1853SOL    HW2 6459   0.940   1.906   5.320
 1854SOL     OW 6460   0.722   6.808   3.937
 1854SOL    HW1 6461   0.761   6.716   3.933
 1854SOL    HW2 6462   0.713   6.844   3.844
 1855SOL     OW 6463   6.655   1.476   4.981
 1855SOL    HW1 6464   6.646   1.576   4.982
 1855SOL    HW2 6465   6.750   1.450   4.997
 1856SOL     OW 6466   5.267   3.744   6.683
 1856SOL    HW1 6467   5.239   3.794   6.600
 1856SOL    HW2 6468   5.344   3.792   6.726
 1857SOL     OW 6469   4.538   0.942   6.648
 1857SOL    HW1 6470   4.560   0.849   6.676
 1857SOL    HW2 6471   4.615   1.003   6.671
 1858SOL     OW 6472   5.250   2.050   4.469
 1858SOL    HW1 6473   5.168   1.995   4.483
 1858SOL    HW2 6474   5.328   1.989   4.452
 1859SOL     OW 6475   6.089   6.120   2.826
 1859SOL    HW1 6476   6.099   6.174   2.742
 1859SOL    HW2 6477   5.996   6.131   2.861
 1860SOL     OW 6478   2.160   0.980   0.570
 1860SOL    HW1 6479   2.254   0.947   0.558
 1860SOL    HW2 6480   2.134   0.972   0.666
 1861SOL     OW 6481   6.435   0.072   5.534
 1861SOL    HW1 6482   6.418   0.149   5.596
 1861SOL    HW2 6483   6.495   0.005   5.580
 1862SOL     OW 6484   3.811   5.064   5.263
 1862SOL    HW1 6485   3.824   5.155   5.303
 1862SOL    HW2 6486   3.713   5.041   5.262
 1863SOL     OW 6487   0.117   0.881   1.461
 1863SOL    HW1 6488   0.063   0.869   1.544
 1863SOL    HW2 6489   0.202   0.829   1.469
 1864SOL     OW 6490   2.317   6.144   2.517
 1864SOL    HW1 6491   2.332   6.214   2.587
 1864SOL    HW2 6492   2.220   6.143   2.491
 1865SOL     OW 6493   5.966   2.549   5.641
 1865SOL    HW1 6494   5.992   2.510   5.552
 1865SOL    HW2 6495   6.046   2.554   5.700
 1866SOL     OW 6496   0.458   4.189   5.338
 1866SOL    HW1 6497   0.369   4.223   5.305
 1866SOL    HW2 6498   0.495   4.125   5.271
 1867SOL     OW 6499   1.259   0.801   0.987
 1867SOL    HW1 6500   1.351   0.797   0.951
 1867SOL    HW2 6501   1.202   0.730   0.945
 1868SOL     OW 6502   5.417   3.453   5.781
 1868SOL    HW1 6503   5.436   3.518   5.707
 1868SOL    HW2 6504   5.461   3.484   5.865
 1869SOL     OW 6505   5.349   0.385   4.958
 1869SOL    HW1 6506   5.365   0.479   4.987
 1869SOL    HW2 6507   5.435   0.335   4.960
 1870SOL     OW 6508   5.400   1.070   5.524
 1870SOL    HW1 6509   5.327   1.001   5.521
 1870SOL    HW2 6510   5.485   1.027   5.553
 1871SOL     OW 6511   2.618   4.571   6.754
 1871SOL    HW1 6512   2.558   4.649   6.774
 1871SOL    HW2 6513   2.713   4.601   6.757
 1872SOL     OW 6514   2.580   3.272   0.226
 1872SOL    HW1 6515   2.568   3.340   0.299
 1872SOL    HW2 6516   2.582   3.181   0.267
 1873SOL     OW 6517   6.007   1.386   1.977
 1873SOL    HW1 6518   6.002   1.295   1.935
 1873SOL    HW2 6519   6.098   1.401   2.014
 1874SOL     OW 6520   2.121   5.239   6.351
 1874SOL    HW1 6521   2.166   5.156   6.385
 1874SOL    HW2 6522   2.101   5.229   6.253
 1875SOL     OW 6523   0.987   6.183   2.510
 1875SOL    HW1 6524   0.896   6.151   2.484
 1875SOL    HW2 6525   1.017   6.138   2.594
 1876SOL     OW 6526   0.635   5.056   5.701
 1876SOL    HW1 6527   0.722   5.089   5.738
 1876SOL    HW2 6528   0.638   4.957   5.695
 1877SOL     OW 6529   0.258   1.156   3.690
 1877SOL    HW1 6530   0.199   1.236   3.682
 1877SOL    HW2 6531   0.282   1.122   3.599
 1878SOL     OW 6532   6.066   3.905   4.446
 1878SOL    HW1 6533   6.070   4.005   4.442
 1878SOL    HW2 6534   5.991   3.877   4.505
 1879SOL     OW 6535   4.083   6.221   5.342
 1879SOL    HW1 6536   4.022   6.224   5.421
 1879SOL    HW2 6537   4.044   6.276   5.268
 1880SOL     OW 6538   1.801   3.650   4.653
 1880SOL    HW1 6539   1.789   3.550   4.652
 1880SOL    HW2 6540   1.843   3.678   4.739
 1881SOL     OW 6541   2.422   2.162   3.223
 1881SOL    HW1 6542   2.475   2.099   3.165
 1881SOL    HW2 6543   2.407   2.247   3.173
 1882SOL     OW 6544   4.124   6.937   0.158
 1882SOL    HW1 6545   4.126   6.861   0.223
 1882SOL    HW2 6546   4.173   6.910   0.075
 1883SOL     OW 6547   2.116   3.613   2.786
 1883SOL    HW1 6548   2.156   3.526   2.760
 1883SOL    HW2 6549   2.123   3.677   2.709
 1884SOL     OW 6550   4.905   1.225   0.035
 1884SOL    HW1 6551   4.993   1.184   0.059
 1884SOL    HW2 6552   4.866   1.177   6.977
 1885SOL     OW 6553   0.022   1.720   0.879
 1885SOL    HW1 6554   0.059   1.628   0.863
 1885SOL    HW2 6555   0.055   1.755   0.967
 1886SOL     OW 6556   3.573   3.197   4.576
 1886SOL    HW1 6557   3.512   3.189   4.497
 1886SOL    HW2 6558   3.651   3.255   4.552
 1887SOL     OW 6559   1.027   5.665   5.293
 1887SOL    HW1 6560   1.127   5.675   5.295
 1887SOL    HW2 6561   0.987   5.713   5.371
 1888SOL     OW 6562   1.898   1.941   5.939
 1888SOL    HW1 6563   1.962   1.963   5.865
 1888SOL    HW2 6564   1.865   2.026   5.980
 1889SOL     OW 6565   3.678   3.497   0.029
 1889SOL    HW1 6566   3.615   3.574   0.044
 1889SOL    HW2 6567   3.670   3.466   6.956
 1890SOL     OW 6568   6.189   6.358   6.503
 1890SOL    HW1 6569   6.256   6.402   6.563
 1890SOL    HW2 6570   6.111   6.328   6.557
 1891SOL     OW 6571   5.379   3.298   6.773
 1891SOL    HW1 6572   5.353   3.388   6.808
 1891SOL    HW2 6573   5.467   3.305   6.725
 1892SOL     OW 6574   4.191   0.894   3.406
 1892SOL    HW1 6575   4.248   0.841   3.343
 1892SOL    HW2 6576   4.095   0.869   3.392
 1893SOL     OW 6577   3.013   2.243   6.940
 1893SOL    HW1 6578   3.071   2.302   6.883
 1893SOL    HW2 6579   3.024   2.148   6.911
 1894SOL     OW 6580   4.953   3.186   0.839
 1894SOL    HW1 6581   5.043   3.152   0.813
 1894SOL    HW2 6582   4.900   3.208   0.757
 1895SOL     OW 6583   4.153   5.571   2.846
 1895SOL    HW1 6584   4.177   5.548   2.752
 1895SOL    HW2 6585   4.191   5.661   2.869
 1896SOL     OW 6586   0.041   1.532   4.628
 1896SOL    HW1 6587   0.051   1.610   4.689
 1896SOL    HW2 6588   0.008   1.564   4.539
 1897SOL     OW 6589   5.191   5.330   3.299
 1897SOL    HW1 6590   5.185   5.430   3.294
 1897SOL    HW2 6591   5.257   5.297   3.232
 1898SOL     OW 6592   5.093   6.769   0.161
 1898SOL    HW1 6593   5.187   6.764   0.195
 1898SOL    HW2 6594   5.094   6.783   0.062
 1899SOL     OW 6595   2.042   3.156   3.527
 1899SOL    HW1 6596   2.105   3.231   3.507
 1899SOL    HW2 6597   1.985   3.180   3.605
 1900SOL     OW 6598   2.808   5.511   1.272
 1900SOL    HW1 6599   2.835   5.441   1.206
 1900SOL    HW2 6600   2.874   5.513   1.347
 1901SOL     OW 6601   0.408   1.734   6.019
 1901SOL    HW1 6602   0.393   1.703   5.925
 1901SOL    HW2 6603   0.370   1.668   6.083
 1902SOL     OW 6604   1.525   2.719   5.009
 1902SOL    HW1 6605   1.482   2.640   5.053
 1902SOL    HW2 6606   1.615   2.735   5.049
 1903SOL     OW 6607   6.920   5.929   3.872
 1903SOL    HW1 6608   6.894   6.020   3.841
 1903SOL    HW2 6609   6.918   5.866   3.794
 1904SOL     OW 6610   0.346   6.989   4.273
 1904SOL    HW1 6611   0.273   6.977   4.205
 1904SOL    HW2 6612   0.334   6.922   4.346
 1905SOL     OW 6613   5.650   3.331   5.216
 1905SOL    HW1 6614   5.730   3.292   5.262
 1905SOL    HW2 6615   5.582   3.356   5.285
 1906SOL     OW 6616   2.133   6.405   5.996
 1906SOL    HW1 6617   2.101   6.378   5.905
 1906SOL    HW2 6618   2.123   6.503   6.007
 1907SOL     OW 6619   4.064   6.627   3.263
 1907SOL    HW1 6620   3.980   6.606   3.215
 1907SOL    HW2 6621   4.129   6.671   3.200
 1908SOL     OW 6622   5.035   4.605   1.135
 1908SOL    HW1 6623   4.976   4.642   1.063
 1908SOL    HW2 6624   5.104   4.545   1.094
 1909SOL     OW 6625   5.072   5.410   3.656
 1909SOL    HW1 6626   5.046   5.326   3.608
 1909SOL    HW2 6627   5.121   5.387   3.740
 1910SOL     OW 6628   5.026   3.733   4.230
 1910SOL    HW1 6629   5.014   3.761   4.326
 1910SOL    HW2 6630   4.948   3.678   4.202
 1911SOL     OW 6631   0.958   2.469   5.506
 1911SOL    HW1 6632   0.936   2.377   5.473
 1911SOL    HW2 6633   0.948   2.472   5.605
 1912SOL     OW 6634   3.216   0.003   2.585
 1912SOL    HW1 6635   3.296   6.968   2.608
 1912SOL    HW2 6636   3.147   6.967   2.541
 1913SOL     OW 6637   2.923   3.920   6.777
 1913SOL    HW1 6638   2.918   4.011   6.734
 1913SOL    HW2 6639   2.832   3.894   6.811
 1914SOL     OW 6640   4.372   1.351   5.216
 1914SOL    HW1 6641   4.305   1.421   5.240
 1914SOL    HW2 6642   4.330   1.286   5.153
 1915SOL     OW 6643   2.752   6.618   5.249
 1915SOL    HW1 6644   2.779   6.697   5.194
 1915SOL    HW2 6645   2.656   6.628   5.276
 1916SOL     OW 6646   3.342   6.616   2.489
 1916SOL    HW1 6647   3.419   6.643   2.547
 1916SOL    HW2 6648   3.256   6.634   2.538
 1917SOL     OW 6649   4.085   3.809   3.473
 1917SOL    HW1 6650   4.105   3.769   3.384
 1917SOL    HW2 6651   4.020   3.884   3.462
 1918SOL     OW 6652   0.855   6.445   5.798
 1918SOL    HW1 6653   0.816   6.438   5.890
 1918SOL    HW2 6654   0.866   6.542   5.774
 1919SOL     OW 6655   5.687   0.552   1.967
 1919SOL    HW1 6656   5.690   0.458   1.999
 1919SOL    HW2 6657   5.592   0.581   1.956
 1920SOL     OW 6658   6.232   6.415   4.301
 1920SOL    HW1 6659   6.308   6.473   4.329
 1920SOL    HW2 6660   6.263   6.320   4.296
 1921SOL     OW 6661   2.603   6.748   6.587
 1921SOL    HW1 6662   2.632   6.678   6.522
 1921SOL    HW2 6663   2.527   6.800   6.549
 1922SOL     OW 6664   3.786   4.587   0.002
 1922SOL    HW1 6665   3.841   4.506   0.023
 1922SOL    HW2 6666   3.816   4.664   0.058
 1923SOL     OW 6667   1.683   2.916   0.903
 1923SOL    HW1 6668   1.671   2.864   0.818
 1923SOL    HW2 6669   1.682   2.853   0.981
 1924SOL     OW 6670   0.578   3.869   1.593
 1924SOL    HW1 6671   0.500   3.912   1.549
 1924SOL    HW2 6672   0.663   3.909   1.558
 1925SOL     OW 6673   3.346   4.707   0.181
 1925SOL    HW1 6674   3.386   4.617   0.162
 1925SOL    HW2 6675   3.418   4.777   0.178
 1926SOL     OW 6676   0.284   0.484   3.687
 1926SOL    HW1 6677   0.295   0.502   3.589
 1926SOL    HW2 6678   0.232   0.558   3.729
 1927SOL     OW 6679   5.178   3.310   1.431
 1927SOL    HW1 6680   5.165   3.222   1.386
 1927SOL    HW2 6681   5.089   3.348   1.455
 1928SOL     OW 6682   0.313   5.534   4.608
 1928SOL    HW1 6683   0.314   5.565   4.513
 1928SOL    HW2 6684   0.320   5.434   4.611
 1929SOL     OW 6685   1.124   4.586   2.802
 1929SOL    HW1 6686   1.084   4.663   2.852
 1929SOL    HW2 6687   1.059   4.510   2.799
 1930SOL     OW 6688   6.492   5.620   5.849
 1930SOL    HW1 6689   6.474   5.627   5.948
 1930SOL    HW2 6690   6.447   5.538   5.813
 1931SOL     OW 6691   2.066   2.704   3.566
 1931SOL    HW1 6692   2.140   2.762   3.600
 1931SOL    HW2 6693   2.076   2.612   3.602
 1932SOL     OW 6694   6.228   3.180   2.316
 1932SOL    HW1 6695   6.293   3.251   2.344
 1932SOL    HW2 6696   6.141   3.193   2.362
 1933SOL     OW 6697   2.697   5.402   0.211
 1933SOL    HW1 6698   2.778   5.370   0.260
 1933SOL    HW2 6699   2.701   5.501   0.199
 1934SOL     OW 6700   0.035   6.341   2.971
 1934SOL    HW1 6701   0.070   6.420   3.022
 1934SOL    HW2 6702   0.002   6.272   3.035
 1935SOL     OW 6703   1.309   1.428   2.791
 1935SOL    HW1 6704   1.258   1.377   2.722
 1935SOL    HW2 6705   1.320   1.372   2.873
 1936SOL     OW 6706   0.433   5.904   4.857
 1936SOL    HW1 6707   0.519   5.927   4.902
 1936SOL    HW2 6708   0.443   5.819   4.806
 1937SOL     OW 6709   4.474   1.756   3.300
 1937SOL    HW1 6710   4.565   1.762   3.259
 1937SOL    HW2 6711   4.469   1.817   3.379
 1938SOL     OW 6712   5.040   6.642   3.886
 1938SOL    HW1 6713   5.013   6.703   3.960
 1938SOL    HW2 6714   4.983   6.658   3.806
 1939SOL     OW 6715   2.580   0.867   4.465
 1939SOL    HW1 6716   2.613   0.787   4.415
 1939SOL    HW2 6717   2.628   0.875   4.552
 1940SOL     OW 6718   6.223   6.897   6.528
 1940SOL    HW1 6719   6.186   6.812   6.491
 1940SOL    HW2 6720   6.156   6.970   6.519
 1941SOL     OW 6721   4.136   5.187   2.946
 1941SOL    HW1 6722   4.171   5.240   3.023
 1941SOL    HW2 6723   4.070   5.119   2.979
 1942SOL     OW 6724   0.303   3.309   2.733
 1942SOL    HW1 6725   0.221   3.313   2.677
 1942SOL    HW2 6726   0.278   3.308   2.830
 1943SOL     OW 6727   3.394   5.491   3.330
 1943SOL    HW1 6728   3.356   5.522   3.417
 1943SOL    HW2 6729   3.486   5.529   3.319
 1944SOL     OW 6730   6.795   6.339   1.895
 1944SOL    HW1 6731   6.836   6.254   1.860
 1944SOL    HW2 6732   6.785   6.332   1.994
 1945SOL     OW 6733   2.659   5.109   2.820
 1945SOL    HW1 6734   2.609   5.195   2.828
 1945SOL    HW2 6735   2.724   5.101   2.896
 1946SOL     OW 6736   1.535   6.415   7.019
 1946SOL    HW1 6737   1.581   6.502   7.002
 1946SOL    HW2 6738   1.446   6.432   0.041
 1947SOL     OW 6739   4.383   0.930   3.932
 1947SOL    HW1 6740   4.386   0.830   3.920
 1947SOL    HW2 6741   4.365   0.951   4.028
 1948SOL     OW 6742   6.210   2.911   5.122
 1948SOL    HW1 6743   6.303   2.940   5.145
 1948SOL    HW2 6744   6.209   2.874   5.029
 1949SOL     OW 6745   4.844   3.561   0.072
 1949SOL    HW1 6746   4.944   3.555   0.068
 1949SOL    HW2 6747   4.804   3.483   0.026
 1950SOL     OW 6748   2.995   5.094   0.839
 1950SOL    HW1 6749   3.039   5.092   0.928
 1950SOL    HW2 6750   2.896   5.095   0.850
 1951SOL     OW 6751   6.096   2.887   6.878
 1951SOL    HW1 6752   6.065   2.953   6.809
 1951SOL    HW2 6753   6.189   2.910   6.907
 1952SOL     OW 6754   2.937   3.653   3.884
 1952SOL    HW1 6755   2.926   3.582   3.815
 1952SOL    HW2 6756   2.949   3.611   3.974
 1953SOL     OW 6757   0.506   2.345   4.568
 1953SOL    HW1 6758   0.537   2.278   4.636
 1953SOL    HW2 6759   0.408   2.332   4.551
 1954SOL     OW 6760   2.318   2.273   4.200
 1954SOL    HW1 6761   2.393   2.330   4.234
 1954SOL    HW2 6762   2.333   2.254   4.103
 1955SOL     OW 6763   6.686   5.861   3.094
 1955SOL    HW1 6764   6.662   5.940   3.150
 1955SOL    HW2 6765   6.664   5.777   3.142
 1956SOL     OW 6766   3.995   5.909   3.012
 1956SOL    HW1 6767   3.987   5.842   3.086
 1956SOL    HW2 6768   3.908   5.917   2.963
 1957SOL     OW 6769   2.314   6.443   5.368
 1957SOL    HW1 6770   2.385   6.405   5.427
 1957SOL    HW2 6771   2.349   6.525   5.323
 1958SOL     OW 6772   4.025   3.864   6.533
 1958SOL    HW1 6773   3.934   3.829   6.515
 1958SOL    HW2 6774   4.033   3.957   6.495
 1959SOL     OW 6775   2.599   0.311   0.780
 1959SOL    HW1 6776   2.604   0.241   0.851
 1959SOL    HW2 6777   2.504   0.342   0.770
 1960SOL     OW 6778   5.096   5.154   3.049
 1960SOL    HW1 6779   5.033   5.222   3.012
 1960SOL    HW2 6780   5.168   5.200   3.101
 1961SOL     OW 6781   5.515   4.347   5.360
 1961SOL    HW1 6782   5.522   4.295   5.275
 1961SOL    HW2 6783   5.539   4.443   5.343
 1962SOL     OW 6784   0.378   6.652   3.896
 1962SOL    HW1 6785   0.409   6.706   3.975
 1962SOL    HW2 6786   0.402   6.700   3.812
 1963SOL     OW 6787   2.581   1.395   4.049
 1963SOL    HW1 6788   2.661   1.348   4.086
 1963SOL    HW2 6789   2.498   1.344   4.073
 1964SOL     OW 6790   6.871   3.134   1.916
 1964SOL    HW1 6791   6.952   3.094   1.960
 1964SOL    HW2 6792   6.898   3.212   1.860
 1965SOL     OW 6793   2.443   0.413   2.962
 1965SOL    HW1 6794   2.402   0.335   3.009
 1965SOL    HW2 6795   2.378   0.489   2.960
 1966SOL     OW 6796   6.839   6.402   6.932
 1966SOL    HW1 6797   6.930   6.421   6.895
 1966SOL    HW2 6798   6.794   6.489   6.954
 1967SOL     OW 6799   5.993   2.763   4.766
 1967SOL    HW1 6800   6.090   2.786   4.779
 1967SOL    HW2 6801   5.960   2.709   4.843
 1968SOL     OW 6802   4.141   5.506   4.600
 1968SOL    HW1 6803   4.076   5.568   4.643
 1968SOL    HW2 6804   4.091   5.437   4.547
 1969SOL     OW 6805   6.556   0.758   1.383
 1969SOL    HW1 6806   6.537   0.794   1.474
 1969SOL    HW2 6807   6.655   0.752   1.370
 1970SOL     OW 6808   2.156   1.303   4.510
 1970SOL    HW1 6809   2.150   1.235   4.583
 1970SOL    HW2 6810   2.215   1.378   4.538
 1971SOL     OW 6811   0.123   1.519   5.860
 1971SOL    HW1 6812   0.030   1.493   5.833
 1971SOL    HW2 6813   0.120   1.580   5.939
 1972SOL     OW 6814   1.092   6.941   3.449
 1972SOL    HW1 6815   1.156   6.899   3.513
 1972SOL    HW2 6816   1.022   6.991   3.499
 1973SOL     OW 6817   3.203   2.985   0.223
 1973SOL    HW1 6818   3.152   2.906   0.188
 1973SOL    HW2 6819   3.220   3.048   0.148
 1974SOL     OW 6820   6.280   6.405   3.918
 1974SOL    HW1 6821   6.335   6.408   3.835
 1974SOL    HW2 6822   6.336   6.433   3.997
 1975SOL     OW 6823   2.680   0.121   3.646
 1975SOL    HW1 6824   2.708   0.217   3.645
 1975SOL    HW2 6825   2.746   0.066   3.594
 1976SOL     OW 6826   6.434   4.519   6.152
 1976SOL    HW1 6827   6.381   4.513   6.237
 1976SOL    HW2 6828   6.435   4.613   6.119
 1977SOL     OW 6829   3.266   2.232   5.411
 1977SOL    HW1 6830   3.258   2.295   5.333
 1977SOL    HW2 6831   3.288   2.140   5.378
 1978SOL     OW 6832   6.501   2.476   4.765
 1978SOL    HW1 6833   6.451   2.390   4.776
 1978SOL    HW2 6834   6.599   2.458   4.770
 1979SOL     OW 6835   6.776   3.836   2.530
 1979SOL    HW1 6836   6.851   3.790   2.483
 1979SOL    HW2 6837   6.729   3.897   2.466
 1980SOL     OW 6838   2.451   0.673   2.708
 1980SOL    HW1 6839   2.516   0.726   2.763
 1980SOL    HW2 6840   2.472   0.575   2.717
 1981SOL     OW 6841   5.603   3.473   2.267
 1981SOL    HW1 6842   5.618   3.375   2.255
 1981SOL    HW2 6843   5.628   3.521   2.182
 1982SOL     OW 6844   0.225   0.188   5.655
 1982SOL    HW1 6845   0.232   0.272   5.600
 1982SOL    HW2 6846   0.252   0.110   5.600
 1983SOL     OW 6847   0.713   4.722   1.667
 1983SOL    HW1 6848   0.796   4.735   1.721
 1983SOL    HW2 6849   0.634   4.718   1.728
 1984SOL     OW 6850   4.224   0.936   5.530
 1984SOL    HW1 6851   4.156   0.919   5.457
 1984SOL    HW2 6852   4.177   0.939   5.618
 1985SOL     OW 6853   1.193   5.318   1.718
 1985SOL    HW1 6854   1.199   5.341   1.815
 1985SOL    HW2 6855   1.274   5.265   1.691
 1986SOL     OW 6856   6.930   2.192   0.703
 1986SOL    HW1 6857   7.008   2.132   0.689
 1986SOL    HW2 6858   6.854   2.140   0.742
 1987SOL     OW 6859   2.744   3.673   0.417
 1987SOL    HW1 6860   2.775   3.680   0.322
 1987SOL    HW2 6861   2.816   3.631   0.472
 1988SOL     OW 6862   5.037   2.861   0.973
 1988SOL    HW1 6863   5.093   2.844   0.892
 1988SOL    HW2 6864   4.959   2.919   0.947
 1989SOL     OW 6865   2.545   2.302   3.773
 1989SOL    HW1 6866   2.632   2.296   3.725
 1989SOL    HW2 6867   2.476   2.341   3.712
 1990SOL     OW 6868   1.058   0.796   2.805
 1990SOL    HW1 6869   1.030   0.806   2.901
 1990SOL    HW2 6870   0.979   0.770   2.750
 1991SOL     OW 6871   4.536   6.310   2.947
 1991SOL    HW1 6872   4.571   6.265   3.030
 1991SOL    HW2 6873   4.609   6.317   2.880
 1992SOL     OW 6874   2.452   5.047   5.448
 1992SOL    HW1 6875   2.415   5.120   5.506
 1992SOL    HW2 6876   2.552   5.048   5.454
 1993SOL     OW 6877   3.092   3.047   4.144
 1993SOL    HW1 6878   3.183   3.007   4.155
 1993SOL    HW2 6879   3.066   3.045   4.048
 1994SOL     OW 6880   6.717   2.131   1.839
 1994SOL    HW1 6881   6.655   2.144   1.917
 1994SOL    HW2 6882   6.794   2.073   1.867
 1995SOL     OW 6883   3.642   2.200   1.401
 1995SOL    HW1 6884   3.731   2.218   1.444
 1995SOL    HW2 6885   3.652   2.204   1.301
 1996SOL     OW 6886   2.168   4.482   5.334
 1996SOL    HW1 6887   2.236   4.408   5.344
 1996SOL    HW2 6888   2.152   4.500   5.238
 1997SOL     OW 6889   5.755   5.983   4.096
 1997SOL    HW1 6890   5.701   6.032   4.164
 1997SOL    HW2 6891   5.835   6.038   4.071
 1998SOL     OW 6892   3.094   4.949   4.580
 1998SOL    HW1 6893   3.043   4.889   4.642
 1998SOL    HW2 6894   3.056   5.041   4.582
 1999SOL     OW 6895   2.677   1.625   2.218
 1999SOL    HW1 6896   2.695   1.695   2.286
 1999SOL    HW2 6897   2.756   1.617   2.157
 2000SOL     OW 6898   2.812   1.324   4.931
 2000SOL    HW1 6899   2.730   1.267   4.922
 2000SOL    HW2 6900   2.814   1.366   5.022
 2001SOL     OW 6901   2.470   2.287   6.701
 2001SOL    HW1 6902   2.387   2.336   6.728
 2001SOL    HW2 6903   2.499   2.317   6.611
 2002SOL     OW 6904   1.625   4.823   4.774
 2002SOL    HW1 6905   1.671   4.904   4.811
 2002SOL    HW2 6906   1.548   4.852   4.717
 2003SOL     OW 6907   6.122   3.934   3.221
 2003SOL    HW1 6908   6.024   3.916   3.210
 2003SOL    HW2 6909   6.175   3.864   3.173
 2004SOL     OW 6910   3.305   6.960   6.798
 2004SOL    HW1 6911   3.356   6.895   6.853
 2004SOL    HW2 6912   3.220   6.984   6.844
 2005SOL     OW 6913   2.971   6.711   5.000
 2005SOL    HW1 6914   2.998   6.802   4.971
 2005SOL    HW2 6915   2.874   6.696   4.980
 2006SOL     OW 6916   4.733   6.950   3.527
 2006SOL    HW1 6917   4.730   6.969   3.625
 2006SOL    HW2 6918   4.664   6.881   3.504
 2007SOL     OW 6919   6.645   5.709   6.648
 2007SOL    HW1 6920   6.651   5.808   6.654
 2007SOL    HW2 6921   6.654   5.669   6.739
 2008SOL     OW 6922   0.540   5.777   5.546
 2008SOL    HW1 6923   0.593   5.702   5.587
 2008SOL    HW2 6924   0.443   5.762   5.565
 2009SOL     OW 6925   1.069   0.562   7.001
 2009SOL    HW1 6926   1.107   0.470   7.008
 2009SOL    HW2 6927   1.068   0.605   0.070
 2010SOL     OW 6928   2.008   1.202   0.966
 2010SOL    HW1 6929   2.039   1.124   0.912
 2010SOL    HW2 6930   2.060   1.284   0.940
 2011SOL     OW 6931   6.369   1.686   4.637
 2011SOL    HW1 6932   6.347   1.753   4.567
 2011SOL    HW2 6933   6.375   1.731   4.726
 2012SOL     OW 6934   6.746   3.181   1.318
 2012SOL    HW1 6935   6.720   3.277   1.320
 2012SOL    HW2 6936   6.844   3.172   1.303
 2013SOL     OW 6937   3.774   2.669   1.551
 2013SOL    HW1 6938   3.700   2.640   1.613
 2013SOL    HW2 6939   3.815   2.753   1.586
 2014SOL     OW 6940   3.201   5.704   3.256
 2014SOL    HW1 6941   3.257   5.629   3.291
 2014SOL    HW2 6942   3.237   5.734   3.168
 2015SOL     OW 6943   3.045   5.392   0.546
 2015SOL    HW1 6944   3.094   5.318   0.591
 2015SOL    HW2 6945   2.988   5.355   0.473
 2016SOL     OW 6946   5.759   5.427   4.581
 2016SOL    HW1 6947   5.754   5.514   4.532
 2016SOL    HW2 6948   5.667   5.397   4.606
 2017SOL     OW 6949   2.017   5.282   1.957
 2017SOL    HW1 6950   2.064   5.203   1.920
 2017SOL    HW2 6951   1.930   5.294   1.909
 2018SOL     OW 6952   0.435   4.347   5.556
 2018SOL    HW1 6953   0.401   4.319   5.646
 2018SOL    HW2 6954   0.441   4.268   5.496
 2019SOL     OW 6955   5.345   0.986   2.651
 2019SOL    HW1 6956   5.440   1.006   2.630
 2019SOL    HW2 6957   5.288   1.012   2.573
 2020SOL     OW 6958   2.384   5.385   3.435
 2020SOL    HW1 6959   2.471   5.359   3.475
 2020SOL    HW2 6960   2.313   5.381   3.505
 2021SOL     OW 6961   1.791   5.798   1.875
 2021SOL    HW1 6962   1.830   5.708   1.854
 2021SOL    HW2 6963   1.862   5.856   1.915
 2022SOL     OW 6964   3.453   5.620   1.476
 2022SOL    HW1 6965   3.464   5.549   1.546
 2022SOL    HW2 6966   3.357   5.646   1.469
 2023SOL     OW 6967   6.515   2.136   5.618
 2023SOL    HW1 6968   6.572   2.205   5.573
 2023SOL    HW2 6969   6.429   2.127   5.569
 2024SOL     OW 6970   5.986   0.592   3.540
 2024SOL    HW1 6971   5.922   0.551   3.474
 2024SOL    HW2 6972   6.018   0.680   3.505
 2025SOL     OW 6973   6.351   1.028   1.126
 2025SOL    HW1 6974   6.378   1.114   1.170
 2025SOL    HW2 6975   6.298   1.048   1.043
 2026SOL     OW 6976   1.949   1.661   5.252
 2026SOL    HW1 6977   1.871   1.718   5.227
 2026SOL    HW2 6978   2.033   1.716   5.249
 2027SOL     OW 6979   6.814   0.135   2.242
 2027SOL    HW1 6980   6.723   0.105   2.269
 2027SOL    HW2 6981   6.814   0.157   2.144
 2028SOL     OW 6982   3.999   3.881   5.654
 2028SOL    HW1 6983   3.948   3.952   5.703
 2028SOL    HW2 6984   3.952   3.859   5.568
 2029SOL     OW 6985   1.798   0.495   0.522
 2029SOL    HW1 6986   1.876   0.557   0.508
 2029SOL    HW2 6987   1.802   0.421   0.455
 2030SOL     OW 6988   2.212   2.875   2.246
 2030SOL    HW1 6989   2.309   2.850   2.247
 2030SOL    HW2 6990   2.176   2.872   2.339
 2031SOL     OW 6991   6.124   6.771   2.317
 2031SOL    HW1 6992   6.059   6.790   2.243
 2031SOL    HW2 6993   6.217   6.782   2.284
 2032SOL     OW 6994   4.368   6.109   1.917
 2032SOL    HW1 6995   4.308   6.188   1.927
 2032SOL    HW2 6996   4.463   6.140   1.904
 2033SOL     OW 6997   0.396   4.891   6.686
 2033SOL    HW1 6998   0.370   4.968   6.627
 2033SOL    HW2 6999   0.483   4.853   6.655
 2034SOL     OW 7000   2.208   5.624   4.010
 2034SOL    HW1 7001   2.254   5.536   4.023
 2034SOL    HW2 7002   2.149   5.619   3.930
 2035SOL     OW 7003   0.693   1.806   3.303
 2035SOL    HW1 7004   0.659   1.731   3.359
 2035SOL    HW2 7005   0.699   1.889   3.359
 2036SOL     OW 7006   0.574   5.028   0.718
 2036SOL    HW1 7007   0.549   4.941   0.761
 2036SOL    HW2 7008   0.613   5.089   0.787
 2037SOL     OW 7009   0.554   2.791   6.850
 2037SOL    HW1 7010   0.466   2.746   6.861
 2037SOL    HW2 7011   0.603   2.791   6.938
 2038SOL     OW 7012   1.583   0.158   4.847
 2038SOL    HW1 7013   1.509   0.217   4.813
 2038SOL    HW2 7014   1.567   0.064   4.817
 2039SOL     OW 7015   1.229   5.237   1.984
 2039SOL    HW1 7016   1.299   5.262   2.051
 2039SOL    HW2 7017   1.147   5.291   2.000
 2040SOL     OW 7018   3.880   3.400   4.556
 2040SOL    HW1 7019   3.826   3.460   4.614
 2040SOL    HW2 7020   3.826   3.371   4.478
 2041SOL     OW 7021   5.179   2.810   0.340
 2041SOL    HW1 7022   5.137   2.900   0.329
 2041SOL    HW2 7023   5.188   2.766   0.250
 2042SOL     OW 7024   3.231   6.035   0.938
 2042SOL    HW1 7025   3.240   5.968   0.864
 2042SOL    HW2 7026   3.147   6.017   0.989
 2043SOL     OW 7027   4.234   6.110   2.339
 2043SOL    HW1 7028   4.154   6.068   2.297
 2043SOL    HW2 7029   4.312   6.047   2.332
 2044SOL     OW 7030   6.429   0.795   2.200
 2044SOL    HW1 7031   6.437   0.885   2.157
 2044SOL    HW2 7032   6.382   0.804   2.288
 2045SOL     OW 7033   3.157   6.735   6.286
 2045SOL    HW1 7034   3.212   6.819   6.290
 2045SOL    HW2 7035   3.163   6.696   6.194
 2046SOL     OW 7036   5.730   6.689   5.870
 2046SOL    HW1 7037   5.645   6.720   5.827
 2046SOL    HW2 7038   5.802   6.756   5.852
 2047SOL     OW 7039   5.137   3.320   0.461
 2047SOL    HW1 7040   5.223   3.334   0.509
 2047SOL    HW2 7041   5.153   3.320   0.362
 2048SOL     OW 7042   4.596   6.447   5.575
 2048SOL    HW1 7043   4.667   6.392   5.531
 2048SOL    HW2 7044   4.620   6.544   5.570
 2049SOL     OW 7045   5.179   5.304   6.650
 2049SOL    HW1 7046   5.262   5.351   6.679
 2049SOL    HW2 7047   5.136   5.356   6.576
 2050SOL     OW 7048   5.694   1.204   3.391
 2050SOL    HW1 7049   5.724   1.140   3.461
 2050SOL    HW2 7050   5.640   1.277   3.433
 2051SOL     OW 7051   3.077   5.600   1.056
 2051SOL    HW1 7052   3.033   5.684   1.090
 2051SOL    HW2 7053   3.020   5.559   0.985
 2052SOL     OW 7054   2.105   2.700   1.202
 2052SOL    HW1 7055   2.156   2.686   1.287
 2052SOL    HW2 7056   2.117   2.620   1.143
 2053SOL     OW 7057   4.860   0.903   0.904
 2053SOL    HW1 7058   4.829   0.869   0.815
 2053SOL    HW2 7059   4.798   0.975   0.935
 2054SOL     OW 7060   0.784   3.404   1.108
 2054SOL    HW1 7061   0.716   3.422   1.178
 2054SOL    HW2 7062   0.861   3.353   1.148
 2055SOL     OW 7063   6.499   1.135   3.740
 2055SOL    HW1 7064   6.492   1.217   3.796
 2055SOL    HW2 7065   6.520   1.056   3.798
 2056SOL     OW 7066   0.593   6.648   2.525
 2056SOL    HW1 7067   0.605   6.630   2.428
 2056SOL    HW2 7068   0.512   6.598   2.558
 2057SOL     OW 7069   4.871   3.064   4.139
 2057SOL    HW1 7070   4.800   3.002   4.173
 2057SOL    HW2 7071   4.889   3.044   4.042
 2058SOL     OW 7072   0.656   0.955   1.628
 2058SOL    HW1 7073   0.729   0.891   1.651
 2058SOL    HW2 7074   0.620   0.934   1.537
 2059SOL     OW 7075   1.647   1.012   6.648
 2059SOL    HW1 7076   1.660   0.983   6.743
 2059SOL    HW2 7077   1.572   0.960   6.608
 2060SOL     OW 7078   0.220   4.724   2.979
 2060SOL    HW1 7079   0.302   4.782   2.974
 2060SOL    HW2 7080   0.222   4.659   2.903
 2061SOL     OW 7081   1.416   0.612   0.726
 2061SOL    HW1 7082   1.515   0.613   0.710
 2061SOL    HW2 7083   1.374   0.690   0.680
 2062SOL     OW 7084   3.826   0.444   3.937
 2062SOL    HW1 7085   3.820   0.525   3.995
 2062SOL    HW2 7086   3.915   0.401   3.949
 2063SOL     OW 7087   2.403   2.649   1.130
 2063SOL    HW1 7088   2.327   2.587   1.151
 2063SOL    HW2 7089   2.484   2.596   1.108
 2064SOL     OW 7090   1.171   2.137   0.933
 2064SOL    HW1 7091   1.182   2.086   0.848
 2064SOL    HW2 7092   1.210   2.085   1.009
 2065SOL     OW 7093   0.148   2.978   2.824
 2065SOL    HW1 7094   0.050   2.994   2.810
 2065SOL    HW2 7095   0.200   3.026   2.754
 2066SOL     OW 7096   1.426   6.002   3.113
 2066SOL    HW1 7097   1.489   5.985   3.189
 2066SOL    HW2 7098   1.478   6.018   3.029
 2067SOL     OW 7099   0.088   0.628   0.667
 2067SOL    HW1 7100   7.019   0.585   0.664
 2067SOL    HW2 7101   0.152   0.567   0.712
 2068SOL     OW 7102   2.131   2.143   5.346
 2068SOL    HW1 7103   2.059   2.162   5.413
 2068SOL    HW2 7104   2.153   2.045   5.347
 2069SOL     OW 7105   1.333   2.246   2.248
 2069SOL    HW1 7106   1.302   2.212   2.159
 2069SOL    HW2 7107   1.298   2.187   2.321
 2070SOL     OW 7108   0.156   1.501   2.554
 2070SOL    HW1 7109   0.119   1.528   2.643
 2070SOL    HW2 7110   0.081   1.485   2.490
 2071SOL     OW 7111   2.678   6.247   5.424
 2071SOL    HW1 7112   2.693   6.169   5.484
 2071SOL    HW2 7113   2.603   6.302   5.459
 2072SOL     OW 7114   4.970   5.097   2.490
 2072SOL    HW1 7115   4.899   5.096   2.560
 2072SOL    HW2 7116   5.035   5.171   2.510
 2073SOL     OW 7117   3.373   6.965   5.376
 2073SOL    HW1 7118   3.419   6.889   5.330
 2073SOL    HW2 7119   3.419   0.030   5.350
 2074SOL     OW 7120   5.615   2.071   3.141
 2074SOL    HW1 7121   5.672   2.003   3.187
 2074SOL    HW2 7122   5.663   2.107   3.061
 2075SOL     OW 7123   3.981   3.092   5.789
 2075SOL    HW1 7124   3.938   3.124   5.874
 2075SOL    HW2 7125   3.948   3.147   5.712
 2076SOL     OW 7126   4.952   7.009   0.224
 2076SOL    HW1 7127   5.001   6.926   0.198
 2076SOL    HW2 7128   4.864   7.013   0.177
 2077SOL     OW 7129   4.429   0.988   4.215
 2077SOL    HW1 7130   4.375   1.067   4.245
 2077SOL    HW2 7131   4.511   1.020   4.167
 2078SOL     OW 7132   4.159   6.243   3.941
 2078SOL    HW1 7133   4.074   6.192   3.956
 2078SOL    HW2 7134   4.235   6.194   3.985
 2079SOL     OW 7135   6.135   6.626   3.665
 2079SOL    HW1 7136   6.182   6.664   3.745
 2079SOL    HW2 7137   6.072   6.554   3.693
 2080SOL     OW 7138   2.692   2.025   3.542
 2080SOL    HW1 7139   2.703   2.112   3.590
 2080SOL    HW2 7140   2.641   1.962   3.600
 2081SOL     OW 7141   1.109   6.374   3.965
 2081SOL    HW1 7142   1.071   6.431   4.038
 2081SOL    HW2 7143   1.106   6.425   3.879
 2082SOL     OW 7144   5.181   1.093   2.438
 2082SOL    HW1 7145   5.085   1.078   2.459
 2082SOL    HW2 7146   5.206   1.041   2.356
 2083SOL     OW 7147   3.667   4.552   6.328
 2083SOL    HW1 7148   3.578   4.542   6.283
 2083SOL    HW2 7149   3.681   4.477   6.392
 2084SOL     OW 7150   6.936   2.732   3.084
 2084SOL    HW1 7151   6.998   2.807   3.060
 2084SOL    HW2 7152   6.988   2.647   3.089
 2085SOL     OW 7153   6.096   6.764   0.122
 2085SOL    HW1 7154   6.140   6.701   0.186
 2085SOL    HW2 7155   6.002   6.736   0.107
 2086SOL     OW 7156   3.403   5.004   6.823
 2086SOL    HW1 7157   3.363   4.919   6.787
 2086SOL    HW2 7158   3.501   5.005   6.803
 2087SOL     OW 7159   5.503   5.843   3.403
 2087SOL    HW1 7160   5.542   5.751   3.406
 2087SOL    HW2 7161   5.436   5.848   3.329
 2088SOL     OW 7162   2.592   6.688   1.669
 2088SOL    HW1 7163   2.596   6.589   1.683
 2088SOL    HW2 7164   2.681   6.728   1.689
 2089SOL     OW 7165   2.419   1.108   6.704
 2089SOL    HW1 7166   2.351   1.180   6.693
 2089SOL    HW2 7167   2.510   1.146   6.689
 2090SOL     OW 7168   3.415   3.877   4.062
 2090SOL    HW1 7169   3.362   3.796   4.040
 2090SOL    HW2 7170   3.353   3.953   4.083
 2091SOL     OW 7171   2.926   4.121   0.773
 2091SOL    HW1 7172   2.955   4.120   0.869
 2091SOL    HW2 7173   2.852   4.188   0.761
 2092SOL     OW 7174   6.640   6.772   1.229
 2092SOL    HW1 7175   6.667   6.855   1.179
 2092SOL    HW2 7176   6.563   6.729   1.182
 2093SOL     OW 7177   1.522   1.563   1.495
 2093SOL    HW1 7178   1.589   1.554   1.569
 2093SOL    HW2 7179   1.547   1.501   1.420
 2094SOL     OW 7180   6.652   0.456   1.600
 2094SOL    HW1 7181   6.628   0.378   1.657
 2094SOL    HW2 7182   6.591   0.532   1.619
 2095SOL     OW 7183   6.315   4.743   5.295
 2095SOL    HW1 7184   6.354   4.729   5.386
 2095SOL    HW2 7185   6.234   4.686   5.284
 2096SOL     OW 7186   4.913   4.323   3.456
 2096SOL    HW1 7187   4.946   4.414   3.431
 2096SOL    HW2 7188   4.813   4.321   3.455
 2097SOL     OW 7189   6.420   3.642   5.649
 2097SOL    HW1 7190   6.470   3.645   5.735
 2097SOL    HW2 7191   6.435   3.553   5.605
 2098SOL     OW 7192   4.166   0.430   3.998
 2098SOL    HW1 7193   4.137   0.401   4.089
 2098SOL    HW2 7194   4.121   0.516   3.975
 2099SOL     OW 7195   2.605   1.789   3.705
 2099SOL    HW1 7196   2.638   1.844   3.782
 2099SOL    HW2 7197   2.611   1.692   3.729
 2100SOL     OW 7198   4.499   4.857   6.242
 2100SOL    HW1 7199   4.532   4.948   6.267
 2100SOL    HW2 7200   4.556   4.787   6.285
 2101SOL     OW 7201   6.078   6.881   1.848
 2101SOL    HW1 7202   6.178   6.884   1.845
 2101SOL    HW2 7203   6.041   6.919   1.764
 2102SOL     OW 7204   0.350   5.417   1.134
 2102SOL    HW1 7205   0.376   5.361   1.055
 2102SOL    HW2 7206   0.356   5.362   1.217
 2103SOL     OW 7207   3.381   3.698   6.490
 2103SOL    HW1 7208   3.439   3.622   6.458
 2103SOL    HW2 7209   3.324   3.730   6.414
 2104SOL     OW 7210   1.288   4.682   5.711
 2104SOL    HW1 7211   1.381   4.663   5.743
 2104SOL    HW2 7212   1.223   4.659   5.784
 2105SOL     OW 7213   5.899   5.724   2.471
 2105SOL    HW1 7214   5.820   5.662   2.473
 2105SOL    HW2 7215   5.914   5.761   2.563
 2106SOL     OW 7216   5.750   6.258   6.141
 2106SOL    HW1 7217   5.793   6.167   6.135
 2106SOL    HW2 7218   5.804   6.316   6.202
 2107SOL     OW 7219   2.622   5.175   0.332
 2107SOL    HW1 7220   2.626   5.252   0.268
 2107SOL    HW2 7221   2.665   5.202   0.418
 2108SOL     OW 7222   5.891   4.714   6.485
 2108SOL    HW1 7223   5.984   4.710   6.447
 2108SOL    HW2 7224   5.825   4.689   6.414
 2109SOL     OW 7225   5.184   5.219   2.775
 2109SOL    HW1 7226   5.148   5.180   2.859
 2109SOL    HW2 7227   5.279   5.189   2.762
 2110SOL     OW 7228   1.033   4.910   5.252
 2110SOL    HW1 7229   1.133   4.919   5.248
 2110SOL    HW2 7230   1.009   4.819   5.284
 2111SOL     OW 7231   1.946   2.056   6.693
 2111SOL    HW1 7232   2.009   2.027   6.621
 2111SOL    HW2 7233   1.982   2.138   6.738
 2112SOL     OW 7234   5.081   3.991   0.964
 2112SOL    HW1 7235   5.000   3.934   0.974
 2112SOL    HW2 7236   5.065   4.080   1.008
 2113SOL     OW 7237   6.708   1.543   3.254
 2113SOL    HW1 7238   6.744   1.466   3.201
 2113SOL    HW2 7239   6.759   1.626   3.232
 2114SOL     OW 7240   1.728   3.463   0.130
 2114SOL    HW1 7241   1.683   3.522   0.198
 2114SOL    HW2 7242   1.690   3.481   0.040
 2115SOL     OW 7243   4.002   5.557   2.225
 2115SOL    HW1 7244   4.010   5.646   2.181
 2115SOL    HW2 7245   4.092   5.511   2.225
 2116SOL     OW 7246   0.640   3.726   3.937
 2116SOL    HW1 7247   0.731   3.688   3.954
 2116SOL    HW2 7248   0.589   3.730   4.023
 2117SOL     OW 7249   6.979   5.911   5.584
 2117SOL    HW1 7250   6.989   5.937   5.488
 2117SOL    HW2 7251   6.940   5.820   5.590
 2118SOL     OW 7252   0.059   3.069   2.053
 2118SOL    HW1 7253   0.141   3.120   2.027
 2118SOL    HW2 7254   0.071   3.031   2.145
 2119SOL     OW 7255   4.110   6.308   0.263
 2119SOL    HW1 7256   4.183   6.252   0.223
 2119SOL    HW2 7257   4.150   6.391   0.303
 2120SOL     OW 7258   6.869   3.881   1.916
 2120SOL    HW1 7259   6.906   3.815   1.981
 2120SOL    HW2 7260   6.924   3.964   1.918
 2121SOL     OW 7261   0.625   4.029   5.142
 2121SOL    HW1 7262   0.704   4.087   5.161
 2121SOL    HW2 7263   0.628   3.947   5.200
 2122SOL     OW 7264   3.890   4.992   5.526
 2122SOL    HW1 7265   3.917   5.023   5.435
 2122SOL    HW2 7266   3.925   4.899   5.541
 2123SOL     OW 7267   4.573   5.436   3.355
 2123SOL    HW1 7268   4.589   5.404   3.449
 2123SOL    HW2 7269   4.648   5.407   3.296
 2124SOL     OW 7270   2.343   2.380   1.742
 2124SOL    HW1 7271   2.364   2.312   1.813
 2124SOL    HW2 7272   2.252   2.362   1.705
 2125SOL     OW 7273   5.138   6.226   0.582
 2125SOL    HW1 7274   5.104   6.165   0.512
 2125SOL    HW2 7275   5.084   6.310   0.583
 2126SOL     OW 7276   3.181   1.512   1.615
 2126SOL    HW1 7277   3.192   1.574   1.537
 2126SOL    HW2 7278   3.176   1.566   1.699
 2127SOL     OW 7279   5.573   3.064   4.206
 2127SOL    HW1 7280   5.648   3.005   4.176
 2127SOL    HW2 7281   5.486   3.015   4.195
 2128SOL     OW 7282   0.833   3.991   4.494
 2128SOL    HW1 7283   0.818   4.079   4.449
 2128SOL    HW2 7284   0.834   3.919   4.425
 2129SOL     OW 7285   4.538   2.332   5.065
 2129SOL    HW1 7286   4.507   2.427   5.065
 2129SOL    HW2 7287   4.638   2.330   5.070
 2130SOL     OW 7288   4.962   6.928   3.397
 2130SOL    HW1 7289   4.870   6.940   3.434
 2130SOL    HW2 7290   4.979   6.996   3.326
 2131SOL     OW 7291   4.962   1.882   6.477
 2131SOL    HW1 7292   5.026   1.822   6.525
 2131SOL    HW2 7293   4.979   1.977   6.503
 2132SOL     OW 7294   1.606   3.587   0.997
 2132SOL    HW1 7295   1.561   3.673   0.973
 2132SOL    HW2 7296   1.634   3.539   0.914
 2133SOL     OW 7297   2.411   4.126   6.152
 2133SOL    HW1 7298   2.508   4.149   6.152
 2133SOL    HW2 7299   2.380   4.114   6.058
 2134SOL     OW 7300   6.743   6.491   0.304
 2134SOL    HW1 7301   6.750   6.396   0.273
 2134SOL    HW2 7302   6.799   6.549   0.246
 2135SOL     OW 7303   6.545   5.304   5.612
 2135SOL    HW1 7304   6.548   5.223   5.671
 2135SOL    HW2 7305   6.596   5.286   5.528
 2136SOL     OW 7306   1.374   5.671   6.739
 2136SOL    HW1 7307   1.330   5.740   6.682
 2136SOL    HW2 7308   1.305   5.610   6.777
 2137SOL     OW 7309   1.481   6.975   3.689
 2137SOL    HW1 7310   1.438   0.024   3.633
 2137SOL    HW2 7311   1.423   6.956   3.769
 2138SOL     OW 7312   5.312   1.768   1.593
 2138SOL    HW1 7313   5.298   1.739   1.498
 2138SOL    HW2 7314   5.334   1.865   1.595
 2139SOL     OW 7315   2.793   6.023   5.541
 2139SOL    HW1 7316   2.850   5.996   5.463
 2139SOL    HW2 7317   2.816   5.967   5.620
 2140SOL     OW 7318   2.173   2.066   3.274
 2140SOL    HW1 7319   2.245   2.128   3.243
 2140SOL    HW2 7320   2.209   2.008   3.348
 2141SOL     OW 7321   6.573   3.035   3.156
 2141SOL    HW1 7322   6.595   3.050   3.252
 2141SOL    HW2 7323   6.642   3.079   3.098
 2142SOL     OW 7324   1.955   2.132   2.047
 2142SOL    HW1 7325   1.909   2.208   2.093
 2142SOL    HW2 7326   1.895   2.095   1.976
 2143SOL     OW 7327   6.561   5.720   5.440
 2143SOL    HW1 7328   6.654   5.687   5.451
 2143SOL    HW2 7329   6.497   5.659   5.487
 2144SOL     OW 7330   6.334   4.550   2.676
 2144SOL    HW1 7331   6.403   4.506   2.618
 2144SOL    HW2 7332   6.271   4.481   2.710
 2145SOL     OW 7333   4.126   1.552   3.242
 2145SOL    HW1 7334   4.209   1.544   3.186
 2145SOL    HW2 7335   4.121   1.644   3.281
 2146SOL     OW 7336   1.750   1.543   6.781
 2146SOL    HW1 7337   1.826   1.577   6.836
 2146SOL    HW2 7338   1.759   1.444   6.769
 2147SOL     OW 7339   6.342   6.856   5.104
 2147SOL    HW1 7340   6.289   6.886   5.183
 2147SOL    HW2 7341   6.283   6.800   5.045
 2148SOL     OW 7342   1.264   2.391   4.824
 2148SOL    HW1 7343   1.297   2.444   4.903
 2148SOL    HW2 7344   1.251   2.296   4.851
 2149SOL     OW 7345   6.921   6.701   0.240
 2149SOL    HW1 7346   6.989   6.637   0.206
 2149SOL    HW2 7347   6.956   6.794   0.231
 2150SOL     OW 7348   1.962   2.635   0.400
 2150SOL    HW1 7349   2.021   2.713   0.382
 2150SOL    HW2 7350   1.955   2.620   0.499
 2151SOL     OW 7351   1.137   4.919   6.468
 2151SOL    HW1 7352   1.119   4.914   6.566
 2151SOL    HW2 7353   1.195   4.842   6.441
 2152SOL     OW 7354   5.327   6.063   4.088
 2152SOL    HW1 7355   5.323   6.139   4.153
 2152SOL    HW2 7356   5.336   6.099   3.995
 2153SOL     OW 7357   4.951   6.602   4.192
 2153SOL    HW1 7358   4.906   6.678   4.145
 2153SOL    HW2 7359   4.887   6.525   4.201
 2154SOL     OW 7360   2.662   6.772   2.461
 2154SOL    HW1 7361   2.700   6.862   2.481
 2154SOL    HW2 7362   2.630   6.730   2.545
 2155SOL     OW 7363   4.962   0.334   1.156
 2155SOL    HW1 7364   4.893   0.390   1.203
 2155SOL    HW2 7365   4.916   0.276   1.088
 2156SOL     OW 7366   6.089   2.019   4.984
 2156SOL    HW1 7367   6.052   1.932   4.951
 2156SOL    HW2 7368   6.083   2.088   4.912
 2157SOL     OW 7369   4.313   6.463   3.893
 2157SOL    HW1 7370   4.397   6.438   3.847
 2157SOL    HW2 7371   4.250   6.385   3.893
 2158SOL     OW 7372   2.861   6.794   0.686
 2158SOL    HW1 7373   2.772   6.806   0.643
 2158SOL    HW2 7374   2.930   6.848   0.637
 2159SOL     OW 7375   0.006   1.544   5.558
 2159SOL    HW1 7376   6.980   1.498   5.632
 2159SOL    HW2 7377   6.970   1.543   5.476
 2160SOL     OW 7378   5.373   6.935   6.997
 2160SOL    HW1 7379   5.369   6.857   0.037
 2160SOL    HW2 7380   5.418   6.908   6.912
 2161SOL     OW 7381   1.466   3.798   0.586
 2161SOL    HW1 7382   1.534   3.821   0.655
 2161SOL    HW2 7383   1.437   3.882   0.539
 2162SOL     OW 7384   1.751   0.275   0.394
 2162SOL    HW1 7385   1.651   0.279   0.396
 2162SOL    HW2 7386   1.781   0.215   0.319
 2163SOL     OW 7387   0.852   2.764   3.985
 2163SOL    HW1 7388   0.911   2.715   4.049
 2163SOL    HW2 7389   0.809   2.841   4.032
 2164SOL     OW 7390   2.367   4.276   1.846
 2164SOL    HW1 7391   2.458   4.267   1.807
 2164SOL    HW2 7392   2.354   4.369   1.880
 2165SOL     OW 7393   5.852   1.338   5.412
 2165SOL    HW1 7394   5.900   1.324   5.498
 2165SOL    HW2 7395   5.895   1.284   5.340
 2166SOL     OW 7396   0.514   2.505   1.490
 2166SOL    HW1 7397   0.459   2.509   1.407
 2166SOL    HW2 7398   0.610   2.492   1.466
 2167SOL     OW 7399   1.692   2.400   2.981
 2167SOL    HW1 7400   1.632   2.461   2.929
 2167SOL    HW2 7401   1.657   2.307   2.975
 2168SOL     OW 7402   1.759   2.670   3.118
 2168SOL    HW1 7403   1.804   2.670   3.207
 2168SOL    HW2 7404   1.751   2.576   3.084
 2169SOL     OW 7405   6.923   6.886   1.346
 2169SOL    HW1 7406   6.932   6.975   1.392
 2169SOL    HW2 7407   6.854   6.831   1.394
 2170SOL     OW 7408   1.360   2.985   6.465
 2170SOL    HW1 7409   1.414   2.904   6.443
 2170SOL    HW2 7410   1.290   2.999   6.395
 2171SOL     OW 7411   6.954   6.360   1.353
 2171SOL    HW1 7412   6.944   6.276   1.408
 2171SOL    HW2 7413   0.012   6.412   1.386
 2172SOL     OW 7414   2.459   2.632   4.817
 2172SOL    HW1 7415   2.365   2.638   4.851
 2172SOL    HW2 7416   2.515   2.702   4.862
 2173SOL     OW 7417   4.914   0.318   4.837
 2173SOL    HW1 7418   4.993   0.257   4.831
 2173SOL    HW2 7419   4.887   0.345   4.744
 2174SOL     OW 7420   5.102   0.231   5.985
 2174SOL    HW1 7421   5.157   0.172   6.044
 2174SOL    HW2 7422   5.024   0.180   5.949
 2175SOL     OW 7423   3.625   2.929   5.532
 2175SOL    HW1 7424   3.616   2.909   5.435
 2175SOL    HW2 7425   3.673   3.016   5.544
 2176SOL     OW 7426   6.724   2.095   2.857
 2176SOL    HW1 7427   6.683   2.128   2.772
 2176SOL    HW2 7428   6.814   2.137   2.869
 2177SOL     OW 7429   0.363   0.945   5.604
 2177SOL    HW1 7430   0.380   0.909   5.696
 2177SOL    HW2 7431   0.405   0.884   5.536
 2178SOL     OW 7432   1.776   2.433   2.130
 2178SOL    HW1 7433   1.791   2.521   2.175
 2178SOL    HW2 7434   1.730   2.371   2.193
 2179SOL     OW 7435   1.269   4.282   7.021
 2179SOL    HW1 7436   1.312   4.358   0.048
 2179SOL    HW2 7437   1.247   4.209   0.065
 2180SOL     OW 7438   0.486   5.359   2.499
 2180SOL    HW1 7439   0.470   5.299   2.421
 2180SOL    HW2 7440   0.398   5.384   2.540
 2181SOL     OW 7441   4.471   4.827   4.305
 2181SOL    HW1 7442   4.467   4.753   4.372
 2181SOL    HW2 7443   4.396   4.891   4.321
 2182SOL     OW 7444   0.319   6.705   1.316
 2182SOL    HW1 7445   0.419   6.696   1.325
 2182SOL    HW2 7446   0.292   6.796   1.345
 2183SOL     OW 7447   3.793   2.999   6.799
 2183SOL    HW1 7448   3.848   2.937   6.855
 2183SOL    HW2 7449   3.708   2.954   6.774
 2184SOL     OW 7450   6.154   1.721   7.016
 2184SOL    HW1 7451   6.081   1.729   0.062
 2184SOL    HW2 7452   6.238   1.690   0.041
 2185SOL     OW 7453   0.692   1.490   6.205
 2185SOL    HW1 7454   0.665   1.479   6.110
 2185SOL    HW2 7455   0.775   1.436   6.223
 2186SOL     OW 7456   0.082   6.244   5.421
 2186SOL    HW1 7457   0.122   6.336   5.415
 2186SOL    HW2 7458   0.155   6.176   5.412
 2187SOL     OW 7459   6.025   4.255   1.794
 2187SOL    HW1 7460   6.102   4.191   1.804
 2187SOL    HW2 7461   5.941   4.209   1.821
 2188SOL     OW 7462   2.937   1.238   1.031
 2188SOL    HW1 7463   2.896   1.274   1.115
 2188SOL    HW2 7464   2.930   1.138   1.031
 2189SOL     OW 7465   2.163   0.801   2.320
 2189SOL    HW1 7466   2.075   0.847   2.319
 2189SOL    HW2 7467   2.216   0.832   2.398
 2190SOL     OW 7468   6.401   4.711   2.302
 2190SOL    HW1 7469   6.318   4.707   2.359
 2190SOL    HW2 7470   6.375   4.697   2.206
 2191SOL     OW 7471   3.689   6.805   6.880
 2191SOL    HW1 7472   3.747   6.804   6.962
 2191SOL    HW2 7473   3.593   6.804   6.906
 2192SOL     OW 7474   4.540   2.246   1.636
 2192SOL    HW1 7475   4.612   2.315   1.622
 2192SOL    HW2 7476   4.494   2.228   1.550
 2193SOL     OW 7477   1.512   0.762   4.924
 2193SOL    HW1 7478   1.530   0.806   4.836
 2193SOL    HW2 7479   1.596   0.762   4.978
 2194SOL     OW 7480   1.016   4.637   5.305
 2194SOL    HW1 7481   0.936   4.578   5.320
 2194SOL    HW2 7482   1.083   4.588   5.249
 2195SOL     OW 7483   0.288   3.789   5.615
 2195SOL    HW1 7484   0.376   3.835   5.617
 2195SOL    HW2 7485   0.268   3.758   5.522
 2196SOL     OW 7486   4.080   1.319   6.920
 2196SOL    HW1 7487   4.021   1.365   6.853
 2196SOL    HW2 7488   4.032   1.240   6.958
 2197SOL     OW 7489   4.085   5.208   6.620
 2197SOL    HW1 7490   4.152   5.136   6.635
 2197SOL    HW2 7491   4.118   5.293   6.661
 2198SOL     OW 7492   1.911   1.350   6.228
 2198SOL    HW1 7493   1.938   1.266   6.275
 2198SOL    HW2 7494   1.923   1.428   6.289
 2199SOL     OW 7495   4.348   6.752   3.893
 2199SOL    HW1 7496   4.313   6.771   3.984
 2199SOL    HW2 7497   4.340   6.654   3.874
 2200SOL     OW 7498   2.688   2.269   4.741
 2200SOL    HW1 7499   2.780   2.305   4.754
 2200SOL    HW2 7500   2.684   2.217   4.656
 2201SOL     OW 7501   5.864   3.342   5.024
 2201SOL    HW1 7502   5.919   3.261   5.006
 2201SOL    HW2 7503   5.794   3.320   5.092
 2202SOL     OW 7504   4.069   6.965   4.067
 2202SOL    HW1 7505   4.128   6.891   4.100
 2202SOL    HW2 7506   4.047   6.948   3.971
 2203SOL     OW 7507   2.168   5.501   1.280
 2203SOL    HW1 7508   2.199   5.415   1.238
 2203SOL    HW2 7509   2.242   5.539   1.336
 2204SOL     OW 7510   5.166   2.866   0.696
 2204SOL    HW1 7511   5.082   2.894   0.648
 2204SOL    HW2 7512   5.207   2.946   0.740
 2205SOL     OW 7513   5.449   5.334   1.126
 2205SOL    HW1 7514   5.434   5.389   1.043
 2205SOL    HW2 7515   5.428   5.389   1.207
 2206SOL     OW 7516   3.583   2.834   5.266
 2206SOL    HW1 7517   3.517   2.760   5.256
 2206SOL    HW2 7518   3.543   2.919   5.231
 2207SOL     OW 7519   4.440   5.309   1.857
 2207SOL    HW1 7520   4.477   5.231   1.805
 2207SOL    HW2 7521   4.433   5.389   1.797
 2208SOL     OW 7522   6.617   6.514   3.305
 2208SOL    HW1 7523   6.598   6.431   3.252
 2208SOL    HW2 7524   6.603   6.594   3.247
 2209SOL     OW 7525   2.386   5.646   3.543
 2209SOL    HW1 7526   2.381   5.666   3.641
 2209SOL    HW2 7527   2.382   5.547   3.529
 2210SOL     OW 7528   5.304   6.350   2.285
 2210SOL    HW1 7529   5.394   6.323   2.319
 2210SOL    HW2 7530   5.256   6.401   2.355
 2211SOL     OW 7531   1.327   0.988   1.680
 2211SOL    HW1 7532   1.237   0.945   1.680
 2211SOL    HW2 7533   1.344   1.031   1.769
 2212SOL     OW 7534   2.935   6.105   5.955
 2212SOL    HW1 7535   2.902   6.189   5.912
 2212SOL    HW2 7536   2.915   6.027   5.896
 2213SOL     OW 7537   3.434   1.259   4.578
 2213SOL    HW1 7538   3.374   1.317   4.634
 2213SOL    HW2 7539   3.521   1.307   4.563
 2214SOL     OW 7540   4.424   4.516   6.588
 2214SOL    HW1 7541   4.391   4.568   6.510
 2214SOL    HW2 7542   4.445   4.578   6.664
 2215SOL     OW 7543   5.557   5.419   6.461
 2215SOL    HW1 7544   5.605   5.390   6.379
 2215SOL    HW2 7545   5.622   5.420   6.538
 2216SOL     OW 7546   0.314   6.102   0.172
 2216SOL    HW1 7547   0.300   6.025   0.234
 2216SOL    HW2 7548   0.277   6.185   0.213
 2217SOL     OW 7549   4.124   1.554   3.599
 2217SOL    HW1 7550   4.119   1.582   3.694
 2217SOL    HW2 7551   4.134   1.454   3.594
 2218SOL     OW 7552   6.137   5.715   5.388
 2218SOL    HW1 7553   6.191   5.738   5.469
 2218SOL    HW2 7554   6.180   5.639   5.339
 2219SOL     OW 7555   5.558   1.954   0.327
 2219SOL    HW1 7556   5.540   2.023   0.257
 2219SOL    HW2 7557   5.530   1.988   0.416
 2220SOL     OW 7558   6.906   6.535   4.415
 2220SOL    HW1 7559   6.867   6.478   4.343
 2220SOL    HW2 7560   6.869   6.628   4.408
 2221SOL     OW 7561   5.431   0.491   3.579
 2221SOL    HW1 7562   5.405   0.478   3.483
 2221SOL    HW2 7563   5.350   0.487   3.637
 2222SOL     OW 7564   3.745   0.939   3.546
 2222SOL    HW1 7565   3.686   1.003   3.496
 2222SOL    HW2 7566   3.730   0.951   3.644
 2223SOL     OW 7567   0.711   0.158   5.537
 2223SOL    HW1 7568   0.697   0.061   5.521
 2223SOL    HW2 7569   0.649   0.211   5.478
 2224SOL     OW 7570   5.443   4.183   6.816
 2224SOL    HW1 7571   5.399   4.273   6.812
 2224SOL    HW2 7572   5.465   4.153   6.723
 2225SOL     OW 7573   6.815   6.929   0.923
 2225SOL    HW1 7574   6.865   6.844   0.905
 2225SOL    HW2 7575   6.730   6.930   0.871
 2226SOL     OW 7576   2.585   3.286   6.937
 2226SOL    HW1 7577   2.656   3.339   6.892
 2226SOL    HW2 7578   2.611   3.269   0.011
 2227SOL     OW 7579   4.315   1.697   1.809
 2227SOL    HW1 7580   4.292   1.651   1.895
 2227SOL    HW2 7581   4.314   1.796   1.823
 2228SOL     OW 7582   4.958   6.782   6.567
 2228SOL    HW1 7583   4.869   6.769   6.611
 2228SOL    HW2 7584   4.982   6.699   6.517
 2229SOL     OW 7585   3.031   3.157   4.588
 2229SOL    HW1 7586   2.999   3.234   4.533
 2229SOL    HW2 7587   3.130   3.147   4.577
 2230SOL     OW 7588   6.876   0.860   6.383
 2230SOL    HW1 7589   6.857   0.920   6.305
 2230SOL    HW2 7590   6.921   0.913   6.455
 2231SOL     OW 7591   1.023   6.891   6.563
 2231SOL    HW1 7592   1.059   6.872   6.654
 2231SOL    HW2 7593   1.056   6.980   6.533
 2232SOL     OW 7594   1.614   0.671   6.465
 2232SOL    HW1 7595   1.676   0.620   6.407
 2232SOL    HW2 7596   1.569   0.743   6.412
 2233SOL     OW 7597   2.954   5.063   1.164
 2233SOL    HW1 7598   2.874   5.046   1.221
 2233SOL    HW2 7599   3.026   4.998   1.188
 2234SOL     OW 7600   5.072   2.087   1.497
 2234SOL    HW1 7601   5.155   2.135   1.526
 2234SOL    HW2 7602   5.022   2.142   1.431
 2235SOL     OW 7603   1.160   2.171   3.150
 2235SOL    HW1 7604   1.070   2.203   3.179
 2235SOL    HW2 7605   1.181   2.084   3.194
 2236SOL     OW 7606   2.688   4.783   5.167
 2236SOL    HW1 7607   2.639   4.723   5.230
 2236SOL    HW2 7608   2.765   4.734   5.127
 2237SOL     OW 7609   5.783   6.653   6.154
 2237SOL    HW1 7610   5.743   6.629   6.065
 2237SOL    HW2 7611   5.757   6.747   6.177
 2238SOL     OW 7612   5.507   4.121   2.418
 2238SOL    HW1 7613   5.500   4.034   2.369
 2238SOL    HW2 7614   5.581   4.175   2.378
 2239SOL     OW 7615   3.917   0.095   2.951
 2239SOL    HW1 7616   3.947   0.001   2.931
 2239SOL    HW2 7617   3.880   0.098   3.044
 2240SOL     OW 7618   4.834   5.566   2.171
 2240SOL    HW1 7619   4.851   5.487   2.230
 2240SOL    HW2 7620   4.895   5.563   2.092
 2241SOL     OW 7621   1.080   1.772   2.934
 2241SOL    HW1 7622   0.999   1.754   2.990
 2241SOL    HW2 7623   1.054   1.779   2.838
 2242SOL     OW 7624   5.739   2.131   4.079
 2242SOL    HW1 7625   5.783   2.211   4.118
 2242SOL    HW2 7626   5.729   2.143   3.980
 2243SOL     OW 7627   2.332   0.481   0.030
 2243SOL    HW1 7628   2.289   0.392   0.043
 2243SOL    HW2 7629   2.265   0.554   0.040
 2244SOL     OW 7630   2.835   1.923   1.137
 2244SOL    HW1 7631   2.879   1.938   1.048
 2244SOL    HW2 7632   2.905   1.899   1.205
 2245SOL     OW 7633   0.069   0.853   0.519
 2245SOL    HW1 7634   0.073   0.767   0.570
 2245SOL    HW2 7635   0.087   0.835   0.422
 2246SOL     OW 7636   5.250   0.602   5.743
 2246SOL    HW1 7637   5.193   0.543   5.686
 2246SOL    HW2 7638   5.291   0.547   5.816
 2247SOL     OW 7639   3.021   3.296   1.731
 2247SOL    HW1 7640   2.952   3.224   1.732
 2247SOL    HW2 7641   3.033   3.331   1.824
 2248SOL     OW 7642   5.050   3.280   4.878
 2248SOL    HW1 7643   5.129   3.268   4.818
 2248SOL    HW2 7644   5.058   3.367   4.927
 2249SOL     OW 7645   2.016   6.360   3.839
 2249SOL    HW1 7646   2.071   6.297   3.785
 2249SOL    HW2 7647   2.055   6.452   3.833
 2250SOL     OW 7648   4.668   5.694   6.333
 2250SOL    HW1 7649   4.721   5.770   6.369
 2250SOL    HW2 7650   4.578   5.727   6.303
 2251SOL     OW 7651   3.762   6.742   4.686
 2251SOL    HW1 7652   3.803   6.818   4.736
 2251SOL    HW2 7653   3.677   6.715   4.732
 2252SOL     OW 7654   3.983   1.147   2.829
 2252SOL    HW1 7655   3.927   1.088   2.770
 2252SOL    HW2 7656   3.931   1.229   2.853
 2253SOL     OW 7657   1.055   2.826   1.765
 2253SOL    HW1 7658   1.124   2.890   1.798
 2253SOL    HW2 7659   1.099   2.761   1.702
 2254SOL     OW 7660   3.193   3.182   3.114
 2254SOL    HW1 7661   3.248   3.228   3.045
 2254SOL    HW2 7662   3.098   3.179   3.085
 2255SOL     OW 7663   1.589   2.380   6.187
 2255SOL    HW1 7664   1.587   2.392   6.286
 2255SOL    HW2 7665   1.553   2.462   6.143
 2256SOL     OW 7666   4.945   0.383   1.566
 2256SOL    HW1 7667   4.888   0.457   1.600
 2256SOL    HW2 7668   5.011   0.356   1.636
 2257SOL     OW 7669   0.165   0.481   6.363
 2257SOL    HW1 7670   0.093   0.535   6.318
 2257SOL    HW2 7671   0.123   0.413   6.422
 2258SOL     OW 7672   2.443   0.236   3.305
 2258SOL    HW1 7673   2.460   0.209   3.400
 2258SOL    HW2 7674   2.352   0.275   3.297
 2259SOL     OW 7675   5.900   0.324   5.374
 2259SOL    HW1 7676   5.955   0.300   5.295
 2259SOL    HW2 7677   5.956   0.374   5.440
 2260SOL     OW 7678   1.764   3.792   1.162
 2260SOL    HW1 7679   1.751   3.693   1.167
 2260SOL    HW2 7680   1.726   3.825   1.076
 2261SOL     OW 7681   4.871   4.254   6.187
 2261SOL    HW1 7682   4.895   4.243   6.091
 2261SOL    HW2 7683   4.923   4.330   6.227
 2262SOL     OW 7684   6.874   0.018   4.083
 2262SOL    HW1 7685   6.858   0.110   4.122
 2262SOL    HW2 7686   6.885   0.025   3.984
 2263SOL     OW 7687   2.449   4.594   6.438
 2263SOL    HW1 7688   2.461   4.591   6.339
 2263SOL    HW2 7689   2.407   4.508   6.469
 2264SOL     OW 7690   1.838   0.073   6.754
 2264SOL    HW1 7691   1.817   0.167   6.779
 2264SOL    HW2 7692   1.755   0.028   6.721
 2265SOL     OW 7693   0.262   6.420   3.726
 2265SOL    HW1 7694   0.211   6.498   3.690
 2265SOL    HW2 7695   0.311   6.447   3.809
 2266SOL     OW 7696   4.956   3.875   6.274
 2266SOL    HW1 7697   5.019   3.908   6.345
 2266SOL    HW2 7698   4.863   3.872   6.310
 2267SOL     OW 7699   5.697   3.322   4.255
 2267SOL    HW1 7700   5.645   3.240   4.235
 2267SOL    HW2 7701   5.656   3.400   4.208
 2268SOL     OW 7702   0.989   6.119   4.824
 2268SOL    HW1 7703   1.087   6.105   4.814
 2268SOL    HW2 7704   0.940   6.048   4.772
 2269SOL     OW 7705   1.974   2.408   5.647
 2269SOL    HW1 7706   2.020   2.421   5.559
 2269SOL    HW2 7707   1.922   2.322   5.646
 2270SOL     OW 7708   5.122   2.231   6.260
 2270SOL    HW1 7709   5.200   2.279   6.298
 2270SOL    HW2 7710   5.127   2.233   6.160
 2271SOL     OW 7711   3.987   5.585   5.162
 2271SOL    HW1 7712   4.022   5.493   5.180
 2271SOL    HW2 7713   3.902   5.599   5.213
 2272SOL     OW 7714   5.826   0.843   6.036
 2272SOL    HW1 7715   5.808   0.827   6.133
 2272SOL    HW2 7716   5.816   0.940   6.016
 2273SOL     OW 7717   1.162   2.176   4.114
 2273SOL    HW1 7718   1.170   2.235   4.194
 2273SOL    HW2 7719   1.204   2.220   4.035
 2274SOL     OW 7720   1.331   1.419   7.013
 2274SOL    HW1 7721   1.244   1.461   6.988
 2274SOL    HW2 7722   1.335   1.407   0.091
 2275SOL     OW 7723   5.738   3.704   3.565
 2275SOL    HW1 7724   5.653   3.673   3.522
 2275SOL    HW2 7725   5.717   3.748   3.653
 2276SOL     OW 7726   1.901   1.751   1.154
 2276SOL    HW1 7727   1.865   1.672   1.203
 2276SOL    HW2 7728   1.827   1.817   1.138
 2277SOL     OW 7729   3.199   2.997   3.531
 2277SOL    HW1 7730   3.268   2.972   3.599
 2277SOL    HW2 7731   3.210   2.941   3.450
 2278SOL     OW 7732   6.613   3.501   3.860
 2278SOL    HW1 7733   6.705   3.464   3.847
 2278SOL    HW2 7734   6.620   3.591   3.904
 2279SOL     OW 7735   0.909   5.117   5.767
 2279SOL    HW1 7736   0.973   5.096   5.692
 2279SOL    HW2 7737   0.951   5.091   5.854
 2280SOL     OW 7738   4.654   2.229   5.638
 2280SOL    HW1 7739   4.603   2.143   5.642
 2280SOL    HW2 7740   4.593   2.304   5.615
 2281SOL     OW 7741   4.760   6.953   2.333
 2281SOL    HW1 7742   4.726   6.859   2.327
 2281SOL    HW2 7743   4.682   7.016   2.328
 2282SOL     OW 7744   3.508   5.371   5.372
 2282SOL    HW1 7745   3.554   5.343   5.288
 2282SOL    HW2 7746   3.535   5.310   5.446
 2283SOL     OW 7747   6.938   0.797   5.146
 2283SOL    HW1 7748   6.941   0.719   5.209
 2283SOL    HW2 7749   6.917   0.765   5.054
 2284SOL     OW 7750   1.418   3.783   6.443
 2284SOL    HW1 7751   1.380   3.805   6.532
 2284SOL    HW2 7752   1.409   3.685   6.426
 2285SOL     OW 7753   1.299   5.320   6.630
 2285SOL    HW1 7754   1.327   5.322   6.726
 2285SOL    HW2 7755   1.199   5.311   6.625
 2286SOL     OW 7756   4.532   4.456   2.676
 2286SOL    HW1 7757   4.481   4.459   2.762
 2286SOL    HW2 7758   4.577   4.545   2.662
 2287SOL     OW 7759   1.235   1.452   4.356
 2287SOL    HW1 7760   1.207   1.418   4.446
 2287SOL    HW2 7761   1.153   1.472   4.301
 2288SOL     OW 7762   6.373   5.509   2.894
 2288SOL    HW1 7763   6.362   5.440   2.966
 2288SOL    HW2 7764   6.378   5.600   2.936
 2289SOL     OW 7765   0.297   5.189   0.099
 2289SOL    HW1 7766   0.216   5.159   0.148
 2289SOL    HW2 7767   0.320   5.122   0.028
 2290SOL     OW 7768   0.887   5.532   6.693
 2290SOL    HW1 7769   0.906   5.602   6.623
 2290SOL    HW2 7770   0.791   5.538   6.719
 2291SOL     OW 7771   1.995   1.561   6.898
 2291SOL    HW1 7772   2.033   1.609   6.819
 2291SOL    HW2 7773   2.031   1.601   6.982
 2292SOL     OW 7774   1.860   1.050   4.519
 2292SOL    HW1 7775   1.787   1.091   4.573
 2292SOL    HW2 7776   1.842   1.067   4.422
 2293SOL     OW 7777   5.458   4.634   2.771
 2293SOL    HW1 7778   5.505   4.720   2.751
 2293SOL    HW2 7779   5.368   4.634   2.727
 2294SOL     OW 7780   3.869   6.712   0.074
 2294SOL    HW1 7781   3.934   6.674   0.008
 2294SOL    HW2 7782   3.906   6.703   0.166
 2295SOL     OW 7783   0.860   0.927   2.305
 2295SOL    HW1 7784   0.917   0.850   2.333
 2295SOL    HW2 7785   0.875   0.946   2.207
 2296SOL     OW 7786   3.099   6.100   0.227
 2296SOL    HW1 7787   3.143   6.045   0.298
 2296SOL    HW2 7788   3.166   6.124   0.156
 2297SOL     OW 7789   4.323   6.558   6.946
 2297SOL    HW1 7790   4.401   6.607   6.986
 2297SOL    HW2 7791   4.343   6.460   6.945
 2298SOL     OW 7792   4.184   3.046   6.859
 2298SOL    HW1 7793   4.236   3.117   6.907
 2298SOL    HW2 7794   4.103   3.023   6.912
 2299SOL     OW 7795   4.268   6.905   0.637
 2299SOL    HW1 7796   4.333   6.849   0.587
 2299SOL    HW2 7797   4.261   6.995   0.594
 2300SOL     OW 7798   1.295   5.286   0.881
 2300SOL    HW1 7799   1.346   5.218   0.935
 2300SOL    HW2 7800   1.207   5.248   0.854
 2301SOL     OW 7801   3.471   3.443   1.867
 2301SOL    HW1 7802   3.480   3.385   1.786
 2301SOL    HW2 7803   3.516   3.399   1.944
 2302SOL     OW 7804   2.481   5.318   2.873
 2302SOL    HW1 7805   2.452   5.380   2.945
 2302SOL    HW2 7806   2.401   5.283   2.824
 2303SOL     OW 7807   0.200   3.267   6.485
 2303SOL    HW1 7808   0.113   3.223   6.505
 2303SOL    HW2 7809   0.270   3.234   6.549
 2304SOL     OW 7810   1.855   1.671   4.906
 2304SOL    HW1 7811   1.943   1.677   4.954
 2304SOL    HW2 7812   1.824   1.576   4.905
 2305SOL     OW 7813   4.102   4.848   1.977
 2305SOL    HW1 7814   4.022   4.903   1.955
 2305SOL    HW2 7815   4.101   4.765   1.922
 2306SOL     OW 7816   0.401   4.590   0.444
 2306SOL    HW1 7817   0.455   4.530   0.503
 2306SOL    HW2 7818   0.365   4.666   0.498
 2307SOL     OW 7819   0.591   0.960   3.255
 2307SOL    HW1 7820   0.588   0.868   3.217
 2307SOL    HW2 7821   0.603   1.027   3.181
 2308SOL     OW 7822   1.080   0.044   0.187
 2308SOL    HW1 7823   1.129   0.131   0.196
 2308SOL    HW2 7824   1.103   7.005   0.264
 2309SOL     OW 7825   2.027   5.078   6.097
 2309SOL    HW1 7826   1.959   5.061   6.026
 2309SOL    HW2 7827   2.115   5.040   6.068
 2310SOL     OW 7828   5.543   1.450   3.359
 2310SOL    HW1 7829   5.536   1.526   3.294
 2310SOL    HW2 7830   5.474   1.461   3.430
 2311SOL     OW 7831   2.666   0.461   2.672
 2311SOL    HW1 7832   2.710   0.374   2.692
 2311SOL    HW2 7833   2.736   0.533   2.666
 2312SOL     OW 7834   2.475   1.103   2.717
 2312SOL    HW1 7835   2.448   1.052   2.798
 2312SOL    HW2 7836   2.574   1.114   2.715
 2313SOL     OW 7837   5.029   4.315   2.077
 2313SOL    HW1 7838   5.055   4.274   2.165
 2313SOL    HW2 7839   4.930   4.310   2.066
 2314SOL     OW 7840   6.310   5.940   2.732
 2314SOL    HW1 7841   6.222   5.963   2.775
 2314SOL    HW2 7842   6.358   6.024   2.709
 2315SOL     OW 7843   4.658   6.310   5.024
 2315SOL    HW1 7844   4.583   6.304   5.090
 2315SOL    HW2 7845   4.733   6.250   5.052
 2316SOL     OW 7846   3.304   1.586   6.079
 2316SOL    HW1 7847   3.228   1.628   6.028
 2316SOL    HW2 7848   3.269   1.508   6.131
 2317SOL     OW 7849   6.883   5.256   2.725
 2317SOL    HW1 7850   6.839   5.218   2.805
 2317SOL    HW2 7851   6.855   5.352   2.713
 2318SOL     OW 7852   0.983   4.405   4.149
 2318SOL    HW1 7853   0.961   4.315   4.187
 2318SOL    HW2 7854   1.010   4.395   4.053
 2319SOL     OW 7855   2.061   5.618   3.073
 2319SOL    HW1 7856   2.091   5.708   3.042
 2319SOL    HW2 7857   2.139   5.567   3.109
 2320SOL     OW 7858   1.083   1.701   5.540
 2320SOL    HW1 7859   1.006   1.764   5.543
 2320SOL    HW2 7860   1.134   1.706   5.626
 2321SOL     OW 7861   1.975   4.867   5.219
 2321SOL    HW1 7862   2.016   4.893   5.307
 2321SOL    HW2 7863   1.876   4.883   5.222
 2322SOL     OW 7864   2.161   4.239   1.629
 2322SOL    HW1 7865   2.230   4.279   1.569
 2322SOL    HW2 7866   2.188   4.252   1.724
 2323SOL     OW 7867   2.672   5.432   0.738
 2323SOL    HW1 7868   2.602   5.488   0.783
 2323SOL    HW2 7869   2.714   5.484   0.664
 2324SOL     OW 7870   6.835   5.049   2.530
 2324SOL    HW1 7871   6.741   5.037   2.498
 2324SOL    HW2 7872   6.835   5.105   2.613
 2325SOL     OW 7873   6.560   5.114   2.486
 2325SOL    HW1 7874   6.539   5.078   2.577
 2325SOL    HW2 7875   6.557   5.214   2.487
 2326SOL     OW 7876   1.938   0.425   0.191
 2326SOL    HW1 7877   2.005   0.454   0.123
 2326SOL    HW2 7878   1.941   0.326   0.202
 2327SOL     OW 7879   6.665   6.592   2.006
 2327SOL    HW1 7880   6.588   6.530   1.992
 2327SOL    HW2 7881   6.643   6.682   1.967
 2328SOL     OW 7882   2.223   3.978   2.148
 2328SOL    HW1 7883   2.208   4.069   2.109
 2328SOL    HW2 7884   2.315   3.948   2.125
 2329SOL     OW 7885   0.630   4.647   2.762
 2329SOL    HW1 7886   0.643   4.713   2.689
 2329SOL    HW2 7887   0.641   4.554   2.726
 2330SOL     OW 7888   6.022   3.285   1.286
 2330SOL    HW1 7889   6.026   3.265   1.384
 2330SOL    HW2 7890   5.960   3.362   1.270
 2331SOL     OW 7891   4.778   5.791   1.222
 2331SOL    HW1 7892   4.718   5.714   1.241
 2331SOL    HW2 7893   4.727   5.876   1.229
 2332SOL     OW 7894   5.712   0.057   5.928
 2332SOL    HW1 7895   5.710   0.005   6.014
 2332SOL    HW2 7896   5.643   0.129   5.932
 2333SOL     OW 7897   0.996   4.662   2.320
 2333SOL    HW1 7898   1.006   4.751   2.277
 2333SOL    HW2 7899   1.008   4.590   2.251
 2334SOL     OW 7900   3.176   1.482   6.424
 2334SOL    HW1 7901   3.111   1.534   6.479
 2334SOL    HW2 7902   3.134   1.458   6.337
 2335SOL     OW 7903   6.699   1.535   3.554
 2335SOL    HW1 7904   6.698   1.553   3.456
 2335SOL    HW2 7905   6.684   1.621   3.604
 2336SOL     OW 7906   1.720   1.929   3.529
 2336SOL    HW1 7907   1.622   1.941   3.547
 2336SOL    HW2 7908   1.747   1.988   3.453
 2337SOL     OW 7909   4.008   0.976   1.597
 2337SOL    HW1 7910   3.911   1.003   1.595
 2337SOL    HW2 7911   4.057   1.033   1.663
 2338SOL     OW 7912   0.079   3.765   3.977
 2338SOL    HW1 7913   0.001   3.779   4.038
 2338SOL    HW2 7914   0.119   3.675   3.994
 2339SOL     OW 7915   2.994   3.220   3.547
 2339SOL    HW1 7916   3.086   3.183   3.564
 2339SOL    HW2 7917   2.988   3.251   3.452
 2340SOL     OW 7918   2.365   4.386   6.791
 2340SOL    HW1 7919   2.371   4.359   6.695
 2340SOL    HW2 7920   2.402   4.478   6.803
 2341SOL     OW 7921   2.438   4.480   4.215
 2341SOL    HW1 7922   2.378   4.469   4.294
 2341SOL    HW2 7923   2.460   4.577   4.203
 2342SOL     OW 7924   3.546   1.158   4.033
 2342SOL    HW1 7925   3.513   1.066   4.053
 2342SOL    HW2 7926   3.470   1.216   4.004
 2343SOL     OW 7927   0.626   0.102   1.492
 2343SOL    HW1 7928   0.723   0.098   1.512
 2343SOL    HW2 7929   0.574   0.119   1.576
 2344SOL     OW 7930   5.810   4.538   0.209
 2344SOL    HW1 7931   5.758   4.462   0.171
 2344SOL    HW2 7932   5.856   4.587   0.134
 2345SOL     OW 7933   3.623   6.210   4.811
 2345SOL    HW1 7934   3.621   6.295   4.864
 2345SOL    HW2 7935   3.546   6.152   4.839
 2346SOL     OW 7936   4.762   3.671   0.334
 2346SOL    HW1 7937   4.815   3.756   0.332
 2346SOL    HW2 7938   4.800   3.606   0.269
 2347SOL     OW 7939   1.690   1.894   1.093
 2347SOL    HW1 7940   1.613   1.831   1.098
 2347SOL    HW2 7941   1.711   1.912   0.997
 2348SOL     OW 7942   0.367   5.211   2.269
 2348SOL    HW1 7943   0.401   5.119   2.253
 2348SOL    HW2 7944   0.328   5.248   2.185
 2349SOL     OW 7945   1.119   4.266   5.318
 2349SOL    HW1 7946   1.170   4.225   5.243
 2349SOL    HW2 7947   1.183   4.309   5.382
 2350SOL     OW 7948   5.163   3.747   0.175
 2350SOL    HW1 7949   5.192   3.772   0.267
 2350SOL    HW2 7950   5.183   3.823   0.112
 2351SOL     OW 7951   2.702   5.876   1.391
 2351SOL    HW1 7952   2.716   5.823   1.474
 2351SOL    HW2 7953   2.604   5.888   1.374
 2352SOL     OW 7954   6.733   2.279   3.547
 2352SOL    HW1 7955   6.767   2.318   3.633
 2352SOL    HW2 7956   6.633   2.278   3.548
 2353SOL     OW 7957   3.177   5.131   4.084
 2353SOL    HW1 7958   3.197   5.197   4.156
 2353SOL    HW2 7959   3.089   5.154   4.042
 2354SOL     OW 7960   2.459   2.643   3.786
 2354SOL    HW1 7961   2.429   2.570   3.725
 2354SOL    HW2 7962   2.544   2.682   3.751
 2355SOL     OW 7963   2.665   5.645   4.734
 2355SOL    HW1 7964   2.618   5.556   4.728
 2355SOL    HW2 7965   2.667   5.688   4.644
 2356SOL     OW 7966   6.872   2.751   6.858
 2356SOL    HW1 7967   6.958   2.800   6.874
 2356SOL    HW2 7968   6.819   2.750   6.942
 2357SOL     OW 7969   2.117   6.751   3.117
 2357SOL    HW1 7970   2.103   6.850   3.111
 2357SOL    HW2 7971   2.205   6.733   3.162
 2358SOL     OW 7972   3.386   4.759   5.751
 2358SOL    HW1 7973   3.407   4.780   5.847
 2358SOL    HW2 7974   3.457   4.798   5.692
 2359SOL     OW 7975   1.533   0.486   4.930
 2359SOL    HW1 7976   1.496   0.579   4.934
 2359SOL    HW2 7977   1.600   0.474   5.003
 2360SOL     OW 7978   6.853   4.097   7.000
 2360SOL    HW1 7979   6.773   4.085   0.037
 2360SOL    HW2 7980   6.903   4.179   0.006
 2361SOL     OW 7981   3.425   1.359   0.315
 2361SOL    HW1 7982   3.345   1.400   0.358
 2361SOL    HW2 7983   3.430   1.262   0.339
 2362SOL     OW 7984   2.829   6.108   3.300
 2362SOL    HW1 7985   2.872   6.193   3.329
 2362SOL    HW2 7986   2.734   6.125   3.274
 2363SOL     OW 7987   4.069   0.709   4.007
 2363SOL    HW1 7988   4.068   0.784   4.073
 2363SOL    HW2 7989   4.068   0.747   3.914
 2364SOL     OW 7990   1.376   2.978   1.396
 2364SOL    HW1 7991   1.424   2.919   1.332
 2364SOL    HW2 7992   1.282   2.992   1.365
 2365SOL     OW 7993   5.014   2.132   6.934
 2365SOL    HW1 7994   5.032   2.054   6.993
 2365SOL    HW2 7995   5.074   2.127   6.854
 2366SOL     OW 7996   4.514   5.570   0.688
 2366SOL    HW1 7997   4.582   5.625   0.736
 2366SOL    HW2 7998   4.514   5.477   0.726
 2367SOL     OW 7999   2.089   3.361   6.042
 2367SOL    HW1 8000   2.184   3.390   6.034
 2367SOL    HW2 8001   2.056   3.328   5.953
 2368SOL     OW 8002   6.156   6.253   1.986
 2368SOL    HW1 8003   6.115   6.179   2.040
 2368SOL    HW2 8004   6.244   6.279   2.025
 2369SOL     OW 8005   2.733   1.295   3.298
 2369SOL    HW1 8006   2.814   1.326   3.347
 2369SOL    HW2 8007   2.710   1.202   3.326
 2370SOL     OW 8008   5.677   2.673   6.222
 2370SOL    HW1 8009   5.761   2.626   6.195
 2370SOL    HW2 8010   5.670   2.759   6.173
 2371SOL     OW 8011   2.076   6.434   1.893
 2371SOL    HW1 8012   2.093   6.497   1.970
 2371SOL    HW2 8013   2.007   6.473   1.833
 2372SOL     OW 8014   6.226   3.312   2.647
 2372SOL    HW1 8015   6.280   3.367   2.711
 2372SOL    HW2 8016   6.228   3.355   2.557
 2373SOL     OW 8017   2.293   3.718   6.472
 2373SOL    HW1 8018   2.321   3.735   6.377
 2373SOL    HW2 8019   2.373   3.692   6.526
 2374SOL     OW 8020   5.386   2.559   4.742
 2374SOL    HW1 8021   5.466   2.582   4.797
 2374SOL    HW2 8022   5.401   2.585   4.647
 2375SOL     OW 8023   1.875   6.937   5.838
 2375SOL    HW1 8024   1.776   6.925   5.844
 2375SOL    HW2 8025   1.896   7.003   5.765
 2376SOL     OW 8026   6.516   2.705   4.411
 2376SOL    HW1 8027   6.552   2.664   4.327
 2376SOL    HW2 8028   6.441   2.768   4.388
 2377SOL     OW 8029   3.341   2.925   4.035
 2377SOL    HW1 8030   3.426   2.970   4.010
 2377SOL    HW2 8031   3.281   2.920   3.955
 2378SOL     OW 8032   5.477   2.511   0.826
 2378SOL    HW1 8033   5.381   2.528   0.807
 2378SOL    HW2 8034   5.508   2.430   0.777
 2379SOL     OW 8035   6.680   7.003   6.575
 2379SOL    HW1 8036   6.651   7.005   6.479
 2379SOL    HW2 8037   6.761   0.040   6.586
 2380SOL     OW 8038   6.342   2.031   2.791
 2380SOL    HW1 8039   6.427   2.079   2.770
 2380SOL    HW2 8040   6.273   2.096   2.823
 2381SOL     OW 8041   1.654   6.250   2.819
 2381SOL    HW1 8042   1.661   6.311   2.898
 2381SOL    HW2 8043   1.733   6.189   2.818
 2382SOL     OW 8044   1.207   3.324   5.795
 2382SOL    HW1 8045   1.256   3.389   5.736
 2382SOL    HW2 8046   1.272   3.258   5.832
 2383SOL     OW 8047   5.937   5.892   2.271
 2383SOL    HW1 8048   5.854   5.887   2.215
 2383SOL    HW2 8049   5.924   5.840   2.355
 2384SOL     OW 8050   4.173   1.215   1.717
 2384SOL    HW1 8051   4.249   1.278   1.735
 2384SOL    HW2 8052   4.088   1.255   1.751
 2385SOL     OW 8053   1.408   2.469   7.020
 2385SOL    HW1 8054   1.342   2.523   6.968
 2385SOL    HW2 8055   1.383   2.372   7.015
 2386SOL     OW 8056   4.599   4.766   4.075
 2386SOL    HW1 8057   4.565   4.769   4.169
 2386SOL    HW2 8058   4.610   4.859   4.040
 2387SOL     OW 8059   1.775   1.317   2.848
 2387SOL    HW1 8060   1.825   1.369   2.917
 2387SOL    HW2 8061   1.678   1.312   2.874
 2388SOL     OW 8062   7.018   1.933   4.137
 2388SOL    HW1 8063   0.056   1.934   4.056
 2388SOL    HW2 8064   0.009   2.019   4.187
 2389SOL     OW 8065   3.219   6.581   2.220
 2389SOL    HW1 8066   3.288   6.598   2.290
 2389SOL    HW2 8067   3.258   6.599   2.130
 2390SOL     OW 8068   3.007   4.528   1.164
 2390SOL    HW1 8069   2.997   4.594   1.238
 2390SOL    HW2 8070   2.964   4.564   1.081
 2391SOL     OW 8071   4.150   5.177   5.001
 2391SOL    HW1 8072   4.138   5.230   5.085
 2391SOL    HW2 8073   4.211   5.100   5.018
 2392SOL     OW 8074   3.863   1.229   6.606
 2392SOL    HW1 8075   3.799   1.186   6.670
 2392SOL    HW2 8076   3.903   1.310   6.648
 2393SOL     OW 8077   3.715   4.986   4.777
 2393SOL    HW1 8078   3.732   5.084   4.785
 2393SOL    HW2 8079   3.751   4.939   4.857
 2394SOL     OW 8080   6.895   4.655   5.878
 2394SOL    HW1 8081   6.995   4.654   5.884
 2394SOL    HW2 8082   6.867   4.665   5.783
 2395SOL     OW 8083   4.529   6.559   6.697
 2395SOL    HW1 8084   4.590   6.482   6.717
 2395SOL    HW2 8085   4.441   6.544   6.743
 2396SOL     OW 8086   3.285   5.497   0.815
 2396SOL    HW1 8087   3.186   5.487   0.824
 2396SOL    HW2 8088   3.329   5.409   0.830
 2397SOL     OW 8089   0.549   3.711   4.175
 2397SOL    HW1 8090   0.495   3.768   4.237
 2397SOL    HW2 8091   0.558   3.619   4.215
 2398SOL     OW 8092   4.798   3.646   5.385
 2398SOL    HW1 8093   4.775   3.744   5.385
 2398SOL    HW2 8094   4.749   3.601   5.311
 2399SOL     OW 8095   4.278   2.508   1.445
 2399SOL    HW1 8096   4.318   2.543   1.530
 2399SOL    HW2 8097   4.178   2.513   1.451
 2400SOL     OW 8098   1.837   5.073   0.179
 2400SOL    HW1 8099   1.775   5.112   0.247
 2400SOL    HW2 8100   1.931   5.078   0.213
 2401SOL     OW 8101   6.743   6.160   6.372
 2401SOL    HW1 8102   6.657   6.210   6.375
 2401SOL    HW2 8103   6.818   6.223   6.355
 2402SOL     OW 8104   6.826   6.335   3.969
 2402SOL    HW1 8105   6.812   6.250   4.021
 2402SOL    HW2 8106   6.920   6.338   3.935
 2403SOL     OW 8107   0.621   1.295   4.904
 2403SOL    HW1 8108   0.546   1.360   4.897
 2403SOL    HW2 8109   0.678   1.302   4.822
 2404SOL     OW 8110   1.231   0.439   0.268
 2404SOL    HW1 8111   1.329   0.419   0.274
 2404SOL    HW2 8112   1.184   0.393   0.343
 2405SOL     OW 8113   2.538   4.431   1.339
 2405SOL    HW1 8114   2.624   4.397   1.377
 2405SOL    HW2 8115   2.533   4.408   1.242
 2406SOL     OW 8116   4.840   0.840   1.303
 2406SOL    HW1 8117   4.809   0.850   1.398
 2406SOL    HW2 8118   4.799   0.913   1.247
 2407SOL     OW 8119   5.323   0.018   3.414
 2407SOL    HW1 8120   5.294   0.088   3.348
 2407SOL    HW2 8121   5.385   0.059   3.481
 2408SOL     OW 8122   4.304   4.954   2.209
 2408SOL    HW1 8123   4.246   4.881   2.243
 2408SOL    HW2 8124   4.363   4.988   2.282
 2409SOL     OW 8125   1.405   4.598   0.580
 2409SOL    HW1 8126   1.456   4.545   0.514
 2409SOL    HW2 8127   1.408   4.695   0.555
 2410SOL     OW 8128   3.679   3.014   2.962
 2410SOL    HW1 8129   3.739   2.990   3.039
 2410SOL    HW2 8130   3.720   2.982   2.877
 2411SOL     OW 8131   4.147   0.803   4.308
 2411SOL    HW1 8132   4.089   0.727   4.338
 2411SOL    HW2 8133   4.243   0.774   4.307
 2412SOL     OW 8134   4.095   3.625   1.251
 2412SOL    HW1 8135   4.109   3.624   1.152
 2412SOL    HW2 8136   4.161   3.563   1.294
 2413SOL     OW 8137   4.118   0.136   3.259
 2413SOL    HW1 8138   4.193   0.198   3.234
 2413SOL    HW2 8139   4.136   0.096   3.349
 2414SOL     OW 8140   5.274   3.155   4.171
 2414SOL    HW1 8141   5.298   3.146   4.268
 2414SOL    HW2 8142   5.294   3.070   4.123
 2415SOL     OW 8143   4.435   0.570   3.757
 2415SOL    HW1 8144   4.390   0.634   3.695
 2415SOL    HW2 8145   4.421   0.600   3.851
 2416SOL     OW 8146   5.640   2.015   6.680
 2416SOL    HW1 8147   5.647   2.099   6.733
 2416SOL    HW2 8148   5.667   2.032   6.585
 2417SOL     OW 8149   3.302   3.971   5.370
 2417SOL    HW1 8150   3.401   3.956   5.367
 2417SOL    HW2 8151   3.266   3.934   5.456
 2418SOL     OW 8152   3.209   3.360   2.698
 2418SOL    HW1 8153   3.151   3.357   2.616
 2418SOL    HW2 8154   3.205   3.273   2.746
 2419SOL     OW 8155   6.828   0.739   3.720
 2419SOL    HW1 8156   6.804   0.716   3.815
 2419SOL    HW2 8157   6.798   0.665   3.659
 2420SOL     OW 8158   2.238   0.043   1.764
 2420SOL    HW1 8159   2.287   0.130   1.753
 2420SOL    HW2 8160   2.297   6.989   1.735
 2421SOL     OW 8161   3.544   1.760   3.396
 2421SOL    HW1 8162   3.507   1.696   3.329
 2421SOL    HW2 8163   3.512   1.734   3.487
 2422SOL     OW 8164   5.330   1.701   0.999
 2422SOL    HW1 8165   5.231   1.688   1.008
 2422SOL    HW2 8166   5.355   1.794   1.025
 2423SOL     OW 8167   1.804   4.793   2.588
 2423SOL    HW1 8168   1.832   4.839   2.504
 2423SOL    HW2 8169   1.704   4.793   2.594
 2424SOL     OW 8170   6.458   0.262   0.365
 2424SOL    HW1 8171   6.441   0.166   0.386
 2424SOL    HW2 8172   6.543   0.270   0.311
 2425SOL     OW 8173   6.721   6.752   4.409
 2425SOL    HW1 8174   6.736   6.845   4.443
 2425SOL    HW2 8175   6.699   6.755   4.311
 2426SOL     OW 8176   2.230   5.111   4.170
 2426SOL    HW1 8177   2.209   5.067   4.083
 2426SOL    HW2 8178   2.157   5.091   4.236
 2427SOL     OW 8179   6.154   0.271   5.791
 2427SOL    HW1 8180   6.130   0.335   5.864
 2427SOL    HW2 8181   6.252   0.250   5.795
 2428SOL     OW 8182   5.533   1.424   0.483
 2428SOL    HW1 8183   5.540   1.518   0.517
 2428SOL    HW2 8184   5.567   1.420   0.389
 2429SOL     OW 8185   4.627   5.284   2.552
 2429SOL    HW1 8186   4.601   5.274   2.456
 2429SOL    HW2 8187   4.588   5.369   2.589
 2430SOL     OW 8188   4.432   0.053   2.740
 2430SOL    HW1 8189   4.464   0.141   2.705
 2430SOL    HW2 8190   4.428   0.056   2.840
 2431SOL     OW 8191   4.507   0.084   2.449
 2431SOL    HW1 8192   4.498   7.012   2.484
 2431SOL    HW2 8193   4.509   0.148   2.526
 2432SOL     OW 8194   2.241   6.212   2.250
 2432SOL    HW1 8195   2.251   6.114   2.264
 2432SOL    HW2 8196   2.256   6.233   2.153
 2433SOL     OW 8197   4.762   0.226   0.519
 2433SOL    HW1 8198   4.813   0.142   0.533
 2433SOL    HW2 8199   4.824   0.298   0.487
 2434SOL     OW 8200   3.439   2.846   4.273
 2434SOL    HW1 8201   3.411   2.845   4.177
 2434SOL    HW2 8202   3.478   2.757   4.297
 2435SOL     OW 8203   6.142   6.062   6.322
 2435SOL    HW1 8204   6.168   5.969   6.351
 2435SOL    HW2 8205   6.184   6.129   6.383
 2436SOL     OW 8206   2.974   4.426   0.734
 2436SOL    HW1 8207   2.917   4.438   0.653
 2436SOL    HW2 8208   3.006   4.332   0.740
 2437SOL     OW 8209   6.995   0.671   5.687
 2437SOL    HW1 8210   6.991   0.750   5.747
 2437SOL    HW2 8211   0.003   0.699   5.595
 2438SOL     OW 8212   3.629   3.269   0.829
 2438SOL    HW1 8213   3.562   3.195   0.829
 2438SOL    HW2 8214   3.582   3.357   0.816
 2439SOL     OW 8215   6.023   4.393   5.952
 2439SOL    HW1 8216   6.121   4.377   5.940
 2439SOL    HW2 8217   5.979   4.397   5.862
 2440SOL     OW 8218   6.231   5.193   5.681
 2440SOL    HW1 8219   6.152   5.241   5.642
 2440SOL    HW2 8220   6.309   5.201   5.618
 2441SOL     OW 8221   6.560   2.139   0.387
 2441SOL    HW1 8222   6.465   2.112   0.370
 2441SOL    HW2 8223   6.561   2.222   0.442
 2442SOL     OW 8224   6.414   2.016   4.693
 2442SOL    HW1 8225   6.378   2.110   4.687
 2442SOL    HW2 8226   6.355   1.963   4.755
 2443SOL     OW 8227   2.694   4.566   5.556
 2443SOL    HW1 8228   2.724   4.514   5.476
 2443SOL    HW2 8229   2.597   4.549   5.573
 2444SOL     OW 8230   3.808   2.399   5.908
 2444SOL    HW1 8231   3.742   2.336   5.950
 2444SOL    HW2 8232   3.878   2.423   5.976
 2445SOL     OW 8233   1.249   0.265   1.072
 2445SOL    HW1 8234   1.208   0.175   1.055
 2445SOL    HW2 8235   1.177   0.335   1.071
 2446SOL     OW 8236   4.508   2.741   6.415
 2446SOL    HW1 8237   4.574   2.815   6.410
 2446SOL    HW2 8238   4.437   2.755   6.345
 2447SOL     OW 8239   1.193   3.524   6.363
 2447SOL    HW1 8240   1.159   3.519   6.269
 2447SOL    HW2 8241   1.293   3.512   6.363
 2448SOL     OW 8242   6.592   0.578   4.889
 2448SOL    HW1 8243   6.543   0.614   4.969
 2448SOL    HW2 8244   6.672   0.527   4.920
 2449SOL     OW 8245   0.012   3.076   5.562
 2449SOL    HW1 8246   6.960   3.067   5.495
 2449SOL    HW2 8247   0.089   3.127   5.523
 2450SOL     OW 8248   2.214   3.273   1.322
 2450SOL    HW1 8249   2.230   3.236   1.414
 2450SOL    HW2 8250   2.280   3.345   1.303
 2451SOL     OW 8251   1.705   5.771   3.673
 2451SOL    HW1 8252   1.751   5.859   3.668
 2451SOL    HW2 8253   1.702   5.741   3.769
 2452SOL     OW 8254   2.579   2.281   5.031
 2452SOL    HW1 8255   2.581   2.377   5.057
 2452SOL    HW2 8256   2.616   2.270   4.939
 2453SOL     OW 8257   0.308   4.329   1.249
 2453SOL    HW1 8258   0.352   4.418   1.237
 2453SOL    HW2 8259   0.288   4.289   1.159
 2454SOL     OW 8260   0.937   6.910   2.204
 2454SOL    HW1 8261   0.927   6.844   2.279
 2454SOL    HW2 8262   0.854   6.908   2.147
 2455SOL     OW 8263   5.576   3.496   1.246
 2455SOL    HW1 8264   5.583   3.559   1.324
 2455SOL    HW2 8265   5.526   3.414   1.274
 2456SOL     OW 8266   2.910   6.748   1.636
 2456SOL    HW1 8267   2.982   6.814   1.616
 2456SOL    HW2 8268   2.948   6.673   1.689
 2457SOL     OW 8269   5.373   6.031   1.115
 2457SOL    HW1 8270   5.348   5.998   1.206
 2457SOL    HW2 8271   5.310   5.995   1.047
 2458SOL     OW 8272   0.795   6.568   1.791
 2458SOL    HW1 8273   0.719   6.508   1.763
 2458SOL    HW2 8274   0.799   6.572   1.890
 2459SOL     OW 8275   1.190   1.799   0.360
 2459SOL    HW1 8276   1.098   1.836   0.345
 2459SOL    HW2 8277   1.233   1.783   0.271
 2460SOL     OW 8278   2.526   4.588   0.943
 2460SOL    HW1 8279   2.475   4.562   1.025
 2460SOL    HW2 8280   2.528   4.511   0.879
 2461SOL     OW 8281   4.395   1.556   3.131
 2461SOL    HW1 8282   4.436   1.635   3.175
 2461SOL    HW2 8283   4.438   1.542   3.041
 2462SOL     OW 8284   3.160   4.365   6.191
 2462SOL    HW1 8285   3.115   4.420   6.120
 2462SOL    HW2 8286   3.104   4.284   6.211
 2463SOL     OW 8287   0.927   2.911   5.218
 2463SOL    HW1 8288   0.914   2.868   5.308
 2463SOL    HW2 8289   0.996   2.983   5.225
 2464SOL     OW 8290   1.225   3.330   0.671
 2464SOL    HW1 8291   1.263   3.245   0.632
 2464SOL    HW2 8292   1.211   3.397   0.598
 2465SOL     OW 8293   6.088   4.351   2.668
 2465SOL    HW1 8294   6.146   4.285   2.716
 2465SOL    HW2 8295   6.015   4.382   2.729
 2466SOL     OW 8296   3.759   1.708   1.552
 2466SOL    HW1 8297   3.719   1.640   1.490
 2466SOL    HW2 8298   3.686   1.753   1.604
 2467SOL     OW 8299   0.525   1.033   4.777
 2467SOL    HW1 8300   0.607   1.083   4.804
 2467SOL    HW2 8301   0.542   0.935   4.780
 2468SOL     OW 8302   6.078   5.099   6.507
 2468SOL    HW1 8303   6.015   5.056   6.442
 2468SOL    HW2 8304   6.037   5.182   6.543
 2469SOL     OW 8305   2.875   2.663   5.907
 2469SOL    HW1 8306   2.776   2.671   5.893
 2469SOL    HW2 8307   2.903   2.728   5.978
 2470SOL     OW 8308   5.413   2.663   1.493
 2470SOL    HW1 8309   5.379   2.718   1.570
 2470SOL    HW2 8310   5.410   2.718   1.409
 2471SOL     OW 8311   0.191   1.110   3.219
 2471SOL    HW1 8312   0.231   1.128   3.308
 2471SOL    HW2 8313   0.228   1.174   3.151
 2472SOL     OW 8314   6.262   0.748   3.936
 2472SOL    HW1 8315   6.312   0.677   3.985
 2472SOL    HW2 8316   6.293   0.838   3.966
 2473SOL     OW 8317   0.646   6.126   4.906
 2473SOL    HW1 8318   0.698   6.151   4.825
 2473SOL    HW2 8319   0.707   6.088   4.975
 2474SOL     OW 8320   6.122   6.240   4.660
 2474SOL    HW1 8321   6.082   6.288   4.738
 2474SOL    HW2 8322   6.210   6.282   4.636
 2475SOL     OW 8323   3.647   2.478   6.197
 2475SOL    HW1 8324   3.744   2.460   6.214
 2475SOL    HW2 8325   3.636   2.569   6.159
 2476SOL     OW 8326   0.708   1.197   3.440
 2476SOL    HW1 8327   0.762   1.180   3.357
 2476SOL    HW2 8328   0.625   1.247   3.417
 2477SOL     OW 8329   4.618   4.528   2.071
 2477SOL    HW1 8330   4.638   4.441   2.028
 2477SOL    HW2 8331   4.697   4.588   2.063
 2478SOL     OW 8332   6.564   0.670   2.477
 2478SOL    HW1 8333   6.650   0.722   2.473
 2478SOL    HW2 8334   6.551   0.619   2.392
 2479SOL     OW 8335   1.236   3.416   0.163
 2479SOL    HW1 8336   1.156   3.408   0.104
 2479SOL    HW2 8337   1.280   3.504   0.147
 2480SOL     OW 8338   6.842   5.105   1.638
 2480SOL    HW1 8339   6.780   5.037   1.677
 2480SOL    HW2 8340   6.882   5.161   1.710
 2481SOL     OW 8341   4.318   4.657   2.484
 2481SOL    HW1 8342   4.363   4.568   2.495
 2481SOL    HW2 8343   4.386   4.730   2.487
 2482SOL     OW 8344   4.310   2.360   4.472
 2482SOL    HW1 8345   4.303   2.441   4.530
 2482SOL    HW2 8346   4.279   2.280   4.523
 2483SOL     OW 8347   1.134   3.766   0.333
 2483SOL    HW1 8348   1.068   3.820   0.386
 2483SOL    HW2 8349   1.181   3.825   0.268
 2484SOL     OW 8350   3.496   4.651   6.004
 2484SOL    HW1 8351   3.437   4.720   6.047
 2484SOL    HW2 8352   3.489   4.565   6.054
 2485SOL     OW 8353   0.779   5.209   6.902
 2485SOL    HW1 8354   0.862   5.251   6.937
 2485SOL    HW2 8355   0.717   5.189   6.978
 2486SOL     OW 8356   0.852   5.149   3.496
 2486SOL    HW1 8357   0.854   5.182   3.401
 2486SOL    HW2 8358   0.868   5.225   3.559
 2487SOL     OW 8359   2.746   1.318   1.227
 2487SOL    HW1 8360   2.685   1.318   1.147
 2487SOL    HW2 8361   2.768   1.413   1.251
 2488SOL     OW 8362   2.870   5.675   6.634
 2488SOL    HW1 8363   2.915   5.764   6.640
 2488SOL    HW2 8364   2.918   5.609   6.692
 2489SOL     OW 8365   6.855   5.466   4.406
 2489SOL    HW1 8366   6.875   5.424   4.495
 2489SOL    HW2 8367   6.911   5.547   4.394
 2490SOL     OW 8368   5.842   2.997   0.928
 2490SOL    HW1 8369   5.923   2.992   0.986
 2490SOL    HW2 8370   5.760   3.003   0.984
 2491SOL     OW 8371   6.564   3.869   2.741
 2491SOL    HW1 8372   6.650   3.858   2.692
 2491SOL    HW2 8373   6.559   3.962   2.778
 2492SOL     OW 8374   3.822   1.880   6.932
 2492SOL    HW1 8375   3.911   1.835   6.934
 2492SOL    HW2 8376   3.752   1.815   6.902
 2493SOL     OW 8377   6.765   0.517   5.660
 2493SOL    HW1 8378   6.851   0.543   5.703
 2493SOL    HW2 8379   6.688   0.548   5.716
 2494SOL     OW 8380   5.600   5.272   0.777
 2494SOL    HW1 8381   5.606   5.245   0.680
 2494SOL    HW2 8382   5.553   5.201   0.828
 2495SOL     OW 8383   7.015   1.176   2.401
 2495SOL    HW1 8384   0.048   1.107   2.355
 2495SOL    HW2 8385   6.954   1.132   2.468
 2496SOL     OW 8386   1.917   4.653   0.516
 2496SOL    HW1 8387   1.910   4.598   0.599
 2496SOL    HW2 8388   1.968   4.601   0.447
 2497SOL     OW 8389   6.015   1.252   6.742
 2497SOL    HW1 8390   5.978   1.219   6.655
 2497SOL    HW2 8391   5.948   1.310   6.787
 2498SOL     OW 8392   1.035   2.855   4.605
 2498SOL    HW1 8393   1.115   2.849   4.546
 2498SOL    HW2 8394   1.040   2.939   4.659
 2499SOL     OW 8395   5.216   0.919   7.002
 2499SOL    HW1 8396   5.210   0.984   0.057
 2499SOL    HW2 8397   5.150   0.845   7.016
 2500SOL     OW 8398   5.179   3.086   5.741
 2500SOL    HW1 8399   5.087   3.097   5.780
 2500SOL    HW2 8400   5.189   2.992   5.707
 2501SOL     OW 8401   6.678   4.903   1.018
 2501SOL    HW1 8402   6.639   4.913   0.927
 2501SOL    HW2 8403   6.690   4.993   1.059
 2502SOL     OW 8404   1.254   6.607   3.349
 2502SOL    HW1 8405   1.224   6.535   3.411
 2502SOL    HW2 8406   1.348   6.589   3.320
 2503SOL     OW 8407   5.458   6.322   3.851
 2503SOL    HW1 8408   5.416   6.412   3.840
 2503SOL    HW2 8409   5.498   6.315   3.943
 2504SOL     OW 8410   2.381   4.850   2.985
 2504SOL    HW1 8411   2.334   4.930   3.022
 2504SOL    HW2 8412   2.457   4.879   2.927
 2505SOL     OW 8413   5.112   3.822   4.653
 2505SOL    HW1 8414   5.126   3.728   4.622
 2505SOL    HW2 8415   5.015   3.838   4.673
 2506SOL     OW 8416   1.000   1.401   0.327
 2506SOL    HW1 8417   0.964   1.488   0.362
 2506SOL    HW2 8418   0.925   1.346   0.291
 2507SOL     OW 8419   6.728   6.315   0.571
 2507SOL    HW1 8420   6.694   6.397   0.618
 2507SOL    HW2 8421   6.687   6.234   0.612
 2508SOL     OW 8422   1.751   1.895   1.396
 2508SOL    HW1 8423   1.761   1.935   1.305
 2508SOL    HW2 8424   1.654   1.881   1.416
 2509SOL     OW 8425   5.858   6.421   3.677
 2509SOL    HW1 8426   5.776   6.365   3.670
 2509SOL    HW2 8427   5.936   6.364   3.701
 2510SOL     OW 8428   3.586   5.946   2.557
 2510SOL    HW1 8429   3.618   6.038   2.576
 2510SOL    HW2 8430   3.663   5.882   2.563
 2511SOL     OW 8431   0.799   5.721   3.934
 2511SOL    HW1 8432   0.700   5.716   3.924
 2511SOL    HW2 8433   0.823   5.780   4.011
 2512SOL     OW 8434   6.406   3.360   4.624
 2512SOL    HW1 8435   6.424   3.310   4.539
 2512SOL    HW2 8436   6.309   3.386   4.626
 2513SOL     OW 8437   6.871   5.480   1.341
 2513SOL    HW1 8438   6.957   5.458   1.294
 2513SOL    HW2 8439   6.815   5.538   1.282
 2514SOL     OW 8440   0.029   1.984   4.489
 2514SOL    HW1 8441   0.118   1.943   4.472
 2514SOL    HW2 8442   0.002   2.040   4.411
 2515SOL     OW 8443   0.950   4.621   6.284
 2515SOL    HW1 8444   0.942   4.574   6.197
 2515SOL    HW2 8445   1.000   4.707   6.271
 2516SOL     OW 8446   4.480   6.818   4.650
 2516SOL    HW1 8447   4.525   6.803   4.738
 2516SOL    HW2 8448   4.504   6.909   4.617
 2517SOL     OW 8449   2.759   5.586   0.529
 2517SOL    HW1 8450   2.829   5.600   0.459
 2517SOL    HW2 8451   2.671   5.621   0.497
 2518SOL     OW 8452   1.947   1.896   6.910
 2518SOL    HW1 8453   1.955   1.936   6.819
 2518SOL    HW2 8454   1.857   1.918   6.948
 2519SOL     OW 8455   6.139   4.087   4.874
 2519SOL    HW1 8456   6.111   4.043   4.959
 2519SOL    HW2 8457   6.238   4.102   4.875
 2520SOL     OW 8458   4.121   5.974   0.828
 2520SOL    HW1 8459   4.100   5.951   0.923
 2520SOL    HW2 8460   4.040   6.010   0.783
 2521SOL     OW 8461   5.813   6.456   5.777
 2521SOL    HW1 8462   5.743   6.386   5.793
 2521SOL    HW2 8463   5.791   6.538   5.829
 2522SOL     OW 8464   2.641   5.046   5.162
 2522SOL    HW1 8465   2.647   4.946   5.164
 2522SOL    HW2 8466   2.545   5.073   5.170
 2523SOL     OW 8467   0.711   1.957   6.586
 2523SOL    HW1 8468   0.711   2.038   6.645
 2523SOL    HW2 8469   0.789   1.899   6.609
 2524SOL     OW 8470   1.658   0.252   4.311
 2524SOL    HW1 8471   1.610   0.217   4.230
 2524SOL    HW2 8472   1.706   0.177   4.357
 2525SOL     OW 8473   2.817   4.808   2.151
 2525SOL    HW1 8474   2.821   4.713   2.121
 2525SOL    HW2 8475   2.725   4.831   2.181
 2526SOL     OW 8476   1.511   2.867   4.350
 2526SOL    HW1 8477   1.542   2.787   4.401
 2526SOL    HW2 8478   1.590   2.911   4.306
 2527SOL     OW 8479   6.985   6.612   3.978
 2527SOL    HW1 8480   6.912   6.551   3.945
 2527SOL    HW2 8481   6.976   6.623   4.077
 2528SOL     OW 8482   5.525   4.874   1.096
 2528SOL    HW1 8483   5.537   4.899   1.000
 2528SOL    HW2 8484   5.456   4.934   1.137
 2529SOL     OW 8485   5.084   4.584   5.025
 2529SOL    HW1 8486   5.068   4.627   5.114
 2529SOL    HW2 8487   5.181   4.563   5.015
 2530SOL     OW 8488   1.125   6.383   3.488
 2530SOL    HW1 8489   1.048   6.365   3.427
 2530SOL    HW2 8490   1.194   6.311   3.477
 2531SOL     OW 8491   5.601   2.287   6.193
 2531SOL    HW1 8492   5.672   2.217   6.202
 2531SOL    HW2 8493   5.524   2.250   6.140
 2532SOL     OW 8494   0.598   5.682   6.432
 2532SOL    HW1 8495   0.581   5.769   6.384
 2532SOL    HW2 8496   0.681   5.640   6.395
 2533SOL     OW 8497   5.573   0.949   4.516
 2533SOL    HW1 8498   5.610   0.864   4.477
 2533SOL    HW2 8499   5.473   0.945   4.513
 2534SOL     OW 8500   6.520   1.469   2.731
 2534SOL    HW1 8501   6.491   1.558   2.767
 2534SOL    HW2 8502   6.473   1.396   2.781
 2535SOL     OW 8503   2.796   0.790   1.750
 2535SOL    HW1 8504   2.782   0.691   1.752
 2535SOL    HW2 8505   2.829   0.817   1.659
 2536SOL     OW 8506   1.004   0.462   3.181
 2536SOL    HW1 8507   1.082   0.405   3.206
 2536SOL    HW2 8508   0.923   0.432   3.231
 2537SOL     OW 8509   2.143   6.473   2.308
 2537SOL    HW1 8510   2.178   6.379   2.309
 2537SOL    HW2 8511   2.146   6.511   2.400
 2538SOL     OW 8512   6.875   5.520   5.176
 2538SOL    HW1 8513   6.922   5.555   5.095
 2538SOL    HW2 8514   6.782   5.559   5.180
 2539SOL     OW 8515   1.167   0.124   5.598
 2539SOL    HW1 8516   1.256   0.140   5.642
 2539SOL    HW2 8517   1.173   0.043   5.540
 2540SOL     OW 8518   5.481   2.632   2.050
 2540SOL    HW1 8519   5.474   2.534   2.067
 2540SOL    HW2 8520   5.428   2.656   1.969
 2541SOL     OW 8521   1.458   0.897   0.251
 2541SOL    HW1 8522   1.553   0.870   0.262
 2541SOL    HW2 8523   1.438   0.975   0.311
 2542SOL     OW 8524   4.044   1.700   2.493
 2542SOL    HW1 8525   3.995   1.618   2.522
 2542SOL    HW2 8526   4.078   1.687   2.399
 2543SOL     OW 8527   6.214   6.280   5.057
 2543SOL    HW1 8528   6.290   6.250   5.115
 2543SOL    HW2 8529   6.139   6.312   5.115
 2544SOL     OW 8530   0.215   0.227   0.202
 2544SOL    HW1 8531   0.314   0.236   0.190
 2544SOL    HW2 8532   0.173   0.318   0.200
 2545SOL     OW 8533   6.870   1.848   0.503
 2545SOL    HW1 8534   6.844   1.858   0.599
 2545SOL    HW2 8535   6.809   1.783   0.458
 2546SOL     OW 8536   5.876   3.505   2.643
 2546SOL    HW1 8537   5.780   3.494   2.667
 2546SOL    HW2 8538   5.907   3.596   2.668
 2547SOL     OW 8539   5.686   3.968   0.937
 2547SOL    HW1 8540   5.644   4.052   0.903
 2547SOL    HW2 8541   5.785   3.970   0.922
 2548SOL     OW 8542   6.324   0.349   5.334
 2548SOL    HW1 8543   6.363   0.285   5.402
 2548SOL    HW2 8544   6.242   0.309   5.295
 2549SOL     OW 8545   2.628   4.791   6.428
 2549SOL    HW1 8546   2.561   4.717   6.436
 2549SOL    HW2 8547   2.716   4.760   6.464
 2550SOL     OW 8548   3.608   0.699   0.815
 2550SOL    HW1 8549   3.688   0.705   0.756
 2550SOL    HW2 8550   3.632   0.653   0.900
 2551SOL     OW 8551   3.163   4.304   1.136
 2551SOL    HW1 8552   3.112   4.390   1.144
 2551SOL    HW2 8553   3.106   4.235   1.091
 2552SOL     OW 8554   2.884   5.311   1.078
 2552SOL    HW1 8555   2.921   5.345   0.992
 2552SOL    HW2 8556   2.943   5.239   1.114
 2553SOL     OW 8557   4.480   1.743   1.122
 2553SOL    HW1 8558   4.435   1.707   1.203
 2553SOL    HW2 8559   4.436   1.706   1.040
 2554SOL     OW 8560   1.156   6.174   1.144
 2554SOL    HW1 8561   1.081   6.113   1.171
 2554SOL    HW2 8562   1.124   6.236   1.072
 2555SOL     OW 8563   0.632   6.425   5.003
 2555SOL    HW1 8564   0.597   6.509   4.961
 2555SOL    HW2 8565   0.583   6.346   4.966
 2556SOL     OW 8566   5.741   0.643   1.310
 2556SOL    HW1 8567   5.804   0.707   1.266
 2556SOL    HW2 8568   5.730   0.561   1.253
 2557SOL     OW 8569   2.598   1.578   6.836
 2557SOL    HW1 8570   2.504   1.598   6.863
 2557SOL    HW2 8571   2.642   1.522   6.906
 2558SOL     OW 8572   6.090   2.700   1.132
 2558SOL    HW1 8573   6.126   2.792   1.114
 2558SOL    HW2 8574   6.005   2.707   1.185
 2559SOL     OW 8575   6.427   5.387   3.295
 2559SOL    HW1 8576   6.465   5.434   3.374
 2559SOL    HW2 8577   6.422   5.289   3.314
 2560SOL     OW 8578   4.360   2.618   1.680
 2560SOL    HW1 8579   4.293   2.689   1.702
 2560SOL    HW2 8580   4.451   2.649   1.710
 2561SOL     OW 8581   3.757   0.327   4.845
 2561SOL    HW1 8582   3.809   0.410   4.827
 2561SOL    HW2 8583   3.660   0.345   4.830
 2562SOL     OW 8584   1.746   6.669   4.908
 2562SOL    HW1 8585   1.740   6.650   4.810
 2562SOL    HW2 8586   1.790   6.593   4.955
 2563SOL     OW 8587   4.433   2.609   6.688
 2563SOL    HW1 8588   4.433   2.659   6.602
 2563SOL    HW2 8589   4.398   2.668   6.761
 2564SOL     OW 8590   1.627   1.136   1.516
 2564SOL    HW1 8591   1.568   1.164   1.592
 2564SOL    HW2 8592   1.622   1.037   1.505
 2565SOL     OW 8593   6.971   0.107   1.006
 2565SOL    HW1 8594   6.944   0.201   0.984
 2565SOL    HW2 8595   6.891   0.047   1.001
 2566SOL     OW 8596   2.319   0.958   0.260
 2566SOL    HW1 8597   2.287   1.051   0.242
 2566SOL    HW2 8598   2.282   0.896   0.191
 2567SOL     OW 8599   1.891   0.696   5.984
 2567SOL    HW1 8600   1.805   0.686   5.934
 2567SOL    HW2 8601   1.871   0.709   6.081
 2568SOL     OW 8602   3.131   6.256   0.674
 2568SOL    HW1 8603   3.165   6.186   0.611
 2568SOL    HW2 8604   3.062   6.215   0.734
 2569SOL     OW 8605   2.690   6.270   6.753
 2569SOL    HW1 8606   2.734   6.346   6.800
 2569SOL    HW2 8607   2.594   6.265   6.780
 2570SOL     OW 8608   0.138   0.148   3.473
 2570SOL    HW1 8609   0.092   0.221   3.523
 2570SOL    HW2 8610   0.234   0.143   3.501
 2571SOL     OW 8611   3.509   3.430   2.453
 2571SOL    HW1 8612   3.585   3.366   2.437
 2571SOL    HW2 8613   3.483   3.427   2.549
 2572SOL     OW 8614   3.142   6.074   1.849
 2572SOL    HW1 8615   3.079   5.997   1.840
 2572SOL    HW2 8616   3.097   6.158   1.818
 2573SOL     OW 8617   6.326   0.429   2.554
 2573SOL    HW1 8618   6.358   0.386   2.638
 2573SOL    HW2 8619   6.349   0.527   2.555
 2574SOL     OW 8620   0.107   4.516   2.130
 2574SOL    HW1 8621   0.066   4.523   2.039
 2574SOL    HW2 8622   0.205   4.495   2.121
 2575SOL     OW 8623   4.531   3.480   5.377
 2575SOL    HW1 8624   4.568   3.487   5.284
 2575SOL    HW2 8625   4.545   3.387   5.411
 2576SOL     OW 8626   6.965   0.676   2.826
 2576SOL    HW1 8627   6.930   0.587   2.854
 2576SOL    HW2 8628   6.982   0.676   2.727
 2577SOL     OW 8629   1.828   4.501   0.784
 2577SOL    HW1 8630   1.871   4.483   0.872
 2577SOL    HW2 8631   1.761   4.575   0.793
 2578SOL     OW 8632   4.566   1.883   5.126
 2578SOL    HW1 8633   4.578   1.915   5.032
 2578SOL    HW2 8634   4.608   1.793   5.135
 2579SOL     OW 8635   6.802   1.627   6.302
 2579SOL    HW1 8636   6.730   1.675   6.353
 2579SOL    HW2 8637   6.886   1.626   6.356
 2580SOL     OW 8638   1.569   2.181   5.587
 2580SOL    HW1 8639   1.510   2.113   5.630
 2580SOL    HW2 8640   1.543   2.272   5.619
 2581SOL     OW 8641   4.840   6.291   4.469
 2581SOL    HW1 8642   4.846   6.266   4.373
 2581SOL    HW2 8643   4.834   6.208   4.525
 2582SOL     OW 8644   6.533   4.046   3.129
 2582SOL    HW1 8645   6.512   4.111   3.201
 2582SOL    HW2 8646   6.575   4.094   3.052
 2583SOL     OW 8647   2.471   1.181   0.011
 2583SOL    HW1 8648   2.433   1.183   0.104
 2583SOL    HW2 8649   2.531   1.101   0.002
 2584SOL     OW 8650   3.888   0.040   3.210
 2584SOL    HW1 8651   3.982   0.065   3.234
 2584SOL    HW2 8652   3.830   0.048   3.291
 2585SOL     OW 8653   3.831   1.015   2.644
 2585SOL    HW1 8654   3.877   0.930   2.669
 2585SOL    HW2 8655   3.764   0.996   2.572
 2586SOL     OW 8656   0.912   1.795   4.242
 2586SOL    HW1 8657   0.948   1.850   4.166
 2586SOL    HW2 8658   0.939   1.836   4.329
 2587SOL     OW 8659   6.278   4.415   2.990
 2587SOL    HW1 8660   6.282   4.317   3.010
 2587SOL    HW2 8661   6.369   4.447   2.963
 2588SOL     OW 8662   3.444   6.861   2.675
 2588SOL    HW1 8663   3.539   6.891   2.678
 2588SOL    HW2 8664   3.415   6.833   2.767
 2589SOL     OW 8665   4.391   6.595   1.990
 2589SOL    HW1 8666   4.339   6.522   1.947
 2589SOL    HW2 8667   4.475   6.611   1.939
 2590SOL     OW 8668   4.341   6.100   4.088
 2590SOL    HW1 8669   4.312   6.067   4.178
 2590SOL    HW2 8670   4.432   6.139   4.094
 2591SOL     OW 8671   5.997   0.317   1.328
 2591SOL    HW1 8672   5.964   0.356   1.414
 2591SOL    HW2 8673   6.066   0.377   1.288
 2592SOL     OW 8674   2.849   4.798   1.750
 2592SOL    HW1 8675   2.853   4.706   1.789
 2592SOL    HW2 8676   2.824   4.792   1.654
 2593SOL     OW 8677   2.887   0.372   3.812
 2593SOL    HW1 8678   2.914   0.436   3.740
 2593SOL    HW2 8679   2.967   0.319   3.841
 2594SOL     OW 8680   2.367   6.062   6.203
 2594SOL    HW1 8681   2.446   6.096   6.254
 2594SOL    HW2 8682   2.339   5.973   6.239
 2595SOL     OW 8683   6.760   3.027   4.979
 2595SOL    HW1 8684   6.747   2.986   5.069
 2595SOL    HW2 8685   6.840   2.987   4.935
 2596SOL     OW 8686   4.835   1.557   0.657
 2596SOL    HW1 8687   4.757   1.498   0.679
 2596SOL    HW2 8688   4.918   1.517   0.695
 2597SOL     OW 8689   2.441   2.328   6.128
 2597SOL    HW1 8690   2.403   2.408   6.175
 2597SOL    HW2 8691   2.387   2.310   6.046
 2598SOL     OW 8692   6.263   0.902   2.894
 2598SOL    HW1 8693   6.354   0.890   2.854
 2598SOL    HW2 8694   6.207   0.822   2.872
 2599SOL     OW 8695   5.106   5.791   6.167
 2599SOL    HW1 8696   5.093   5.852   6.089
 2599SOL    HW2 8697   5.106   5.696   6.135
 2600SOL     OW 8698   0.350   2.818   4.529
 2600SOL    HW1 8699   0.315   2.899   4.481
 2600SOL    HW2 8700   0.384   2.752   4.463
 2601SOL     OW 8701   4.164   4.560   5.479
 2601SOL    HW1 8702   4.185   4.553   5.381
 2601SOL    HW2 8703   4.177   4.471   5.522
 2602SOL     OW 8704   5.858   6.719   7.010
 2602SOL    HW1 8705   5.863   6.818   7.002
 2602SOL    HW2 8706   5.888   6.677   6.924
 2603SOL     OW 8707   1.567   1.914   6.880
 2603SOL    HW1 8708   1.625   1.960   6.948
 2603SOL    HW2 8709   1.559   1.817   6.903
 2604SOL     OW 8710   5.697   1.369   0.881
 2604SOL    HW1 8711   5.699   1.274   0.849
 2604SOL    HW2 8712   5.768   1.383   0.949
 2605SOL     OW 8713   5.160   2.620   5.393
 2605SOL    HW1 8714   5.255   2.614   5.363
 2605SOL    HW2 8715   5.146   2.705   5.442
 2606SOL     OW 8716   6.355   4.577   1.492
 2606SOL    HW1 8717   6.293   4.529   1.554
 2606SOL    HW2 8718   6.450   4.557   1.518
 2607SOL     OW 8719   0.743   0.815   3.475
 2607SOL    HW1 8720   0.684   0.807   3.555
 2607SOL    HW2 8721   0.704   0.881   3.411
 2608SOL     OW 8722   4.540   0.904   0.228
 2608SOL    HW1 8723   4.468   0.878   0.293
 2608SOL    HW2 8724   4.587   0.822   0.196
 2609SOL     OW 8725   1.013   3.745   3.547
 2609SOL    HW1 8726   0.927   3.715   3.588
 2609SOL    HW2 8727   1.068   3.665   3.523
 2610SOL     OW 8728   5.600   5.489   4.982
 2610SOL    HW1 8729   5.672   5.422   5.002
 2610SOL    HW2 8730   5.515   5.441   4.962
 2611SOL     OW 8731   2.633   6.110   1.980
 2611SOL    HW1 8732   2.559   6.149   1.925
 2611SOL    HW2 8733   2.628   6.010   1.977
 2612SOL     OW 8734   0.880   6.869   4.766
 2612SOL    HW1 8735   0.973   6.834   4.751
 2612SOL    HW2 8736   0.875   6.910   4.857
 2613SOL     OW 8737   3.716   1.311   0.181
 2613SOL    HW1 8738   3.623   1.344   0.198
 2613SOL    HW2 8739   3.716   1.211   0.176
 2614SOL     OW 8740   6.524   6.582   6.373
 2614SOL    HW1 8741   6.468   6.572   6.456
 2614SOL    HW2 8742   6.501   6.668   6.328
 2615SOL     OW 8743   6.850   3.950   1.181
 2615SOL    HW1 8744   6.782   3.974   1.251
 2615SOL    HW2 8745   6.809   3.962   1.090
 2616SOL     OW 8746   3.808   3.902   1.932
 2616SOL    HW1 8747   3.874   3.929   1.863
 2616SOL    HW2 8748   3.855   3.858   2.008
 2617SOL     OW 8749   2.715   6.446   1.260
 2617SOL    HW1 8750   2.691   6.519   1.197
 2617SOL    HW2 8751   2.790   6.476   1.320
 2618SOL     OW 8752   0.845   6.017   0.309
 2618SOL    HW1 8753   0.871   5.930   0.267
 2618SOL    HW2 8754   0.801   6.075   0.241
 2619SOL     OW 8755   6.271   1.141   1.845
 2619SOL    HW1 8756   6.205   1.072   1.876
 2619SOL    HW2 8757   6.221   1.221   1.810
 2620SOL     OW 8758   1.544   5.694   4.022
 2620SOL    HW1 8759   1.511   5.620   3.965
 2620SOL    HW2 8760   1.510   5.682   4.116
 2621SOL     OW 8761   1.050   6.378   4.270
 2621SOL    HW1 8762   1.029   6.337   4.359
 2621SOL    HW2 8763   0.970   6.369   4.210
 2622SOL     OW 8764   2.457   2.711   4.071
 2622SOL    HW1 8765   2.458   2.644   4.146
 2622SOL    HW2 8766   2.475   2.664   3.985
 2623SOL     OW 8767   3.181   6.922   5.886
 2623SOL    HW1 8768   3.100   6.944   5.940
 2623SOL    HW2 8769   3.229   7.007   5.863
 2624SOL     OW 8770   5.243   1.716   4.647
 2624SOL    HW1 8771   5.179   1.727   4.570
 2624SOL    HW2 8772   5.204   1.654   4.714
 2625SOL     OW 8773   2.535   6.854   6.218
 2625SOL    HW1 8774   2.466   6.924   6.200
 2625SOL    HW2 8775   2.590   6.881   6.297
 2626SOL     OW 8776   2.358   6.683   3.231
 2626SOL    HW1 8777   2.399   6.752   3.290
 2626SOL    HW2 8778   2.294   6.628   3.284
 2627SOL     OW 8779   0.668   0.044   4.647
 2627SOL    HW1 8780   0.599   7.006   4.688
 2627SOL    HW2 8781   0.713   7.017   4.572
 2628SOL     OW 8782   5.102   5.326   0.162
 2628SOL    HW1 8783   5.032   5.261   0.133
 2628SOL    HW2 8784   5.187   5.277   0.182
 2629SOL     OW 8785   2.701   3.679   1.758
 2629SOL    HW1 8786   2.637   3.608   1.728
 2629SOL    HW2 8787   2.787   3.669   1.708
 2630SOL     OW 8788   3.545   2.103   2.229
 2630SOL    HW1 8789   3.556   2.028   2.164
 2630SOL    HW2 8790   3.607   2.177   2.205
 2631SOL     OW 8791   3.150   6.738   4.589
 2631SOL    HW1 8792   3.158   6.655   4.644
 2631SOL    HW2 8793   3.057   6.775   4.598
 2632SOL     OW 8794   4.961   1.580   1.328
 2632SOL    HW1 8795   4.927   1.673   1.344
 2632SOL    HW2 8796   4.900   1.514   1.373
 2633SOL     OW 8797   0.112   2.645   0.051
 2633SOL    HW1 8798   0.076   2.552   0.056
 2633SOL    HW2 8799   0.154   2.659   6.982
 2634SOL     OW 8800   2.630   4.956   0.130
 2634SOL    HW1 8801   2.629   5.026   0.202
 2634SOL    HW2 8802   2.724   4.941   0.100
 2635SOL     OW 8803   6.241   4.316   3.733
 2635SOL    HW1 8804   6.171   4.387   3.736
 2635SOL    HW2 8805   6.297   4.321   3.815
 2636SOL     OW 8806   5.435   5.208   5.369
 2636SOL    HW1 8807   5.477   5.164   5.449
 2636SOL    HW2 8808   5.503   5.268   5.326
 2637SOL     OW 8809   5.216   5.573   2.280
 2637SOL    HW1 8810   5.304   5.621   2.285
 2637SOL    HW2 8811   5.151   5.615   2.343
 2638SOL     OW 8812   5.170   5.644   0.208
 2638SOL    HW1 8813   5.142   5.556   0.245
 2638SOL    HW2 8814   5.240   5.631   0.138
 2639SOL     OW 8815   6.694   0.270   0.233
 2639SOL    HW1 8816   6.734   0.201   0.173
 2639SOL    HW2 8817   6.742   0.270   0.320
 2640SOL     OW 8818   6.652   5.937   0.032
 2640SOL    HW1 8819   6.632   5.872   0.105
 2640SOL    HW2 8820   6.651   6.030   0.069
 2641SOL     OW 8821   0.102   5.811   1.072
 2641SOL    HW1 8822   0.117   5.712   1.080
 2641SOL    HW2 8823   0.079   5.848   1.161
 2642SOL     OW 8824   6.526   0.158   4.368
 2642SOL    HW1 8825   6.442   0.157   4.315
 2642SOL    HW2 8826   6.570   0.247   4.358
 2643SOL     OW 8827   2.060   0.570   2.220
 2643SOL    HW1 8828   1.966   0.551   2.247
 2643SOL    HW2 8829   2.101   0.635   2.284
 2644SOL     OW 8830   5.927   6.126   4.503
 2644SOL    HW1 8831   6.001   6.168   4.556
 2644SOL    HW2 8832   5.848   6.111   4.563
 2645SOL     OW 8833   5.100   5.732   6.775
 2645SOL    HW1 8834   5.118   5.816   6.826
 2645SOL    HW2 8835   5.136   5.654   6.826
 2646SOL     OW 8836   5.616   5.835   5.695
 2646SOL    HW1 8837   5.661   5.763   5.748
 2646SOL    HW2 8838   5.582   5.906   5.757
 2647SOL     OW 8839   3.582   4.011   0.501
 2647SOL    HW1 8840   3.634   3.987   0.418
 2647SOL    HW2 8841   3.501   4.062   0.475
 2648SOL     OW 8842   4.352   1.373   3.981
 2648SOL    HW1 8843   4.416   1.317   3.928
 2648SOL    HW2 8844   4.258   1.346   3.959
 2649SOL     OW 8845   2.962   4.047   5.263
 2649SOL    HW1 8846   2.872   4.060   5.220
 2649SOL    HW2 8847   2.980   3.950   5.275
 2650SOL     OW 8848   0.267   6.798   2.871
 2650SOL    HW1 8849   0.183   6.840   2.906
 2650SOL    HW2 8850   0.344   6.860   2.884
 2651SOL     OW 8851   1.151   0.027   3.000
 2651SOL    HW1 8852   1.237   0.074   3.021
 2651SOL    HW2 8853   1.093   0.026   3.082
 2652SOL     OW 8854   3.140   2.951   2.266
 2652SOL    HW1 8855   3.238   2.934   2.254
 2652SOL    HW2 8856   3.100   2.877   2.321
 2653SOL     OW 8857   6.334   6.631   1.217
 2653SOL    HW1 8858   6.310   6.713   1.166
 2653SOL    HW2 8859   6.260   6.564   1.211
 2654SOL     OW 8860   6.940   3.019   6.001
 2654SOL    HW1 8861   6.926   3.005   6.099
 2654SOL    HW2 8862   6.925   2.933   5.952
 2655SOL     OW 8863   5.909   4.842   4.212
 2655SOL    HW1 8864   5.984   4.798   4.163
 2655SOL    HW2 8865   5.945   4.889   4.293
 2656SOL     OW 8866   6.301   3.250   5.413
 2656SOL    HW1 8867   6.206   3.232   5.387
 2656SOL    HW2 8868   6.359   3.249   5.332
 2657SOL     OW 8869   4.075   2.417   5.589
 2657SOL    HW1 8870   4.090   2.473   5.670
 2657SOL    HW2 8871   3.976   2.407   5.573
 2658SOL     OW 8872   6.939   4.068   5.255
 2658SOL    HW1 8873   6.922   4.134   5.182
 2658SOL    HW2 8874   6.852   4.032   5.289
 2659SOL     OW 8875   6.828   1.153   3.819
 2659SOL    HW1 8876   6.817   1.252   3.820
 2659SOL    HW2 8877   6.753   1.111   3.870
 2660SOL     OW 8878   0.916   2.115   3.601
 2660SOL    HW1 8879   0.911   2.114   3.700
 2660SOL    HW2 8880   0.917   2.022   3.566
 2661SOL     OW 8881   3.521   7.010   3.506
 2661SOL    HW1 8882   3.541   6.923   3.551
 2661SOL    HW2 8883   3.436   7.002   3.454
 2662SOL     OW 8884   3.800   0.926   4.057
 2662SOL    HW1 8885   3.892   0.954   4.030
 2662SOL    HW2 8886   3.770   0.983   4.134
 2663SOL     OW 8887   1.075   3.867   2.814
 2663SOL    HW1 8888   0.991   3.866   2.869
 2663SOL    HW2 8889   1.096   3.961   2.788
 2664SOL     OW 8890   4.676   4.218   1.745
 2664SOL    HW1 8891   4.616   4.224   1.824
 2664SOL    HW2 8892   4.637   4.271   1.669
 2665SOL     OW 8893   4.731   0.658   5.073
 2665SOL    HW1 8894   4.725   0.711   5.158
 2665SOL    HW2 8895   4.714   0.718   4.995
 2666SOL     OW 8896   5.180   5.985   1.975
 2666SOL    HW1 8897   5.120   5.955   2.049
 2666SOL    HW2 8898   5.267   5.935   1.981
 2667SOL     OW 8899   2.071   4.746   2.402
 2667SOL    HW1 8900   2.049   4.675   2.468
 2667SOL    HW2 8901   2.013   4.826   2.418
 2668SOL     OW 8902   6.845   2.563   5.486
 2668SOL    HW1 8903   6.785   2.642   5.494
 2668SOL    HW2 8904   6.897   2.569   5.401
 2669SOL     OW 8905   4.031   5.974   4.702
 2669SOL    HW1 8906   3.960   6.026   4.655
 2669SOL    HW2 8907   4.006   5.877   4.705
 2670SOL     OW 8908   2.349   6.571   4.243
 2670SOL    HW1 8909   2.344   6.471   4.247
 2670SOL    HW2 8910   2.273   6.610   4.294
 2671SOL     OW 8911   3.126   3.865   6.964
 2671SOL    HW1 8912   3.087   3.869   0.034
 2671SOL    HW2 8913   3.057   3.893   6.897
 2672SOL     OW 8914   0.818   4.620   0.807
 2672SOL    HW1 8915   0.818   4.681   0.728
 2672SOL    HW2 8916   0.739   4.559   0.803
 2673SOL     OW 8917   3.708   1.918   2.993
 2673SOL    HW1 8918   3.666   1.828   2.994
 2673SOL    HW2 8919   3.806   1.909   3.013
 2674SOL     OW 8920   5.129   6.070   5.103
 2674SOL    HW1 8921   5.087   5.981   5.120
 2674SOL    HW2 8922   5.196   6.090   5.174
 2675SOL     OW 8923   0.050   5.112   5.646
 2675SOL    HW1 8924   0.105   5.189   5.680
 2675SOL    HW2 8925   0.073   5.094   5.551
 2676SOL     OW 8926   4.450   0.371   1.657
 2676SOL    HW1 8927   4.491   0.330   1.739
 2676SOL    HW2 8928   4.510   0.354   1.579
 2677SOL     OW 8929   2.367   4.965   1.884
 2677SOL    HW1 8930   2.434   4.891   1.890
 2677SOL    HW2 8931   2.384   5.018   1.800
 2678SOL     OW 8932   0.614   6.577   6.777
 2678SOL    HW1 8933   0.562   6.659   6.758
 2678SOL    HW2 8934   0.667   6.589   6.861
 2679SOL     OW 8935   2.244   4.946   1.571
 2679SOL    HW1 8936   2.335   4.927   1.609
 2679SOL    HW2 8937   2.251   5.018   1.502
 2680SOL     OW 8938   0.053   2.210   1.256
 2680SOL    HW1 8939   0.023   2.268   1.181
 2680SOL    HW2 8940   0.146   2.178   1.238
 2681SOL     OW 8941   1.872   2.318   1.411
 2681SOL    HW1 8942   1.867   2.415   1.385
 2681SOL    HW2 8943   1.947   2.304   1.475
 2682SOL     OW 8944   0.378   2.763   3.834
 2682SOL    HW1 8945   0.453   2.699   3.819
 2682SOL    HW2 8946   0.398   2.850   3.789
 2683SOL     OW 8947   1.372   0.033   0.492
 2683SOL    HW1 8948   1.459   0.003   0.531
 2683SOL    HW2 8949   1.321   0.086   0.560
 2684SOL     OW 8950   2.258   5.090   3.093
 2684SOL    HW1 8951   2.283   5.181   3.128
 2684SOL    HW2 8952   2.177   5.057   3.141
 2685SOL     OW 8953   5.265   5.128   5.700
 2685SOL    HW1 8954   5.205   5.053   5.674
 2685SOL    HW2 8955   5.250   5.206   5.639
 2686SOL     OW 8956   1.070   3.360   4.625
 2686SOL    HW1 8957   1.166   3.365   4.652
 2686SOL    HW2 8958   1.022   3.441   4.659
 2687SOL     OW 8959   4.673   5.176   3.064
 2687SOL    HW1 8960   4.601   5.231   3.021
 2687SOL    HW2 8961   4.632   5.111   3.128
 2688SOL     OW 8962   3.503   4.484   5.409
 2688SOL    HW1 8963   3.533   4.388   5.410
 2688SOL    HW2 8964   3.439   4.500   5.484
 2689SOL     OW 8965   6.134   2.169   4.025
 2689SOL    HW1 8966   6.217   2.125   3.991
 2689SOL    HW2 8967   6.156   2.261   4.057
 2690SOL     OW 8968   3.506   4.128   3.677
 2690SOL    HW1 8969   3.552   4.045   3.709
 2690SOL    HW2 8970   3.532   4.205   3.735
 2691SOL     OW 8971   1.396   5.896   1.415
 2691SOL    HW1 8972   1.472   5.959   1.397
 2691SOL    HW2 8973   1.374   5.897   1.512
 2692SOL     OW 8974   6.769   4.166   3.942
 2692SOL    HW1 8975   6.713   4.248   3.955
 2692SOL    HW2 8976   6.710   4.088   3.921
 2693SOL     OW 8977   2.096   3.797   2.311
 2693SOL    HW1 8978   2.142   3.856   2.244
 2693SOL    HW2 8979   1.999   3.819   2.314
 2694SOL     OW 8980   2.168   1.503   3.109
 2694SOL    HW1 8981   2.229   1.484   3.033
 2694SOL    HW2 8982   2.162   1.602   3.124
 2695SOL     OW 8983   4.265   2.213   2.013
 2695SOL    HW1 8984   4.278   2.286   1.945
 2695SOL    HW2 8985   4.168   2.190   2.019
 2696SOL     OW 8986   3.495   3.462   6.400
 2696SOL    HW1 8987   3.560   3.431   6.470
 2696SOL    HW2 8988   3.423   3.393   6.389
 2697SOL     OW 8989   2.537   0.970   5.167
 2697SOL    HW1 8990   2.495   0.938   5.251
 2697SOL    HW2 8991   2.477   0.950   5.089
 2698SOL     OW 8992   1.511   1.614   6.902
 2698SOL    HW1 8993   1.598   1.593   6.858
 2698SOL    HW2 8994   1.465   1.528   6.927
 2699SOL     OW 8995   1.518   4.931   3.931
 2699SOL    HW1 8996   1.480   5.015   3.894
 2699SOL    HW2 8997   1.446   4.878   3.975
 2700SOL     OW 8998   2.364   4.506   2.712
 2700SOL    HW1 8999   2.380   4.463   2.801
 2700SOL    HW2 9000   2.300   4.450   2.660
 2701SOL     OW 9001   2.303   0.494   5.306
 2701SOL    HW1 9002   2.274   0.504   5.402
 2701SOL    HW2 9003   2.288   0.580   5.258
 2702SOL     OW 9004   5.917   6.476   3.108
 2702SOL    HW1 9005   5.981   6.466   3.184
 2702SOL    HW2 9006   5.967   6.489   3.023
 2703SOL     OW 9007   1.945   2.719   2.468
 2703SOL    HW1 9008   2.044   2.722   2.475
 2703SOL    HW2 9009   1.907   2.677   2.550
 2704SOL     OW 9010   0.968   6.528   0.633
 2704SOL    HW1 9011   0.966   6.574   0.722
 2704SOL    HW2 9012   1.062   6.515   0.604
 2705SOL     OW 9013   0.351   3.069   2.624
 2705SOL    HW1 9014   0.367   3.151   2.679
 2705SOL    HW2 9015   0.326   3.095   2.531
 2706SOL     OW 9016   6.531   2.366   3.925
 2706SOL    HW1 9017   6.457   2.341   3.862
 2706SOL    HW2 9018   6.541   2.466   3.925
 2707SOL     OW 9019   3.169   0.993   0.003
 2707SOL    HW1 9020   3.174   1.047   0.087
 2707SOL    HW2 9021   3.207   1.046   6.948
 2708SOL     OW 9022   1.344   4.674   6.745
 2708SOL    HW1 9023   1.259   4.639   6.705
 2708SOL    HW2 9024   1.419   4.611   6.724
 2709SOL     OW 9025   3.878   0.203   1.919
 2709SOL    HW1 9026   3.933   0.275   1.961
 2709SOL    HW2 9027   3.794   0.190   1.972
 2710SOL     OW 9028   5.845   4.367   3.353
 2710SOL    HW1 9029   5.931   4.379   3.402
 2710SOL    HW2 9030   5.864   4.332   3.261
 2711SOL     OW 9031   0.984   6.564   2.046
 2711SOL    HW1 9032   0.995   6.465   2.048
 2711SOL    HW2 9033   0.886   6.587   2.047
 2712SOL     OW 9034   2.694   5.505   2.726
 2712SOL    HW1 9035   2.675   5.506   2.824
 2712SOL    HW2 9036   2.648   5.582   2.682
 2713SOL     OW 9037   2.072   2.931   5.582
 2713SOL    HW1 9038   2.136   2.972   5.647
 2713SOL    HW2 9039   2.067   2.988   5.500
 2714SOL     OW 9040   5.729   0.438   0.387
 2714SOL    HW1 9041   5.793   0.496   0.336
 2714SOL    HW2 9042   5.636   0.455   0.355
 2715SOL     OW 9043   6.004   0.567   0.748
 2715SOL    HW1 9044   6.002   0.579   0.848
 2715SOL    HW2 9045   5.976   0.474   0.726
 2716SOL     OW 9046   5.997   6.294   2.279
 2716SOL    HW1 9047   6.069   6.363   2.274
 2716SOL    HW2 9048   5.937   6.303   2.199
 2717SOL     OW 9049   0.395   0.073   3.305
 2717SOL    HW1 9050   0.444   0.113   3.228
 2717SOL    HW2 9051   0.371   0.145   3.371
 2718SOL     OW 9052   6.598   3.827   3.297
 2718SOL    HW1 9053   6.683   3.860   3.338
 2718SOL    HW2 9054   6.569   3.889   3.225
 2719SOL     OW 9055   4.113   4.775   2.958
 2719SOL    HW1 9056   4.142   4.750   2.865
 2719SOL    HW2 9057   4.020   4.811   2.956
 2720SOL     OW 9058   0.784   6.541   4.380
 2720SOL    HW1 9059   0.749   6.482   4.453
 2720SOL    HW2 9060   0.784   6.491   4.294
 2721SOL     OW 9061   4.884   6.316   3.209
 2721SOL    HW1 9062   4.931   6.391   3.164
 2721SOL    HW2 9063   4.825   6.352   3.281
 2722SOL     OW 9064   0.597   5.965   2.286
 2722SOL    HW1 9065   0.571   5.869   2.299
 2722SOL    HW2 9066   0.688   5.970   2.245
 2723SOL     OW 9067   1.773   2.251   3.932
 2723SOL    HW1 9068   1.693   2.304   3.905
 2723SOL    HW2 9069   1.842   2.312   3.971
 2724SOL     OW 9070   4.502   5.918   5.983
 2724SOL    HW1 9071   4.481   5.946   5.890
 2724SOL    HW2 9072   4.562   5.985   6.026
 2725SOL     OW 9073   2.197   4.726   2.768
 2725SOL    HW1 9074   2.232   4.769   2.851
 2725SOL    HW2 9075   2.262   4.657   2.736
 2726SOL     OW 9076   3.980   6.259   2.702
 2726SOL    HW1 9077   4.046   6.296   2.768
 2726SOL    HW2 9078   3.985   6.160   2.703
 2727SOL     OW 9079   2.284   5.780   4.209
 2727SOL    HW1 9080   2.244   5.698   4.168
 2727SOL    HW2 9081   2.345   5.824   4.143
 2728SOL     OW 9082   2.560   6.563   5.771
 2728SOL    HW1 9083   2.554   6.502   5.850
 2728SOL    HW2 9084   2.651   6.604   5.768
 2729SOL     OW 9085   0.375   4.754   2.538
 2729SOL    HW1 9086   0.420   4.843   2.538
 2729SOL    HW2 9087   0.279   4.765   2.562
 2730SOL     OW 9088   2.013   3.744   1.291
 2730SOL    HW1 9089   1.955   3.773   1.216
 2730SOL    HW2 9090   2.012   3.644   1.298
 2731SOL     OW 9091   2.275   3.323   0.134
 2731SOL    HW1 9092   2.208   3.251   0.151
 2731SOL    HW2 9093   2.312   3.355   0.220
 2732SOL     OW 9094   6.144   3.446   4.677
 2732SOL    HW1 9095   6.095   3.500   4.609
 2732SOL    HW2 9096   6.082   3.379   4.718
 2733SOL     OW 9097   2.041   0.551   0.427
 2733SOL    HW1 9098   1.993   0.513   0.348
 2733SOL    HW2 9099   2.110   0.486   0.459
 2734SOL     OW 9100   2.094   0.217   4.494
 2734SOL    HW1 9101   2.047   0.301   4.469
 2734SOL    HW2 9102   2.102   0.158   4.414
 2735SOL     OW 9103   1.562   5.270   1.494
 2735SOL    HW1 9104   1.533   5.205   1.564
 2735SOL    HW2 9105   1.562   5.362   1.534
 2736SOL     OW 9106   4.179   0.470   6.657
 2736SOL    HW1 9107   4.162   0.382   6.701
 2736SOL    HW2 9108   4.213   0.455   6.564
 2737SOL     OW 9109   4.279   4.028   5.600
 2737SOL    HW1 9110   4.183   4.010   5.623
 2737SOL    HW2 9111   4.332   4.038   5.684
 2738SOL     OW 9112   6.743   4.452   4.729
 2738SOL    HW1 9113   6.757   4.487   4.636
 2738SOL    HW2 9114   6.828   4.410   4.761
 2739SOL     OW 9115   4.695   3.796   6.752
 2739SOL    HW1 9116   4.671   3.773   6.846
 2739SOL    HW2 9117   4.794   3.785   6.739
 2740SOL     OW 9118   5.950   2.851   4.513
 2740SOL    HW1 9119   5.975   2.815   4.602
 2740SOL    HW2 9120   6.027   2.841   4.450
 2741SOL     OW 9121   2.239   3.434   5.593
 2741SOL    HW1 9122   2.233   3.381   5.508
 2741SOL    HW2 9123   2.327   3.417   5.637
 2742SOL     OW 9124   2.932   6.352   5.584
 2742SOL    HW1 9125   2.955   6.447   5.560
 2742SOL    HW2 9126   2.852   6.323   5.532
 2743SOL     OW 9127   6.077   3.918   6.268
 2743SOL    HW1 9128   6.158   3.964   6.234
 2743SOL    HW2 9129   6.043   3.854   6.199
 2744SOL     OW 9130   4.829   6.867   0.915
 2744SOL    HW1 9131   4.894   6.943   0.922
 2744SOL    HW2 9132   4.878   6.784   0.888
 2745SOL     OW 9133   3.302   5.805   1.907
 2745SOL    HW1 9134   3.233   5.733   1.906
 2745SOL    HW2 9135   3.257   5.894   1.903
 2746SOL     OW 9136   1.088   2.194   6.985
 2746SOL    HW1 9137   1.168   2.153   0.007
 2746SOL    HW2 9138   1.046   2.260   0.026
 2747SOL     OW 9139   4.982   5.977   4.041
 2747SOL    HW1 9140   5.032   6.052   3.997
 2747SOL    HW2 9141   4.898   5.958   3.989
 2748SOL     OW 9142   5.461   1.308   4.620
 2748SOL    HW1 9143   5.559   1.284   4.622
 2748SOL    HW2 9144   5.433   1.326   4.525
 2749SOL     OW 9145   5.469   4.851   3.212
 2749SOL    HW1 9146   5.463   4.823   3.116
 2749SOL    HW2 9147   5.564   4.844   3.243
 2750SOL     OW 9148   0.681   0.035   0.380
 2750SOL    HW1 9149   0.704   6.959   0.374
 2750SOL    HW2 9150   0.708   0.071   0.469
 2751SOL     OW 9151   1.020   0.277   6.634
 2751SOL    HW1 9152   0.976   0.222   6.705
 2751SOL    HW2 9153   1.024   0.224   6.549
 2752SOL     OW 9154   0.315   6.516   6.249
 2752SOL    HW1 9155   0.374   6.447   6.291
 2752SOL    HW2 9156   0.340   6.527   6.153
 2753SOL     OW 9157   3.193   5.343   4.283
 2753SOL    HW1 9158   3.104   5.339   4.329
 2753SOL    HW2 9159   3.266   5.337   4.350
 2754SOL     OW 9160   1.143   5.569   3.865
 2754SOL    HW1 9161   1.064   5.566   3.805
 2754SOL    HW2 9162   1.224   5.600   3.814
 2755SOL     OW 9163   4.439   6.601   2.920
 2755SOL    HW1 9164   4.439   6.522   2.982
 2755SOL    HW2 9165   4.491   6.676   2.961
 2756SOL     OW 9166   6.959   2.849   5.185
 2756SOL    HW1 9167   6.973   2.780   5.256
 2756SOL    HW2 9168   7.004   2.821   5.100
 2757SOL     OW 9169   5.053   4.142   5.735
 2757SOL    HW1 9170   5.152   4.156   5.739
 2757SOL    HW2 9171   5.032   4.068   5.671
 2758SOL     OW 9172   0.445   6.698   1.746
 2758SOL    HW1 9173   0.449   6.600   1.727
 2758SOL    HW2 9174   0.523   6.744   1.704
 2759SOL     OW 9175   3.958   3.755   4.897
 2759SOL    HW1 9176   4.012   3.688   4.947
 2759SOL    HW2 9177   3.959   3.842   4.946
 2760SOL     OW 9178   4.984   5.341   2.624
 2760SOL    HW1 9179   5.063   5.291   2.662
 2760SOL    HW2 9180   4.937   5.390   2.697
 2761SOL     OW 9181   2.137   3.284   3.963
 2761SOL    HW1 9182   2.134   3.304   4.061
 2761SOL    HW2 9183   2.138   3.370   3.912
 2762SOL     OW 9184   4.589   1.391   2.237
 2762SOL    HW1 9185   4.530   1.434   2.169
 2762SOL    HW2 9186   4.564   1.423   2.328
 2763SOL     OW 9187   5.412   1.233   3.963
 2763SOL    HW1 9188   5.326   1.284   3.953
 2763SOL    HW2 9189   5.425   1.210   4.059
 2764SOL     OW 9190   0.127   2.294   2.823
 2764SOL    HW1 9191   0.178   2.378   2.839
 2764SOL    HW2 9192   0.153   2.255   2.735
 2765SOL     OW 9193   6.989   6.704   6.973
 2765SOL    HW1 9194   6.910   6.705   0.013
 2765SOL    HW2 9195   0.005   6.611   6.968
 2766SOL     OW 9196   4.865   0.485   0.386
 2766SOL    HW1 9197   4.802   0.474   0.309
 2766SOL    HW2 9198   4.959   0.492   0.352
 2767SOL     OW 9199   0.490   6.043   6.070
 2767SOL    HW1 9200   0.513   6.139   6.090
 2767SOL    HW2 9201   0.403   6.040   6.021
 2768SOL     OW 9202   3.986   0.017   1.728
 2768SOL    HW1 9203   4.083   0.043   1.725
 2768SOL    HW2 9204   3.938   0.077   1.792
 2769SOL     OW 9205   0.662   4.797   5.693
 2769SOL    HW1 9206   0.596   4.727   5.666
 2769SOL    HW2 9207   0.739   4.754   5.739
 2770SOL     OW 9208   2.453   6.383   0.637
 2770SOL    HW1 9209   2.354   6.392   0.624
 2770SOL    HW2 9210   2.471   6.312   0.705
 2771SOL     OW 9211   4.099   6.462   5.676
 2771SOL    HW1 9212   4.043   6.391   5.716
 2771SOL    HW2 9213   4.191   6.427   5.659
 2772SOL     OW 9214   6.097   1.542   2.946
 2772SOL    HW1 9215   6.194   1.520   2.946
 2772SOL    HW2 9216   6.085   1.641   2.959
 2773SOL     OW 9217   5.708   1.776   6.110
 2773SOL    HW1 9218   5.714   1.712   6.186
 2773SOL    HW2 9219   5.611   1.791   6.087
 2774SOL     OW 9220   6.593   0.237   3.795
 2774SOL    HW1 9221   6.497   0.230   3.770
 2774SOL    HW2 9222   6.645   0.165   3.748
 2775SOL     OW 9223   6.836   2.096   4.669
 2775SOL    HW1 9224   6.886   2.163   4.613
 2775SOL    HW2 9225   6.900   2.034   4.714
 2776SOL     OW 9226   4.926   3.667   5.893
 2776SOL    HW1 9227   4.997   3.608   5.855
 2776SOL    HW2 9228   4.855   3.681   5.824
 2777SOL     OW 9229   1.464   1.714   0.489
 2777SOL    HW1 9230   1.374   1.747   0.461
 2777SOL    HW2 9231   1.535   1.768   0.445
 2778SOL     OW 9232   2.576   6.383   5.995
 2778SOL    HW1 9233   2.667   6.381   6.036
 2778SOL    HW2 9234   2.542   6.290   5.982
 2779SOL     OW 9235   5.144   1.126   3.581
 2779SOL    HW1 9236   5.185   1.202   3.531
 2779SOL    HW2 9237   5.216   1.062   3.609
 2780SOL     OW 9238   0.492   0.348   5.336
 2780SOL    HW1 9239   0.567   0.414   5.330
 2780SOL    HW2 9240   0.462   0.323   5.244
 2781SOL     OW 9241   6.764   0.365   3.224
 2781SOL    HW1 9242   6.817   0.436   3.271
 2781SOL    HW2 9243   6.677   0.403   3.192
 2782SOL     OW 9244   5.705   6.526   4.730
 2782SOL    HW1 9245   5.712   6.497   4.634
 2782SOL    HW2 9246   5.637   6.599   4.738
 2783SOL     OW 9247   6.605   2.596   1.975
 2783SOL    HW1 9248   6.623   2.676   2.032
 2783SOL    HW2 9249   6.679   2.530   1.987
 2784SOL     OW 9250   1.137   2.141   1.846
 2784SOL    HW1 9251   1.111   2.086   1.766
 2784SOL    HW2 9252   1.131   2.238   1.823
 2785SOL     OW 9253   5.166   3.692   3.795
 2785SOL    HW1 9254   5.067   3.683   3.800
 2785SOL    HW2 9255   5.190   3.789   3.782
 2786SOL     OW 9256   6.933   5.595   0.748
 2786SOL    HW1 9257   6.956   5.499   0.732
 2786SOL    HW2 9258   6.973   5.651   0.676
 2787SOL     OW 9259   0.430   6.970   6.165
 2787SOL    HW1 9260   0.488   0.030   6.168
 2787SOL    HW2 9261   0.483   6.892   6.131
 2788SOL     OW 9262   2.816   6.587   0.091
 2788SOL    HW1 9263   2.907   6.546   0.099
 2788SOL    HW2 9264   2.766   6.573   0.176
 2789SOL     OW 9265   2.191   1.842   3.458
 2789SOL    HW1 9266   2.103   1.846   3.505
 2789SOL    HW2 9267   2.262   1.809   3.521
 2790SOL     OW 9268   0.702   4.793   1.411
 2790SOL    HW1 9269   0.716   4.794   1.510
 2790SOL    HW2 9270   0.782   4.755   1.366
 2791SOL     OW 9271   0.039   3.358   5.361
 2791SOL    HW1 9272   6.978   3.363   5.305
 2791SOL    HW2 9273   0.120   3.363   5.302
 2792SOL     OW 9274   3.006   2.697   6.814
 2792SOL    HW1 9275   2.974   2.711   6.721
 2792SOL    HW2 9276   2.942   2.639   6.864
 2793SOL     OW 9277   4.233   3.541   6.254
 2793SOL    HW1 9278   4.211   3.465   6.314
 2793SOL    HW2 9279   4.270   3.617   6.308
 2794SOL     OW 9280   1.108   1.928   6.765
 2794SOL    HW1 9281   1.095   1.946   6.863
 2794SOL    HW2 9282   1.162   1.844   6.754
 2795SOL     OW 9283   1.254   0.150   0.699
 2795SOL    HW1 9284   1.163   0.134   0.739
 2795SOL    HW2 9285   1.302   0.219   0.754
 2796SOL     OW 9286   3.093   5.781   0.192
 2796SOL    HW1 9287   3.038   5.847   0.141
 2796SOL    HW2 9288   3.174   5.757   0.139
 2797SOL     OW 9289   4.862   4.132   4.632
 2797SOL    HW1 9290   4.934   4.185   4.676
 2797SOL    HW2 9291   4.838   4.054   4.690
 2798SOL     OW 9292   5.337   2.853   1.670
 2798SOL    HW1 9293   5.368   2.943   1.700
 2798SOL    HW2 9294   5.325   2.794   1.750
 2799SOL     OW 9295   3.370   0.142   4.584
 2799SOL    HW1 9296   3.368   0.043   4.590
 2799SOL    HW2 9297   3.465   0.174   4.586
 2800SOL     OW 9298   5.056   1.395   6.665
 2800SOL    HW1 9299   4.964   1.431   6.648
 2800SOL    HW2 9300   5.079   1.408   6.762
 2801SOL     OW 9301   0.056   4.182   3.435
 2801SOL    HW1 9302   0.064   4.112   3.365
 2801SOL    HW2 9303   0.099   4.150   3.520
 2802SOL     OW 9304   1.885   4.435   4.405
 2802SOL    HW1 9305   1.824   4.389   4.341
 2802SOL    HW2 9306   1.836   4.453   4.491
 2803SOL     OW 9307   3.535   2.938   6.723
 2803SOL    HW1 9308   3.552   2.868   6.654
 2803SOL    HW2 9309   3.496   3.019   6.680
 2804SOL     OW 9310   5.643   2.201   3.555
 2804SOL    HW1 9311   5.548   2.191   3.584
 2804SOL    HW2 9312   5.658   2.293   3.520
 2805SOL     OW 9313   3.963   5.530   0.376
 2805SOL    HW1 9314   3.973   5.629   0.384
 2805SOL    HW2 9315   3.910   5.494   0.453
 2806SOL     OW 9316   0.874   3.031   4.906
 2806SOL    HW1 9317   0.882   2.936   4.936
 2806SOL    HW2 9318   0.803   3.038   4.836
 2807SOL     OW 9319   4.340   1.548   4.217
 2807SOL    HW1 9320   4.372   1.489   4.143
 2807SOL    HW2 9321   4.358   1.504   4.305
 2808SOL     OW 9322   1.034   6.019   6.629
 2808SOL    HW1 9323   1.080   5.998   6.715
 2808SOL    HW2 9324   1.067   6.107   6.594
 2809SOL     OW 9325   1.478   6.393   0.947
 2809SOL    HW1 9326   1.486   6.300   0.985
 2809SOL    HW2 9327   1.555   6.448   0.979
 2810SOL     OW 9328   0.431   6.335   2.466
 2810SOL    HW1 9329   0.397   6.415   2.517
 2810SOL    HW2 9330   0.430   6.255   2.525
 2811SOL     OW 9331   0.731   0.086   0.642
 2811SOL    HW1 9332   0.784   0.154   0.693
 2811SOL    HW2 9333   0.781   7.021   0.641
 2812SOL     OW 9334   1.576   0.969   1.165
 2812SOL    HW1 9335   1.527   1.028   1.230
 2812SOL    HW2 9336   1.670   0.956   1.197
 2813SOL     OW 9337   5.983   2.075   1.560
 2813SOL    HW1 9338   6.041   2.087   1.640
 2813SOL    HW2 9339   6.031   2.022   1.490
 2814SOL     OW 9340   2.080   4.448   6.468
 2814SOL    HW1 9341   2.110   4.537   6.434
 2814SOL    HW2 9342   2.032   4.460   6.555
 2815SOL     OW 9343   6.633   6.207   4.801
 2815SOL    HW1 9344   6.604   6.303   4.798
 2815SOL    HW2 9345   6.634   6.175   4.896
 2816SOL     OW 9346   0.834   5.375   5.063
 2816SOL    HW1 9347   0.766   5.308   5.033
 2816SOL    HW2 9348   0.862   5.431   4.985
 2817SOL     OW 9349   2.498   0.817   1.724
 2817SOL    HW1 9350   2.592   0.842   1.748
 2817SOL    HW2 9351   2.468   0.740   1.781
 2818SOL     OW 9352   1.723   1.079   0.280
 2818SOL    HW1 9353   1.699   0.983   0.290
 2818SOL    HW2 9354   1.639   1.133   0.271
 2819SOL     OW 9355   6.180   0.253   6.502
 2819SOL    HW1 9356   6.161   0.227   6.597
 2819SOL    HW2 9357   6.103   0.305   6.466
 2820SOL     OW 9358   1.754   1.526   0.294
 2820SOL    HW1 9359   1.742   1.487   0.203
 2820SOL    HW2 9360   1.752   1.452   0.362
 2821SOL     OW 9361   3.646   2.228   6.054
 2821SOL    HW1 9362   3.625   2.307   6.111
 2821SOL    HW2 9363   3.562   2.176   6.037
 2822SOL     OW 9364   4.490   2.876   1.439
 2822SOL    HW1 9365   4.487   2.781   1.407
 2822SOL    HW2 9366   4.435   2.885   1.522
 2823SOL     OW 9367   5.416   4.219   3.078
 2823SOL    HW1 9368   5.498   4.223   3.136
 2823SOL    HW2 9369   5.442   4.186   2.987
 2824SOL     OW 9370   0.626   4.393   5.322
 2824SOL    HW1 9371   0.543   4.341   5.344
 2824SOL    HW2 9372   0.704   4.348   5.365
 2825SOL     OW 9373   4.764   2.402   5.407
 2825SOL    HW1 9374   4.686   2.399   5.345
 2825SOL    HW2 9375   4.754   2.331   5.477
 2826SOL     OW 9376   3.010   3.619   6.762
 2826SOL    HW1 9377   3.081   3.579   6.704
 2826SOL    HW2 9378   3.053   3.673   6.835
 2827SOL     OW 9379   6.475   1.915   0.193
 2827SOL    HW1 9380   6.496   1.869   0.279
 2827SOL    HW2 9381   6.388   1.963   0.201
 2828SOL     OW 9382   1.817   4.374   0.273
 2828SOL    HW1 9383   1.827   4.341   0.367
 2828SOL    HW2 9384   1.870   4.458   0.261
 2829SOL     OW 9385   3.529   4.259   1.325
 2829SOL    HW1 9386   3.475   4.192   1.377
 2829SOL    HW2 9387   3.570   4.215   1.245
 2830SOL     OW 9388   2.930   5.346   4.353
 2830SOL    HW1 9389   2.882   5.434   4.358
 2830SOL    HW2 9390   2.866   5.276   4.321
 2831SOL     OW 9391   6.100   1.686   2.206
 2831SOL    HW1 9392   6.098   1.599   2.156
 2831SOL    HW2 9393   6.096   1.762   2.142
 2832SOL     OW 9394   1.927   4.037   1.648
 2832SOL    HW1 9395   2.004   4.012   1.707
 2832SOL    HW2 9396   1.961   4.088   1.569
 2833SOL     OW 9397   6.455   2.337   3.573
 2833SOL    HW1 9398   6.380   2.310   3.634
 2833SOL    HW2 9399   6.427   2.418   3.521
 2834SOL     OW 9400   2.892   0.801   4.384
 2834SOL    HW1 9401   2.885   0.880   4.323
 2834SOL    HW2 9402   2.809   0.746   4.377
 2835SOL     OW 9403   6.590   1.429   0.750
 2835SOL    HW1 9404   6.499   1.396   0.725
 2835SOL    HW2 9405   6.659   1.388   0.690
 2836SOL     OW 9406   3.326   5.934   1.602
 2836SOL    HW1 9407   3.227   5.934   1.593
 2836SOL    HW2 9408   3.354   5.874   1.677
 2837SOL     OW 9409   5.175   3.862   3.095
 2837SOL    HW1 9410   5.167   3.864   2.995
 2837SOL    HW2 9411   5.086   3.884   3.136
 2838SOL     OW 9412   0.154   4.135   5.946
 2838SOL    HW1 9413   0.156   4.153   6.044
 2838SOL    HW2 9414   0.089   4.061   5.926
 2839SOL     OW 9415   5.394   2.740   6.256
 2839SOL    HW1 9416   5.492   2.755   6.270
 2839SOL    HW2 9417   5.380   2.663   6.194
 2840SOL     OW 9418   6.525   5.873   5.042
 2840SOL    HW1 9419   6.435   5.867   5.086
 2840SOL    HW2 9420   6.520   5.834   4.950
 2841SOL     OW 9421   5.577   3.398   3.351
 2841SOL    HW1 9422   5.540   3.473   3.405
 2841SOL    HW2 9423   5.594   3.319   3.410
 2842SOL     OW 9424   0.814   6.341   3.530
 2842SOL    HW1 9425   0.879   6.410   3.561
 2842SOL    HW2 9426   0.780   6.289   3.608
 2843SOL     OW 9427   0.902   2.625   4.280
 2843SOL    HW1 9428   0.968   2.620   4.355
 2843SOL    HW2 9429   0.851   2.710   4.287
 2844SOL     OW 9430   5.624   3.999   0.250
 2844SOL    HW1 9431   5.552   4.062   0.223
 2844SOL    HW2 9432   5.627   3.923   0.185
 2845SOL     OW 9433   3.737   1.668   1.215
 2845SOL    HW1 9434   3.764   1.656   1.120
 2845SOL    HW2 9435   3.692   1.756   1.226
 2846SOL     OW 9436   4.943   0.455   6.233
 2846SOL    HW1 9437   4.903   0.365   6.216
 2846SOL    HW2 9438   4.891   0.524   6.184
 2847SOL     OW 9439   5.774   4.643   2.212
 2847SOL    HW1 9440   5.782   4.547   2.185
 2847SOL    HW2 9441   5.849   4.666   2.275
 2848SOL     OW 9442   0.516   3.473   0.387
 2848SOL    HW1 9443   0.614   3.474   0.366
 2848SOL    HW2 9444   0.502   3.493   0.484
 2849SOL     OW 9445   5.163   0.539   1.137
 2849SOL    HW1 9446   5.124   0.615   1.085
 2849SOL    HW2 9447   5.098   0.464   1.139
 2850SOL     OW 9448   6.935   1.191   0.778
 2850SOL    HW1 9449   6.940   1.165   0.681
 2850SOL    HW2 9450   6.976   1.281   0.790
 2851SOL     OW 9451   3.088   3.343   2.451
 2851SOL    HW1 9452   3.006   3.368   2.399
 2851SOL    HW2 9453   3.091   3.244   2.463
 2852SOL     OW 9454   0.707   5.177   4.897
 2852SOL    HW1 9455   0.731   5.181   4.800
 2852SOL    HW2 9456   0.708   5.082   4.928
 2853SOL     OW 9457   0.133   4.718   5.856
 2853SOL    HW1 9458   0.199   4.644   5.845
 2853SOL    HW2 9459   0.182   4.805   5.868
 2854SOL     OW 9460   3.138   0.419   6.537
 2854SOL    HW1 9461   3.073   0.470   6.481
 2854SOL    HW2 9462   3.092   0.385   6.619
 2855SOL     OW 9463   2.705   2.397   4.418
 2855SOL    HW1 9464   2.673   2.303   4.424
 2855SOL    HW2 9465   2.649   2.455   4.478
 2856SOL     OW 9466   1.783   5.456   4.842
 2856SOL    HW1 9467   1.846   5.510   4.897
 2856SOL    HW2 9468   1.821   5.365   4.825
 2857SOL     OW 9469   0.835   4.684   0.329
 2857SOL    HW1 9470   0.856   4.760   0.268
 2857SOL    HW2 9471   0.843   4.714   0.424
 2858SOL     OW 9472   5.671   4.660   4.313
 2858SOL    HW1 9473   5.755   4.708   4.285
 2858SOL    HW2 9474   5.640   4.601   4.238
 2859SOL     OW 9475   0.474   4.988   1.807
 2859SOL    HW1 9476   0.436   4.915   1.751
 2859SOL    HW2 9477   0.502   4.950   1.896
 2860SOL     OW 9478   1.390   6.736   3.093
 2860SOL    HW1 9479   1.307   6.762   3.044
 2860SOL    HW2 9480   1.469   6.748   3.033
 2861SOL     OW 9481   5.557   3.144   5.051
 2861SOL    HW1 9482   5.471   3.176   5.011
 2861SOL    HW2 9483   5.600   3.219   5.103
 2862SOL     OW 9484   4.690   1.308   0.629
 2862SOL    HW1 9485   4.634   1.230   0.656
 2862SOL    HW2 9486   4.787   1.283   0.637
 2863SOL     OW 9487   5.700   1.607   6.329
 2863SOL    HW1 9488   5.777   1.652   6.375
 2863SOL    HW2 9489   5.619   1.613   6.386
 2864SOL     OW 9490   4.447   4.637   1.147
 2864SOL    HW1 9491   4.359   4.612   1.189
 2864SOL    HW2 9492   4.501   4.554   1.132
 2865SOL     OW 9493   5.638   4.391   6.263
 2865SOL    HW1 9494   5.666   4.487   6.258
 2865SOL    HW2 9495   5.682   4.340   6.189
 2866SOL     OW 9496   4.454   5.702   1.189
 2866SOL    HW1 9497   4.498   5.737   1.271
 2866SOL    HW2 9498   4.355   5.714   1.196
 2867SOL     OW 9499   0.376   5.800   3.387
 2867SOL    HW1 9500   0.290   5.852   3.384
 2867SOL    HW2 9501   0.361   5.714   3.436
 2868SOL     OW 9502   6.721   0.279   5.837
 2868SOL    HW1 9503   6.801   0.225   5.813
 2868SOL    HW2 9504   6.702   0.345   5.764
 2869SOL     OW 9505   5.522   4.307   5.070
 2869SOL    HW1 9506   5.618   4.287   5.052
 2869SOL    HW2 9507   5.465   4.245   5.018
 2870SOL     OW 9508   0.139   0.952   1.189
 2870SOL    HW1 9509   0.111   0.904   1.272
 2870SOL    HW2 9510   0.058   0.985   1.141
 2871SOL     OW 9511   4.503   1.384   3.309
 2871SOL    HW1 9512   4.467   1.451   3.243
 2871SOL    HW2 9513   4.498   1.423   3.401
 2872SOL     OW 9514   3.736   1.435   2.633
 2872SOL    HW1 9515   3.719   1.530   2.658
 2872SOL    HW2 9516   3.661   1.378   2.667
 2873SOL     OW 9517   6.966   0.042   2.720
 2873SOL    HW1 9518   6.901   0.020   2.793
 2873SOL    HW2 9519   7.008   6.980   2.686
 2874SOL     OW 9520   1.874   1.187   2.236
 2874SOL    HW1 9521   1.780   1.174   2.267
 2874SOL    HW2 9522   1.873   1.216   2.140
 2875SOL     OW 9523   2.857   0.277   2.338
 2875SOL    HW1 9524   2.910   0.239   2.262
 2875SOL    HW2 9525   2.917   0.325   2.401
 2876SOL     OW 9526   1.544   0.034   1.121
 2876SOL    HW1 9527   1.604   0.114   1.118
 2876SOL    HW2 9528   1.496   0.032   1.209
 2877SOL     OW 9529   1.063   3.632   6.896
 2877SOL    HW1 9530   0.975   3.641   6.850
 2877SOL    HW2 9531   1.056   3.564   6.969
 2878SOL     OW 9532   3.794   3.423   4.933
 2878SOL    HW1 9533   3.728   3.441   4.860
 2878SOL    HW2 9534   3.877   3.383   4.895
 2879SOL     OW 9535   6.111   6.137   0.231
 2879SOL    HW1 9536   6.061   6.060   0.193
 2879SOL    HW2 9537   6.086   6.149   0.327
 2880SOL     OW 9538   1.601   1.755   2.760
 2880SOL    HW1 9539   1.563   1.700   2.834
 2880SOL    HW2 9540   1.547   1.838   2.749
 2881SOL     OW 9541   5.265   4.928   0.016
 2881SOL    HW1 9542   5.178   4.892   0.049
 2881SOL    HW2 9543   5.339   4.865   0.040
 2882SOL     OW 9544   5.199   6.519   6.970
 2882SOL    HW1 9545   5.220   6.502   0.045
 2882SOL    HW2 9546   5.282   6.508   6.915
 2883SOL     OW 9547   5.221   6.429   3.257
 2883SOL    HW1 9548   5.183   6.390   3.341
 2883SOL    HW2 9549   5.264   6.517   3.278
 2884SOL     OW 9550   6.468   5.475   3.570
 2884SOL    HW1 9551   6.511   5.552   3.617
 2884SOL    HW2 9552   6.387   5.446   3.621
 2885SOL     OW 9553   0.544   3.858   3.618
 2885SOL    HW1 9554   0.567   3.926   3.687
 2885SOL    HW2 9555   0.488   3.900   3.547
 2886SOL     OW 9556   2.154   4.444   5.056
 2886SOL    HW1 9557   2.160   4.389   4.973
 2886SOL    HW2 9558   2.224   4.516   5.054
 2887SOL     OW 9559   6.907   4.582   3.051
 2887SOL    HW1 9560   6.968   4.504   3.060
 2887SOL    HW2 9561   6.813   4.554   3.071
 2888SOL     OW 9562   4.387   5.769   6.963
 2888SOL    HW1 9563   4.372   5.681   7.009
 2888SOL    HW2 9564   4.460   5.761   6.896
 2889SOL     OW 9565   3.904   5.264   3.809
 2889SOL    HW1 9566   3.912   5.168   3.782
 2889SOL    HW2 9567   3.809   5.285   3.830
 2890SOL     OW 9568   1.116   1.750   0.727
 2890SOL    HW1 9569   1.113   1.842   0.686
 2890SOL    HW2 9570   1.078   1.753   0.819
 2891SOL     OW 9571   1.486   1.829   5.468
 2891SOL    HW1 9572   1.543   1.766   5.520
 2891SOL    HW2 9573   1.543   1.899   5.426
 2892SOL     OW 9574   6.082   3.779   2.171
 2892SOL    HW1 9575   6.085   3.684   2.139
 2892SOL    HW2 9576   6.046   3.838   2.099
 2893SOL     OW 9577   6.660   6.123   5.049
 2893SOL    HW1 9578   6.758   6.102   5.048
 2893SOL    HW2 9579   6.608   6.044   5.079
 2894SOL     OW 9580   1.925   5.421   1.294
 2894SOL    HW1 9581   2.004   5.481   1.282
 2894SOL    HW2 9582   1.842   5.471   1.272
 2895SOL     OW 9583   4.626   6.255   6.500
 2895SOL    HW1 9584   4.615   6.297   6.590
 2895SOL    HW2 9585   4.724   6.243   6.482
 2896SOL     OW 9586   6.798   6.917   6.254
 2896SOL    HW1 9587   6.703   6.926   6.285
 2896SOL    HW2 9588   6.804   6.946   6.158
 2897SOL     OW 9589   2.855   6.240   3.637
 2897SOL    HW1 9590   2.947   6.278   3.623
 2897SOL    HW2 9591   2.861   6.140   3.641
 2898SOL     OW 9592   5.436   2.421   2.439
 2898SOL    HW1 9593   5.347   2.431   2.483
 2898SOL    HW2 9594   5.439   2.334   2.390
 2899SOL     OW 9595   6.586   2.639   1.350
 2899SOL    HW1 9596   6.667   2.683   1.311
 2899SOL    HW2 9597   6.581   2.660   1.448
 2900SOL     OW 9598   3.230   2.990   5.084
 2900SOL    HW1 9599   3.156   2.995   5.151
 2900SOL    HW2 9600   3.197   3.020   4.994
 2901SOL     OW 9601   1.421   3.555   1.228
 2901SOL    HW1 9602   1.485   3.553   1.151
 2901SOL    HW2 9603   1.359   3.632   1.218
 2902SOL     OW 9604   5.122   6.049   3.348
 2902SOL    HW1 9605   5.120   6.145   3.375
 2902SOL    HW2 9606   5.145   5.992   3.427
 2903SOL     OW 9607   0.787   5.339   1.393
 2903SOL    HW1 9608   0.692   5.369   1.405
 2903SOL    HW2 9609   0.789   5.239   1.381
 2904SOL     OW 9610   2.913   4.841   4.082
 2904SOL    HW1 9611   3.006   4.858   4.116
 2904SOL    HW2 9612   2.917   4.812   3.986
 2905SOL     OW 9613   1.181   4.542   1.752
 2905SOL    HW1 9614   1.280   4.534   1.736
 2905SOL    HW2 9615   1.144   4.452   1.777
 2906SOL     OW 9616   6.602   6.077   5.980
 2906SOL    HW1 9617   6.663   6.156   5.975
 2906SOL    HW2 9618   6.639   6.002   5.927
 2907SOL     OW 9619   6.600   1.042   6.035
 2907SOL    HW1 9620   6.665   1.002   6.098
 2907SOL    HW2 9621   6.535   0.972   6.004
 2908SOL     OW 9622   3.693   5.859   3.600
 2908SOL    HW1 9623   3.758   5.795   3.560
 2908SOL    HW2 9624   3.735   5.950   3.606
 2909SOL     OW 9625   0.330   6.508   0.849
 2909SOL    HW1 9626   0.277   6.586   0.817
 2909SOL    HW2 9627   0.334   6.510   0.949
 2910SOL     OW 9628   1.056   0.062   4.400
 2910SOL    HW1 9629   1.148   0.076   4.362
 2910SOL    HW2 9630   1.049   0.108   4.488
 2911SOL     OW 9631   6.740   3.570   3.599
 2911SOL    HW1 9632   6.765   3.640   3.531
 2911SOL    HW2 9633   6.812   3.565   3.668
 2912SOL     OW 9634   0.238   1.315   3.002
 2912SOL    HW1 9635   0.153   1.353   3.039
 2912SOL    HW2 9636   0.236   1.322   2.902
 2913SOL     OW 9637   1.209   6.597   4.234
 2913SOL    HW1 9638   1.149   6.521   4.258
 2913SOL    HW2 9639   1.155   6.681   4.227
 2914SOL     OW 9640   4.133   4.392   0.703
 2914SOL    HW1 9641   4.070   4.463   0.736
 2914SOL    HW2 9642   4.090   4.342   0.627
 2915SOL     OW 9643   2.451   0.600   3.720
 2915SOL    HW1 9644   2.390   0.663   3.767
 2915SOL    HW2 9645   2.407   0.510   3.713
 2916SOL     OW 9646   0.495   5.916   6.330
 2916SOL    HW1 9647   0.481   5.937   6.427
 2916SOL    HW2 9648   0.438   5.977   6.275
 2917SOL     OW 9649   1.926   1.223   3.627
 2917SOL    HW1 9650   1.935   1.274   3.541
 2917SOL    HW2 9651   1.904   1.128   3.608
 2918SOL     OW 9652   5.161   1.369   1.057
 2918SOL    HW1 9653   5.158   1.295   1.125
 2918SOL    HW2 9654   5.256   1.384   1.029
 2919SOL     OW 9655   0.791   5.986   5.070
 2919SOL    HW1 9656   0.833   5.904   5.032
 2919SOL    HW2 9657   0.849   6.022   5.143
 2920SOL     OW 9658   2.724   2.153   1.945
 2920SOL    HW1 9659   2.798   2.189   2.001
 2920SOL    HW2 9660   2.688   2.069   1.986
 2921SOL     OW 9661   0.042   5.228   3.588
 2921SOL    HW1 9662   7.007   5.163   3.536
 2921SOL    HW2 9663   7.008   5.308   3.612
 2922SOL     OW 9664   4.101   5.180   3.524
 2922SOL    HW1 9665   4.023   5.125   3.555
 2922SOL    HW2 9666   4.092   5.274   3.556
 2923SOL     OW 9667   1.374   4.594   3.708
 2923SOL    HW1 9668   1.442   4.657   3.672
 2923SOL    HW2 9669   1.377   4.508   3.658
 2924SOL     OW 9670   4.865   1.441   0.194
 2924SOL    HW1 9671   4.882   1.363   0.133
 2924SOL    HW2 9672   4.889   1.526   0.147
 2925SOL     OW 9673   5.546   6.751   4.680
 2925SOL    HW1 9674   5.613   6.798   4.621
 2925SOL    HW2 9675   5.457   6.751   4.635
 2926SOL     OW 9676   0.001   2.623   4.674
 2926SOL    HW1 9677   6.950   2.642   4.607
 2926SOL    HW2 9678   6.985   2.566   4.747
 2927SOL     OW 9679   0.941   2.327   2.392
 2927SOL    HW1 9680   0.929   2.259   2.320
 2927SOL    HW2 9681   0.983   2.409   2.354
 2928SOL     OW 9682   5.085   4.778   0.412
 2928SOL    HW1 9683   5.143   4.697   0.408
 2928SOL    HW2 9684   5.035   4.788   0.326
 2929SOL     OW 9685   1.863   1.643   2.834
 2929SOL    HW1 9686   1.791   1.683   2.776
 2929SOL    HW2 9687   1.952   1.680   2.807
 2930SOL     OW 9688   0.432   3.211   4.389
 2930SOL    HW1 9689   0.402   3.118   4.369
 2930SOL    HW2 9690   0.353   3.268   4.411
 2931SOL     OW 9691   5.760   3.693   5.838
 2931SOL    HW1 9692   5.684   3.690   5.903
 2931SOL    HW2 9693   5.834   3.748   5.877
 2932SOL     OW 9694   6.968   6.735   0.612
 2932SOL    HW1 9695   0.005   6.682   0.551
 2932SOL    HW2 9696   6.999   6.723   0.706
 2933SOL     OW 9697   0.699   0.387   6.970
 2933SOL    HW1 9698   0.725   0.459   0.012
 2933SOL    HW2 9699   0.631   0.421   6.905
 2934SOL     OW 9700   5.910   5.194   2.577
 2934SOL    HW1 9701   5.972   5.116   2.583
 2934SOL    HW2 9702   5.878   5.205   2.483
 2935SOL     OW 9703   0.955   4.452   6.065
 2935SOL    HW1 9704   1.024   4.382   6.049
 2935SOL    HW2 9705   0.866   4.419   6.034
 2936SOL     OW 9706   4.401   6.317   2.644
 2936SOL    HW1 9707   4.479   6.333   2.705
 2936SOL    HW2 9708   4.352   6.236   2.673
 2937SOL     OW 9709   6.268   3.325   3.244
 2937SOL    HW1 9710   6.255   3.424   3.242
 2937SOL    HW2 9711   6.179   3.279   3.247
 2938SOL     OW 9712   0.520   5.465   1.434
 2938SOL    HW1 9713   0.441   5.522   1.454
 2938SOL    HW2 9714   0.490   5.371   1.417
 2939SOL     OW 9715   5.621   6.183   2.259
 2939SOL    HW1 9716   5.692   6.113   2.270
 2939SOL    HW2 9717   5.563   6.184   2.341
 2940SOL     OW 9718   4.869   5.762   3.396
 2940SOL    HW1 9719   4.770   5.749   3.393
 2940SOL    HW2 9720   4.904   5.776   3.303
 2941SOL     OW 9721   2.818   5.133   2.548
 2941SOL    HW1 9722   2.852   5.042   2.574
 2941SOL    HW2 9723   2.877   5.203   2.587
 2942SOL     OW 9724   3.269   1.728   1.455
 2942SOL    HW1 9725   3.312   1.817   1.467
 2942SOL    HW2 9726   3.294   1.690   1.366
 2943SOL     OW 9727   0.561   3.992   3.873
 2943SOL    HW1 9728   0.461   4.000   3.879
 2943SOL    HW2 9729   0.587   3.896   3.877
 2944SOL     OW 9730   0.937   5.278   3.177
 2944SOL    HW1 9731   0.926   5.342   3.253
 2944SOL    HW2 9732   0.847   5.244   3.150
 2945SOL     OW 9733   5.786   3.723   0.493
 2945SOL    HW1 9734   5.762   3.627   0.510
 2945SOL    HW2 9735   5.846   3.728   0.413
 2946SOL     OW 9736   3.155   4.060   4.571
 2946SOL    HW1 9737   3.095   3.982   4.590
 2946SOL    HW2 9738   3.159   4.118   4.652
 2947SOL     OW 9739   6.569   6.237   0.333
 2947SOL    HW1 9740   6.628   6.219   0.255
 2947SOL    HW2 9741   6.617   6.295   0.399
 2948SOL     OW 9742   6.147   4.433   0.507
 2948SOL    HW1 9743   6.120   4.339   0.526
 2948SOL    HW2 9744   6.212   4.464   0.577
 2949SOL     OW 9745   1.719   5.741   1.145
 2949SOL    HW1 9746   1.781   5.804   1.192
 2949SOL    HW2 9747   1.717   5.654   1.193
 2950SOL     OW 9748   5.525   5.481   2.059
 2950SOL    HW1 9749   5.467   5.400   2.050
 2950SOL    HW2 9750   5.571   5.479   2.148
 2951SOL     OW 9751   0.702   2.298   0.821
 2951SOL    HW1 9752   0.754   2.223   0.862
 2951SOL    HW2 9753   0.762   2.352   0.762
 2952SOL     OW 9754   1.005   2.136   4.558
 2952SOL    HW1 9755   0.991   2.105   4.464
 2952SOL    HW2 9756   0.938   2.091   4.617
 2953SOL     OW 9757   1.334   5.652   2.679
 2953SOL    HW1 9758   1.245   5.698   2.687
 2953SOL    HW2 9759   1.320   5.559   2.645
 2954SOL     OW 9760   0.568   4.434   6.146
 2954SOL    HW1 9761   0.599   4.528   6.163
 2954SOL    HW2 9762   0.617   4.396   6.068
 2955SOL     OW 9763   1.556   4.766   6.039
 2955SOL    HW1 9764   1.576   4.760   5.942
 2955SOL    HW2 9765   1.629   4.721   6.091
 2956SOL     OW 9766   6.033   3.750   4.891
 2956SOL    HW1 9767   6.117   3.696   4.883
 2956SOL    HW2 9768   6.044   3.817   4.964
 2957SOL     OW 9769   1.673   4.984   2.088
 2957SOL    HW1 9770   1.624   5.008   2.171
 2957SOL    HW2 9771   1.760   4.941   2.112
 2958SOL     OW 9772   1.856   4.149   0.969
 2958SOL    HW1 9773   1.762   4.167   0.999
 2958SOL    HW2 9774   1.920   4.184   1.038
 2959SOL     OW 9775   0.357   4.271   4.274
 2959SOL    HW1 9776   0.351   4.314   4.364
 2959SOL    HW2 9777   0.298   4.319   4.209
 2960SOL     OW 9778   5.207   6.596   0.901
 2960SOL    HW1 9779   5.212   6.587   1.001
 2960SOL    HW2 9780   5.222   6.506   0.859
 2961SOL     OW 9781   5.987   2.089   0.929
 2961SOL    HW1 9782   6.061   2.132   0.877
 2961SOL    HW2 9783   5.912   2.154   0.941
 2962SOL     OW 9784   6.937   0.438   3.816
 2962SOL    HW1 9785   7.004   0.444   3.890
 2962SOL    HW2 9786   6.886   0.353   3.824
 2963SOL     OW 9787   1.713   1.933   5.730
 2963SOL    HW1 9788   1.632   1.875   5.747
 2963SOL    HW2 9789   1.750   1.965   5.817
 2964SOL     OW 9790   0.842   1.063   5.754
 2964SOL    HW1 9791   0.795   0.976   5.737
 2964SOL    HW2 9792   0.938   1.055   5.725
 2965SOL     OW 9793   5.730   0.375   6.200
 2965SOL    HW1 9794   5.798   0.357   6.129
 2965SOL    HW2 9795   5.656   0.308   6.194
 2966SOL     OW 9796   3.158   6.873   3.117
 2966SOL    HW1 9797   3.115   6.798   3.167
 2966SOL    HW2 9798   3.087   6.936   3.086
 2967SOL     OW 9799   6.173   6.715   4.960
 2967SOL    HW1 9800   6.190   6.618   4.946
 2967SOL    HW2 9801   6.078   6.737   4.940
 2968SOL     OW 9802   1.487   3.657   1.635
 2968SOL    HW1 9803   1.530   3.571   1.609
 2968SOL    HW2 9804   1.469   3.656   1.734
 2969SOL     OW 9805   4.488   2.089   4.933
 2969SOL    HW1 9806   4.500   2.089   5.032
 2969SOL    HW2 9807   4.449   2.176   4.903
 2970SOL     OW 9808   3.300   2.374   5.957
 2970SOL    HW1 9809   3.387   2.377   5.909
 2970SOL    HW2 9810   3.267   2.280   5.961
 2971SOL     OW 9811   4.353   3.303   5.657
 2971SOL    HW1 9812   4.407   3.383   5.630
 2971SOL    HW2 9813   4.261   3.332   5.685
 2972SOL     OW 9814   0.749   6.050   6.538
 2972SOL    HW1 9815   0.791   6.061   6.448
 2972SOL    HW2 9816   0.819   6.060   6.608
 2973SOL     OW 9817   5.763   0.150   4.053
 2973SOL    HW1 9818   5.725   0.097   3.977
 2973SOL    HW2 9819   5.861   0.163   4.038
 2974SOL     OW 9820   5.000   5.786   2.379
 2974SOL    HW1 9821   4.931   5.714   2.377
 2974SOL    HW2 9822   5.039   5.793   2.470
 2975SOL     OW 9823   0.217   3.502   4.709
 2975SOL    HW1 9824   0.280   3.471   4.638
 2975SOL    HW2 9825   0.261   3.497   4.798
 2976SOL     OW 9826   4.061   0.526   1.082
 2976SOL    HW1 9827   4.072   0.618   1.044
 2976SOL    HW2 9828   3.970   0.491   1.058
 2977SOL     OW 9829   1.760   1.473   2.575
 2977SOL    HW1 9830   1.809   1.413   2.513
 2977SOL    HW2 9831   1.765   1.438   2.668
 2978SOL     OW 9832   3.532   5.958   0.097
 2978SOL    HW1 9833   3.615   6.012   0.084
 2978SOL    HW2 9834   3.549   5.888   0.166
 2979SOL     OW 9835   2.384   1.571   5.822
 2979SOL    HW1 9836   2.323   1.534   5.891
 2979SOL    HW2 9837   2.350   1.548   5.731
 2980SOL     OW 9838   2.888   3.601   3.440
 2980SOL    HW1 9839   2.914   3.642   3.528
 2980SOL    HW2 9840   2.834   3.518   3.457
 2981SOL     OW 9841   3.021   1.963   1.910
 2981SOL    HW1 9842   2.958   1.928   1.841
 2981SOL    HW2 9843   3.087   2.025   1.867
 2982SOL     OW 9844   1.011   0.336   2.427
 2982SOL    HW1 9845   1.092   0.389   2.401
 2982SOL    HW2 9846   1.028   0.239   2.408
 2983SOL     OW 9847   6.175   2.637   6.319
 2983SOL    HW1 9848   6.274   2.651   6.322
 2983SOL    HW2 9849   6.133   2.677   6.400
 2984SOL     OW 9850   0.969   6.460   1.310
 2984SOL    HW1 9851   0.977   6.548   1.262
 2984SOL    HW2 9852   0.951   6.388   1.243
 2985SOL     OW 9853   0.023   6.919   5.646
 2985SOL    HW1 9854   0.001   6.843   5.707
 2985SOL    HW2 9855   0.006   7.006   5.693
 2986SOL     OW 9856   3.945   3.739   3.004
 2986SOL    HW1 9857   4.008   3.670   2.969
 2986SOL    HW2 9858   3.851   3.712   2.983
 2987SOL     OW 9859   2.788   6.326   5.185
 2987SOL    HW1 9860   2.776   6.425   5.180
 2987SOL    HW2 9861   2.766   6.294   5.278
 2988SOL     OW 9862   0.548   1.885   6.373
 2988SOL    HW1 9863   0.509   1.794   6.356
 2988SOL    HW2 9864   0.612   1.881   6.450
 2989SOL     OW 9865   5.526   3.591   5.974
 2989SOL    HW1 9866   5.451   3.654   5.994
 2989SOL    HW2 9867   5.602   3.608   6.037
 2990SOL     OW 9868   4.944   1.295   4.781
 2990SOL    HW1 9869   4.868   1.349   4.818
 2990SOL    HW2 9870   5.012   1.280   4.852
 2991SOL     OW 9871   6.831   2.867   0.356
 2991SOL    HW1 9872   6.777   2.813   0.291
 2991SOL    HW2 9873   6.773   2.938   0.395
 2992SOL     OW 9874   1.861   3.921   4.832
 2992SOL    HW1 9875   1.941   3.959   4.878
 2992SOL    HW2 9876   1.798   3.883   4.900
 2993SOL     OW 9877   3.780   4.664   6.599
 2993SOL    HW1 9878   3.872   4.657   6.558
 2993SOL    HW2 9879   3.789   4.683   6.697
 2994SOL     OW 9880   2.772   5.078   4.358
 2994SOL    HW1 9881   2.717   5.028   4.424
 2994SOL    HW2 9882   2.846   5.020   4.324
 2995SOL     OW 9883   4.777   0.367   2.284
 2995SOL    HW1 9884   4.698   0.315   2.252
 2995SOL    HW2 9885   4.747   0.436   2.350
 2996SOL     OW 9886   0.376   0.541   4.044
 2996SOL    HW1 9887   0.279   0.534   4.022
 2996SOL    HW2 9888   0.408   0.634   4.022
 2997SOL     OW 9889   4.952   5.559   4.043
 2997SOL    HW1 9890   4.937   5.557   4.142
 2997SOL    HW2 9891   4.906   5.481   4.000
 2998SOL     OW 9892   2.554   0.187   2.031
 2998SOL    HW1 9893   2.461   0.151   2.044
 2998SOL    HW2 9894   2.566   0.268   2.089
 2999SOL     OW 9895   2.090   4.941   0.466
 2999SOL    HW1 9896   2.093   4.847   0.432
 2999SOL    HW2 9897   2.098   5.004   0.389
 3000SOL     OW 9898   1.783   4.111   6.305
 3000SOL    HW1 9899   1.744   4.019   6.298
 3000SOL    HW2 9900   1.864   4.117   6.247
 3001SOL     OW 9901   3.481   0.177   6.365
 3001SOL    HW1 9902   3.409   0.247   6.364
 3001SOL    HW2 9903   3.473   0.123   6.449
 3002SOL     OW 9904   1.214   2.016   2.075
 3002SOL    HW1 9905   1.147   1.950   2.110
 3002SOL    HW2 9906   1.174   2.069   2.001
 3003SOL     OW 9907   1.757   6.244   0.392
 3003SOL    HW1 9908   1.752   6.157   0.343
 3003SOL    HW2 9909   1.664   6.281   0.403
 3004SOL     OW 9910   3.264   0.597   4.655
 3004SOL    HW1 9911   3.193   0.612   4.587
 3004SOL    HW2 9912   3.272   0.499   4.673
 3005SOL     OW 9913   2.809   1.657   0.248
 3005SOL    HW1 9914   2.754   1.739   0.237
 3005SOL    HW2 9915   2.749   1.578   0.262
 3006SOL     OW 9916   5.532   0.886   5.710
 3006SOL    HW1 9917   5.577   0.802   5.743
 3006SOL    HW2 9918   5.515   0.947   5.788
 3007SOL     OW 9919   6.274   5.793   5.622
 3007SOL    HW1 9920   6.216   5.791   5.704
 3007SOL    HW2 9921   6.344   5.723   5.630
 3008SOL     OW 9922   5.692   3.824   5.422
 3008SOL    HW1 9923   5.734   3.844   5.333
 3008SOL    HW2 9924   5.736   3.744   5.462
 3009SOL     OW 9925   5.341   3.402   1.662
 3009SOL    HW1 9926   5.277   3.446   1.724
 3009SOL    HW2 9927   5.313   3.418   1.567
 3010SOL     OW 9928   4.334   4.436   1.470
 3010SOL    HW1 9929   4.423   4.472   1.497
 3010SOL    HW2 9930   4.271   4.440   1.548
 3011SOL     OW 9931   5.898   0.026   0.687
 3011SOL    HW1 9932   5.906   0.123   0.711
 3011SOL    HW2 9933   5.869   6.995   0.766
 3012SOL     OW 9934   2.326   1.736   4.427
 3012SOL    HW1 9935   2.301   1.824   4.385
 3012SOL    HW2 9936   2.372   1.679   4.359
 3013SOL     OW 9937   0.422   5.165   5.006
 3013SOL    HW1 9938   0.517   5.162   5.036
 3013SOL    HW2 9939   0.417   5.154   4.907
 3014SOL     OW 9940   3.912   0.508   0.498
 3014SOL    HW1 9941   3.949   0.528   0.407
 3014SOL    HW2 9942   3.842   0.437   0.491
 3015SOL     OW 9943   2.187   6.803   6.486
 3015SOL    HW1 9944   2.260   6.854   6.533
 3015SOL    HW2 9945   2.217   6.780   6.394
 3016SOL     OW 9946   3.340   0.849   4.647
 3016SOL    HW1 9947   3.327   0.750   4.646
 3016SOL    HW2 9948   3.423   0.871   4.699
 3017SOL     OW 9949   1.545   6.134   0.598
 3017SOL    HW1 9950   1.638   6.104   0.618
 3017SOL    HW2 9951   1.510   6.084   0.519
 3018SOL     OW 9952   2.219   2.718   1.778
 3018SOL    HW1 9953   2.217   2.739   1.876
 3018SOL    HW2 9954   2.142   2.657   1.755
 3019SOL     OW 9955   0.655   1.241   5.665
 3019SOL    HW1 9956   0.688   1.332   5.643
 3019SOL    HW2 9957   0.731   1.182   5.691
 3020SOL     OW 9958   5.400   4.290   6.202
 3020SOL    HW1 9959   5.495   4.319   6.215
 3020SOL    HW2 9960   5.349   4.307   6.286
 3021SOL     OW 9961   4.351   6.486   4.363
 3021SOL    HW1 9962   4.416   6.533   4.424
 3021SOL    HW2 9963   4.276   6.449   4.418
 3022SOL     OW 9964   3.780   6.697   2.626
 3022SOL    HW1 9965   3.816   6.760   2.695
 3022SOL    HW2 9966   3.705   6.645   2.665
 3023SOL     OW 9967   5.150   4.192   4.706
 3023SOL    HW1 9968   5.176   4.123   4.774
 3023SOL    HW2 9969   5.127   4.278   4.753
 3024SOL     OW 9970   6.264   1.388   6.775
 3024SOL    HW1 9971   6.170   1.354   6.767
 3024SOL    HW2 9972   6.263   1.488   6.771
 3025SOL     OW 9973   3.938   5.175   0.655
 3025SOL    HW1 9974   3.842   5.187   0.677
 3025SOL    HW2 9975   3.993   5.237   0.712
 3026SOL     OW 9976   0.283   6.838   2.605
 3026SOL    HW1 9977   0.328   6.789   2.530
 3026SOL    HW2 9978   0.304   6.792   2.692
 3027SOL     OW 9979   4.288   0.347   0.651
 3027SOL    HW1 9980   4.362   0.333   0.717
 3027SOL    HW2 9981   4.282   0.268   0.591
 3028SOL     OW 9982   4.154   3.590   3.920
 3028SOL    HW1 9983   4.120   3.609   4.012
 3028SOL    HW2 9984   4.237   3.534   3.926
 3029SOL     OW 9985   6.939   2.352   4.574
 3029SOL    HW1 9986   6.889   2.432   4.541
 3029SOL    HW2 9987   6.969   2.368   4.668
 3030SOL     OW 9988   0.314   4.041   6.631
 3030SOL    HW1 9989   0.241   3.976   6.653
 3030SOL    HW2 9990   0.349   4.021   6.539
 3031SOL     OW 9991   0.354   4.957   6.947
 3031SOL    HW1 9992   0.445   4.945   6.986
 3031SOL    HW2 9993   0.353   4.922   6.853
 3032SOL     OW 9994   3.929   6.811   3.828
 3032SOL    HW1 9995   3.866   6.841   3.757
 3032SOL    HW2 9996   4.015   6.783   3.786
 3033SOL     OW 9997   1.993   0.805   6.734
 3033SOL    HW1 9998   2.087   0.787   6.705
 3033SOL    HW2 9999   1.993   0.878   6.803
 3034SOL     OW10000   4.968   3.445   3.340
 3034SOL    HW110001   4.943   3.353   3.308
 3034SOL    HW210002   4.971   3.507   3.262
 3035SOL     OW10003   6.527   4.099   6.757
 3035SOL    HW110004   6.552   4.146   6.841
 3035SOL    HW210005   6.600   4.038   6.729
 3036SOL     OW10006   3.167   2.515   6.490
 3036SOL    HW110007   3.148   2.424   6.529
 3036SOL    HW210008   3.097   2.537   6.422
 3037SOL     OW10009   0.469   5.366   5.817
 3037SOL    HW110010   0.370   5.373   5.801
 3037SOL    HW210011   0.488   5.380   5.915
 3038SOL     OW10012   5.882   4.683   5.244
 3038SOL    HW110013   5.971   4.646   5.270
 3038SOL    HW210014   5.882   4.705   5.146
 3039SOL     OW10015   6.266   3.197   6.622
 3039SOL    HW110016   6.218   3.240   6.546
 3039SOL    HW210017   6.354   3.162   6.591
 3040SOL     OW10018   4.034   6.334   6.768
 3040SOL    HW110019   4.097   6.301   6.697
 3040SOL    HW210020   3.943   6.347   6.728
 3041SOL     OW10021   2.566   6.179   6.364
 3041SOL    HW110022   2.486   6.210   6.417
 3041SOL    HW210023   2.633   6.139   6.426
 3042SOL     OW10024   0.388   5.408   4.118
 3042SOL    HW110025   0.305   5.361   4.147
 3042SOL    HW210026   0.462   5.386   4.182
 3043SOL     OW10027   2.427   3.445   1.168
 3043SOL    HW110028   2.441   3.539   1.201
 3043SOL    HW210029   2.339   3.439   1.121
 3044SOL     OW10030   4.055   3.791   4.112
 3044SOL    HW110031   4.106   3.743   4.183
 3044SOL    HW210032   4.033   3.884   4.143
 3045SOL     OW10033   5.875   0.080   3.331
 3045SOL    HW110034   5.900   0.096   3.236
 3045SOL    HW210035   5.824   0.159   3.365
 3046SOL     OW10036   6.546   5.622   1.329
 3046SOL    HW110037   6.545   5.676   1.414
 3046SOL    HW210038   6.627   5.648   1.275
 3047SOL     OW10039   4.298   1.857   3.785
 3047SOL    HW110040   4.288   1.942   3.836
 3047SOL    HW210041   4.211   1.832   3.744
 3048SOL     OW10042   4.463   4.903   1.227
 3048SOL    HW110043   4.394   4.973   1.207
 3048SOL    HW210044   4.432   4.816   1.188
 3049SOL     OW10045   0.431   0.717   1.152
 3049SOL    HW110046   0.388   0.777   1.085
 3049SOL    HW210047   0.518   0.757   1.182
 3050SOL     OW10048   3.564   2.639   5.634
 3050SOL    HW110049   3.521   2.591   5.558
 3050SOL    HW210050   3.559   2.737   5.619
 3051SOL     OW10051   1.990   4.040   6.125
 3051SOL    HW110052   2.042   3.962   6.091
 3051SOL    HW210053   2.048   4.122   6.124
 3052SOL     OW10054   6.253   6.178   4.095
 3052SOL    HW110055   6.175   6.123   4.064
 3052SOL    HW210056   6.255   6.264   4.043
 3053SOL     OW10057   0.245   5.770   5.920
 3053SOL    HW110058   0.301   5.737   5.996
 3053SOL    HW210059   0.278   5.859   5.891
 3054SOL     OW10060   6.139   6.470   3.261
 3054SOL    HW110061   6.213   6.422   3.214
 3054SOL    HW210062   6.167   6.491   3.355
 3055SOL     OW10063   5.616   6.632   0.711
 3055SOL    HW110064   5.689   6.567   0.732
 3055SOL    HW210065   5.555   6.594   0.642
 3056SOL     OW10066   4.621   1.978   1.067
 3056SOL    HW110067   4.561   1.900   1.085
 3056SOL    HW210068   4.674   1.961   0.984
 3057SOL     OW10069   6.656   2.683   3.033
 3057SOL    HW110070   6.740   2.730   3.060
 3057SOL    HW210071   6.577   2.742   3.052
 3058SOL     OW10072   5.528   3.540   6.657
 3058SOL    HW110073   5.535   3.462   6.595
 3058SOL    HW210074   5.594   3.610   6.629
 3059SOL     OW10075   1.884   2.717   3.358
 3059SOL    HW110076   1.962   2.741   3.416
 3059SOL    HW210077   1.799   2.724   3.411
 3060SOL     OW10078   6.121   3.226   3.932
 3060SOL    HW110079   6.061   3.278   3.993
 3060SOL    HW210080   6.094   3.242   3.837
 3061SOL     OW10081   5.161   5.889   3.016
 3061SOL    HW110082   5.098   5.963   3.040
 3061SOL    HW210083   5.253   5.926   3.005
 3062SOL     OW10084   3.755   5.027   0.059
 3062SOL    HW110085   3.785   5.064   6.993
 3062SOL    HW210086   3.796   5.080   0.133
 3063SOL     OW10087   6.130   5.588   1.128
 3063SOL    HW110088   6.221   5.598   1.088
 3063SOL    HW210089   6.125   5.501   1.178
 3064SOL     OW10090   5.191   1.095   5.945
 3064SOL    HW110091   5.207   1.045   6.030
 3064SOL    HW210092   5.150   1.035   5.877
 3065SOL     OW10093   5.167   0.709   6.513
 3065SOL    HW110094   5.208   0.642   6.451
 3065SOL    HW210095   5.103   0.766   6.462
 3066SOL     OW10096   5.073   6.650   5.778
 3066SOL    HW110097   5.113   6.652   5.686
 3066SOL    HW210098   5.084   6.740   5.821
 3067SOL     OW10099   1.598   2.413   4.654
 3067SOL    HW110100   1.584   2.398   4.751
 3067SOL    HW210101   1.550   2.342   4.602
 3068SOL     OW10102   6.110   0.031   1.027
 3068SOL    HW110103   6.022   7.006   1.038
 3068SOL    HW210104   6.103   0.126   1.057
 3069SOL     OW10105   5.464   5.479   3.743
 3069SOL    HW110106   5.380   5.534   3.738
 3069SOL    HW210107   5.486   5.461   3.838
 3070SOL     OW10108   2.739   1.591   0.732
 3070SOL    HW110109   2.703   1.609   0.824
 3070SOL    HW210110   2.776   1.499   0.728
 3071SOL     OW10111   6.038   4.638   4.399
 3071SOL    HW110112   6.049   4.675   4.307
 3071SOL    HW210113   5.994   4.548   4.393
 3072SOL     OW10114   1.965   6.604   4.521
 3072SOL    HW110115   1.997   6.518   4.559
 3072SOL    HW210116   2.035   6.641   4.459
 3073SOL     OW10117   0.298   4.625   3.218
 3073SOL    HW110118   0.231   4.616   3.292
 3073SOL    HW210119   0.251   4.653   3.134
 3074SOL     OW10120   2.932   3.471   2.110
 3074SOL    HW110121   2.879   3.434   2.034
 3074SOL    HW210122   3.029   3.449   2.097
 3075SOL     OW10123   3.667   4.472   0.635
 3075SOL    HW110124   3.602   4.548   0.628
 3075SOL    HW210125   3.689   4.440   0.543
 3076SOL     OW10126   1.919   1.333   4.158
 3076SOL    HW110127   1.999   1.274   4.169
 3076SOL    HW210128   1.869   1.306   4.076
 3077SOL     OW10129   6.552   3.634   2.471
 3077SOL    HW110130   6.628   3.699   2.483
 3077SOL    HW210131   6.470   3.671   2.514
 3078SOL     OW10132   6.572   4.520   1.152
 3078SOL    HW110133   6.514   4.591   1.113
 3078SOL    HW210134   6.527   4.431   1.144
 3079SOL     OW10135   0.235   4.204   2.491
 3079SOL    HW110136   0.315   4.264   2.494
 3079SOL    HW210137   0.232   4.148   2.574
 3080SOL     OW10138   3.738   4.740   1.312
 3080SOL    HW110139   3.668   4.733   1.241
 3080SOL    HW210140   3.771   4.649   1.335
 3081SOL     OW10141   1.822   2.886   6.393
 3081SOL    HW110142   1.827   2.846   6.302
 3081SOL    HW210143   1.905   2.866   6.444
 3082SOL     OW10144   6.102   3.927   5.107
 3082SOL    HW110145   6.053   3.959   5.188
 3082SOL    HW210146   6.192   3.895   5.134
 3083SOL     OW10147   4.215   5.940   1.357
 3083SOL    HW110148   4.265   5.934   1.270
 3083SOL    HW210149   4.153   6.019   1.354
 3084SOL     OW10150   0.191   5.271   4.197
 3084SOL    HW110151   0.095   5.298   4.206
 3084SOL    HW210152   0.201   5.173   4.213
 3085SOL     OW10153   6.769   5.559   5.924
 3085SOL    HW110154   6.807   5.468   5.905
 3085SOL    HW210155   6.669   5.554   5.918
 3086SOL     OW10156   6.377   5.888   6.071
 3086SOL    HW110157   6.377   5.966   6.133
 3086SOL    HW210158   6.413   5.916   5.982
 3087SOL     OW10159   3.301   7.018   1.478
 3087SOL    HW110160   3.341   6.983   1.563
 3087SOL    HW210161   3.307   0.097   1.478
 3088SOL     OW10162   2.383   3.051   5.453
 3088SOL    HW110163   2.461   3.036   5.514
 3088SOL    HW210164   2.415   3.054   5.358
 3089SOL     OW10165   3.670   6.639   0.386
 3089SOL    HW110166   3.635   6.546   0.387
 3089SOL    HW210167   3.706   6.663   0.476
 3090SOL     OW10168   1.585   2.443   2.600
 3090SOL    HW110169   1.516   2.513   2.619
 3090SOL    HW210170   1.676   2.480   2.615
 3091SOL     OW10171   1.317   2.446   6.375
 3091SOL    HW110172   1.396   2.391   6.403
 3091SOL    HW210173   1.252   2.387   6.327
 3092SOL     OW10174   5.086   2.026   3.134
 3092SOL    HW110175   5.003   2.070   3.100
 3092SOL    HW210176   5.136   2.090   3.192
 3093SOL     OW10177   6.219   5.668   6.638
 3093SOL    HW110178   6.163   5.730   6.693
 3093SOL    HW210179   6.160   5.609   6.583
 3094SOL     OW10180   2.322   0.898   5.969
 3094SOL    HW110181   2.300   0.977   5.911
 3094SOL    HW210182   2.329   0.928   6.064
 3095SOL     OW10183   1.792   3.219   6.032
 3095SOL    HW110184   1.768   3.126   6.001
 3095SOL    HW210185   1.892   3.229   6.029
 3096SOL     OW10186   1.973   3.281   3.738
 3096SOL    HW110187   2.058   3.250   3.781
 3096SOL    HW210188   1.902   3.291   3.807
 3097SOL     OW10189   5.298   2.410   6.389
 3097SOL    HW110190   5.236   2.484   6.416
 3097SOL    HW210191   5.391   2.446   6.384
 3098SOL     OW10192   1.816   3.861   2.362
 3098SOL    HW110193   1.785   3.774   2.399
 3098SOL    HW210194   1.764   3.883   2.280
 3099SOL     OW10195   0.163   0.477   6.016
 3099SOL    HW110196   0.230   0.453   6.087
 3099SOL    HW210197   0.211   0.499   5.931
 3100SOL     OW10198   6.182   3.973   2.859
 3100SOL    HW110199   6.094   3.998   2.821
 3100SOL    HW210200   6.220   3.896   2.808
 3101SOL     OW10201   5.264   0.663   3.974
 3101SOL    HW110202   5.295   0.738   3.915
 3101SOL    HW210203   5.262   0.579   3.921
 3102SOL     OW10204   5.844   3.490   3.088
 3102SOL    HW110205   5.843   3.539   3.175
 3102SOL    HW210206   5.761   3.511   3.037
 3103SOL     OW10207   1.466   1.078   2.654
 3103SOL    HW110208   1.387   1.021   2.632
 3103SOL    HW210209   1.478   1.148   2.583
 3104SOL     OW10210   5.859   1.395   6.197
 3104SOL    HW110211   5.939   1.435   6.243
 3104SOL    HW210212   5.776   1.428   6.242
 3105SOL     OW10213   5.762   4.355   0.433
 3105SOL    HW110214   5.767   4.440   0.382
 3105SOL    HW210215   5.706   4.289   0.383
 3106SOL     OW10216   5.429   2.175   5.613
 3106SOL    HW110217   5.406   2.078   5.626
 3106SOL    HW210218   5.522   2.182   5.575
 3107SOL     OW10219   4.279   2.134   4.623
 3107SOL    HW110220   4.353   2.073   4.594
 3107SOL    HW210221   4.309   2.187   4.703
 3108SOL     OW10222   2.081   4.337   3.997
 3108SOL    HW110223   2.004   4.399   3.986
 3108SOL    HW210224   2.166   4.390   4.005
 3109SOL     OW10225   0.297   5.232   3.888
 3109SOL    HW110226   0.204   5.263   3.873
 3109SOL    HW210227   0.340   5.287   3.959
 3110SOL     OW10228   1.443   6.136   4.130
 3110SOL    HW110229   1.379   6.068   4.093
 3110SOL    HW210230   1.391   6.204   4.183
 3111SOL     OW10231   6.868   3.789   4.124
 3111SOL    HW110232   6.875   3.841   4.210
 3111SOL    HW210233   6.853   3.693   4.146
 3112SOL     OW10234   4.325   0.484   1.002
 3112SOL    HW110235   4.332   0.390   0.968
 3112SOL    HW210236   4.229   0.506   1.021
 3113SOL     OW10237   1.282   6.872   3.926
 3113SOL    HW110238   1.263   6.783   3.967
 3113SOL    HW210239   1.197   6.922   3.913
 3114SOL     OW10240   4.874   5.454   5.527
 3114SOL    HW110241   4.881   5.550   5.553
 3114SOL    HW210242   4.916   5.397   5.598
 3115SOL     OW10243   4.665   5.457   5.061
 3115SOL    HW110244   4.639   5.423   4.971
 3115SOL    HW210245   4.656   5.557   5.063
 3116SOL     OW10246   0.846   2.619   6.774
 3116SOL    HW110247   0.752   2.651   6.761
 3116SOL    HW210248   0.868   2.618   6.872
 3117SOL     OW10249   4.325   0.240   1.982
 3117SOL    HW110250   4.260   0.255   1.908
 3117SOL    HW210251   4.416   0.224   1.944
 3118SOL     OW10252   0.803   2.388   3.268
 3118SOL    HW110253   0.844   2.438   3.192
 3118SOL    HW210254   0.747   2.450   3.322
 3119SOL     OW10255   4.593   6.409   3.828
 3119SOL    HW110256   4.624   6.494   3.785
 3119SOL    HW210257   4.672   6.348   3.841
 3120SOL     OW10258   3.599   6.133   6.448
 3120SOL    HW110259   3.536   6.206   6.473
 3120SOL    HW210260   3.674   6.130   6.514
 3121SOL     OW10261   3.971   1.990   3.028
 3121SOL    HW110262   3.960   2.061   3.098
 3121SOL    HW210263   4.023   1.914   3.066
 3122SOL     OW10264   5.463   3.402   6.302
 3122SOL    HW110265   5.468   3.364   6.210
 3122SOL    HW210266   5.376   3.451   6.313
 3123SOL     OW10267   1.771   2.970   2.172
 3123SOL    HW110268   1.862   3.011   2.170
 3123SOL    HW210269   1.703   3.038   2.146
 3124SOL     OW10270   4.818   6.724   5.742
 3124SOL    HW110271   4.902   6.673   5.761
 3124SOL    HW210272   4.770   6.743   5.828
 3125SOL     OW10273   1.558   1.830   5.017
 3125SOL    HW110274   1.497   1.754   5.040
 3125SOL    HW210275   1.653   1.801   5.029
 3126SOL     OW10276   4.860   4.474   5.535
 3126SOL    HW110277   4.768   4.468   5.575
 3126SOL    HW210278   4.880   4.391   5.484
 3127SOL     OW10279   6.175   1.958   5.917
 3127SOL    HW110280   6.159   2.054   5.939
 3127SOL    HW210281   6.096   1.921   5.868
 3128SOL     OW10282   4.629   1.459   1.278
 3128SOL    HW110283   4.544   1.498   1.243
 3128SOL    HW210284   4.608   1.386   1.343
 3129SOL     OW10285   4.512   4.729   0.695
 3129SOL    HW110286   4.567   4.741   0.777
 3129SOL    HW210287   4.443   4.658   0.711
 3130SOL     OW10288   6.526   5.586   2.348
 3130SOL    HW110289   6.577   5.525   2.409
 3130SOL    HW210290   6.580   5.668   2.329
 3131SOL     OW10291   0.303   2.585   3.508
 3131SOL    HW110292   0.248   2.527   3.449
 3131SOL    HW210293   0.253   2.605   3.592
 3132SOL     OW10294   4.548   3.871   6.253
 3132SOL    HW110295   4.525   3.783   6.212
 3132SOL    HW210296   4.597   3.856   6.339
 3133SOL     OW10297   5.924   6.292   4.013
 3133SOL    HW110298   5.964   6.266   3.925
 3133SOL    HW210299   5.987   6.269   4.086
 3134SOL     OW10300   4.273   5.315   3.189
 3134SOL    HW110301   4.293   5.384   3.259
 3134SOL    HW210302   4.292   5.224   3.225
 3135SOL     OW10303   3.977   0.806   6.105
 3135SOL    HW110304   4.020   0.873   6.044
 3135SOL    HW210305   4.029   0.799   6.190
 3136SOL     OW10306   6.203   6.476   2.316
 3136SOL    HW110307   6.269   6.488   2.242
 3136SOL    HW210308   6.167   6.566   2.344
 3137SOL     OW10309   5.100   4.225   6.775
 3137SOL    HW110310   5.113   4.164   6.698
 3137SOL    HW210311   5.052   4.177   6.848
 3138SOL     OW10312   0.031   6.574   4.773
 3138SOL    HW110313   0.093   6.520   4.716
 3138SOL    HW210314   6.994   6.513   4.826
 3139SOL     OW10315   1.329   4.877   2.245
 3139SOL    HW110316   1.350   4.808   2.315
 3139SOL    HW210317   1.230   4.891   2.242
 3140SOL     OW10318   5.149   5.503   6.923
 3140SOL    HW110319   5.244   5.488   6.896
 3140SOL    HW210320   5.134   5.469   7.016
 3141SOL     OW10321   5.861   2.168   0.065
 3141SOL    HW110322   5.799   2.143   7.012
 3141SOL    HW210323   5.873   2.267   0.066
 3142SOL     OW10324   4.436   0.658   4.015
 3142SOL    HW110325   4.526   0.680   4.053
 3142SOL    HW210326   4.387   0.599   4.079
 3143SOL     OW10327   6.519   1.771   0.411
 3143SOL    HW110328   6.470   1.688   0.387
 3143SOL    HW210329   6.560   1.760   0.502
 3144SOL     OW10330   3.645   5.048   6.207
 3144SOL    HW110331   3.641   4.999   6.295
 3144SOL    HW210332   3.666   5.144   6.224
 3145SOL     OW10333   0.744   6.210   5.654
 3145SOL    HW110334   0.763   6.297   5.700
 3145SOL    HW210335   0.730   6.138   5.722
 3146SOL     OW10336   6.801   1.681   4.194
 3146SOL    HW110337   6.705   1.693   4.219
 3146SOL    HW210338   6.851   1.766   4.213
 3147SOL     OW10339   4.751   6.795   0.617
 3147SOL    HW110340   4.725   6.863   0.548
 3147SOL    HW210341   4.693   6.805   0.698
 3148SOL     OW10342   5.825   5.011   0.378
 3148SOL    HW110343   5.846   5.108   0.390
 3148SOL    HW210344   5.911   4.959   0.372
 3149SOL     OW10345   4.164   3.067   0.174
 3149SOL    HW110346   4.069   3.092   0.154
 3149SOL    HW210347   4.223   3.145   0.156
 3150SOL     OW10348   0.222   0.418   5.454
 3150SOL    HW110349   0.297   0.374   5.404
 3150SOL    HW210350   0.135   0.381   5.423
 3151SOL     OW10351   0.199   1.800   6.391
 3151SOL    HW110352   0.207   1.802   6.291
 3151SOL    HW210353   0.227   1.710   6.424
 3152SOL     OW10354   2.786   2.017   6.348
 3152SOL    HW110355   2.885   2.029   6.347
 3152SOL    HW210356   2.744   2.081   6.283
 3153SOL     OW10357   5.857   5.877   1.771
 3153SOL    HW110358   5.860   5.975   1.792
 3153SOL    HW210359   5.942   5.834   1.802
 3154SOL     OW10360   3.404   2.162   1.123
 3154SOL    HW110361   3.334   2.178   1.193
 3154SOL    HW210362   3.437   2.250   1.088
 3155SOL     OW10363   0.279   6.084   6.753
 3155SOL    HW110364   0.341   6.060   6.678
 3155SOL    HW210365   0.193   6.033   6.742
 3156SOL     OW10366   3.420   4.045   0.783
 3156SOL    HW110367   3.517   4.037   0.805
 3156SOL    HW210368   3.368   3.979   0.837
 3157SOL     OW10369   1.400   1.382   3.653
 3157SOL    HW110370   1.457   1.306   3.622
 3157SOL    HW210371   1.459   1.461   3.673
 3158SOL     OW10372   2.476   0.340   5.981
 3158SOL    HW110373   2.398   0.281   6.003
 3158SOL    HW210374   2.471   0.424   6.036
 3159SOL     OW10375   4.334   5.950   1.608
 3159SOL    HW110376   4.299   5.947   1.514
 3159SOL    HW210377   4.258   5.951   1.672
 3160SOL     OW10378   2.193   0.960   5.425
 3160SOL    HW110379   2.226   0.920   5.510
 3160SOL    HW210380   2.224   1.055   5.418
 3161SOL     OW10381   1.552   2.736   1.559
 3161SOL    HW110382   1.528   2.661   1.620
 3161SOL    HW210383   1.648   2.762   1.574
 3162SOL     OW10384   1.553   5.762   2.010
 3162SOL    HW110385   1.627   5.803   1.957
 3162SOL    HW210386   1.558   5.795   2.105
 3163SOL     OW10387   5.314   4.452   1.705
 3163SOL    HW110388   5.322   4.429   1.608
 3163SOL    HW210389   5.246   4.394   1.748
 3164SOL     OW10390   2.338   0.350   3.745
 3164SOL    HW110391   2.370   0.278   3.682
 3164SOL    HW210392   2.342   0.316   3.839
 3165SOL     OW10393   0.485   5.640   6.978
 3165SOL    HW110394   0.414   5.570   6.972
 3165SOL    HW210395   0.444   5.731   6.979
 3166SOL     OW10396   3.609   2.089   4.817
 3166SOL    HW110397   3.662   2.102   4.733
 3166SOL    HW210398   3.511   2.093   4.796
 3167SOL     OW10399   6.795   3.171   2.279
 3167SOL    HW110400   6.792   3.247   2.214
 3167SOL    HW210401   6.793   3.084   2.229
 3168SOL     OW10402   5.430   1.734   0.653
 3168SOL    HW110403   5.521   1.693   0.656
 3168SOL    HW210404   5.437   1.827   0.617
 3169SOL     OW10405   1.023   2.676   1.360
 3169SOL    HW110406   0.942   2.719   1.399
 3169SOL    HW210407   0.997   2.599   1.303
 3170SOL     OW10408   2.379   4.443   3.948
 3170SOL    HW110409   2.425   4.443   4.037
 3170SOL    HW210410   2.399   4.528   3.900
 3171SOL     OW10411   5.396   1.552   4.982
 3171SOL    HW110412   5.420   1.648   4.969
 3171SOL    HW210413   5.299   1.538   4.963
 3172SOL     OW10414   5.716   4.115   1.440
 3172SOL    HW110415   5.665   4.199   1.458
 3172SOL    HW210416   5.667   4.059   1.373
 3173SOL     OW10417   4.741   3.808   0.028
 3173SOL    HW110418   4.766   3.717   0.061
 3173SOL    HW210419   4.677   3.850   0.092
 3174SOL     OW10420   2.931   2.932   0.026
 3174SOL    HW110421   2.982   2.925   0.112
 3174SOL    HW210422   2.996   2.941   6.971
 3175SOL     OW10423   6.237   5.980   5.382
 3175SOL    HW110424   6.249   5.946   5.289
 3175SOL    HW210425   6.271   5.912   5.447
 3176SOL     OW10426   6.994   4.864   3.720
 3176SOL    HW110427   0.042   4.932   3.746
 3176SOL    HW210428   6.916   4.911   3.680
 3177SOL     OW10429   5.377   2.611   1.815
 3177SOL    HW110430   5.296   2.568   1.855
 3177SOL    HW210431   5.419   2.548   1.750
 3178SOL     OW10432   1.414   0.825   2.852
 3178SOL    HW110433   1.508   0.821   2.817
 3178SOL    HW210434   1.357   0.876   2.788
 3179SOL     OW10435   0.671   3.618   2.766
 3179SOL    HW110436   0.759   3.629   2.719
 3179SOL    HW210437   0.684   3.560   2.847
 3180SOL     OW10438   5.805   0.180   6.654
 3180SOL    HW110439   5.727   0.206   6.596
 3180SOL    HW210440   5.860   0.261   6.674
 3181SOL     OW10441   0.573   6.357   4.570
 3181SOL    HW110442   0.527   6.444   4.553
 3181SOL    HW210443   0.634   6.366   4.648
 3182SOL     OW10444   1.468   0.171   1.489
 3182SOL    HW110445   1.446   0.077   1.460
 3182SOL    HW210446   1.479   0.174   1.588
 3183SOL     OW10447   4.331   4.015   0.398
 3183SOL    HW110448   4.267   4.074   0.348
 3183SOL    HW210449   4.310   3.919   0.377
 3184SOL     OW10450   6.570   0.769   4.699
 3184SOL    HW110451   6.596   0.690   4.754
 3184SOL    HW210452   6.534   0.841   4.758
 3185SOL     OW10453   1.353   0.319   6.246
 3185SOL    HW110454   1.437   0.265   6.238
 3185SOL    HW210455   1.346   0.357   6.338
 3186SOL     OW10456   0.758   2.125   5.796
 3186SOL    HW110457   0.732   2.198   5.858
 3186SOL    HW210458   0.684   2.110   5.730
 3187SOL     OW10459   5.084   0.402   3.200
 3187SOL    HW110460   5.024   0.352   3.262
 3187SOL    HW210461   5.052   0.496   3.190
 3188SOL     OW10462   1.609   6.085   1.368
 3188SOL    HW110463   1.532   6.127   1.319
 3188SOL    HW210464   1.611   6.117   1.462
 3189SOL     OW10465   2.617   1.933   5.517
 3189SOL    HW110466   2.646   1.921   5.422
 3189SOL    HW210467   2.636   1.850   5.569
 3190SOL     OW10468   6.270   5.990   4.635
 3190SOL    HW110469   6.194   6.055   4.638
 3190SOL    HW210470   6.350   6.035   4.595
 3191SOL     OW10471   4.016   5.065   0.921
 3191SOL    HW110472   3.976   5.077   0.830
 3191SOL    HW210473   4.083   4.990   0.918
 3192SOL     OW10474   5.794   0.882   3.344
 3192SOL    HW110475   5.884   0.924   3.331
 3192SOL    HW210476   5.743   0.935   3.413
 3193SOL     OW10477   3.679   5.675   4.371
 3193SOL    HW110478   3.764   5.688   4.320
 3193SOL    HW210479   3.644   5.583   4.355
 3194SOL     OW10480   2.477   6.364   5.583
 3194SOL    HW110481   2.414   6.307   5.636
 3194SOL    HW210482   2.479   6.456   5.622
 3195SOL     OW10483   0.698   5.749   1.397
 3195SOL    HW110484   0.755   5.760   1.478
 3195SOL    HW210485   0.623   5.686   1.418
 3196SOL     OW10486   5.833   0.196   3.086
 3196SOL    HW110487   5.833   0.172   2.989
 3196SOL    HW210488   5.785   0.283   3.099
 3197SOL     OW10489   2.919   1.213   0.048
 3197SOL    HW110490   2.952   1.209   0.142
 3197SOL    HW210491   2.924   1.122   0.007
 3198SOL     OW10492   5.532   4.059   4.163
 3198SOL    HW110493   5.586   4.081   4.244
 3198SOL    HW210494   5.520   3.960   4.156
 3199SOL     OW10495   4.882   3.646   3.823
 3199SOL    HW110496   4.866   3.737   3.862
 3199SOL    HW210497   4.862   3.648   3.725
 3200SOL     OW10498   6.491   3.145   4.809
 3200SOL    HW110499   6.505   3.212   4.735
 3200SOL    HW210500   6.532   3.058   4.782
 3201SOL     OW10501   6.154   3.566   2.535
 3201SOL    HW110502   6.056   3.544   2.539
 3201SOL    HW210503   6.179   3.618   2.617
 3202SOL     OW10504   2.999   3.050   5.927
 3202SOL    HW110505   2.999   2.967   5.983
 3202SOL    HW210506   2.977   3.027   5.833
 3203SOL     OW10507   3.164   6.344   1.749
 3203SOL    HW110508   3.226   6.365   1.825
 3203SOL    HW210509   3.218   6.330   1.666
 3204SOL     OW10510   5.042   0.710   3.610
 3204SOL    HW110511   5.069   0.789   3.556
 3204SOL    HW210512   5.011   0.741   3.700
 3205SOL     OW10513   5.005   3.019   0.202
 3205SOL    HW110514   4.909   3.019   0.233
 3205SOL    HW210515   5.047   3.107   0.226
 3206SOL     OW10516   3.466   4.951   0.058
 3206SOL    HW110517   3.449   4.941   6.981
 3206SOL    HW210518   3.556   4.991   0.072
 3207SOL     OW10519   1.809   6.485   3.409
 3207SOL    HW110520   1.741   6.550   3.375
 3207SOL    HW210521   1.887   6.482   3.346
 3208SOL     OW10522   0.099   3.765   6.874
 3208SOL    HW110523   0.104   3.742   6.777
 3208SOL    HW210524   0.191   3.761   6.914
 3209SOL     OW10525   5.303   0.226   5.260
 3209SOL    HW110526   5.243   0.296   5.222
 3209SOL    HW210527   5.363   0.192   5.188
 3210SOL     OW10528   5.111   4.896   2.375
 3210SOL    HW110529   5.203   4.889   2.413
 3210SOL    HW210530   5.056   4.956   2.433
 3211SOL     OW10531   2.499   0.074   6.856
 3211SOL    HW110532   2.439   0.039   6.928
 3211SOL    HW210533   2.514   0.172   6.870
 3212SOL     OW10534   3.446   6.835   4.333
 3212SOL    HW110535   3.515   6.785   4.280
 3212SOL    HW210536   3.470   6.833   4.430
 3213SOL     OW10537   1.287   0.456   5.749
 3213SOL    HW110538   1.202   0.428   5.704
 3213SOL    HW210539   1.323   0.538   5.705
 3214SOL     OW10540   2.941   0.439   2.898
 3214SOL    HW110541   3.030   0.396   2.911
 3214SOL    HW210542   2.937   0.481   2.807
 3215SOL     OW10543   2.304   3.166   1.593
 3215SOL    HW110544   2.290   3.254   1.639
 3215SOL    HW210545   2.231   3.103   1.619
 3216SOL     OW10546   6.179   4.231   0.820
 3216SOL    HW110547   6.176   4.145   0.770
 3216SOL    HW210548   6.121   4.224   0.901
 3217SOL     OW10549   6.333   5.787   3.592
 3217SOL    HW110550   6.245   5.747   3.618
 3217SOL    HW210551   6.341   5.790   3.493
 3218SOL     OW10552   5.848   1.326   3.610
 3218SOL    HW110553   5.921   1.294   3.549
 3218SOL    HW210554   5.851   1.275   3.696
 3219SOL     OW10555   5.081   1.825   4.435
 3219SOL    HW110556   5.111   1.786   4.348
 3219SOL    HW210557   4.996   1.781   4.464
 3220SOL     OW10558   0.362   3.353   5.485
 3220SOL    HW110559   0.292   3.302   5.535
 3220SOL    HW210560   0.322   3.389   5.400
 3221SOL     OW10561   4.261   1.741   2.198
 3221SOL    HW110562   4.306   1.762   2.284
 3221SOL    HW210563   4.187   1.807   2.181
 3222SOL     OW10564   3.440   0.994   3.483
 3222SOL    HW110565   3.365   0.928   3.493
 3222SOL    HW210566   3.409   1.084   3.512
 3223SOL     OW10567   1.849   5.459   0.410
 3223SOL    HW110568   1.761   5.493   0.442
 3223SOL    HW210569   1.897   5.414   0.485
 3224SOL     OW10570   4.575   2.504   3.721
 3224SOL    HW110571   4.658   2.463   3.684
 3224SOL    HW210572   4.599   2.570   3.792
 3225SOL     OW10573   4.411   0.999   4.877
 3225SOL    HW110574   4.478   1.073   4.885
 3225SOL    HW210575   4.372   0.999   4.785
 3226SOL     OW10576   5.918   1.006   0.657
 3226SOL    HW110577   5.836   1.046   0.615
 3226SOL    HW210578   5.932   0.914   0.621
 3227SOL     OW10579   5.894   4.040   5.574
 3227SOL    HW110580   5.798   4.012   5.583
 3227SOL    HW210581   5.949   3.964   5.541
 3228SOL     OW10582   1.875   4.369   0.537
 3228SOL    HW110583   1.941   4.301   0.570
 3228SOL    HW210584   1.843   4.424   0.614
 3229SOL     OW10585   0.711   0.950   0.867
 3229SOL    HW110586   0.689   0.946   0.964
 3229SOL    HW210587   0.672   1.033   0.827
 3230SOL     OW10588   3.408   6.465   5.325
 3230SOL    HW110589   3.400   6.375   5.283
 3230SOL    HW210590   3.317   6.506   5.335
 3231SOL     OW10591   2.612   2.244   2.619
 3231SOL    HW110592   2.534   2.222   2.678
 3231SOL    HW210593   2.641   2.163   2.569
 3232SOL     OW10594   2.936   4.727   3.817
 3232SOL    HW110595   3.034   4.747   3.813
 3232SOL    HW210596   2.890   4.775   3.743
 3233SOL     OW10597   2.576   0.331   5.550
 3233SOL    HW110598   2.645   0.313   5.479
 3233SOL    HW210599   2.558   0.429   5.554
 3234SOL     OW10600   3.510   3.506   0.772
 3234SOL    HW110601   3.423   3.502   0.822
 3234SOL    HW210602   3.535   3.602   0.759
 3235SOL     OW10603   0.361   1.766   2.441
 3235SOL    HW110604   0.455   1.787   2.467
 3235SOL    HW210605   0.302   1.774   2.522
 3236SOL     OW10606   5.593   6.932   0.400
 3236SOL    HW110607   5.633   6.843   0.418
 3236SOL    HW210608   5.507   6.941   0.451
 3237SOL     OW10609   5.998   1.582   5.485
 3237SOL    HW110610   5.951   1.510   5.435
 3237SOL    HW210611   6.045   1.643   5.421
 3238SOL     OW10612   6.976   5.253   1.185
 3238SOL    HW110613   6.986   5.197   1.268
 3238SOL    HW210614   0.040   5.251   1.133
 3239SOL     OW10615   5.676   0.583   4.832
 3239SOL    HW110616   5.643   0.493   4.858
 3239SOL    HW210617   5.602   0.634   4.788
 3240SOL     OW10618   1.063   1.743   1.407
 3240SOL    HW110619   1.113   1.808   1.463
 3240SOL    HW210620   1.099   1.651   1.422
 3241SOL     OW10621   0.493   3.047   5.722
 3241SOL    HW110622   0.587   3.081   5.732
 3241SOL    HW210623   0.483   3.004   5.633
 3242SOL     OW10624   0.213   5.064   5.419
 3242SOL    HW110625   0.288   5.092   5.480
 3242SOL    HW210626   0.223   5.111   5.331
 3243SOL     OW10627   5.899   5.406   4.829
 3243SOL    HW110628   5.857   5.431   4.742
 3243SOL    HW210629   5.992   5.442   4.833
 3244SOL     OW10630   4.461   0.481   6.651
 3244SOL    HW110631   4.374   0.450   6.689
 3244SOL    HW210632   4.521   0.402   6.638
 3245SOL     OW10633   2.522   6.182   4.142
 3245SOL    HW110634   2.570   6.238   4.074
 3245SOL    HW210635   2.479   6.241   4.210
 3246SOL     OW10636   6.762   5.460   3.086
 3246SOL    HW110637   6.717   5.485   3.000
 3246SOL    HW210638   6.845   5.515   3.096
 3247SOL     OW10639   2.107   4.515   4.790
 3247SOL    HW110640   2.119   4.612   4.810
 3247SOL    HW210641   2.189   4.480   4.744
 3248SOL     OW10642   6.252   2.284   3.730
 3248SOL    HW110643   6.207   2.372   3.744
 3248SOL    HW210644   6.183   2.212   3.725
 3249SOL     OW10645   3.953   4.000   4.252
 3249SOL    HW110646   3.888   4.055   4.200
 3249SOL    HW210647   3.942   4.019   4.350
 3250SOL     OW10648   4.804   5.407   3.854
 3250SOL    HW110649   4.705   5.406   3.863
 3250SOL    HW210650   4.831   5.483   3.794
 3251SOL     OW10651   2.315   2.165   2.492
 3251SOL    HW110652   2.396   2.129   2.445
 3251SOL    HW210653   2.315   2.265   2.488
 3252SOL     OW10654   1.793   1.753   2.542
 3252SOL    HW110655   1.701   1.776   2.574
 3252SOL    HW210656   1.802   1.653   2.536
 3253SOL     OW10657   6.621   3.496   0.886
 3253SOL    HW110658   6.563   3.519   0.808
 3253SOL    HW210659   6.679   3.418   0.862
 3254SOL     OW10660   6.118   6.802   0.773
 3254SOL    HW110661   6.082   6.794   0.680
 3254SOL    HW210662   6.178   6.882   0.780
 3255SOL     OW10663   3.735   4.915   2.237
 3255SOL    HW110664   3.708   4.868   2.153
 3255SOL    HW210665   3.656   4.924   2.297
 3256SOL     OW10666   5.626   2.863   2.010
 3256SOL    HW110667   5.553   2.906   1.956
 3256SOL    HW210668   5.606   2.766   2.021
 3257SOL     OW10669   2.599   0.814   2.902
 3257SOL    HW110670   2.554   0.800   2.990
 3257SOL    HW210671   2.669   0.884   2.911
 3258SOL     OW10672   0.807   5.189   3.842
 3258SOL    HW110673   0.788   5.235   3.928
 3258SOL    HW210674   0.833   5.094   3.860
 3259SOL     OW10675   6.162   5.332   3.395
 3259SOL    HW110676   6.248   5.372   3.365
 3259SOL    HW210677   6.161   5.327   3.495
 3260SOL     OW10678   2.291   4.537   3.673
 3260SOL    HW110679   2.376   4.577   3.706
 3260SOL    HW210680   2.287   4.440   3.700
 3261SOL     OW10681   6.393   6.917   3.603
 3261SOL    HW110682   6.303   6.874   3.591
 3261SOL    HW210683   6.436   6.929   3.513
 3262SOL     OW10684   3.162   1.886   3.032
 3262SOL    HW110685   3.195   1.956   3.096
 3262SOL    HW210686   3.097   1.826   3.080
 3263SOL     OW10687   5.465   7.019   1.841
 3263SOL    HW110688   5.503   0.070   1.783
 3263SOL    HW210689   5.540   6.961   1.874
 3264SOL     OW10690   1.165   4.958   5.934
 3264SOL    HW110691   1.137   4.920   6.022
 3264SOL    HW210692   1.175   4.884   5.868
 3265SOL     OW10693   0.005   6.330   5.895
 3265SOL    HW110694   0.084   6.333   5.834
 3265SOL    HW210695   0.004   6.411   5.953
 3266SOL     OW10696   4.020   4.648   6.457
 3266SOL    HW110697   3.991   4.696   6.375
 3266SOL    HW210698   4.097   4.588   6.435
 3267SOL     OW10699   3.052   0.255   0.811
 3267SOL    HW110700   3.079   0.259   0.907
 3267SOL    HW210701   3.134   0.245   0.754
 3268SOL     OW10702   5.378   4.291   2.248
 3268SOL    HW110703   5.418   4.228   2.314
 3268SOL    HW210704   5.281   4.271   2.237
 3269SOL     OW10705   2.236   5.413   0.909
 3269SOL    HW110706   2.288   5.328   0.917
 3269SOL    HW210707   2.138   5.394   0.914
 3270SOL     OW10708   1.733   2.889   6.715
 3270SOL    HW110709   1.648   2.847   6.684
 3270SOL    HW210710   1.757   2.964   6.655
 3271SOL     OW10711   0.785   4.009   1.453
 3271SOL    HW110712   0.797   3.982   1.358
 3271SOL    HW210713   0.869   3.990   1.504
 3272SOL     OW10714   3.798   0.303   0.781
 3272SOL    HW110715   3.894   0.275   0.775
 3272SOL    HW210716   3.768   0.336   0.691
 3273SOL     OW10717   4.346   3.568   6.608
 3273SOL    HW110718   4.392   3.502   6.549
 3273SOL    HW210719   4.341   3.657   6.563
 3274SOL     OW10720   4.179   0.529   2.250
 3274SOL    HW110721   4.112   0.601   2.270
 3274SOL    HW210722   4.150   0.478   2.170
 3275SOL     OW10723   5.396   0.603   1.805
 3275SOL    HW110724   5.377   0.534   1.875
 3275SOL    HW210725   5.378   0.694   1.841
 3276SOL     OW10726   5.682   5.636   6.971
 3276SOL    HW110727   5.759   5.627   0.013
 3276SOL    HW210728   5.663   5.733   6.955
 3277SOL     OW10729   3.526   1.190   1.983
 3277SOL    HW110730   3.435   1.222   1.958
 3277SOL    HW210731   3.585   1.268   2.003
 3278SOL     OW10732   5.153   1.718   6.625
 3278SOL    HW110733   5.230   1.779   6.608
 3278SOL    HW210734   5.184   1.639   6.678
 3279SOL     OW10735   4.170   0.518   2.743
 3279SOL    HW110736   4.158   0.421   2.723
 3279SOL    HW210737   4.184   0.530   2.842
 3280SOL     OW10738   6.404   2.924   4.297
 3280SOL    HW110739   6.369   2.959   4.210
 3280SOL    HW210740   6.354   2.968   4.372
 3281SOL     OW10741   6.142   2.684   2.149
 3281SOL    HW110742   6.206   2.756   2.176
 3281SOL    HW210743   6.177   2.635   2.069
 3282SOL     OW10744   6.838   4.451   5.315
 3282SOL    HW110745   6.932   4.479   5.332
 3282SOL    HW210746   6.800   4.409   5.398
 3283SOL     OW10747   3.310   1.620   0.355
 3283SOL    HW110748   3.347   1.713   0.352
 3283SOL    HW210749   3.214   1.621   0.328
 3284SOL     OW10750   1.934   0.885   5.190
 3284SOL    HW110751   1.869   0.830   5.138
 3284SOL    HW210752   1.889   0.922   5.271
 3285SOL     OW10753   3.668   1.981   4.026
 3285SOL    HW110754   3.732   1.963   3.952
 3285SOL    HW210755   3.631   1.894   4.060
 3286SOL     OW10756   1.355   4.013   2.998
 3286SOL    HW110757   1.308   3.978   3.079
 3286SOL    HW210758   1.451   4.028   3.020
 3287SOL     OW10759   2.673   1.438   0.310
 3287SOL    HW110760   2.588   1.481   0.278
 3287SOL    HW210761   2.652   1.376   0.386
 3288SOL     OW10762   3.170   5.004   1.643
 3288SOL    HW110763   3.105   5.007   1.719
 3288SOL    HW210764   3.242   4.937   1.663
 3289SOL     OW10765   4.783   0.466   0.075
 3289SOL    HW110766   4.759   0.429   7.007
 3289SOL    HW210767   4.882   0.474   0.083
 3290SOL     OW10768   0.681   5.127   0.118
 3290SOL    HW110769   0.622   5.045   0.120
 3290SOL    HW210770   0.649   5.192   0.187
 3291SOL     OW10771   5.234   6.380   5.812
 3291SOL    HW110772   5.282   6.361   5.727
 3291SOL    HW210773   5.180   6.464   5.802
 3292SOL     OW10774   0.325   3.388   1.104
 3292SOL    HW110775   0.301   3.294   1.127
 3292SOL    HW210776   0.242   3.444   1.104
 3293SOL     OW10777   6.742   4.224   2.554
 3293SOL    HW110778   6.709   4.303   2.606
 3293SOL    HW210779   6.835   4.201   2.583
 3294SOL     OW10780   3.840   2.884   5.233
 3294SOL    HW110781   3.894   2.808   5.266
 3294SOL    HW210782   3.743   2.862   5.240
 3295SOL     OW10783   1.398   3.046   3.600
 3295SOL    HW110784   1.439   2.964   3.561
 3295SOL    HW210785   1.423   3.126   3.545
 3296SOL     OW10786   2.036   0.674   7.010
 3296SOL    HW110787   2.013   0.623   6.927
 3296SOL    HW210788   1.955   0.719   0.025
 3297SOL     OW10789   2.860   0.627   5.644
 3297SOL    HW110790   2.832   0.606   5.737
 3297SOL    HW210791   2.933   0.695   5.645
 3298SOL     OW10792   3.641   4.224   6.107
 3298SOL    HW110793   3.557   4.240   6.158
 3298SOL    HW210794   3.636   4.271   6.019
 3299SOL     OW10795   2.513   6.915   4.449
 3299SOL    HW110796   2.448   6.991   4.451
 3299SOL    HW210797   2.468   6.832   4.481
 3300SOL     OW10798   1.964   0.820   3.361
 3300SOL    HW110799   1.947   0.918   3.371
 3300SOL    HW210800   1.877   0.772   3.351
 3301SOL     OW10801   1.332   1.063   2.386
 3301SOL    HW110802   1.244   1.094   2.422
 3301SOL    HW210803   1.318   0.984   2.327
 3302SOL     OW10804   1.314   4.369   4.938
 3302SOL    HW110805   1.297   4.324   4.850
 3302SOL    HW210806   1.412   4.373   4.955
 3303SOL     OW10807   4.164   3.542   0.468
 3303SOL    HW110808   4.064   3.532   0.468
 3303SOL    HW210809   4.206   3.453   0.482
 3304SOL     OW10810   2.458   3.814   1.030
 3304SOL    HW110811   2.541   3.827   1.085
 3304SOL    HW210812   2.380   3.796   1.090
 3305SOL     OW10813   3.180   2.801   7.014
 3305SOL    HW110814   3.213   2.884   6.969
 3305SOL    HW210815   3.127   2.746   6.949
 3306SOL     OW10816   2.623   0.674   0.883
 3306SOL    HW110817   2.722   0.662   0.890
 3306SOL    HW210818   2.577   0.608   0.942
 3307SOL     OW10819   2.170   5.460   4.971
 3307SOL    HW110820   2.172   5.418   4.881
 3307SOL    HW210821   2.241   5.421   5.028
 3308SOL     OW10822   4.900   5.397   1.221
 3308SOL    HW110823   4.915   5.492   1.195
 3308SOL    HW210824   4.885   5.391   1.320
 3309SOL     OW10825   6.101   3.747   4.225
 3309SOL    HW110826   6.112   3.833   4.275
 3309SOL    HW210827   6.075   3.767   4.131
 3310SOL     OW10828   6.506   4.429   6.528
 3310SOL    HW110829   6.539   4.504   6.471
 3310SOL    HW210830   6.488   4.462   6.620
 3311SOL     OW10831   2.124   2.627   0.140
 3311SOL    HW110832   2.106   2.715   0.185
 3311SOL    HW210833   2.162   2.563   0.207
 3312SOL     OW10834   5.041   3.535   0.608
 3312SOL    HW110835   5.050   3.633   0.589
 3312SOL    HW210836   5.089   3.483   0.538
 3313SOL     OW10837   0.997   6.846   3.796
 3313SOL    HW110838   0.984   6.827   3.699
 3313SOL    HW210839   1.026   6.941   3.808
 3314SOL     OW10840   3.056   6.368   3.517
 3314SOL    HW110841   3.106   6.432   3.576
 3314SOL    HW210842   3.120   6.303   3.477
 3315SOL     OW10843   0.817   6.502   3.890
 3315SOL    HW110844   0.902   6.473   3.846
 3315SOL    HW210845   0.750   6.527   3.820
 3316SOL     OW10846   3.363   1.539   0.089
 3316SOL    HW110847   3.264   1.535   0.073
 3316SOL    HW210848   3.381   1.539   0.187
 3317SOL     OW10849   5.788   2.269   0.947
 3317SOL    HW110850   5.728   2.298   1.021
 3317SOL    HW210851   5.735   2.254   0.864
 3318SOL     OW10852   3.730   2.701   0.979
 3318SOL    HW110853   3.716   2.785   1.031
 3318SOL    HW210854   3.751   2.725   0.884
 3319SOL     OW10855   6.503   6.632   3.522
 3319SOL    HW110856   6.431   6.700   3.506
 3319SOL    HW210857   6.530   6.591   3.434
 3320SOL     OW10858   6.294   0.524   2.145
 3320SOL    HW110859   6.352   0.584   2.200
 3320SOL    HW210860   6.341   0.437   2.130
 3321SOL     OW10861   4.623   1.692   0.053
 3321SOL    HW110862   4.634   1.640   6.990
 3321SOL    HW210863   4.570   1.775   0.035
 3322SOL     OW10864   5.955   3.693   1.570
 3322SOL    HW110865   5.985   3.771   1.516
 3322SOL    HW210866   6.027   3.623   1.571
 3323SOL     OW10867   1.364   0.888   2.181
 3323SOL    HW110868   1.308   0.865   2.101
 3323SOL    HW210869   1.460   0.895   2.154
 3324SOL     OW10870   6.322   5.372   5.855
 3324SOL    HW110871   6.296   5.312   5.780
 3324SOL    HW210872   6.356   5.317   5.932
 3325SOL     OW10873   2.826   5.452   6.158
 3325SOL    HW110874   2.754   5.415   6.216
 3325SOL    HW210875   2.790   5.528   6.104
 3326SOL     OW10876   3.929   1.959   1.840
 3326SOL    HW110877   3.945   1.863   1.817
 3326SOL    HW210878   3.835   1.984   1.818
 3327SOL     OW10879   1.678   6.348   5.946
 3327SOL    HW110880   1.597   6.295   5.970
 3327SOL    HW210881   1.748   6.287   5.909
 3328SOL     OW10882   4.781   2.897   5.182
 3328SOL    HW110883   4.825   2.986   5.174
 3328SOL    HW210884   4.688   2.909   5.218
 3329SOL     OW10885   6.584   6.456   5.951
 3329SOL    HW110886   6.648   6.519   5.995
 3329SOL    HW210887   6.494   6.498   5.946
 3330SOL     OW10888   6.842   2.742   2.735
 3330SOL    HW110889   6.750   2.713   2.760
 3330SOL    HW210890   6.902   2.662   2.735
 3331SOL     OW10891   1.678   3.044   0.428
 3331SOL    HW110892   1.733   3.117   0.387
 3331SOL    HW210893   1.699   2.957   0.383
 3332SOL     OW10894   0.378   4.069   1.913
 3332SOL    HW110895   0.445   4.131   1.953
 3332SOL    HW210896   0.378   3.982   1.964
 3333SOL     OW10897   3.102   5.759   5.212
 3333SOL    HW110898   3.195   5.797   5.211
 3333SOL    HW210899   3.100   5.676   5.157
 3334SOL     OW10900   1.370   3.172   1.137
 3334SOL    HW110901   1.372   3.250   1.074
 3334SOL    HW210902   1.463   3.139   1.151
 3335SOL     OW10903   5.461   4.295   4.535
 3335SOL    HW110904   5.388   4.233   4.508
 3335SOL    HW210905   5.440   4.387   4.505
 3336SOL     OW10906   3.534   6.426   5.732
 3336SOL    HW110907   3.488   6.510   5.703
 3336SOL    HW210908   3.492   6.348   5.686
 3337SOL     OW10909   3.487   1.758   0.630
 3337SOL    HW110910   3.515   1.695   0.557
 3337SOL    HW210911   3.531   1.732   0.715
 3338SOL     OW10912   6.709   5.133   0.068
 3338SOL    HW110913   6.785   5.070   0.048
 3338SOL    HW210914   6.625   5.097   0.027
 3339SOL     OW10915   0.610   4.699   6.193
 3339SOL    HW110916   0.699   4.742   6.178
 3339SOL    HW210917   0.544   4.733   6.126
 3340SOL     OW10918   4.200   0.292   1.750
 3340SOL    HW110919   4.119   0.314   1.695
 3340SOL    HW210920   4.281   0.334   1.709
 3341SOL     OW10921   0.928   0.198   6.902
 3341SOL    HW110922   1.020   0.207   6.941
 3341SOL    HW210923   0.862   0.244   6.962
 3342SOL     OW10924   1.974   6.822   5.434
 3342SOL    HW110925   1.883   6.862   5.439
 3342SOL    HW210926   1.967   6.723   5.423
 3343SOL     OW10927   0.193   2.481   0.978
 3343SOL    HW110928   0.095   2.482   0.997
 3343SOL    HW210929   0.244   2.468   1.063
 3344SOL     OW10930   1.574   2.812   6.402
 3344SOL    HW110931   1.672   2.830   6.405
 3344SOL    HW210932   1.552   2.761   6.319
 3345SOL     OW10933   2.559   3.259   5.970
 3345SOL    HW110934   2.645   3.298   5.935
 3345SOL    HW210935   2.569   3.160   5.976
 3346SOL     OW10936   1.997   5.588   2.786
 3346SOL    HW110937   1.986   5.584   2.885
 3346SOL    HW210938   2.004   5.683   2.757
 3347SOL     OW10939   6.568   3.884   4.242
 3347SOL    HW110940   6.497   3.908   4.308
 3347SOL    HW210941   6.588   3.786   4.247
 3348SOL     OW10942   3.731   3.815   3.508
 3348SOL    HW110943   3.763   3.815   3.413
 3348SOL    HW210944   3.654   3.752   3.517
 3349SOL     OW10945   4.806   2.587   0.315
 3349SOL    HW110946   4.872   2.622   0.382
 3349SOL    HW210947   4.727   2.648   0.311
 3350SOL     OW10948   2.512   2.884   1.276
 3350SOL    HW110949   2.471   2.975   1.275
 3350SOL    HW210950   2.451   2.819   1.231
 3351SOL     OW10951   6.236   2.593   0.489
 3351SOL    HW110952   6.232   2.666   0.421
 3351SOL    HW210953   6.187   2.621   0.572
 3352SOL     OW10954   0.110   3.528   0.104
 3352SOL    HW110955   0.040   3.596   0.125
 3352SOL    HW210956   0.175   3.522   0.180
 3353SOL     OW10957   1.351   6.755   6.444
 3353SOL    HW110958   1.332   6.846   6.406
 3353SOL    HW210959   1.435   6.719   6.404
 3354SOL     OW10960   0.842   0.262   2.162
 3354SOL    HW110961   0.752   0.230   2.192
 3354SOL    HW210962   0.872   0.336   2.222
 3355SOL     OW10963   6.121   0.848   2.295
 3355SOL    HW110964   6.094   0.774   2.234
 3355SOL    HW210965   6.147   0.928   2.241
 3356SOL     OW10966   1.323   3.841   6.737
 3356SOL    HW110967   1.312   3.743   6.749
 3356SOL    HW210968   1.264   3.890   6.801
 3357SOL     OW10969   2.308   5.713   2.373
 3357SOL    HW110970   2.359   5.629   2.393
 3357SOL    HW210971   2.264   5.747   2.456
 3358SOL     OW10972   6.481   4.024   3.540
 3358SOL    HW110973   6.525   4.090   3.479
 3358SOL    HW210974   6.522   3.934   3.528
 3359SOL     OW10975   1.995   1.276   1.584
 3359SOL    HW110976   1.905   1.317   1.572
 3359SOL    HW210977   2.022   1.284   1.680
 3360SOL     OW10978   2.800   0.913   6.002
 3360SOL    HW110979   2.880   0.938   5.948
 3360SOL    HW210980   2.805   0.816   6.026
 3361SOL     OW10981   2.726   1.617   3.037
 3361SOL    HW110982   2.700   1.598   3.132
 3361SOL    HW210983   2.823   1.597   3.025
 3362SOL     OW10984   3.093   1.855   4.771
 3362SOL    HW110985   3.052   1.896   4.853
 3362SOL    HW210986   3.025   1.855   4.697
 3363SOL     OW10987   6.588   0.779   0.218
 3363SOL    HW110988   6.499   0.742   0.195
 3363SOL    HW210989   6.621   0.738   0.303
 3364SOL     OW10990   1.942   5.586   5.257
 3364SOL    HW110991   1.978   5.496   5.283
 3364SOL    HW210992   1.843   5.589   5.275
 3365SOL     OW10993   6.381   2.545   5.193
 3365SOL    HW110994   6.473   2.583   5.180
 3365SOL    HW210995   6.328   2.605   5.253
 3366SOL     OW10996   5.485   0.467   0.314
 3366SOL    HW110997   5.444   0.548   0.354
 3366SOL    HW210998   5.412   0.404   0.286
 3367SOL     OW10999   2.066   0.059   2.579
 3367SOL    HW111000   2.157   0.100   2.577
 3367SOL    HW211001   2.027   0.059   2.486
 3368SOL     OW11002   6.433   1.177   4.532
 3368SOL    HW111003   6.469   1.179   4.625
 3368SOL    HW211004   6.340   1.139   4.532
 3369SOL     OW11005   3.947   5.242   6.360
 3369SOL    HW111006   3.851   5.272   6.358
 3369SOL    HW211007   3.973   5.218   6.453
 3370SOL     OW11008   5.971   0.557   5.490
 3370SOL    HW111009   5.894   0.612   5.456
 3370SOL    HW211010   5.999   0.591   5.580
 3371SOL     OW11011   6.846   4.691   1.426
 3371SOL    HW111012   6.868   4.677   1.522
 3371SOL    HW211013   6.906   4.635   1.369
 3372SOL     OW11014   1.521   2.576   2.864
 3372SOL    HW111015   1.444   2.594   2.925
 3372SOL    HW211016   1.576   2.659   2.854
 3373SOL     OW11017   0.734   2.890   6.276
 3373SOL    HW111018   0.679   2.962   6.318
 3373SOL    HW211019   0.824   2.887   6.319
 3374SOL     OW11020   3.765   6.236   5.242
 3374SOL    HW111021   3.845   6.260   5.187
 3374SOL    HW211022   3.747   6.309   5.309
 3375SOL     OW11023   3.387   3.879   4.836
 3375SOL    HW111024   3.374   3.970   4.797
 3375SOL    HW211025   3.484   3.857   4.838
 3376SOL     OW11026   3.335   3.220   1.734
 3376SOL    HW111027   3.337   3.158   1.812
 3376SOL    HW211028   3.240   3.244   1.712
 3377SOL     OW11029   3.087   5.541   5.555
 3377SOL    HW111030   3.024   5.518   5.630
 3377SOL    HW211031   3.034   5.579   5.479
 3378SOL     OW11032   6.868   1.173   1.183
 3378SOL    HW111033   6.925   1.096   1.155
 3378SOL    HW211034   6.808   1.199   1.108
 3379SOL     OW11035   6.032   5.384   5.530
 3379SOL    HW111036   6.003   5.433   5.613
 3379SOL    HW211037   5.952   5.354   5.480
 3380SOL     OW11038   0.483   3.954   5.539
 3380SOL    HW111039   0.523   3.866   5.511
 3380SOL    HW211040   0.535   4.029   5.497
 3381SOL     OW11041   3.153   2.159   1.761
 3381SOL    HW111042   3.221   2.229   1.737
 3381SOL    HW211043   3.147   2.092   1.687
 3382SOL     OW11044   0.584   6.515   0.464
 3382SOL    HW111045   0.683   6.531   0.467
 3382SOL    HW211046   0.537   6.598   0.494
 3383SOL     OW11047   0.609   4.177   1.356
 3383SOL    HW111048   0.678   4.134   1.414
 3383SOL    HW211049   0.599   4.273   1.383
 3384SOL     OW11050   3.489   3.640   3.576
 3384SOL    HW111051   3.435   3.655   3.493
 3384SOL    HW211052   3.431   3.652   3.656
 3385SOL     OW11053   7.014   4.217   4.043
 3385SOL    HW111054   6.928   4.205   3.993
 3385SOL    HW211055   0.016   4.132   4.090
 3386SOL     OW11056   5.907   4.380   4.400
 3386SOL    HW111057   5.867   4.349   4.314
 3386SOL    HW211058   5.952   4.303   4.446
 3387SOL     OW11059   3.550   1.721   2.583
 3387SOL    HW111060   3.590   1.776   2.657
 3387SOL    HW211061   3.531   1.780   2.504
 3388SOL     OW11062   5.693   2.045   1.208
 3388SOL    HW111063   5.775   1.998   1.175
 3388SOL    HW211064   5.619   1.979   1.219
 3389SOL     OW11065   3.859   5.863   2.575
 3389SOL    HW111066   3.925   5.930   2.541
 3389SOL    HW211067   3.892   5.771   2.555
 3390SOL     OW11068   4.656   1.291   5.557
 3390SOL    HW111069   4.590   1.358   5.593
 3390SOL    HW211070   4.725   1.272   5.626
 3391SOL     OW11071   3.098   1.915   3.939
 3391SOL    HW111072   3.097   1.983   4.013
 3391SOL    HW211073   3.048   1.950   3.860
 3392SOL     OW11074   5.309   6.574   3.905
 3392SOL    HW111075   5.299   6.518   3.987
 3392SOL    HW211076   5.234   6.641   3.901
 3393SOL     OW11077   6.925   6.905   6.812
 3393SOL    HW111078   6.970   6.827   6.855
 3393SOL    HW211079   6.829   6.884   6.797
 3394SOL     OW11080   5.190   1.094   2.130
 3394SOL    HW111081   5.100   1.058   2.108
 3394SOL    HW211082   5.182   1.185   2.171
 3395SOL     OW11083   1.699   3.837   5.043
 3395SOL    HW111084   1.694   3.889   5.128
 3395SOL    HW211085   1.614   3.786   5.030
 3396SOL     OW11086   6.775   3.542   4.197
 3396SOL    HW111087   6.688   3.531   4.149
 3396SOL    HW211088   6.758   3.545   4.296
 3397SOL     OW11089   3.400   5.419   6.093
 3397SOL    HW111090   3.343   5.396   6.172
 3397SOL    HW211091   3.342   5.452   6.018
 3398SOL     OW11092   0.481   1.325   3.323
 3398SOL    HW111093   0.478   1.392   3.249
 3398SOL    HW211094   0.447   1.237   3.289
 3399SOL     OW11095   4.319   5.974   4.347
 3399SOL    HW111096   4.302   6.023   4.432
 3399SOL    HW211097   4.241   5.916   4.325
 3400SOL     OW11098   5.253   2.443   0.267
 3400SOL    HW111099   5.156   2.421   0.273
 3400SOL    HW211100   5.282   2.489   0.351
 3401SOL     OW11101   6.669   4.163   6.478
 3401SOL    HW111102   6.576   4.128   6.489
 3401SOL    HW211103   6.675   4.255   6.516
 3402SOL     OW11104   4.367   4.565   2.182
 3402SOL    HW111105   4.401   4.555   2.275
 3402SOL    HW211106   4.431   4.523   2.118
 3403SOL     OW11107   3.981   1.444   5.975
 3403SOL    HW111108   4.030   1.469   5.891
 3403SOL    HW211109   3.885   1.470   5.965
 3404SOL     OW11110   4.603   5.982   1.723
 3404SOL    HW111111   4.591   6.069   1.770
 3404SOL    HW211112   4.516   5.953   1.682
 3405SOL     OW11113   6.119   4.474   6.732
 3405SOL    HW111114   6.142   4.568   6.756
 3405SOL    HW211115   6.195   4.414   6.758
 3406SOL     OW11116   1.623   3.924   1.356
 3406SOL    HW111117   1.693   3.877   1.304
 3406SOL    HW211118   1.533   3.890   1.330
 3407SOL     OW11119   1.204   5.189   2.737
 3407SOL    HW111120   1.129   5.167   2.799
 3407SOL    HW211121   1.262   5.108   2.725
 3408SOL     OW11122   5.376   3.664   3.105
 3408SOL    HW111123   5.321   3.722   3.045
 3408SOL    HW211124   5.331   3.655   3.193
 3409SOL     OW11125   2.569   1.084   5.993
 3409SOL    HW111126   2.649   1.027   6.013
 3409SOL    HW211127   2.560   1.096   5.894
 3410SOL     OW11128   0.005   2.383   0.044
 3410SOL    HW111129   6.931   2.387   0.012
 3410SOL    HW211130   0.037   2.288   0.043
 3411SOL     OW11131   5.080   2.149   2.355
 3411SOL    HW111132   5.044   2.232   2.398
 3411SOL    HW211133   5.025   2.127   2.274
 3412SOL     OW11134   4.689   5.153   6.866
 3412SOL    HW111135   4.656   5.109   6.782
 3412SOL    HW211136   4.788   5.163   6.861
 3413SOL     OW11137   5.318   1.317   2.497
 3413SOL    HW111138   5.373   1.310   2.580
 3413SOL    HW211139   5.268   1.232   2.483
 3414SOL     OW11140   3.917   0.634   5.516
 3414SOL    HW111141   3.951   0.557   5.570
 3414SOL    HW211142   3.965   0.637   5.428
 3415SOL     OW11143   1.540   5.479   4.997
 3415SOL    HW111144   1.468   5.410   4.993
 3415SOL    HW211145   1.617   5.449   4.940
 3416SOL     OW11146   2.136   4.416   5.683
 3416SOL    HW111147   2.209   4.447   5.743
 3416SOL    HW211148   2.109   4.491   5.622
 3417SOL     OW11149   5.194   0.659   1.592
 3417SOL    HW111150   5.273   0.679   1.650
 3417SOL    HW211151   5.224   0.611   1.509
 3418SOL     OW11152   3.067   2.521   6.038
 3418SOL    HW111153   3.127   2.450   6.002
 3418SOL    HW211154   3.016   2.563   5.963
 3419SOL     OW11155   4.874   3.562   6.515
 3419SOL    HW111156   4.903   3.478   6.471
 3419SOL    HW211157   4.855   3.632   6.445
 3420SOL     OW11158   3.787   1.078   4.628
 3420SOL    HW111159   3.797   1.172   4.660
 3420SOL    HW211160   3.859   1.021   4.669
 3421SOL     OW11161   0.067   6.445   2.705
 3421SOL    HW111162   0.045   6.399   2.790
 3421SOL    HW211163   7.005   6.484   2.665
 3422SOL     OW11164   3.271   1.968   2.776
 3422SOL    HW111165   3.357   2.018   2.784
 3422SOL    HW211166   3.238   1.943   2.867
 3423SOL     OW11167   3.403   0.858   1.604
 3423SOL    HW111168   3.491   0.816   1.582
 3423SOL    HW211169   3.414   0.922   1.679
 3424SOL     OW11170   4.795   1.696   1.588
 3424SOL    HW111171   4.869   1.692   1.655
 3424SOL    HW211172   4.791   1.610   1.537
 3425SOL     OW11173   4.055   3.969   1.695
 3425SOL    HW111174   4.153   3.989   1.701
 3425SOL    HW211175   4.043   3.874   1.665
 3426SOL     OW11176   4.860   3.784   1.045
 3426SOL    HW111177   4.926   3.753   1.114
 3426SOL    HW211178   4.849   3.712   0.976
 3427SOL     OW11179   0.875   1.627   0.717
 3427SOL    HW111180   0.974   1.615   0.721
 3427SOL    HW211181   0.853   1.724   0.723
 3428SOL     OW11182   4.292   5.113   3.349
 3428SOL    HW111183   4.216   5.132   3.411
 3428SOL    HW211184   4.268   5.036   3.290
 3429SOL     OW11185   0.429   3.091   0.856
 3429SOL    HW111186   0.495   3.073   0.929
 3429SOL    HW211187   0.346   3.130   0.895
 3430SOL     OW11188   1.028   5.289   6.612
 3430SOL    HW111189   0.981   5.357   6.669
 3430SOL    HW211190   0.971   5.207   6.604
 3431SOL     OW11191   1.744   6.106   6.667
 3431SOL    HW111192   1.711   6.199   6.653
 3431SOL    HW211193   1.825   6.108   6.725
 3432SOL     OW11194   3.762   1.794   6.652
 3432SOL    HW111195   3.858   1.771   6.638
 3432SOL    HW211196   3.708   1.710   6.652
 3433SOL     OW11197   4.715   1.005   4.242
 3433SOL    HW111198   4.664   1.091   4.246
 3433SOL    HW211199   4.804   1.017   4.286
 3434SOL     OW11200   4.205   1.771   3.438
 3434SOL    HW111201   4.302   1.753   3.420
 3434SOL    HW211202   4.173   1.708   3.508
 3435SOL     OW11203   0.798   1.263   0.225
 3435SOL    HW111204   0.742   1.303   0.152
 3435SOL    HW211205   0.836   1.176   0.195
 3436SOL     OW11206   4.327   6.788   2.135
 3436SOL    HW111207   4.409   6.844   2.120
 3436SOL    HW211208   4.334   6.704   2.082
 3437SOL     OW11209   4.401   0.559   0.041
 3437SOL    HW111210   4.353   0.595   6.982
 3437SOL    HW211211   4.450   0.633   0.086
 3438SOL     OW11212   0.834   5.578   6.274
 3438SOL    HW111213   0.820   5.479   6.285
 3438SOL    HW211214   0.853   5.599   6.178
 3439SOL     OW11215   2.303   0.496   4.245
 3439SOL    HW111216   2.278   0.454   4.333
 3439SOL    HW211217   2.258   0.447   4.171
 3440SOL     OW11218   3.373   1.938   0.286
 3440SOL    HW111219   3.447   1.906   0.226
 3440SOL    HW211220   3.318   2.005   0.236
 3441SOL     OW11221   4.951   0.488   4.206
 3441SOL    HW111222   5.011   0.418   4.244
 3441SOL    HW211223   4.955   0.484   4.106
 3442SOL     OW11224   1.016   4.786   2.967
 3442SOL    HW111225   1.001   4.836   2.881
 3442SOL    HW211226   1.008   4.849   3.044
 3443SOL     OW11227   5.728   6.465   4.459
 3443SOL    HW111228   5.810   6.412   4.483
 3443SOL    HW211229   5.734   6.494   4.363
 3444SOL     OW11230   3.876   5.388   0.121
 3444SOL    HW111231   3.791   5.336   0.123
 3444SOL    HW211232   3.892   5.429   0.211
 3445SOL     OW11233   5.877   5.041   5.104
 3445SOL    HW111234   5.891   4.944   5.085
 3445SOL    HW211235   5.911   5.062   5.196
 3446SOL     OW11236   2.300   6.566   2.101
 3446SOL    HW111237   2.259   6.528   2.184
 3446SOL    HW211238   2.391   6.602   2.123
 3447SOL     OW11239   6.315   4.780   5.706
 3447SOL    HW111240   6.304   4.681   5.693
 3447SOL    HW211241   6.232   4.826   5.676
 3448SOL     OW11242   4.103   3.336   0.769
 3448SOL    HW111243   4.003   3.346   0.760
 3448SOL    HW211244   4.127   3.239   0.767
 3449SOL     OW11245   6.749   6.163   2.962
 3449SOL    HW111246   6.724   6.212   2.878
 3449SOL    HW211247   6.844   6.132   2.956
 3450SOL     OW11248   0.866   1.858   1.183
 3450SOL    HW111249   0.910   1.822   1.265
 3450SOL    HW211250   0.806   1.934   1.208
 3451SOL     OW11251   1.457   4.892   4.514
 3451SOL    HW111252   1.541   4.946   4.500
 3451SOL    HW211253   1.410   4.881   4.426
 3452SOL     OW11254   6.825   1.827   0.771
 3452SOL    HW111255   6.906   1.771   0.788
 3452SOL    HW211256   6.815   1.894   0.845
 3453SOL     OW11257   5.872   5.919   5.670
 3453SOL    HW111258   5.777   5.896   5.650
 3453SOL    HW211259   5.903   5.991   5.608
 3454SOL     OW11260   0.241   1.284   0.624
 3454SOL    HW111261   0.312   1.353   0.611
 3454SOL    HW211262   0.244   1.252   0.719
 3455SOL     OW11263   1.420   2.847   3.402
 3455SOL    HW111264   1.443   2.750   3.413
 3455SOL    HW211265   1.502   2.898   3.376
 3456SOL     OW11266   6.919   0.195   0.450
 3456SOL    HW111267   6.873   0.111   0.479
 3456SOL    HW211268   6.995   0.215   0.512
 3457SOL     OW11269   2.105   6.762   3.639
 3457SOL    HW111270   2.067   6.705   3.711
 3457SOL    HW211271   2.035   6.783   3.571
 3458SOL     OW11272   5.393   5.109   0.461
 3458SOL    HW111273   5.417   5.035   0.523
 3458SOL    HW211274   5.344   5.181   0.511
 3459SOL     OW11275   6.077   0.071   3.510
 3459SOL    HW111276   6.147   0.051   3.442
 3459SOL    HW211277   5.988   0.081   3.465
 3460SOL     OW11278   4.069   2.524   0.042
 3460SOL    HW111279   4.100   2.554   0.132
 3460SOL    HW211280   3.996   2.457   0.053
 3461SOL     OW11281   2.775   6.240   3.012
 3461SOL    HW111282   2.782   6.207   2.918
 3461SOL    HW211283   2.823   6.327   3.021
 3462SOL     OW11284   4.938   2.510   2.952
 3462SOL    HW111285   4.874   2.542   3.021
 3462SOL    HW211286   4.909   2.543   2.862
 3463SOL     OW11287   1.327   3.353   0.929
 3463SOL    HW111288   1.342   3.360   0.830
 3463SOL    HW211289   1.278   3.434   0.961
 3464SOL     OW11290   5.482   1.779   5.993
 3464SOL    HW111291   5.471   1.878   5.990
 3464SOL    HW211292   5.484   1.742   5.900
 3465SOL     OW11293   1.690   4.806   1.608
 3465SOL    HW111294   1.760   4.872   1.582
 3465SOL    HW211295   1.708   4.773   1.701
 3466SOL     OW11296   6.444   3.987   4.452
 3466SOL    HW111297   6.389   4.069   4.470
 3466SOL    HW211298   6.537   4.002   4.486
 3467SOL     OW11299   3.766   3.043   0.889
 3467SOL    HW111300   3.698   3.007   0.953
 3467SOL    HW211301   3.736   3.133   0.856
 3468SOL     OW11302   3.977   1.265   1.258
 3468SOL    HW111303   3.919   1.242   1.337
 3468SOL    HW211304   4.005   1.181   1.212
 3469SOL     OW11305   3.836   5.616   4.942
 3469SOL    HW111306   3.799   5.540   4.995
 3469SOL    HW211307   3.905   5.664   4.996
 3470SOL     OW11308   1.218   2.434   1.996
 3470SOL    HW111309   1.137   2.444   2.054
 3470SOL    HW211310   1.190   2.430   1.900
 3471SOL     OW11311   5.059   2.990   4.982
 3471SOL    HW111312   4.971   2.957   5.016
 3471SOL    HW211313   5.044   3.062   4.914
 3472SOL     OW11314   5.028   1.918   2.500
 3472SOL    HW111315   5.059   1.970   2.420
 3472SOL    HW211316   5.101   1.856   2.530
 3473SOL     OW11317   6.073   4.726   1.676
 3473SOL    HW111318   6.046   4.638   1.637
 3473SOL    HW211319   6.108   4.712   1.769
 3474SOL     OW11320   4.484   4.479   3.522
 3474SOL    HW111321   4.445   4.519   3.605
 3474SOL    HW211322   4.578   4.450   3.539
 3475SOL     OW11323   0.377   4.003   4.171
 3475SOL    HW111324   0.384   4.101   4.189
 3475SOL    HW211325   0.400   3.952   4.254
 3476SOL     OW11326   1.852   1.876   3.109
 3476SOL    HW111327   1.943   1.844   3.135
 3476SOL    HW211328   1.850   1.890   3.010
 3477SOL     OW11329   0.920   4.242   1.725
 3477SOL    HW111330   0.827   4.206   1.713
 3477SOL    HW211331   0.985   4.182   1.680
 3478SOL     OW11332   2.458   0.393   1.215
 3478SOL    HW111333   2.411   0.324   1.160
 3478SOL    HW211334   2.399   0.473   1.225
 3479SOL     OW11335   0.895   4.387   5.457
 3479SOL    HW111336   0.968   4.367   5.392
 3479SOL    HW211337   0.889   4.315   5.526
 3480SOL     OW11338   1.279   4.720   6.377
 3480SOL    HW111339   1.268   4.638   6.321
 3480SOL    HW211340   1.336   4.699   6.456
 3481SOL     OW11341   6.020   0.463   4.736
 3481SOL    HW111342   6.079   0.390   4.701
 3481SOL    HW211343   6.071   0.519   4.801
 3482SOL     OW11344   6.195   3.398   6.864
 3482SOL    HW111345   6.209   3.378   6.767
 3482SOL    HW211346   6.166   3.493   6.875
 3483SOL     OW11347   5.047   2.374   5.389
 3483SOL    HW111348   4.948   2.360   5.381
 3483SOL    HW211349   5.065   2.470   5.413
 3484SOL     OW11350   1.371   3.014   4.617
 3484SOL    HW111351   1.414   2.924   4.628
 3484SOL    HW211352   1.276   3.010   4.648
 3485SOL     OW11353   0.033   3.144   6.828
 3485SOL    HW111354   6.977   3.116   6.886
 3485SOL    HW211355   0.081   3.220   6.872
 3486SOL     OW11356   1.958   6.663   5.096
 3486SOL    HW111357   2.049   6.629   5.073
 3486SOL    HW211358   1.950   6.759   5.068
 3487SOL     OW11359   4.078   1.872   0.193
 3487SOL    HW111360   4.070   1.971   0.182
 3487SOL    HW211361   4.079   1.828   0.103
 3488SOL     OW11362   5.337   6.438   4.964
 3488SOL    HW111363   5.349   6.537   4.976
 3488SOL    HW211364   5.346   6.393   5.053
 3489SOL     OW11365   3.425   6.165   0.455
 3489SOL    HW111366   3.513   6.186   0.496
 3489SOL    HW211367   3.402   6.236   0.388
 3490SOL     OW11368   3.701   6.230   0.876
 3490SOL    HW111369   3.738   6.276   0.957
 3490SOL    HW211370   3.604   6.251   0.867
 3491SOL     OW11371   4.370   4.650   6.043
 3491SOL    HW111372   4.456   4.629   5.997
 3491SOL    HW211373   4.293   4.619   5.987
 3492SOL     OW11374   5.912   4.197   3.655
 3492SOL    HW111375   5.940   4.290   3.635
 3492SOL    HW211376   5.973   4.133   3.608
 3493SOL     OW11377   6.650   3.253   5.706
 3493SOL    HW111378   6.629   3.170   5.654
 3493SOL    HW211379   6.748   3.269   5.705
 3494SOL     OW11380   3.880   1.614   1.988
 3494SOL    HW111381   3.924   1.658   1.910
 3494SOL    HW211382   3.858   1.519   1.965
 3495SOL     OW11383   1.696   3.894   3.626
 3495SOL    HW111384   1.678   3.917   3.721
 3495SOL    HW211385   1.758   3.815   3.622
 3496SOL     OW11386   6.333   5.146   1.019
 3496SOL    HW111387   6.337   5.088   1.100
 3496SOL    HW211388   6.389   5.228   1.032
 3497SOL     OW11389   3.331   0.289   1.871
 3497SOL    HW111390   3.311   0.195   1.897
 3497SOL    HW211391   3.430   0.299   1.858
 3498SOL     OW11392   2.775   2.628   1.685
 3498SOL    HW111393   2.727   2.558   1.738
 3498SOL    HW211394   2.713   2.666   1.616
 3499SOL     OW11395   5.711   6.131   4.696
 3499SOL    HW111396   5.782   6.195   4.727
 3499SOL    HW211397   5.622   6.159   4.733
 3500SOL     OW11398   2.945   2.212   3.978
 3500SOL    HW111399   2.968   2.249   3.888
 3500SOL    HW211400   3.020   2.155   4.011
 3501SOL     OW11401   1.199   6.664   6.077
 3501SOL    HW111402   1.276   6.709   6.033
 3501SOL    HW211403   1.114   6.709   6.051
 3502SOL     OW11404   4.799   2.265   1.973
 3502SOL    HW111405   4.837   2.308   1.891
 3502SOL    HW211406   4.719   2.316   2.003
 3503SOL     OW11407   0.749   5.972   6.191
 3503SOL    HW111408   0.656   6.001   6.170
 3503SOL    HW211409   0.796   6.044   6.243
 3504SOL     OW11410   1.673   0.922   6.889
 3504SOL    HW111411   1.769   0.934   6.913
 3504SOL    HW211412   1.651   0.825   6.889
 3505SOL     OW11413   4.861   3.071   5.609
 3505SOL    HW111414   4.920   3.009   5.557
 3505SOL    HW211415   4.897   3.080   5.702
 3506SOL     OW11416   4.257   4.778   5.117
 3506SOL    HW111417   4.158   4.792   5.112
 3506SOL    HW211418   4.282   4.700   5.061
 3507SOL     OW11419   3.370   1.088   0.613
 3507SOL    HW111420   3.394   1.165   0.671
 3507SOL    HW211421   3.273   1.067   0.622
 3508SOL     OW11422   3.441   1.392   5.876
 3508SOL    HW111423   3.394   1.426   5.795
 3508SOL    HW211424   3.405   1.437   5.957
 3509SOL     OW11425   4.266   5.381   6.787
 3509SOL    HW111426   4.194   5.426   6.839
 3509SOL    HW211427   4.338   5.350   6.850
 3510SOL     OW11428   2.378   1.606   1.428
 3510SOL    HW111429   2.369   1.510   1.402
 3510SOL    HW211430   2.314   1.662   1.375
 3511SOL     OW11431   2.661   4.563   1.737
 3511SOL    HW111432   2.709   4.501   1.675
 3511SOL    HW211433   2.698   4.553   1.829
 3512SOL     OW11434   0.105   5.363   6.254
 3512SOL    HW111435   0.092   5.462   6.247
 3512SOL    HW211436   0.022   5.317   6.222
 3513SOL     OW11437   5.817   1.875   0.699
 3513SOL    HW111438   5.875   1.917   0.630
 3513SOL    HW211439   5.744   1.938   0.724
 3514SOL     OW11440   2.955   1.632   1.866
 3514SOL    HW111441   2.906   1.696   1.806
 3514SOL    HW211442   2.959   1.670   1.958
 3515SOL     OW11443   0.564   4.946   4.649
 3515SOL    HW111444   0.630   4.878   4.682
 3515SOL    HW211445   0.611   5.031   4.628
 3516SOL     OW11446   4.732   0.582   1.525
 3516SOL    HW111447   4.709   0.680   1.522
 3516SOL    HW211448   4.786   0.559   1.444
 3517SOL     OW11449   4.768   0.881   1.592
 3517SOL    HW111450   4.671   0.866   1.576
 3517SOL    HW211451   4.781   0.939   1.673
 3518SOL     OW11452   5.769   1.197   5.014
 3518SOL    HW111453   5.672   1.176   5.025
 3518SOL    HW211454   5.791   1.203   4.917
 3519SOL     OW11455   3.415   1.380   1.137
 3519SOL    HW111456   3.422   1.478   1.157
 3519SOL    HW211457   3.319   1.352   1.144
 3520SOL     OW11458   2.667   6.014   4.326
 3520SOL    HW111459   2.612   6.059   4.256
 3520SOL    HW211460   2.764   6.033   4.310
 3521SOL     OW11461   2.695   2.853   6.259
 3521SOL    HW111462   2.686   2.763   6.215
 3521SOL    HW211463   2.785   2.861   6.301
 3522SOL     OW11464   1.201   6.232   6.562
 3522SOL    HW111465   1.289   6.206   6.523
 3522SOL    HW211466   1.149   6.284   6.495
 3523SOL     OW11467   3.341   5.785   7.008
 3523SOL    HW111468   3.401   5.854   0.028
 3523SOL    HW211469   3.381   5.754   6.922
 3524SOL     OW11470   4.659   0.989   3.584
 3524SOL    HW111471   4.641   0.929   3.663
 3524SOL    HW211472   4.606   1.073   3.594
 3525SOL     OW11473   6.948   3.122   3.356
 3525SOL    HW111474   6.890   3.059   3.408
 3525SOL    HW211475   6.984   3.192   3.418
 3526SOL     OW11476   0.455   6.764   2.041
 3526SOL    HW111477   0.408   6.785   2.127
 3526SOL    HW211478   0.407   6.690   1.995
 3527SOL     OW11479   6.811   2.885   6.584
 3527SOL    HW111480   6.785   2.861   6.678
 3527SOL    HW211481   6.889   2.947   6.586
 3528SOL     OW11482   2.041   5.225   5.123
 3528SOL    HW111483   2.046   5.300   5.057
 3528SOL    HW211484   2.014   5.141   5.077
 3529SOL     OW11485   4.882   4.677   0.677
 3529SOL    HW111486   4.831   4.685   0.591
 3529SOL    HW211487   4.948   4.603   0.669
 3530SOL     OW11488   6.588   6.899   0.762
 3530SOL    HW111489   6.575   6.802   0.744
 3530SOL    HW211490   6.502   6.940   0.791
 3531SOL     OW11491   4.361   2.245   0.288
 3531SOL    HW111492   4.445   2.298   0.278
 3531SOL    HW211493   4.371   2.157   0.242
 3532SOL     OW11494   2.324   0.608   1.288
 3532SOL    HW111495   2.393   0.635   1.355
 3532SOL    HW211496   2.270   0.689   1.262
 3533SOL     OW11497   1.278   2.417   3.294
 3533SOL    HW111498   1.201   2.354   3.294
 3533SOL    HW211499   1.362   2.368   3.313
 3534SOL     OW11500   0.324   1.148   0.851
 3534SOL    HW111501   0.300   1.212   0.924
 3534SOL    HW211502   0.417   1.166   0.820
 3535SOL     OW11503   3.088   6.592   3.926
 3535SOL    HW111504   3.103   6.579   3.828
 3535SOL    HW211505   3.055   6.685   3.943
 3536SOL     OW11506   3.803   1.714   3.296
 3536SOL    HW111507   3.712   1.713   3.337
 3536SOL    HW211508   3.849   1.800   3.318
 3537SOL     OW11509   1.756   0.110   3.278
 3537SOL    HW111510   1.819   0.114   3.356
 3537SOL    HW211511   1.760   0.019   3.237
 3538SOL     OW11512   3.126   5.037   1.914
 3538SOL    HW111513   3.178   5.036   1.999
 3538SOL    HW211514   3.029   5.023   1.933
 3539SOL     OW11515   3.367   3.709   4.395
 3539SOL    HW111516   3.298   3.704   4.467
 3539SOL    HW211517   3.323   3.713   4.306
 3540SOL     OW11518   1.586   2.297   3.635
 3540SOL    HW111519   1.620   2.203   3.629
 3540SOL    HW211520   1.524   2.305   3.714
 3541SOL     OW11521   4.112   3.569   4.616
 3541SOL    HW111522   4.064   3.507   4.554
 3541SOL    HW211523   4.129   3.523   4.703
 3542SOL     OW11524   6.529   5.339   1.053
 3542SOL    HW111525   6.496   5.428   1.085
 3542SOL    HW211526   6.619   5.349   1.011
 3543SOL     OW11527   5.494   2.664   4.513
 3543SOL    HW111528   5.442   2.688   4.431
 3543SOL    HW211529   5.587   2.699   4.505
 3544SOL     OW11530   2.530   6.633   0.035
 3544SOL    HW111531   2.485   6.566   0.095
 3544SOL    HW211532   2.624   6.605   0.018
 3545SOL     OW11533   3.434   5.176   0.626
 3545SOL    HW111534   3.336   5.188   0.613
 3545SOL    HW211535   3.462   5.226   0.709
 3546SOL     OW11536   0.783   4.560   2.423
 3546SOL    HW111537   0.862   4.600   2.377
 3546SOL    HW211538   0.725   4.514   2.355
 3547SOL     OW11539   5.355   4.821   4.593
 3547SOL    HW111540   5.288   4.893   4.576
 3547SOL    HW211541   5.370   4.812   4.692
 3548SOL     OW11542   4.777   3.318   5.864
 3548SOL    HW111543   4.680   3.339   5.877
 3548SOL    HW211544   4.805   3.344   5.772
 3549SOL     OW11545   4.916   3.548   2.318
 3549SOL    HW111546   4.932   3.541   2.219
 3549SOL    HW211547   4.881   3.461   2.352
 3550SOL     OW11548   4.714   1.760   3.580
 3550SOL    HW111549   4.740   1.722   3.491
 3550SOL    HW211550   4.632   1.817   3.569
 3551SOL     OW11551   1.928   6.482   2.505
 3551SOL    HW111552   1.958   6.455   2.597
 3551SOL    HW211553   1.859   6.417   2.473
 3552SOL     OW11554   6.602   4.221   2.923
 3552SOL    HW111555   6.541   4.219   2.843
 3552SOL    HW211556   6.696   4.206   2.894
 3553SOL     OW11557   6.201   1.685   3.223
 3553SOL    HW111558   6.291   1.670   3.181
 3553SOL    HW211559   6.184   1.613   3.290
 3554SOL     OW11560   4.397   5.550   0.079
 3554SOL    HW111561   4.427   5.459   0.050
 3554SOL    HW211562   4.449   5.578   0.160
 3555SOL     OW11563   0.926   2.342   3.896
 3555SOL    HW111564   0.988   2.378   3.966
 3555SOL    HW211565   0.948   2.246   3.878
 3556SOL     OW11566   4.178   1.520   6.610
 3556SOL    HW111567   4.124   1.454   6.662
 3556SOL    HW211568   4.261   1.476   6.576
 3557SOL     OW11569   0.865   0.231   4.157
 3557SOL    HW111570   0.823   0.272   4.075
 3557SOL    HW211571   0.852   0.132   4.154
 3558SOL     OW11572   0.593   6.684   1.255
 3558SOL    HW111573   0.597   6.585   1.257
 3558SOL    HW211574   0.667   6.721   1.311
 3559SOL     OW11575   1.016   0.397   5.701
 3559SOL    HW111576   1.004   0.431   5.607
 3559SOL    HW211577   0.960   0.452   5.763
 3560SOL     OW11578   6.896   0.090   1.750
 3560SOL    HW111579   6.907   0.150   1.829
 3560SOL    HW211580   6.823   0.024   1.769
 3561SOL     OW11581   5.722   4.612   3.867
 3561SOL    HW111582   5.634   4.581   3.830
 3561SOL    HW211583   5.741   4.564   3.953
 3562SOL     OW11584   4.058   2.107   2.589
 3562SOL    HW111585   3.976   2.116   2.646
 3562SOL    HW211586   4.030   2.088   2.494
 3563SOL     OW11587   4.407   6.245   1.601
 3563SOL    HW111588   4.372   6.154   1.624
 3563SOL    HW211589   4.362   6.313   1.659
 3564SOL     OW11590   6.468   4.159   2.685
 3564SOL    HW111591   6.531   4.222   2.639
 3564SOL    HW211592   6.404   4.121   2.618
 3565SOL     OW11593   0.982   0.950   5.448
 3565SOL    HW111594   0.894   0.905   5.436
 3565SOL    HW211595   0.993   1.020   5.377
 3566SOL     OW11596   1.172   4.358   5.621
 3566SOL    HW111597   1.254   4.392   5.669
 3566SOL    HW211598   1.105   4.431   5.613
 3567SOL     OW11599   6.992   2.256   1.511
 3567SOL    HW111600   0.018   2.236   1.425
 3567SOL    HW211601   0.032   2.239   1.588
 3568SOL     OW11602   4.597   4.352   3.300
 3568SOL    HW111603   4.632   4.435   3.257
 3568SOL    HW211604   4.524   4.376   3.364
 3569SOL     OW11605   3.966   3.382   3.858
 3569SOL    HW111606   4.033   3.455   3.869
 3569SOL    HW211607   3.886   3.417   3.810
 3570SOL     OW11608   0.295   2.190   5.321
 3570SOL    HW111609   0.362   2.264   5.327
 3570SOL    HW211610   0.232   2.196   5.399
 3571SOL     OW11611   2.945   0.259   4.295
 3571SOL    HW111612   2.950   0.167   4.256
 3571SOL    HW211613   2.862   0.268   4.349
 3572SOL     OW11614   4.926   4.279   2.485
 3572SOL    HW111615   4.833   4.255   2.459
 3572SOL    HW211616   4.936   4.379   2.482
 3573SOL     OW11617   0.216   4.933   4.257
 3573SOL    HW111618   0.300   4.926   4.309
 3573SOL    HW211619   0.210   4.858   4.192
 3574SOL     OW11620   1.615   1.656   6.070
 3574SOL    HW111621   1.587   1.733   6.013
 3574SOL    HW211622   1.614   1.682   6.166
 3575SOL     OW11623   4.994   0.797   6.026
 3575SOL    HW111624   5.051   0.843   5.956
 3575SOL    HW211625   4.968   0.864   6.095
 3576SOL     OW11626   0.971   2.860   0.541
 3576SOL    HW111627   1.012   2.936   0.490
 3576SOL    HW211628   0.878   2.844   0.508
 3577SOL     OW11629   1.684   3.327   4.676
 3577SOL    HW111630   1.586   3.320   4.693
 3577SOL    HW211631   1.710   3.267   4.601
 3578SOL     OW11632   4.089   2.580   0.326
 3578SOL    HW111633   4.128   2.504   0.377
 3578SOL    HW211634   4.013   2.619   0.377
 3579SOL     OW11635   1.173   3.714   1.887
 3579SOL    HW111636   1.268   3.736   1.865
 3579SOL    HW211637   1.147   3.629   1.842
 3580SOL     OW11638   0.172   4.043   1.748
 3580SOL    HW111639   0.256   4.049   1.802
 3580SOL    HW211640   0.114   4.123   1.768
 3581SOL     OW11641   1.817   0.442   2.385
 3581SOL    HW111642   1.724   0.477   2.377
 3581SOL    HW211643   1.849   0.455   2.479
 3582SOL     OW11644   4.605   5.973   0.194
 3582SOL    HW111645   4.531   5.994   0.130
 3582SOL    HW211646   4.624   5.875   0.190
 3583SOL     OW11647   1.669   5.563   1.350
 3583SOL    HW111648   1.666   5.564   1.450
 3583SOL    HW211649   1.586   5.606   1.315
 3584SOL     OW11650   5.883   4.780   5.001
 3584SOL    HW111651   5.798   4.770   4.949
 3584SOL    HW211652   5.960   4.788   4.937
 3585SOL     OW11653   4.035   2.210   3.789
 3585SOL    HW111654   4.105   2.272   3.755
 3585SOL    HW211655   4.032   2.129   3.732
 3586SOL     OW11656   6.412   2.525   5.533
 3586SOL    HW111657   6.364   2.588   5.472
 3586SOL    HW211658   6.500   2.500   5.493
 3587SOL     OW11659   2.548   0.564   6.155
 3587SOL    HW111660   2.535   0.657   6.188
 3587SOL    HW211661   2.629   0.560   6.097
 3588SOL     OW11662   5.676   3.821   3.787
 3588SOL    HW111663   5.598   3.880   3.807
 3588SOL    HW211664   5.738   3.819   3.865
 3589SOL     OW11665   0.602   0.745   6.323
 3589SOL    HW111666   0.584   0.843   6.315
 3589SOL    HW211667   0.547   0.706   6.396
 3590SOL     OW11668   6.345   5.156   5.415
 3590SOL    HW111669   6.287   5.235   5.393
 3590SOL    HW211670   6.405   5.137   5.337
 3591SOL     OW11671   4.752   1.909   0.844
 3591SOL    HW111672   4.849   1.920   0.867
 3591SOL    HW211673   4.743   1.843   0.769
 3592SOL     OW11674   1.497   6.431   1.247
 3592SOL    HW111675   1.482   6.334   1.229
 3592SOL    HW211676   1.413   6.471   1.285
 3593SOL     OW11677   4.251   3.018   5.691
 3593SOL    HW111678   4.302   3.103   5.683
 3593SOL    HW211679   4.161   3.037   5.729
 3594SOL     OW11680   4.620   4.516   5.003
 3594SOL    HW111681   4.671   4.572   5.068
 3594SOL    HW211682   4.535   4.563   4.979
 3595SOL     OW11683   4.504   6.994   5.187
 3595SOL    HW111684   4.586   0.025   5.164
 3595SOL    HW211685   4.424   0.033   5.182
 3596SOL     OW11686   3.508   1.846   2.359
 3596SOL    HW111687   3.513   1.775   2.289
 3596SOL    HW211688   3.505   1.936   2.316
 3597SOL     OW11689   3.825   4.401   5.505
 3597SOL    HW111690   3.824   4.339   5.426
 3597SOL    HW211691   3.815   4.348   5.589
 3598SOL     OW11692   6.871   5.672   4.736
 3598SOL    HW111693   6.914   5.664   4.646
 3598SOL    HW211694   6.931   5.634   4.806
 3599SOL     OW11695   2.305   1.220   4.992
 3599SOL    HW111696   2.255   1.140   5.026
 3599SOL    HW211697   2.328   1.280   5.068
 3600SOL     OW11698   2.655   4.244   0.730
 3600SOL    HW111699   2.670   4.249   0.631
 3600SOL    HW211700   2.562   4.209   0.747
 3601SOL     OW11701   3.668   0.637   5.365
 3601SOL    HW111702   3.743   0.635   5.431
 3601SOL    HW211703   3.655   0.730   5.333
 3602SOL     OW11704   1.539   2.265   1.096
 3602SOL    HW111705   1.539   2.210   1.012
 3602SOL    HW211706   1.538   2.204   1.175
 3603SOL     OW11707   1.566   0.165   6.206
 3603SOL    HW111708   1.625   0.096   6.249
 3603SOL    HW211709   1.610   0.201   6.124
 3604SOL     OW11710   6.669   0.953   3.963
 3604SOL    HW111711   6.733   0.877   3.957
 3604SOL    HW211712   6.601   0.935   4.035
 3605SOL     OW11713   1.245   0.192   4.945
 3605SOL    HW111714   1.315   0.237   4.889
 3605SOL    HW211715   1.280   0.178   5.038
 3606SOL     OW11716   2.662   0.109   2.928
 3606SOL    HW111717   2.735   0.110   2.860
 3606SOL    HW211718   2.691   0.158   3.010
 3607SOL     OW11719   6.186   1.397   3.801
 3607SOL    HW111720   6.285   1.401   3.815
 3607SOL    HW211721   6.155   1.302   3.804
 3608SOL     OW11722   3.680   1.960   5.688
 3608SOL    HW111723   3.715   1.982   5.779
 3608SOL    HW211724   3.753   1.969   5.621
 3609SOL     OW11725   3.124   6.970   5.257
 3609SOL    HW111726   3.080   6.881   5.267
 3609SOL    HW211727   3.211   6.971   5.306
 3610SOL     OW11728   1.749   0.478   5.524
 3610SOL    HW111729   1.839   0.434   5.520
 3610SOL    HW211730   1.760   0.575   5.543
 3611SOL     OW11731   5.480   3.625   3.481
 3611SOL    HW111732   5.406   3.678   3.440
 3611SOL    HW211733   5.448   3.586   3.568
 3612SOL     OW11734   4.753   1.766   0.523
 3612SOL    HW111735   4.806   1.699   0.574
 3612SOL    HW211736   4.793   1.776   0.431
 3613SOL     OW11737   3.840   0.640   2.911
 3613SOL    HW111738   3.891   0.556   2.930
 3613SOL    HW211739   3.877   0.684   2.829
 3614SOL     OW11740   3.795   5.698   0.116
 3614SOL    HW111741   3.853   5.629   0.157
 3614SOL    HW211742   3.715   5.714   0.174
 3615SOL     OW11743   5.657   2.652   4.838
 3615SOL    HW111744   5.623   2.622   4.927
 3615SOL    HW211745   5.717   2.731   4.850
 3616SOL     OW11746   1.367   1.447   1.124
 3616SOL    HW111747   1.316   1.418   1.043
 3616SOL    HW211748   1.308   1.441   1.205
 3617SOL     OW11749   4.013   5.128   4.773
 3617SOL    HW111750   4.064   5.157   4.854
 3617SOL    HW211751   3.985   5.032   4.784
 3618SOL     OW11752   0.950   5.502   4.434
 3618SOL    HW111753   0.929   5.514   4.337
 3618SOL    HW211754   0.981   5.408   4.451
 3619SOL     OW11755   6.641   2.178   2.619
 3619SOL    HW111756   6.579   2.252   2.597
 3619SOL    HW211757   6.705   2.164   2.544
 3620SOL     OW11758   4.929   6.205   5.517
 3620SOL    HW111759   4.870   6.266   5.464
 3620SOL    HW211760   5.021   6.207   5.480
 3621SOL     OW11761   2.936   3.399   3.757
 3621SOL    HW111762   2.878   3.326   3.794
 3621SOL    HW211763   2.974   3.371   3.669
 3622SOL     OW11764   2.507   5.754   6.240
 3622SOL    HW111765   2.571   5.737   6.315
 3622SOL    HW211766   2.422   5.704   6.258
 3623SOL     OW11767   1.555   6.067   5.734
 3623SOL    HW111768   1.642   6.116   5.743
 3623SOL    HW211769   1.481   6.133   5.722
 3624SOL     OW11770   2.825   1.722   2.732
 3624SOL    HW111771   2.871   1.681   2.653
 3624SOL    HW211772   2.874   1.696   2.816
 3625SOL     OW11773   6.009   2.643   1.807
 3625SOL    HW111774   5.921   2.596   1.808
 3625SOL    HW211775   5.997   2.737   1.841
 3626SOL     OW11776   0.949   3.279   5.885
 3626SOL    HW111777   0.975   3.265   5.980
 3626SOL    HW211778   1.031   3.285   5.828
 3627SOL     OW11779   3.451   1.126   2.600
 3627SOL    HW111780   3.473   1.190   2.674
 3627SOL    HW211781   3.351   1.120   2.591
 3628SOL     OW11782   6.973   0.957   1.680
 3628SOL    HW111783   7.018   1.034   1.725
 3628SOL    HW211784   6.882   0.985   1.650
 3629SOL     OW11785   1.428   0.932   4.526
 3629SOL    HW111786   1.401   0.854   4.582
 3629SOL    HW211787   1.473   1.000   4.584
 3630SOL     OW11788   6.409   2.199   2.408
 3630SOL    HW111789   6.361   2.247   2.335
 3630SOL    HW211790   6.361   2.114   2.429
 3631SOL     OW11791   1.908   5.366   2.645
 3631SOL    HW111792   1.868   5.326   2.727
 3631SOL    HW211793   1.928   5.463   2.662
 3632SOL     OW11794   5.129   3.063   2.244
 3632SOL    HW111795   5.209   3.084   2.189
 3632SOL    HW211796   5.046   3.090   2.195
 3633SOL     OW11797   4.336   5.099   6.315
 3633SOL    HW111798   4.425   5.143   6.316
 3633SOL    HW211799   4.288   5.122   6.231
 3634SOL     OW11800   3.014   5.532   6.367
 3634SOL    HW111801   3.037   5.628   6.382
 3634SOL    HW211802   2.934   5.526   6.308
 3635SOL     OW11803   1.649   0.097   2.916
 3635SOL    HW111804   1.705   0.082   2.835
 3635SOL    HW211805   1.703   0.143   2.986
 3636SOL     OW11806   6.778   5.923   4.730
 3636SOL    HW111807   6.824   5.836   4.745
 3636SOL    HW211808   6.738   5.955   4.816
 3637SOL     OW11809   5.329   2.749   6.553
 3637SOL    HW111810   5.361   2.719   6.463
 3637SOL    HW211811   5.249   2.695   6.580
 3638SOL     OW11812   0.626   2.643   3.706
 3638SOL    HW111813   0.680   2.727   3.696
 3638SOL    HW211814   0.642   2.603   3.796
 3639SOL     OW11815   3.892   3.342   4.146
 3639SOL    HW111816   3.981   3.384   4.160
 3639SOL    HW211817   3.895   3.283   4.066
 3640SOL     OW11818   4.934   1.489   2.253
 3640SOL    HW111819   4.840   1.461   2.235
 3640SOL    HW211820   4.948   1.583   2.220
 3641SOL     OW11821   0.523   3.474   1.834
 3641SOL    HW111822   0.568   3.542   1.776
 3641SOL    HW211823   0.424   3.480   1.821
 3642SOL     OW11824   4.565   4.349   6.124
 3642SOL    HW111825   4.613   4.348   6.212
 3642SOL    HW211826   4.606   4.281   6.063
 3643SOL     OW11827   4.547   5.759   4.791
 3643SOL    HW111828   4.486   5.685   4.766
 3643SOL    HW211829   4.575   5.748   4.887
 3644SOL     OW11830   3.253   1.222   1.901
 3644SOL    HW111831   3.197   1.298   1.934
 3644SOL    HW211832   3.292   1.245   1.812
 3645SOL     OW11833   2.274   4.150   3.226
 3645SOL    HW111834   2.275   4.054   3.256
 3645SOL    HW211835   2.264   4.155   3.127
 3646SOL     OW11836   2.354   5.071   5.179
 3646SOL    HW111837   2.330   4.982   5.143
 3646SOL    HW211838   2.329   5.076   5.276
 3647SOL     OW11839   3.326   0.164   0.704
 3647SOL    HW111840   3.289   0.251   0.673
 3647SOL    HW211841   3.400   0.180   0.770
 3648SOL     OW11842   5.331   4.663   3.373
 3648SOL    HW111843   5.368   4.723   3.302
 3648SOL    HW211844   5.355   4.698   3.463
 3649SOL     OW11845   5.765   2.690   0.310
 3649SOL    HW111846   5.803   2.667   0.221
 3649SOL    HW211847   5.688   2.753   0.299
 3650SOL     OW11848   5.364   6.740   0.239
 3650SOL    HW111849   5.348   6.642   0.229
 3650SOL    HW211850   5.462   6.759   0.236
 3651SOL     OW11851   1.137   1.939   6.224
 3651SOL    HW111852   1.164   1.944   6.129
 3651SOL    HW211853   1.059   1.877   6.233
 3652SOL     OW11854   5.760   2.188   2.373
 3652SOL    HW111855   5.794   2.152   2.459
 3652SOL    HW211856   5.799   2.279   2.356
 3653SOL     OW11857   2.592   1.926   0.601
 3653SOL    HW111858   2.691   1.942   0.597
 3653SOL    HW211859   2.564   1.913   0.696
 3654SOL     OW11860   4.014   6.398   1.156
 3654SOL    HW111861   3.986   6.490   1.184
 3654SOL    HW211862   3.933   6.346   1.127
 3655SOL     OW11863   1.247   0.483   4.554
 3655SOL    HW111864   1.185   0.406   4.541
 3655SOL    HW211865   1.276   0.518   4.465
 3656SOL     OW11866   0.380   0.604   0.887
 3656SOL    HW111867   0.364   0.700   0.911
 3656SOL    HW211868   0.446   0.598   0.813
 3657SOL     OW11869   6.354   4.775   6.306
 3657SOL    HW111870   6.257   4.759   6.285
 3657SOL    HW211871   6.364   4.863   6.353
 3658SOL     OW11872   1.379   4.849   5.493
 3658SOL    HW111873   1.339   4.798   5.570
 3658SOL    HW211874   1.468   4.809   5.469
 3659SOL     OW11875   0.753   2.047   0.101
 3659SOL    HW111876   0.712   2.037   0.010
 3659SOL    HW211877   0.703   2.117   0.153
 3660SOL     OW11878   4.222   4.802   4.749
 3660SOL    HW111879   4.259   4.721   4.795
 3660SOL    HW211880   4.296   4.866   4.729
 3661SOL     OW11881   1.354   1.285   5.297
 3661SOL    HW111882   1.312   1.337   5.372
 3661SOL    HW211883   1.303   1.301   5.213
 3662SOL     OW11884   3.799   2.482   5.664
 3662SOL    HW111885   3.816   2.463   5.761
 3662SOL    HW211886   3.727   2.552   5.656
 3663SOL     OW11887   1.239   2.441   5.727
 3663SOL    HW111888   1.141   2.459   5.741
 3663SOL    HW211889   1.257   2.433   5.629
 3664SOL     OW11890   2.350   1.781   0.684
 3664SOL    HW111891   2.385   1.714   0.618
 3664SOL    HW211892   2.324   1.734   0.768
 3665SOL     OW11893   0.180   6.392   4.577
 3665SOL    HW111894   0.269   6.427   4.546
 3665SOL    HW211895   0.136   6.342   4.503
 3666SOL     OW11896   2.081   3.602   4.913
 3666SOL    HW111897   2.115   3.579   4.822
 3666SOL    HW211898   2.145   3.568   4.982
 3667SOL     OW11899   2.460   6.544   1.430
 3667SOL    HW111900   2.528   6.483   1.388
 3667SOL    HW211901   2.502   6.592   1.507
 3668SOL     OW11902   4.949   1.229   0.652
 3668SOL    HW111903   4.999   1.280   0.722
 3668SOL    HW211904   4.977   1.133   0.655
 3669SOL     OW11905   6.717   0.732   2.186
 3669SOL    HW111906   6.748   0.649   2.232
 3669SOL    HW211907   6.617   0.734   2.185
 3670SOL     OW11908   2.277   6.778   2.724
 3670SOL    HW111909   2.252   6.783   2.627
 3670SOL    HW211910   2.209   6.827   2.778
 3671SOL     OW11911   0.490   0.523   5.563
 3671SOL    HW111912   0.481   0.448   5.498
 3671SOL    HW211913   0.479   0.610   5.516
 3672SOL     OW11914   3.218   0.566   3.738
 3672SOL    HW111915   3.131   0.573   3.688
 3672SOL    HW211916   3.202   0.586   3.835
 3673SOL     OW11917   3.162   1.256   1.224
 3673SOL    HW111918   3.090   1.260   1.155
 3673SOL    HW211919   3.124   1.280   1.313
 3674SOL     OW11920   6.965   4.920   5.981
 3674SOL    HW111921   6.986   4.923   6.079
 3674SOL    HW211922   6.939   4.827   5.955
 3675SOL     OW11923   6.048   0.477   5.074
 3675SOL    HW111924   5.998   0.546   5.125
 3675SOL    HW211925   6.101   0.521   5.002
 3676SOL     OW11926   1.948   0.856   5.533
 3676SOL    HW111927   1.993   0.772   5.564
 3676SOL    HW211928   2.006   0.901   5.465
 3677SOL     OW11929   1.003   0.707   4.802
 3677SOL    HW111930   0.967   0.786   4.852
 3677SOL    HW211931   1.103   0.708   4.806
 3678SOL     OW11932   2.726   0.534   3.482
 3678SOL    HW111933   2.683   0.577   3.562
 3678SOL    HW211934   2.683   0.569   3.399
 3679SOL     OW11935   3.319   0.781   1.960
 3679SOL    HW111936   3.244   0.834   1.920
 3679SOL    HW211937   3.288   0.738   2.045
 3680SOL     OW11938   4.368   1.817   4.290
 3680SOL    HW111939   4.391   1.893   4.228
 3680SOL    HW211940   4.325   1.744   4.238
 3681SOL     OW11941   1.297   5.196   3.413
 3681SOL    HW111942   1.386   5.153   3.430
 3681SOL    HW211943   1.250   5.212   3.500
 3682SOL     OW11944   5.391   1.298   1.732
 3682SOL    HW111945   5.348   1.264   1.816
 3682SOL    HW211946   5.403   1.222   1.668
 3683SOL     OW11947   6.506   2.003   1.359
 3683SOL    HW111948   6.494   2.097   1.390
 3683SOL    HW211949   6.597   1.993   1.318
 3684SOL     OW11950   2.979   5.985   5.359
 3684SOL    HW111951   2.995   6.041   5.278
 3684SOL    HW211952   2.992   5.888   5.335
 3685SOL     OW11953   1.804   6.886   3.157
 3685SOL    HW111954   1.759   6.806   3.196
 3685SOL    HW211955   1.785   6.890   3.059
 3686SOL     OW11956   1.016   5.163   0.806
 3686SOL    HW111957   1.014   5.088   0.740
 3686SOL    HW211958   1.005   5.127   0.899
 3687SOL     OW11959   0.166   4.723   4.592
 3687SOL    HW111960   0.164   4.785   4.670
 3687SOL    HW211961   0.261   4.706   4.565
 3688SOL     OW11962   7.018   3.007   1.554
 3688SOL    HW111963   0.070   2.986   1.618
 3688SOL    HW211964   6.932   2.967   1.587
 3689SOL     OW11965   2.063   2.304   5.139
 3689SOL    HW111966   2.078   2.246   5.219
 3689SOL    HW211967   2.151   2.324   5.096
 3690SOL     OW11968   0.172   5.368   2.132
 3690SOL    HW111969   0.183   5.467   2.118
 3690SOL    HW211970   0.161   5.324   2.043
 3691SOL     OW11971   1.870   1.976   0.350
 3691SOL    HW111972   1.907   2.067   0.332
 3691SOL    HW211973   1.946   1.911   0.360
 3692SOL     OW11974   0.752   3.071   5.495
 3692SOL    HW111975   0.846   3.098   5.512
 3692SOL    HW211976   0.695   3.153   5.485
 3693SOL     OW11977   0.451   1.560   2.669
 3693SOL    HW111978   0.365   1.509   2.664
 3693SOL    HW211979   0.431   1.656   2.688
 3694SOL     OW11980   6.981   6.538   1.896
 3694SOL    HW111981   6.976   6.610   1.965
 3694SOL    HW211982   6.889   6.503   1.879
 3695SOL     OW11983   6.038   3.568   4.424
 3695SOL    HW111984   6.080   3.641   4.370
 3695SOL    HW211985   5.939   3.568   4.409
 3696SOL     OW11986   4.473   0.253   4.166
 3696SOL    HW111987   4.430   0.178   4.216
 3696SOL    HW211988   4.443   0.251   4.071
 3697SOL     OW11989   6.484   4.638   3.016
 3697SOL    HW111990   6.385   4.641   3.033
 3697SOL    HW211991   6.514   4.726   2.978
 3698SOL     OW11992   1.124   0.373   4.183
 3698SOL    HW111993   1.027   0.351   4.181
 3698SOL    HW211994   1.172   0.305   4.240
 3699SOL     OW11995   2.958   2.060   3.436
 3699SOL    HW111996   2.862   2.061   3.461
 3699SOL    HW211997   2.969   2.100   3.345
 3700SOL     OW11998   0.678   5.416   4.466
 3700SOL    HW111999   0.769   5.458   4.453
 3700SOL    HW212000   0.645   5.437   4.558
 3701SOL     OW12001   6.444   0.300   2.135
 3701SOL    HW112002   6.368   0.240   2.159
 3701SOL    HW212003   6.496   0.260   2.060
 3702SOL     OW12004   6.608   4.530   3.701
 3702SOL    HW112005   6.543   4.478   3.757
 3702SOL    HW212006   6.577   4.531   3.606
 3703SOL     OW12007   0.689   2.123   3.330
 3703SOL    HW112008   0.647   2.162   3.249
 3703SOL    HW212009   0.682   2.188   3.406
 3704SOL     OW12010   6.503   6.351   1.155
 3704SOL    HW112011   6.572   6.395   1.212
 3704SOL    HW212012   6.414   6.358   1.199
 3705SOL     OW12013   6.544   4.016   3.840
 3705SOL    HW112014   6.529   4.046   3.746
 3705SOL    HW212015   6.460   4.031   3.893
 3706SOL     OW12016   0.513   5.958   6.608
 3706SOL    HW112017   0.516   5.893   6.684
 3706SOL    HW212018   0.606   5.978   6.577
 3707SOL     OW12019   6.983   4.043   3.182
 3707SOL    HW112020   6.988   3.945   3.161
 3707SOL    HW212021   0.031   4.092   3.129
 3708SOL     OW12022   1.373   5.807   0.409
 3708SOL    HW112023   1.470   5.786   0.420
 3708SOL    HW212024   1.320   5.722   0.418
 3709SOL     OW12025   0.535   1.981   1.145
 3709SOL    HW112026   0.484   1.923   1.081
 3709SOL    HW212027   0.492   2.071   1.150
 3710SOL     OW12028   1.913   3.561   5.389
 3710SOL    HW112029   1.843   3.630   5.367
 3710SOL    HW212030   1.989   3.605   5.437
 3711SOL     OW12031   1.638   4.869   5.277
 3711SOL    HW112032   1.655   4.883   5.375
 3711SOL    HW212033   1.616   4.773   5.261
 3712SOL     OW12034   3.127   5.015   3.826
 3712SOL    HW112035   3.162   4.954   3.897
 3712SOL    HW212036   3.066   5.082   3.868
 3713SOL     OW12037   6.152   0.471   5.982
 3713SOL    HW112038   6.242   0.457   6.024
 3713SOL    HW212039   6.117   0.561   6.008
 3714SOL     OW12040   0.408   5.359   0.787
 3714SOL    HW112041   0.489   5.339   0.842
 3714SOL    HW212042   0.392   5.284   0.723
 3715SOL     OW12043   6.073   4.259   2.410
 3715SOL    HW112044   6.071   4.324   2.334
 3715SOL    HW212045   6.080   4.309   2.496
 3716SOL     OW12046   5.386   5.489   5.616
 3716SOL    HW112047   5.468   5.506   5.563
 3716SOL    HW212048   5.406   5.422   5.688
 3717SOL     OW12049   4.526   0.026   1.013
 3717SOL    HW112050   4.532   6.958   0.968
 3717SOL    HW212051   4.474   0.017   1.098
 3718SOL     OW12052   5.467   6.485   6.848
 3718SOL    HW112053   5.553   6.436   6.860
 3718SOL    HW212054   5.445   6.489   6.750
 3719SOL     OW12055   2.554   4.345   0.132
 3719SOL    HW112056   2.603   4.367   0.048
 3719SOL    HW212057   2.595   4.395   0.208
 3720SOL     OW12058   0.634   2.142   0.485
 3720SOL    HW112059   0.559   2.180   0.539
 3720SOL    HW212060   0.599   2.073   0.423
 3721SOL     OW12061   6.430   0.209   5.844
 3721SOL    HW112062   6.403   0.152   5.922
 3721SOL    HW212063   6.513   0.259   5.866
 3722SOL     OW12064   5.332   6.485   1.499
 3722SOL    HW112065   5.245   6.466   1.544
 3722SOL    HW212066   5.354   6.582   1.509
 3723SOL     OW12067   4.420   4.098   5.843
 3723SOL    HW112068   4.457   4.071   5.932
 3723SOL    HW212069   4.339   4.155   5.856
 3724SOL     OW12070   6.207   4.194   5.170
 3724SOL    HW112071   6.116   4.161   5.194
 3724SOL    HW212072   6.200   4.283   5.126
 3725SOL     OW12073   0.346   6.254   0.710
 3725SOL    HW112074   0.248   6.233   0.706
 3725SOL    HW212075   0.360   6.344   0.750
 3726SOL     OW12076   6.131   3.607   5.260
 3726SOL    HW112077   6.159   3.512   5.270
 3726SOL    HW212078   6.210   3.663   5.235
 3727SOL     OW12079   6.598   2.048   4.235
 3727SOL    HW112080   6.668   2.002   4.180
 3727SOL    HW212081   6.594   2.006   4.326
 3728SOL     OW12082   1.780   4.891   0.608
 3728SOL    HW112083   1.822   4.975   0.573
 3728SOL    HW212084   1.830   4.812   0.575
 3729SOL     OW12085   6.859   0.207   6.531
 3729SOL    HW112086   6.928   0.183   6.600
 3729SOL    HW212087   6.902   0.213   6.441
 3730SOL     OW12088   5.560   4.186   4.770
 3730SOL    HW112089   5.650   4.155   4.741
 3730SOL    HW212090   5.520   4.244   4.700
 3731SOL     OW12091   6.405   1.540   1.863
 3731SOL    HW112092   6.456   1.460   1.831
 3731SOL    HW212093   6.469   1.610   1.894
 3732SOL     OW12094   3.889   2.322   0.037
 3732SOL    HW112095   3.845   2.234   0.019
 3732SOL    HW212096   3.822   2.396   0.030
 3733SOL     OW12097   1.675   1.469   3.219
 3733SOL    HW112098   1.687   1.375   3.249
 3733SOL    HW212099   1.724   1.483   3.133
 3734SOL     OW12100   3.960   0.709   1.625
 3734SOL    HW112101   3.989   0.805   1.619
 3734SOL    HW212102   3.975   0.665   1.536
 3735SOL     OW12103   4.154   1.140   2.493
 3735SOL    HW112104   4.067   1.163   2.449
 3735SOL    HW212105   4.164   1.041   2.497
 3736SOL     OW12106   0.732   1.416   0.002
 3736SOL    HW112107   0.753   1.507   0.037
 3736SOL    HW212108   0.644   1.417   6.976
 3737SOL     OW12109   5.469   1.726   4.286
 3737SOL    HW112110   5.494   1.795   4.218
 3737SOL    HW212111   5.464   1.768   4.376
 3738SOL     OW12112   0.616   0.861   0.508
 3738SOL    HW112113   0.619   0.802   0.589
 3738SOL    HW212114   0.708   0.895   0.489
 3739SOL     OW12115   3.503   4.615   6.649
 3739SOL    HW112116   3.530   4.560   6.729
 3739SOL    HW212117   3.585   4.645   6.601
 3740SOL     OW12118   6.390   6.496   6.598
 3740SOL    HW112119   6.408   6.579   6.651
 3740SOL    HW212120   6.438   6.419   6.640
 3741SOL     OW12121   6.674   4.685   6.758
 3741SOL    HW112122   6.727   4.651   6.836
 3741SOL    HW212123   6.577   4.663   6.771
 3742SOL     OW12124   5.086   5.225   1.901
 3742SOL    HW112125   5.065   5.315   1.939
 3742SOL    HW212126   5.064   5.155   1.968
 3743SOL     OW12127   2.287   4.121   1.237
 3743SOL    HW112128   2.386   4.112   1.236
 3743SOL    HW212129   2.245   4.032   1.219
 3744SOL     OW12130   6.477   6.115   2.313
 3744SOL    HW112131   6.394   6.087   2.362
 3744SOL    HW212132   6.551   6.050   2.333
 3745SOL     OW12133   6.110   1.064   2.497
 3745SOL    HW112134   6.083   1.016   2.580
 3745SOL    HW212135   6.133   0.997   2.426
 3746SOL     OW12136   4.945   6.784   5.469
 3746SOL    HW112137   4.878   6.750   5.535
 3746SOL    HW212138   4.905   6.858   5.415
 3747SOL     OW12139   2.295   5.266   5.576
 3747SOL    HW112140   2.238   5.283   5.496
 3747SOL    HW212141   2.236   5.250   5.656
 3748SOL     OW12142   5.217   2.212   3.351
 3748SOL    HW112143   5.139   2.250   3.302
 3748SOL    HW212144   5.302   2.250   3.314
 3749SOL     OW12145   5.625   5.735   1.322
 3749SOL    HW112146   5.539   5.695   1.289
 3749SOL    HW212147   5.646   5.817   1.269
 3750SOL     OW12148   6.344   4.065   1.477
 3750SOL    HW112149   6.398   4.131   1.528
 3750SOL    HW212150   6.379   3.973   1.493
 3751SOL     OW12151   1.825   5.008   0.842
 3751SOL    HW112152   1.753   5.028   0.908
 3751SOL    HW212153   1.784   4.973   0.758
 3752SOL     OW12154   1.120   0.068   6.430
 3752SOL    HW112155   1.217   0.052   6.450
 3752SOL    HW212156   1.110   0.104   6.337
 3753SOL     OW12157   0.627   1.095   6.002
 3753SOL    HW112158   0.685   1.044   5.938
 3753SOL    HW212159   0.652   1.192   5.999
 3754SOL     OW12160   6.689   6.557   1.689
 3754SOL    HW112161   6.593   6.531   1.691
 3754SOL    HW212162   6.743   6.489   1.739
 3755SOL     OW12163   4.437   2.221   3.098
 3755SOL    HW112164   4.501   2.272   3.156
 3755SOL    HW212165   4.485   2.146   3.053
 3756SOL     OW12166   3.492   0.064   0.188
 3756SOL    HW112167   3.564   0.001   0.217
 3756SOL    HW212168   3.434   0.088   0.265
 3757SOL     OW12169   3.156   4.309   5.420
 3757SOL    HW112170   3.229   4.377   5.433
 3757SOL    HW212171   3.195   4.228   5.377
 3758SOL     OW12172   6.874   0.579   1.993
 3758SOL    HW112173   6.918   0.661   1.955
 3758SOL    HW212174   6.790   0.606   2.040
 3759SOL     OW12175   5.078   4.128   0.437
 3759SOL    HW112176   5.084   4.103   0.341
 3759SOL    HW212177   5.057   4.047   0.492
 3760SOL     OW12178   2.039   1.781   6.082
 3760SOL    HW112179   2.136   1.806   6.082
 3760SOL    HW212180   1.985   1.857   6.047
 3761SOL     OW12181   6.982   6.019   4.294
 3761SOL    HW112182   6.905   6.071   4.330
 3761SOL    HW212183   6.951   5.930   4.261
 3762SOL     OW12184   0.440   3.804   0.847
 3762SOL    HW112185   0.397   3.891   0.824
 3762SOL    HW212186   0.436   3.790   0.946
 3763SOL     OW12187   0.200   2.800   4.741
 3763SOL    HW112188   0.253   2.817   4.658
 3763SOL    HW212189   0.122   2.742   4.719
 3764SOL     OW12190   2.188   0.272   3.201
 3764SOL    HW112191   2.112   0.329   3.170
 3764SOL    HW212192   2.215   0.210   3.128
 3765SOL     OW12193   6.124   1.139   3.807
 3765SOL    HW112194   6.101   1.061   3.749
 3765SOL    HW212195   6.212   1.121   3.852
 3766SOL     OW12196   2.375   1.417   4.614
 3766SOL    HW112197   2.425   1.408   4.528
 3766SOL    HW212198   2.406   1.348   4.679
 3767SOL     OW12199   6.849   4.264   1.248
 3767SOL    HW112200   6.803   4.175   1.256
 3767SOL    HW212201   6.877   4.295   1.339
 3768SOL     OW12202   4.955   6.631   0.842
 3768SOL    HW112203   4.912   6.541   0.849
 3768SOL    HW212204   5.054   6.622   0.850
 3769SOL     OW12205   4.122   6.547   4.751
 3769SOL    HW112206   4.151   6.471   4.809
 3769SOL    HW212207   4.133   6.633   4.801
 3770SOL     OW12208   1.834   3.035   0.105
 3770SOL    HW112209   1.776   2.980   0.165
 3770SOL    HW212210   1.905   2.976   0.065
 3771SOL     OW12211   4.898   1.712   5.858
 3771SOL    HW112212   4.929   1.686   5.950
 3771SOL    HW212213   4.886   1.811   5.854
 3772SOL     OW12214   5.674   0.747   2.820
 3772SOL    HW112215   5.741   0.687   2.775
 3772SOL    HW212216   5.628   0.803   2.751
 3773SOL     OW12217   6.736   2.283   0.966
 3773SOL    HW112218   6.683   2.284   1.051
 3773SOL    HW212219   6.673   2.287   0.888
 3774SOL     OW12220   1.289   1.625   1.559
 3774SOL    HW112221   1.385   1.602   1.546
 3774SOL    HW212222   1.248   1.564   1.626
 3775SOL     OW12223   5.527   2.795   3.320
 3775SOL    HW112224   5.487   2.848   3.395
 3775SOL    HW212225   5.456   2.741   3.275
 3776SOL     OW12226   2.864   2.252   6.684
 3776SOL    HW112227   2.820   2.242   6.595
 3776SOL    HW212228   2.794   2.260   6.755
 3777SOL     OW12229   1.474   4.071   3.371
 3777SOL    HW112230   1.533   4.095   3.294
 3777SOL    HW212231   1.451   4.154   3.422
 3778SOL     OW12232   1.977   0.422   1.809
 3778SOL    HW112233   2.021   0.346   1.857
 3778SOL    HW212234   1.899   0.455   1.863
 3779SOL     OW12235   1.696   5.008   6.621
 3779SOL    HW112236   1.660   5.017   6.529
 3779SOL    HW212237   1.796   5.015   6.619
 3780SOL     OW12238   2.069   0.143   4.234
 3780SOL    HW112239   1.992   0.200   4.205
 3780SOL    HW212240   2.149   0.163   4.178
 3781SOL     OW12241   2.970   5.219   4.605
 3781SOL    HW112242   2.953   5.263   4.517
 3781SOL    HW212243   3.026   5.278   4.663
 3782SOL     OW12244   2.692   1.205   2.222
 3782SOL    HW112245   2.611   1.181   2.275
 3782SOL    HW212246   2.748   1.123   2.207
 3783SOL     OW12247   5.388   4.845   4.871
 3783SOL    HW112248   5.431   4.934   4.886
 3783SOL    HW212249   5.361   4.806   4.959
 3784SOL     OW12250   4.694   2.496   4.501
 3784SOL    HW112251   4.765   2.520   4.435
 3784SOL    HW212252   4.684   2.397   4.504
 3785SOL     OW12253   0.463   0.274   2.156
 3785SOL    HW112254   0.413   0.195   2.122
 3785SOL    HW212255   0.464   0.346   2.087
 3786SOL     OW12256   2.503   6.239   1.347
 3786SOL    HW112257   2.594   6.211   1.378
 3786SOL    HW212258   2.510   6.324   1.295
 3787SOL     OW12259   4.810   1.095   3.386
 3787SOL    HW112260   4.761   1.048   3.460
 3787SOL    HW212261   4.787   1.192   3.387
 3788SOL     OW12262   6.920   3.113   2.521
 3788SOL    HW112263   6.871   3.158   2.446
 3788SOL    HW212264   6.949   3.022   2.491
 3789SOL     OW12265   2.096   5.347   2.362
 3789SOL    HW112266   2.046   5.428   2.329
 3789SOL    HW212267   2.130   5.365   2.455
 3790SOL     OW12268   1.613   3.211   2.132
 3790SOL    HW112269   1.582   3.270   2.206
 3790SOL    HW212270   1.689   3.255   2.084
 3791SOL     OW12271   6.641   0.636   2.979
 3791SOL    HW112272   6.635   0.682   3.067
 3791SOL    HW212273   6.557   0.584   2.962
 3792SOL     OW12274   1.131   5.472   6.181
 3792SOL    HW112275   1.198   5.494   6.252
 3792SOL    HW212276   1.104   5.376   6.188
 3793SOL     OW12277   6.959   5.865   2.808
 3793SOL    HW112278   6.921   5.798   2.744
 3793SOL    HW212279   6.918   5.955   2.790
 3794SOL     OW12280   4.229   0.094   3.868
 3794SOL    HW112281   4.285   0.167   3.907
 3794SOL    HW212282   4.287   0.030   3.818
 3795SOL     OW12283   5.946   0.276   0.759
 3795SOL    HW112284   6.045   0.279   0.770
 3795SOL    HW212285   5.903   0.262   0.848
 3796SOL     OW12286   0.291   2.741   1.466
 3796SOL    HW112287   0.316   2.750   1.562
 3796SOL    HW212288   0.316   2.650   1.434
 3797SOL     OW12289   7.005   5.669   2.558
 3797SOL    HW112290   0.012   5.721   2.477
 3797SOL    HW212291   0.057   5.670   2.625
 3798SOL     OW12292   1.385   4.519   0.052
 3798SOL    HW112293   1.473   4.497   0.011
 3798SOL    HW212294   1.371   4.618   0.052
 3799SOL     OW12295   0.958   0.493   5.436
 3799SOL    HW112296   0.999   0.558   5.371
 3799SOL    HW212297   0.993   0.401   5.417
 3800SOL     OW12298   5.017   2.356   4.663
 3800SOL    HW112299   5.000   2.439   4.716
 3800SOL    HW212300   5.089   2.374   4.596
 3801SOL     OW12301   6.641   0.323   6.098
 3801SOL    HW112302   6.666   0.311   6.002
 3801SOL    HW212303   6.696   0.396   6.138
 3802SOL     OW12304   1.947   2.518   5.020
 3802SOL    HW112305   1.979   2.434   5.064
 3802SOL    HW212306   1.957   2.510   4.921
 3803SOL     OW12307   4.361   1.371   1.468
 3803SOL    HW112308   4.290   1.315   1.511
 3803SOL    HW212309   4.437   1.383   1.532
 3804SOL     OW12310   5.207   3.659   4.952
 3804SOL    HW112311   5.154   3.600   5.012
 3804SOL    HW212312   5.188   3.636   4.857
 3805SOL     OW12313   1.820   3.657   1.586
 3805SOL    HW112314   1.737   3.699   1.621
 3805SOL    HW212315   1.893   3.665   1.654
 3806SOL     OW12316   3.383   0.807   7.008
 3806SOL    HW112317   3.339   0.719   6.991
 3806SOL    HW212318   3.322   0.881   6.983
 3807SOL     OW12319   1.598   6.630   2.938
 3807SOL    HW112320   1.652   6.551   2.965
 3807SOL    HW212321   1.503   6.602   2.923
 3808SOL     OW12322   4.054   0.933   0.545
 3808SOL    HW112323   3.974   0.899   0.594
 3808SOL    HW212324   4.025   0.974   0.459
 3809SOL     OW12325   4.262   1.131   0.288
 3809SOL    HW112326   4.301   1.043   0.314
 3809SOL    HW212327   4.269   1.194   0.366
 3810SOL     OW12328   2.027   3.938   6.869
 3810SOL    HW112329   1.952   3.982   6.918
 3810SOL    HW212330   1.998   3.917   6.775
 3811SOL     OW12331   6.947   0.595   6.341
 3811SOL    HW112332   6.879   0.545   6.395
 3811SOL    HW212333   6.936   0.693   6.355
 3812SOL     OW12334   4.371   0.811   5.941
 3812SOL    HW112335   4.404   0.892   5.891
 3812SOL    HW212336   4.282   0.784   5.905
 3813SOL     OW12337   3.860   4.965   1.960
 3813SOL    HW112338   3.857   4.947   2.058
 3813SOL    HW212339   3.798   4.903   1.912
 3814SOL     OW12340   2.214   0.536   1.771
 3814SOL    HW112341   2.123   0.496   1.784
 3814SOL    HW212342   2.206   0.617   1.712
 3815SOL     OW12343   5.591   1.992   2.296
 3815SOL    HW112344   5.647   2.065   2.334
 3815SOL    HW212345   5.641   1.905   2.300
 3816SOL     OW12346   0.464   6.241   0.479
 3816SOL    HW112347   0.426   6.234   0.571
 3816SOL    HW212348   0.509   6.330   0.467
 3817SOL     OW12349   5.555   1.881   5.238
 3817SOL    HW112350   5.499   1.935   5.176
 3817SOL    HW212351   5.624   1.830   5.185
 3818SOL     OW12352   3.423   5.935   3.251
 3818SOL    HW112353   3.382   5.904   3.165
 3818SOL    HW212354   3.448   6.032   3.243
 3819SOL     OW12355   5.256   3.574   6.393
 3819SOL    HW112356   5.270   3.673   6.390
 3819SOL    HW212357   5.228   3.547   6.484
 3820SOL     OW12358   4.273   6.136   3.285
 3820SOL    HW112359   4.214   6.099   3.357
 3820SOL    HW212360   4.359   6.167   3.325
 3821SOL     OW12361   0.087   4.542   1.464
 3821SOL    HW112362   0.098   4.443   1.476
 3821SOL    HW212363   0.121   4.569   1.374
 3822SOL     OW12364   0.839   3.772   1.243
 3822SOL    HW112365   0.913   3.744   1.181
 3822SOL    HW212366   0.834   3.708   1.320
 3823SOL     OW12367   2.636   3.446   5.575
 3823SOL    HW112368   2.678   3.404   5.495
 3823SOL    HW212369   2.641   3.546   5.566
 3824SOL     OW12370   0.580   2.517   6.070
 3824SOL    HW112371   0.495   2.512   6.018
 3824SOL    HW212372   0.559   2.509   6.168
 3825SOL     OW12373   0.594   6.300   6.093
 3825SOL    HW112374   0.579   6.311   6.191
 3825SOL    HW212375   0.640   6.381   6.057
 3826SOL     OW12376   6.372   1.910   1.869
 3826SOL    HW112377   6.358   1.964   1.952
 3826SOL    HW212378   6.445   1.843   1.885
 3827SOL     OW12379   5.222   1.880   2.292
 3827SOL    HW112380   5.248   1.906   2.199
 3827SOL    HW212381   5.301   1.842   2.340
 3828SOL     OW12382   3.769   1.191   1.420
 3828SOL    HW112383   3.757   1.141   1.506
 3828SOL    HW212384   3.685   1.187   1.367
 3829SOL     OW12385   0.867   4.883   3.564
 3829SOL    HW112386   0.841   4.834   3.480
 3829SOL    HW212387   0.848   4.980   3.553
 3830SOL     OW12388   2.458   0.233   5.240
 3830SOL    HW112389   2.388   0.294   5.276
 3830SOL    HW212390   2.520   0.206   5.313
 3831SOL     OW12391   4.985   1.760   2.210
 3831SOL    HW112392   5.065   1.813   2.239
 3831SOL    HW212393   4.980   1.759   2.110
 3832SOL     OW12394   5.947   6.886   2.176
 3832SOL    HW112395   5.915   6.949   2.247
 3832SOL    HW212396   5.895   6.901   2.092
 3833SOL     OW12397   1.500   6.613   2.662
 3833SOL    HW112398   1.489   6.650   2.570
 3833SOL    HW212399   1.518   6.688   2.726
 3834SOL     OW12400   3.421   3.065   0.508
 3834SOL    HW112401   3.437   3.017   0.422
 3834SOL    HW212402   3.331   3.109   0.505
 3835SOL     OW12403   2.866   5.061   3.020
 3835SOL    HW112404   2.951   5.071   3.071
 3835SOL    HW212405   2.836   4.965   3.025
 3836SOL     OW12406   1.193   2.976   6.266
 3836SOL    HW112407   1.124   2.928   6.320
 3836SOL    HW212408   1.158   2.993   6.174
 3837SOL     OW12409   3.142   4.487   6.464
 3837SOL    HW112410   3.081   4.556   6.502
 3837SOL    HW212411   3.101   4.447   6.382
 3838SOL     OW12412   6.958   3.260   4.834
 3838SOL    HW112413   6.962   3.167   4.869
 3838SOL    HW212414   0.025   3.285   4.795
 3839SOL     OW12415   0.626   6.200   0.149
 3839SOL    HW112416   0.586   6.162   0.232
 3839SOL    HW212417   0.555   6.211   0.079
 3840SOL     OW12418   2.986   2.223   3.196
 3840SOL    HW112419   3.083   2.202   3.205
 3840SOL    HW212420   2.972   2.285   3.119
 3841SOL     OW12421   1.139   3.039   3.777
 3841SOL    HW112422   1.204   3.030   3.701
 3841SOL    HW212423   1.078   3.115   3.759
 3842SOL     OW12424   1.108   4.953   6.773
 3842SOL    HW112425   1.025   4.991   6.731
 3842SOL    HW212426   1.082   4.893   6.848
 3843SOL     OW12427   0.044   4.651   6.906
 3843SOL    HW112428   0.112   4.669   6.835
 3843SOL    HW212429   7.014   4.568   6.882
 3844SOL     OW12430   2.764   4.379   5.816
 3844SOL    HW112431   2.852   4.348   5.782
 3844SOL    HW212432   2.735   4.459   5.764
 3845SOL     OW12433   3.146   3.461   4.041
 3845SOL    HW112434   3.098   3.423   4.120
 3845SOL    HW212435   3.102   3.430   3.957
 3846SOL     OW12436   6.682   4.695   4.821
 3846SOL    HW112437   6.623   4.688   4.901
 3846SOL    HW212438   6.699   4.603   4.785
 3847SOL     OW12439   1.554   6.766   1.001
 3847SOL    HW112440   1.464   6.756   0.957
 3847SOL    HW212441   1.562   6.859   1.038
 3848SOL     OW12442   2.827   6.274   2.160
 3848SOL    HW112443   2.885   6.237   2.087
 3848SOL    HW212444   2.733   6.241   2.147
 3849SOL     OW12445   2.598   1.433   5.298
 3849SOL    HW112446   2.599   1.335   5.317
 3849SOL    HW212447   2.681   1.458   5.248
 3850SOL     OW12448   1.297   3.333   1.379
 3850SOL    HW112449   1.365   3.407   1.381
 3850SOL    HW212450   1.329   3.261   1.317
 3851SOL     OW12451   2.643   2.959   0.628
 3851SOL    HW112452   2.594   2.877   0.657
 3851SOL    HW212453   2.672   3.011   0.709
 3852SOL     OW12454   4.764   0.926   5.251
 3852SOL    HW112455   4.786   1.009   5.302
 3852SOL    HW212456   4.666   0.923   5.233
 3853SOL     OW12457   0.207   3.455   2.326
 3853SOL    HW112458   0.172   3.474   2.234
 3853SOL    HW212459   0.283   3.518   2.345
 3854SOL     OW12460   1.350   3.541   4.235
 3854SOL    HW112461   1.333   3.559   4.332
 3854SOL    HW212462   1.394   3.452   4.225
 3855SOL     OW12463   6.936   1.443   4.934
 3855SOL    HW112464   7.001   1.424   5.008
 3855SOL    HW212465   6.984   1.488   4.859
 3856SOL     OW12466   0.937   6.161   6.308
 3856SOL    HW112467   1.010   6.093   6.307
 3856SOL    HW212468   0.969   6.243   6.355
 3857SOL     OW12469   6.813   0.247   6.876
 3857SOL    HW112470   6.888   0.222   6.815
 3857SOL    HW212471   6.849   0.299   6.953
 3858SOL     OW12472   4.186   4.779   6.762
 3858SOL    HW112473   4.111   4.814   6.706
 3858SOL    HW212474   4.164   4.686   6.793
 3859SOL     OW12475   6.633   2.631   2.352
 3859SOL    HW112476   6.621   2.671   2.261
 3859SOL    HW212477   6.726   2.650   2.385
 3860SOL     OW12478   2.352   6.087   4.826
 3860SOL    HW112479   2.411   6.007   4.813
 3860SOL    HW212480   2.270   6.059   4.875
 3861SOL     OW12481   3.015   4.280   0.018
 3861SOL    HW112482   2.967   4.351   0.071
 3861SOL    HW212483   2.976   4.275   6.947
 3862SOL     OW12484   0.987   6.270   5.488
 3862SOL    HW112485   0.968   6.353   5.436
 3862SOL    HW212486   0.909   6.249   5.547
 3863SOL     OW12487   2.408   2.725   0.438
 3863SOL    HW112488   2.489   2.748   0.383
 3863SOL    HW212489   2.430   2.732   0.535
 3864SOL     OW12490   3.461   1.984   1.444
 3864SOL    HW112491   3.515   2.063   1.417
 3864SOL    HW212492   3.509   1.934   1.516
 3865SOL     OW12493   3.868   1.049   1.957
 3865SOL    HW112494   3.802   0.979   1.984
 3865SOL    HW212495   3.961   1.017   1.976
 3866SOL     OW12496   4.310   6.143   0.173
 3866SOL    HW112497   4.383   6.152   0.241
 3866SOL    HW212498   4.291   6.046   0.157
 3867SOL     OW12499   1.649   4.782   3.148
 3867SOL    HW112500   1.704   4.762   3.230
 3867SOL    HW212501   1.711   4.808   3.074
 3868SOL     OW12502   1.979   5.043   3.172
 3868SOL    HW112503   1.962   5.018   3.268
 3868SOL    HW212504   1.925   4.985   3.112
 3869SOL     OW12505   0.930   1.341   3.844
 3869SOL    HW112506   0.837   1.323   3.814
 3869SOL    HW212507   0.995   1.310   3.774
 3870SOL     OW12508   3.980   3.789   0.098
 3870SOL    HW112509   4.062   3.795   0.154
 3870SOL    HW212510   3.977   3.701   0.051
 3871SOL     OW12511   3.144   0.716   4.439
 3871SOL    HW112512   3.051   0.749   4.424
 3871SOL    HW212513   3.208   0.793   4.439
 3872SOL     OW12514   4.802   4.187   0.926
 3872SOL    HW112515   4.756   4.107   0.965
 3872SOL    HW212516   4.861   4.229   0.995
 3873SOL     OW12517   6.562   4.688   1.850
 3873SOL    HW112518   6.556   4.772   1.795
 3873SOL    HW212519   6.658   4.664   1.863
 3874SOL     OW12520   5.591   6.323   5.928
 3874SOL    HW112521   5.661   6.307   5.998
 3874SOL    HW212522   5.544   6.409   5.946
 3875SOL     OW12523   3.090   3.446   0.262
 3875SOL    HW112524   3.026   3.372   0.282
 3875SOL    HW212525   3.162   3.448   0.332
 3876SOL     OW12526   5.356   3.836   2.841
 3876SOL    HW112527   5.333   3.773   2.767
 3876SOL    HW212528   5.453   3.829   2.862
 3877SOL     OW12529   4.511   2.122   2.128
 3877SOL    HW112530   4.463   2.109   2.214
 3877SOL    HW212531   4.447   2.114   2.052
 3878SOL     OW12532   5.636   5.689   4.811
 3878SOL    HW112533   5.636   5.749   4.891
 3878SOL    HW212534   5.659   5.596   4.839
 3879SOL     OW12535   2.312   5.838   0.472
 3879SOL    HW112536   2.374   5.841   0.551
 3879SOL    HW212537   2.291   5.931   0.443
 3880SOL     OW12538   6.096   1.317   4.576
 3880SOL    HW112539   6.131   1.233   4.535
 3880SOL    HW212540   6.000   1.330   4.550
 3881SOL     OW12541   0.397   6.061   5.651
 3881SOL    HW112542   0.377   6.100   5.561
 3881SOL    HW212543   0.465   5.989   5.641
 3882SOL     OW12544   0.070   6.134   0.006
 3882SOL    HW112545   0.152   6.079   0.023
 3882SOL    HW212546   0.024   6.100   6.945
 3883SOL     OW12547   3.863   1.895   0.335
 3883SOL    HW112548   3.841   1.846   0.420
 3883SOL    HW212549   3.953   1.865   0.302
 3884SOL     OW12550   2.862   5.868   5.776
 3884SOL    HW112551   2.936   5.801   5.772
 3884SOL    HW212552   2.777   5.823   5.803
 3885SOL     OW12553   0.177   0.958   3.849
 3885SOL    HW112554   0.189   1.018   3.769
 3885SOL    HW212555   0.144   1.011   3.926
 3886SOL     OW12556   6.999   6.084   4.682
 3886SOL    HW112557   6.987   6.143   4.602
 3886SOL    HW212558   6.915   6.033   4.699
 3887SOL     OW12559   6.894   3.070   5.345
 3887SOL    HW112560   6.921   3.007   5.272
 3887SOL    HW212561   6.868   3.158   5.305
 3888SOL     OW12562   4.965   1.935   3.428
 3888SOL    HW112563   5.061   1.932   3.402
 3888SOL    HW212564   4.952   1.886   3.514
 3889SOL     OW12565   6.456   5.759   0.464
 3889SOL    HW112566   6.525   5.817   0.507
 3889SOL    HW212567   6.454   5.670   0.509
 3890SOL     OW12568   6.121   2.982   3.494
 3890SOL    HW112569   6.140   2.891   3.458
 3890SOL    HW212570   6.058   3.030   3.432
 3891SOL     OW12571   3.866   4.338   6.266
 3891SOL    HW112572   3.837   4.421   6.314
 3891SOL    HW212573   3.797   4.313   6.199
 3892SOL     OW12574   5.285   5.698   3.711
 3892SOL    HW112575   5.214   5.690   3.642
 3892SOL    HW212576   5.243   5.701   3.802
 3893SOL     OW12577   2.620   5.980   4.756
 3893SOL    HW112578   2.670   6.041   4.818
 3893SOL    HW212579   2.685   5.934   4.695
 3894SOL     OW12580   5.716   5.689   5.916
 3894SOL    HW112581   5.679   5.758   5.979
 3894SOL    HW212582   5.782   5.632   5.964
 3895SOL     OW12583   1.238   1.788   5.342
 3895SOL    HW112584   1.332   1.790   5.377
 3895SOL    HW212585   1.178   1.748   5.411
 3896SOL     OW12586   6.698   2.532   0.463
 3896SOL    HW112587   6.778   2.526   0.523
 3896SOL    HW212588   6.702   2.458   0.395
 3897SOL     OW12589   2.678   0.259   3.184
 3897SOL    HW112590   2.584   0.266   3.218
 3897SOL    HW212591   2.704   0.346   3.141
 3898SOL     OW12592   3.536   4.119   3.394
 3898SOL    HW112593   3.543   4.130   3.493
 3898SOL    HW212594   3.627   4.108   3.355
 3899SOL     OW12595   4.833   1.824   6.240
 3899SOL    HW112596   4.853   1.872   6.325
 3899SOL    HW212597   4.736   1.803   6.235
 3900SOL     OW12598   1.046   2.478   4.090
 3900SOL    HW112599   0.962   2.500   4.140
 3900SOL    HW212600   1.105   2.559   4.086
 3901SOL     OW12601   3.776   6.271   4.441
 3901SOL    HW112602   3.811   6.330   4.515
 3901SOL    HW212603   3.730   6.327   4.373
 3902SOL     OW12604   2.658   5.320   3.191
 3902SOL    HW112605   2.676   5.245   3.255
 3902SOL    HW212606   2.563   5.316   3.160
 3903SOL     OW12607   2.865   3.803   6.246
 3903SOL    HW112608   2.922   3.791   6.165
 3903SOL    HW212609   2.803   3.880   6.232
 3904SOL     OW12610   2.610   6.152   0.829
 3904SOL    HW112611   2.695   6.109   0.799
 3904SOL    HW212612   2.630   6.232   0.884
 3905SOL     OW12613   4.074   6.580   5.394
 3905SOL    HW112614   4.133   6.560   5.316
 3905SOL    HW212615   4.084   6.509   5.463
 3906SOL     OW12616   6.567   5.941   4.171
 3906SOL    HW112617   6.587   5.845   4.152
 3906SOL    HW212618   6.469   5.954   4.178
 3907SOL     OW12619   1.232   1.235   5.061
 3907SOL    HW112620   1.263   1.166   4.997
 3907SOL    HW212621   1.141   1.268   5.033
 3908SOL     OW12622   2.116   1.760   4.893
 3908SOL    HW112623   2.118   1.716   4.804
 3908SOL    HW212624   2.136   1.857   4.883
 3909SOL     OW12625   6.359   3.443   2.386
 3909SOL    HW112626   6.444   3.494   2.379
 3909SOL    HW212627   6.288   3.501   2.427
 3910SOL     OW12628   2.012   2.192   0.254
 3910SOL    HW112629   1.984   2.285   0.232
 3910SOL    HW212630   2.102   2.174   0.214
 3911SOL     OW12631   6.066   0.997   1.948
 3911SOL    HW112632   5.983   0.993   1.893
 3911SOL    HW212633   6.105   0.905   1.956
 3912SOL     OW12634   4.779   4.481   0.309
 3912SOL    HW112635   4.700   4.519   0.358
 3912SOL    HW212636   4.846   4.447   0.375
 3913SOL     OW12637   4.225   4.509   0.998
 3913SOL    HW112638   4.199   4.413   0.999
 3913SOL    HW212639   4.212   4.548   1.090
 3914SOL     OW12640   0.442   1.072   0.509
 3914SOL    HW112641   0.358   1.038   0.551
 3914SOL    HW212642   0.495   0.996   0.473
 3915SOL     OW12643   5.501   7.005   4.868
 3915SOL    HW112644   5.536   6.935   4.806
 3915SOL    HW212645   5.575   0.048   4.890
 3916SOL     OW12646   2.126   2.748   2.036
 3916SOL    HW112647   2.162   2.784   2.122
 3916SOL    HW212648   2.079   2.661   2.054
 3917SOL     OW12649   3.745   5.814   2.279
 3917SOL    HW112650   3.720   5.724   2.244
 3917SOL    HW212651   3.745   5.812   2.379
 3918SOL     OW12652   3.684   6.911   0.273
 3918SOL    HW112653   3.738   6.827   0.270
 3918SOL    HW212654   3.733   6.981   0.325
 3919SOL     OW12655   4.794   4.645   3.399
 3919SOL    HW112656   4.725   4.624   3.330
 3919SOL    HW212657   4.883   4.610   3.369
 3920SOL     OW12658   4.586   1.150   5.859
 3920SOL    HW112659   4.607   1.056   5.887
 3920SOL    HW212660   4.538   1.149   5.771
 3921SOL     OW12661   1.014   3.807   5.804
 3921SOL    HW112662   0.963   3.730   5.844
 3921SOL    HW212663   0.968   3.837   5.721
 3922SOL     OW12664   5.479   2.015   4.068
 3922SOL    HW112665   5.573   2.048   4.060
 3922SOL    HW212666   5.431   2.069   4.137
 3923SOL     OW12667   5.780   1.152   1.250
 3923SOL    HW112668   5.815   1.234   1.206
 3923SOL    HW212669   5.721   1.177   1.327
 3924SOL     OW12670   5.510   5.165   3.724
 3924SOL    HW112671   5.565   5.094   3.681
 3924SOL    HW212672   5.460   5.215   3.654
 3925SOL     OW12673   3.706   4.322   1.609
 3925SOL    HW112674   3.686   4.245   1.549
 3925SOL    HW212675   3.623   4.374   1.628
 3926SOL     OW12676   1.203   5.979   5.211
 3926SOL    HW112677   1.263   6.023   5.144
 3926SOL    HW212678   1.170   5.892   5.174
 3927SOL     OW12679   6.193   6.032   4.937
 3927SOL    HW112680   6.239   6.018   4.850
 3927SOL    HW212681   6.207   6.126   4.969
 3928SOL     OW12682   4.445   5.651   2.630
 3928SOL    HW112683   4.353   5.685   2.609
 3928SOL    HW212684   4.477   5.594   2.554
 3929SOL     OW12685   2.125   1.032   5.082
 3929SOL    HW112686   2.083   1.074   5.002
 3929SOL    HW212687   2.056   0.983   5.135
 3930SOL     OW12688   2.041   5.843   4.294
 3930SOL    HW112689   1.975   5.829   4.219
 3930SOL    HW212690   2.134   5.833   4.259
 3931SOL     OW12691   0.365   2.308   0.134
 3931SOL    HW112692   0.422   2.374   0.086
 3931SOL    HW212693   0.357   2.334   0.231
 3932SOL     OW12694   1.702   4.737   1.885
 3932SOL    HW112695   1.773   4.796   1.923
 3932SOL    HW212696   1.620   4.742   1.941
 3933SOL     OW12697   1.439   6.921   1.409
 3933SOL    HW112698   1.527   6.875   1.393
 3933SOL    HW212699   1.396   6.883   1.491
 3934SOL     OW12700   1.433   6.865   2.147
 3934SOL    HW112701   1.451   6.773   2.113
 3934SOL    HW212702   1.426   6.928   2.070
 3935SOL     OW12703   0.403   1.268   4.675
 3935SOL    HW112704   0.446   1.185   4.711
 3935SOL    HW212705   0.351   1.245   4.593
 3936SOL     OW12706   6.298   4.729   3.924
 3936SOL    HW112707   6.267   4.822   3.941
 3936SOL    HW212708   6.393   4.720   3.954
 3937SOL     OW12709   1.572   6.461   0.321
 3937SOL    HW112710   1.526   6.405   0.252
 3937SOL    HW212711   1.544   6.556   0.311
 3938SOL     OW12712   0.923   4.749   6.566
 3938SOL    HW112713   1.004   4.692   6.579
 3938SOL    HW212714   0.911   4.767   6.468
 3939SOL     OW12715   2.323   6.286   4.288
 3939SOL    HW112716   2.263   6.259   4.214
 3939SOL    HW212717   2.300   6.234   4.371
 3940SOL     OW12718   2.832   6.039   6.908
 3940SOL    HW112719   2.787   6.075   6.990
 3940SOL    HW212720   2.778   6.063   6.827
 3941SOL     OW12721   5.657   5.572   2.551
 3941SOL    HW112722   5.608   5.659   2.559
 3941SOL    HW212723   5.625   5.524   2.469
 3942SOL     OW12724   0.313   6.354   0.289
 3942SOL    HW112725   0.364   6.422   0.237
 3942SOL    HW212726   0.371   6.319   0.363
 3943SOL     OW12727   0.393   5.038   0.418
 3943SOL    HW112728   0.355   5.012   0.329
 3943SOL    HW212729   0.440   5.126   0.409
 3944SOL     OW12730   5.359   3.265   0.588
 3944SOL    HW112731   5.422   3.195   0.555
 3944SOL    HW212732   5.327   3.240   0.680
 3945SOL     OW12733   6.813   0.783   2.499
 3945SOL    HW112734   6.869   0.700   2.495
 3945SOL    HW212735   6.866   0.856   2.543
 3946SOL     OW12736   5.061   1.417   0.803
 3946SOL    HW112737   5.069   1.386   0.897
 3946SOL    HW212738   5.126   1.491   0.786
 3947SOL     OW12739   5.546   0.227   1.110
 3947SOL    HW112740   5.576   0.250   1.202
 3947SOL    HW212741   5.496   0.304   1.071
 3948SOL     OW12742   1.395   1.600   3.983
 3948SOL    HW112743   1.395   1.634   4.078
 3948SOL    HW212744   1.461   1.653   3.929
 3949SOL     OW12745   5.806   6.985   2.904
 3949SOL    HW112746   5.852   6.898   2.920
 3949SOL    HW212747   5.719   6.986   2.954
 3950SOL     OW12748   2.458   4.774   1.615
 3950SOL    HW112749   2.419   4.705   1.556
 3950SOL    HW212750   2.519   4.731   1.682
 3951SOL     OW12751   6.642   2.473   3.298
 3951SOL    HW112752   6.693   2.503   3.217
 3951SOL    HW212753   6.698   2.408   3.350
 3952SOL     OW12754   6.169   5.319   0.054
 3952SOL    HW112755   6.230   5.394   0.027
 3952SOL    HW212756   6.137   5.272   6.993
 3953SOL     OW12757   3.664   2.935   4.556
 3953SOL    HW112758   3.642   2.874   4.632
 3953SOL    HW212759   3.599   3.011   4.554
 3954SOL     OW12760   1.053   4.706   5.567
 3954SOL    HW112761   1.151   4.724   5.576
 3954SOL    HW212762   1.033   4.677   5.473
 3955SOL     OW12763   5.671   3.451   6.875
 3955SOL    HW112764   5.609   3.463   6.797
 3955SOL    HW212765   5.752   3.400   6.846
 3956SOL     OW12766   6.996   2.974   4.861
 3956SOL    HW112767   0.036   2.917   4.916
 3956SOL    HW212768   0.015   2.988   4.771
 3957SOL     OW12769   1.807   2.830   1.597
 3957SOL    HW112770   1.890   2.830   1.540
 3957SOL    HW212771   1.832   2.810   1.692
 3958SOL     OW12772   5.336   5.611   0.987
 3958SOL    HW112773   5.281   5.555   0.926
 3958SOL    HW212774   5.281   5.639   1.065
 3959SOL     OW12775   3.450   4.921   0.720
 3959SOL    HW112776   3.419   5.010   0.687
 3959SOL    HW212777   3.532   4.932   0.775
 3960SOL     OW12778   5.554   3.179   1.061
 3960SOL    HW112779   5.648   3.206   1.036
 3960SOL    HW212780   5.543   3.081   1.045
 3961SOL     OW12781   6.712   1.235   1.396
 3961SOL    HW112782   6.778   1.227   1.321
 3961SOL    HW212783   6.666   1.323   1.391
 3962SOL     OW12784   0.375   6.622   6.509
 3962SOL    HW112785   0.310   6.694   6.533
 3962SOL    HW212786   0.350   6.584   6.420
 3963SOL     OW12787   5.736   3.228   4.700
 3963SOL    HW112788   5.714   3.147   4.753
 3963SOL    HW212789   5.808   3.206   4.634
 3964SOL     OW12790   5.875   4.554   6.920
 3964SOL    HW112791   5.975   4.563   6.911
 3964SOL    HW212792   5.835   4.539   6.830
 3965SOL     OW12793   2.798   4.697   1.502
 3965SOL    HW112794   2.718   4.646   1.470
 3965SOL    HW212795   2.842   4.741   1.424
 3966SOL     OW12796   0.126   3.679   5.812
 3966SOL    HW112797   0.079   3.613   5.753
 3966SOL    HW212798   0.195   3.728   5.759
 3967SOL     OW12799   2.348   0.393   0.737
 3967SOL    HW112800   2.290   0.322   0.777
 3967SOL    HW212801   2.309   0.483   0.756
 3968SOL     OW12802   4.678   2.837   0.717
 3968SOL    HW112803   4.582   2.817   0.695
 3968SOL    HW212804   4.712   2.770   0.782
 3969SOL     OW12805   6.331   6.171   1.567
 3969SOL    HW112806   6.318   6.213   1.477
 3969SOL    HW212807   6.420   6.197   1.604
 3970SOL     OW12808   6.141   4.124   4.139
 3970SOL    HW112809   6.101   4.213   4.116
 3970SOL    HW212810   6.097   4.052   4.085
 3971SOL     OW12811   0.143   5.839   3.941
 3971SOL    HW112812   0.048   5.840   3.911
 3971SOL    HW212813   0.159   5.760   4.000
 3972SOL     OW12814   1.003   0.894   6.475
 3972SOL    HW112815   0.908   0.897   6.507
 3972SOL    HW212816   1.063   0.928   6.547
 3973SOL     OW12817   4.071   3.149   1.754
 3973SOL    HW112818   4.027   3.097   1.827
 3973SOL    HW212819   4.107   3.087   1.685
 3974SOL     OW12820   5.335   1.127   6.890
 3974SOL    HW112821   5.300   1.040   6.925
 3974SOL    HW212822   5.408   1.111   6.825
 3975SOL     OW12823   0.072   6.276   3.965
 3975SOL    HW112824   0.082   6.188   4.011
 3975SOL    HW212825   0.139   6.283   3.891
 3976SOL     OW12826   0.658   2.962   5.160
 3976SOL    HW112827   0.757   2.965   5.173
 3976SOL    HW212828   0.634   2.884   5.102
 3977SOL     OW12829   2.063   4.930   5.477
 3977SOL    HW112830   2.148   4.887   5.446
 3977SOL    HW212831   2.084   4.998   5.547
 3978SOL     OW12832   4.455   3.054   6.110
 3978SOL    HW112833   4.450   3.034   6.012
 3978SOL    HW212834   4.377   3.011   6.156
 3979SOL     OW12835   0.213   5.690   2.697
 3979SOL    HW112836   0.308   5.666   2.677
 3979SOL    HW212837   0.204   5.716   2.793
 3980SOL     OW12838   5.407   4.263   4.059
 3980SOL    HW112839   5.470   4.189   4.083
 3980SOL    HW212840   5.365   4.242   3.970
 3981SOL     OW12841   7.019   0.904   6.613
 3981SOL    HW112842   6.963   0.900   6.696
 3981SOL    HW212843   0.070   0.836   6.619
 3982SOL     OW12844   1.948   3.167   4.375
 3982SOL    HW112845   1.916   3.137   4.464
 3982SOL    HW212846   1.907   3.256   4.353
 3983SOL     OW12847   2.767   1.272   3.028
 3983SOL    HW112848   2.728   1.342   2.968
 3983SOL    HW212849   2.739   1.291   3.122
 3984SOL     OW12850   1.128   5.977   2.392
 3984SOL    HW112851   1.207   6.024   2.353
 3984SOL    HW212852   1.058   6.044   2.417
 3985SOL     OW12853   1.450   2.715   1.303
 3985SOL    HW112854   1.403   2.630   1.278
 3985SOL    HW212855   1.474   2.712   1.400
 3986SOL     OW12856   0.982   1.294   3.077
 3986SOL    HW112857   0.939   1.322   2.991
 3986SOL    HW212858   1.080   1.313   3.073
 3987SOL     OW12859   1.402   4.394   5.432
 3987SOL    HW112860   1.415   4.486   5.396
 3987SOL    HW212861   1.359   4.400   5.522
 3988SOL     OW12862   5.089   6.105   2.524
 3988SOL    HW112863   5.082   6.203   2.544
 3988SOL    HW212864   5.145   6.061   2.594
 3989SOL     OW12865   4.431   0.674   6.171
 3989SOL    HW112866   4.426   0.731   6.089
 3989SOL    HW212867   4.348   0.686   6.225
 3990SOL     OW12868   6.237   6.835   3.889
 3990SOL    HW112869   6.281   6.910   3.937
 3990SOL    HW212870   6.188   6.777   3.954
 3991SOL     OW12871   6.409   2.374   4.158
 3991SOL    HW112872   6.450   2.338   4.241
 3991SOL    HW212873   6.460   2.341   4.078
 3992SOL     OW12874   5.704   3.272   5.779
 3992SOL    HW112875   5.729   3.290   5.874
 3992SOL    HW212876   5.617   3.224   5.775
 3993SOL     OW12877   1.483   0.966   4.237
 3993SOL    HW112878   1.425   1.047   4.225
 3993SOL    HW212879   1.483   0.940   4.334
 3994SOL     OW12880   3.055   2.216   3.703
 3994SOL    HW112881   3.147   2.220   3.664
 3994SOL    HW212882   3.029   2.121   3.716
 3995SOL     OW12883   1.279   3.385   1.909
 3995SOL    HW112884   1.355   3.366   1.846
 3995SOL    HW212885   1.197   3.406   1.857
 3996SOL     OW12886   0.409   6.225   4.965
 3996SOL    HW112887   0.334   6.249   4.905
 3996SOL    HW212888   0.476   6.171   4.915
 3997SOL     OW12889   6.122   3.299   5.087
 3997SOL    HW112890   6.183   3.371   5.053
 3997SOL    HW212891   6.028   3.333   5.089
 3998SOL     OW12892   4.238   2.256   2.715
 3998SOL    HW112893   4.327   2.224   2.684
 3998SOL    HW212894   4.166   2.211   2.662
 3999SOL     OW12895   4.768   3.522   1.257
 3999SOL    HW112896   4.845   3.582   1.237
 3999SOL    HW212897   4.712   3.512   1.174
 4000SOL     OW12898   2.326   4.856   2.421
 4000SOL    HW112899   2.237   4.817   2.399
 4000SOL    HW212900   2.324   4.956   2.408
 4001SOL     OW12901   0.871   6.084   4.215
 4001SOL    HW112902   0.870   6.153   4.288
 4001SOL    HW212903   0.887   6.129   4.127
 4002SOL     OW12904   3.704   4.091   4.950
 4002SOL    HW112905   3.625   4.149   4.970
 4002SOL    HW212906   3.718   4.087   4.851
 4003SOL     OW12907   2.562   1.651   4.265
 4003SOL    HW112908   2.661   1.661   4.262
 4003SOL    HW212909   2.519   1.732   4.224
 4004SOL     OW12910   1.794   3.594   4.948
 4004SOL    HW112911   1.891   3.572   4.959
 4004SOL    HW212912   1.774   3.680   4.993
 4005SOL     OW12913   5.819   2.651   1.192
 4005SOL    HW112914   5.821   2.747   1.219
 4005SOL    HW212915   5.818   2.645   1.092
 4006SOL     OW12916   0.399   6.083   2.100
 4006SOL    HW112917   0.476   6.048   2.153
 4006SOL    HW212918   0.417   6.178   2.075
 4007SOL     OW12919   0.314   1.417   1.338
 4007SOL    HW112920   0.414   1.410   1.335
 4007SOL    HW212921   0.279   1.358   1.412
 4008SOL     OW12922   3.830   0.804   1.263
 4008SOL    HW112923   3.739   0.807   1.305
 4008SOL    HW212924   3.895   0.766   1.328
 4009SOL     OW12925   3.500   2.538   1.240
 4009SOL    HW112926   3.582   2.593   1.257
 4009SOL    HW212927   3.513   2.485   1.156
 4010SOL     OW12928   1.459   5.158   1.079
 4010SOL    HW112929   1.550   5.122   1.098
 4010SOL    HW212930   1.411   5.175   1.165
 4011SOL     OW12931   5.866   6.627   6.597
 4011SOL    HW112932   5.879   6.713   6.647
 4011SOL    HW212933   5.930   6.624   6.520
 4012SOL     OW12934   5.268   4.861   1.453
 4012SOL    HW112935   5.361   4.898   1.453
 4012SOL    HW212936   5.266   4.776   1.400
 4013SOL     OW12937   6.873   1.941   6.684
 4013SOL    HW112938   6.839   1.884   6.758
 4013SOL    HW212939   6.964   1.975   6.708
 4014SOL     OW12940   3.148   6.358   2.690
 4014SOL    HW112941   3.213   6.283   2.675
 4014SOL    HW212942   3.130   6.405   2.603
 4015SOL     OW12943   3.804   6.457   4.643
 4015SOL    HW112944   3.889   6.462   4.696
 4015SOL    HW212945   3.772   6.549   4.622
 4016SOL     OW12946   4.674   5.067   4.311
 4016SOL    HW112947   4.710   5.093   4.222
 4016SOL    HW212948   4.634   4.975   4.305
 4017SOL     OW12949   1.870   6.194   5.843
 4017SOL    HW112950   1.907   6.105   5.870
 4017SOL    HW212951   1.937   6.242   5.785
 4018SOL     OW12952   5.176   5.433   0.805
 4018SOL    HW112953   5.115   5.371   0.854
 4018SOL    HW212954   5.219   5.385   0.729
 4019SOL     OW12955   0.606   2.180   3.064
 4019SOL    HW112956   0.568   2.206   2.975
 4019SOL    HW212957   0.684   2.118   3.050
 4020SOL     OW12958   6.885   5.797   4.109
 4020SOL    HW112959   6.898   5.853   4.027
 4020SOL    HW212960   6.789   5.801   4.137
 4021SOL     OW12961   4.599   5.297   5.842
 4021SOL    HW112962   4.600   5.332   5.936
 4021SOL    HW212963   4.545   5.213   5.838
 4022SOL     OW12964   3.568   0.231   1.419
 4022SOL    HW112965   3.470   0.250   1.416
 4022SOL    HW212966   3.586   0.140   1.382
 4023SOL     OW12967   0.657   1.920   4.265
 4023SOL    HW112968   0.730   1.852   4.255
 4023SOL    HW212969   0.581   1.896   4.204
 4024SOL     OW12970   0.745   6.632   6.310
 4024SOL    HW112971   0.844   6.638   6.312
 4024SOL    HW212972   0.716   6.536   6.304
 4025SOL     OW12973   0.854   4.260   4.351
 4025SOL    HW112974   0.761   4.252   4.315
 4025SOL    HW212975   0.854   4.317   4.433
 4026SOL     OW12976   0.578   6.729   4.326
 4026SOL    HW112977   0.632   6.646   4.335
 4026SOL    HW212978   0.541   6.735   4.233
 4027SOL     OW12979   3.046   5.504   5.119
 4027SOL    HW112980   2.960   5.532   5.160
 4027SOL    HW212981   3.029   5.445   5.041
 4028SOL     OW12982   4.737   1.484   4.811
 4028SOL    HW112983   4.664   1.454   4.872
 4028SOL    HW212984   4.794   1.551   4.858
 4029SOL     OW12985   1.860   6.767   0.617
 4029SOL    HW112986   1.826   6.678   0.648
 4029SOL    HW212987   1.913   6.809   0.691
 4030SOL     OW12988   0.928   1.274   1.924
 4030SOL    HW112989   0.898   1.350   1.867
 4030SOL    HW212990   0.848   1.233   1.969
 4031SOL     OW12991   6.069   5.770   0.659
 4031SOL    HW112992   5.983   5.821   0.664
 4031SOL    HW212993   6.060   5.684   0.710
 4032SOL     OW12994   4.955   2.098   2.126
 4032SOL    HW112995   4.909   2.009   2.128
 4032SOL    HW212996   4.904   2.160   2.066
 4033SOL     OW12997   1.610   3.655   2.669
 4033SOL    HW112998   1.609   3.562   2.706
 4033SOL    HW212999   1.576   3.718   2.739
 4034SOL     OW13000   2.245   2.306   4.728
 4034SOL    HW113001   2.324   2.262   4.686
 4034SOL    HW213002   2.161   2.267   4.689
 4035SOL     OW13003   3.648   2.615   1.800
 4035SOL    HW113004   3.664   2.517   1.809
 4035SOL    HW213005   3.558   2.638   1.837
 4036SOL     OW13006   4.367   6.504   3.578
 4036SOL    HW113007   4.385   6.418   3.530
 4036SOL    HW213008   4.430   6.574   3.544
 4037SOL     OW13009   2.013   1.524   5.915
 4037SOL    HW113010   1.916   1.509   5.935
 4037SOL    HW213011   2.041   1.612   5.952
 4038SOL     OW13012   4.017   4.994   5.755
 4038SOL    HW113013   3.989   4.996   5.659
 4038SOL    HW213014   3.964   5.061   5.806
 4039SOL     OW13015   6.151   4.616   1.309
 4039SOL    HW113016   6.068   4.661   1.341
 4039SOL    HW213017   6.225   4.633   1.375
 4040SOL     OW13018   2.233   6.655   5.030
 4040SOL    HW113019   2.242   6.561   5.061
 4040SOL    HW213020   2.288   6.715   5.088
 4041SOL     OW13021   1.585   6.212   1.622
 4041SOL    HW113022   1.596   6.134   1.684
 4041SOL    HW213023   1.672   6.260   1.615
 4042SOL     OW13024   0.776   1.523   3.961
 4042SOL    HW113025   0.693   1.506   3.907
 4042SOL    HW213026   0.836   1.444   3.955
 4043SOL     OW13027   3.523   2.696   5.916
 4043SOL    HW113028   3.512   2.679   5.818
 4043SOL    HW213029   3.586   2.773   5.929
 4044SOL     OW13030   4.466   4.453   2.949
 4044SOL    HW113031   4.426   4.538   2.983
 4044SOL    HW213032   4.402   4.378   2.965
 4045SOL     OW13033   4.633   1.275   5.144
 4045SOL    HW113034   4.622   1.249   5.048
 4045SOL    HW213035   4.557   1.334   5.171
 4046SOL     OW13036   5.123   1.269   3.822
 4046SOL    HW113037   5.100   1.362   3.793
 4046SOL    HW213038   5.116   1.207   3.744
 4047SOL     OW13039   2.942   2.592   6.274
 4047SOL    HW113040   2.844   2.575   6.262
 4047SOL    HW213041   2.993   2.550   6.199
 4048SOL     OW13042   4.891   2.192   3.497
 4048SOL    HW113043   4.919   2.115   3.441
 4048SOL    HW213044   4.857   2.160   3.586
 4049SOL     OW13045   3.973   3.854   2.188
 4049SOL    HW113046   4.063   3.815   2.170
 4049SOL    HW213047   3.927   3.800   2.259
 4050SOL     OW13048   6.800   4.693   3.425
 4050SOL    HW113049   6.729   4.744   3.472
 4050SOL    HW213050   6.828   4.615   3.481
 4051SOL     OW13051   6.071   1.056   4.215
 4051SOL    HW113052   5.994   0.992   4.213
 4051SOL    HW213053   6.037   1.149   4.230
 4052SOL     OW13054   4.670   1.530   4.261
 4052SOL    HW113055   4.628   1.476   4.334
 4052SOL    HW213056   4.635   1.623   4.264
 4053SOL     OW13057   0.797   4.095   3.357
 4053SOL    HW113058   0.861   4.019   3.351
 4053SOL    HW213059   0.839   4.177   3.318
 4054SOL     OW13060   5.357   3.788   1.672
 4054SOL    HW113061   5.343   3.862   1.737
 4054SOL    HW213062   5.310   3.706   1.705
 4055SOL     OW13063   0.224   4.472   0.031
 4055SOL    HW113064   0.233   4.390   6.995
 4055SOL    HW213065   0.144   4.525   0.002
 4056SOL     OW13066   4.569   3.982   0.158
 4056SOL    HW113067   4.537   4.059   0.103
 4056SOL    HW213068   4.616   4.015   0.239
 4057SOL     OW13069   6.897   4.365   6.020
 4057SOL    HW113070   6.984   4.379   5.973
 4057SOL    HW213071   6.904   4.399   6.113
 4058SOL     OW13072   3.770   0.799   4.502
 4058SOL    HW113073   3.837   0.773   4.432
 4058SOL    HW213074   3.726   0.884   4.475
 4059SOL     OW13075   1.045   1.407   4.121
 4059SOL    HW113076   0.967   1.367   4.071
 4059SOL    HW213077   1.125   1.406   4.062
 4060SOL     OW13078   0.157   6.405   4.193
 4060SOL    HW113079   0.126   6.357   4.111
 4060SOL    HW213080   0.170   6.339   4.268
 4061SOL     OW13081   1.761   4.189   2.283
 4061SOL    HW113082   1.713   4.200   2.196
 4061SOL    HW213083   1.696   4.165   2.355
 4062SOL     OW13084   2.580   4.523   0.339
 4062SOL    HW113085   2.570   4.618   0.308
 4062SOL    HW213086   2.509   4.503   0.408
 4063SOL     OW13087   3.578   0.988   0.793
 4063SOL    HW113088   3.580   0.889   0.812
 4063SOL    HW213089   3.537   1.003   0.703
 4064SOL     OW13090   2.481   0.420   4.511
 4064SOL    HW113091   2.398   0.472   4.530
 4064SOL    HW213092   2.555   0.453   4.569
 4065SOL     OW13093   2.459   1.477   0.847
 4065SOL    HW113094   2.444   1.560   0.900
 4065SOL    HW213095   2.482   1.501   0.752
 4066SOL     OW13096   0.670   3.617   4.555
 4066SOL    HW113097   0.725   3.578   4.482
 4066SOL    HW213098   0.700   3.580   4.643
 4067SOL     OW13099   6.173   4.531   0.795
 4067SOL    HW113100   6.153   4.434   0.804
 4067SOL    HW213101   6.188   4.571   0.885
 4068SOL     OW13102   1.965   2.822   5.915
 4068SOL    HW113103   1.994   2.738   5.867
 4068SOL    HW213104   1.914   2.880   5.852
 4069SOL     OW13105   4.267   6.965   5.633
 4069SOL    HW113106   4.248   6.923   5.722
 4069SOL    HW213107   4.273   6.895   5.563
 4070SOL     OW13108   1.823   3.872   4.164
 4070SOL    HW113109   1.730   3.908   4.170
 4070SOL    HW213110   1.858   3.855   4.256
 4071SOL     OW13111   1.503   0.427   5.237
 4071SOL    HW113112   1.494   0.347   5.177
 4071SOL    HW213113   1.600   0.445   5.254
 4072SOL     OW13114   3.104   6.721   2.629
 4072SOL    HW113115   3.035   6.660   2.669
 4072SOL    HW213116   3.060   6.785   2.567
 4073SOL     OW13117   4.457   5.146   6.700
 4073SOL    HW113118   4.424   5.137   6.794
 4073SOL    HW213119   4.415   5.075   6.643
 4074SOL     OW13120   1.612   5.832   2.280
 4074SOL    HW113121   1.583   5.739   2.303
 4074SOL    HW213122   1.643   5.878   2.363
 4075SOL     OW13123   5.981   0.743   6.995
 4075SOL    HW113124   5.963   0.678   6.921
 4075SOL    HW213125   5.901   0.804   7.005
 4076SOL     OW13126   2.131   6.149   3.711
 4076SOL    HW113127   2.111   6.120   3.617
 4076SOL    HW213128   2.140   6.069   3.769
 4077SOL     OW13129   2.524   1.993   1.682
 4077SOL    HW113130   2.596   2.052   1.646
 4077SOL    HW213131   2.479   2.039   1.759
 4078SOL     OW13132   4.365   5.255   2.113
 4078SOL    HW113133   4.419   5.283   2.034
 4078SOL    HW213134   4.295   5.324   2.133
 4079SOL     OW13135   0.616   1.979   3.935
 4079SOL    HW113136   0.573   1.897   3.898
 4079SOL    HW213137   0.553   2.057   3.925
 4080SOL     OW13138   6.292   1.894   4.459
 4080SOL    HW113139   6.367   1.958   4.472
 4080SOL    HW213140   6.232   1.927   4.386
 4081SOL     OW13141   6.658   3.287   2.805
 4081SOL    HW113142   6.683   3.357   2.873
 4081SOL    HW213143   6.573   3.243   2.832
 4082SOL     OW13144   0.244   3.323   0.332
 4082SOL    HW113145   0.244   3.416   0.370
 4082SOL    HW213146   0.311   3.267   0.381
 4083SOL     OW13147   6.790   3.312   5.204
 4083SOL    HW113148   6.696   3.300   5.173
 4083SOL    HW213149   6.833   3.386   5.152
 4084SOL     OW13150   5.294   0.981   4.468
 4084SOL    HW113151   5.290   1.001   4.371
 4084SOL    HW213152   5.247   0.895   4.487
 4085SOL     OW13153   3.061   5.196   6.791
 4085SOL    HW113154   3.070   5.295   6.779
 4085SOL    HW213155   3.113   5.168   6.872
 4086SOL     OW13156   0.737   2.375   1.392
 4086SOL    HW113157   0.746   2.345   1.487
 4086SOL    HW213158   0.820   2.424   1.365
 4087SOL     OW13159   2.208   1.257   3.221
 4087SOL    HW113160   2.306   1.265   3.240
 4087SOL    HW213161   2.181   1.329   3.157
 4088SOL     OW13162   0.001   2.350   6.584
 4088SOL    HW113163   0.030   2.259   6.555
 4088SOL    HW213164   6.927   2.348   6.612
 4089SOL     OW13165   0.342   1.659   5.768
 4089SOL    HW113166   0.390   1.641   5.682
 4089SOL    HW213167   0.251   1.619   5.764
 4090SOL     OW13168   3.239   5.394   6.320
 4090SOL    HW113169   3.216   5.297   6.331
 4090SOL    HW213170   3.159   5.450   6.344
 4091SOL     OW13171   4.469   6.625   1.651
 4091SOL    HW113172   4.472   6.674   1.564
 4091SOL    HW213173   4.397   6.555   1.647
 4092SOL     OW13174   0.810   1.373   4.389
 4092SOL    HW113175   0.753   1.321   4.325
 4092SOL    HW213176   0.805   1.470   4.365
 4093SOL     OW13177   5.162   6.646   4.371
 4093SOL    HW113178   5.164   6.572   4.438
 4093SOL    HW213179   5.084   6.633   4.309
 4094SOL     OW13180   3.220   3.497   6.651
 4094SOL    HW113181   3.296   3.548   6.611
 4094SOL    HW213182   3.202   3.416   6.596
 4095SOL     OW13183   1.625   3.597   5.743
 4095SOL    HW113184   1.679   3.577   5.825
 4095SOL    HW213185   1.622   3.696   5.729
 4096SOL     OW13186   4.538   5.067   1.761
 4096SOL    HW113187   4.517   5.036   1.668
 4096SOL    HW213188   4.496   5.005   1.827
 4097SOL     OW13189   3.815   4.062   3.571
 4097SOL    HW113190   3.834   4.069   3.669
 4097SOL    HW213191   3.788   3.969   3.548
 4098SOL     OW13192   1.254   3.337   2.176
 4098SOL    HW113193   1.156   3.352   2.189
 4098SOL    HW213194   1.277   3.352   2.080
 4099SOL     OW13195   2.482   6.223   1.770
 4099SOL    HW113196   2.412   6.199   1.703
 4099SOL    HW213197   2.547   6.286   1.728
 4100SOL     OW13198   3.677   7.001   2.773
 4100SOL    HW113199   3.772   6.971   2.775
 4100SOL    HW213200   3.638   6.994   2.865
 4101SOL     OW13201   4.414   1.641   6.850
 4101SOL    HW113202   4.414   1.553   6.897
 4101SOL    HW213203   4.378   1.629   6.757
 4102SOL     OW13204   4.309   1.352   6.151
 4102SOL    HW113205   4.225   1.405   6.142
 4102SOL    HW213206   4.372   1.399   6.213
 4103SOL     OW13207   6.931   0.409   1.788
 4103SOL    HW113208   6.904   0.487   1.844
 4103SOL    HW213209   7.011   0.434   1.732
 4104SOL     OW13210   2.144   4.250   2.136
 4104SOL    HW113211   2.116   4.248   2.040
 4104SOL    HW213212   2.231   4.299   2.145
 4105SOL     OW13213   6.080   5.480   0.494
 4105SOL    HW113214   6.166   5.530   0.507
 4105SOL    HW213215   6.004   5.534   0.528
 4106SOL     OW13216   0.398   3.824   4.384
 4106SOL    HW113217   0.452   3.828   4.468
 4106SOL    HW213218   0.311   3.779   4.403
 4107SOL     OW13219   0.305   0.891   0.961
 4107SOL    HW113220   0.332   0.978   0.920
 4107SOL    HW213221   0.236   0.907   1.032
 4108SOL     OW13222   6.138   2.534   5.073
 4108SOL    HW113223   6.095   2.486   5.149
 4108SOL    HW213224   6.237   2.538   5.088
 4109SOL     OW13225   2.395   6.870   3.924
 4109SOL    HW113226   2.460   6.794   3.933
 4109SOL    HW213227   2.411   6.918   3.838
 4110SOL     OW13228   4.764   3.287   5.249
 4110SOL    HW113229   4.863   3.289   5.265
 4110SOL    HW213230   4.736   3.373   5.206
 4111SOL     OW13231   3.807   3.051   6.285
 4111SOL    HW113232   3.868   3.077   6.360
 4111SOL    HW213233   3.811   3.122   6.214
 4112SOL     OW13234   4.441   0.562   5.788
 4112SOL    HW113235   4.537   0.577   5.810
 4112SOL    HW213236   4.391   0.648   5.792
 4113SOL     OW13237   3.830   5.213   4.291
 4113SOL    HW113238   3.757   5.254   4.345
 4113SOL    HW213239   3.828   5.251   4.198
 4114SOL     OW13240   3.701   1.998   3.646
 4114SOL    HW113241   3.754   1.971   3.727
 4114SOL    HW213242   3.619   2.047   3.674
 4115SOL     OW13243   4.889   3.901   3.092
 4115SOL    HW113244   4.814   3.967   3.097
 4115SOL    HW213245   4.949   3.925   3.015
 4116SOL     OW13246   2.796   0.876   2.030
 4116SOL    HW113247   2.703   0.901   2.055
 4116SOL    HW213248   2.802   0.863   1.931
 4117SOL     OW13249   1.055   5.865   1.913
 4117SOL    HW113250   0.975   5.817   1.878
 4117SOL    HW213251   1.131   5.800   1.923
 4118SOL     OW13252   1.445   0.247   6.861
 4118SOL    HW113253   1.380   0.318   6.836
 4118SOL    HW213254   1.403   0.157   6.851
 4119SOL     OW13255   5.690   1.833   3.302
 4119SOL    HW113256   5.713   1.736   3.304
 4119SOL    HW213257   5.603   1.848   3.347
 4120SOL     OW13258   5.494   1.242   2.321
 4120SOL    HW113259   5.409   1.273   2.364
 4120SOL    HW213260   5.571   1.263   2.380
 4121SOL     OW13261   5.838   2.393   4.172
 4121SOL    HW113262   5.754   2.408   4.224
 4121SOL    HW213263   5.850   2.467   4.105
 4122SOL     OW13264   2.100   4.994   6.982
 4122SOL    HW113265   2.192   4.998   7.021
 4122SOL    HW213266   2.061   5.086   6.977
 4123SOL     OW13267   4.160   3.955   5.269
 4123SOL    HW113268   4.246   3.950   5.319
 4123SOL    HW213269   4.163   3.893   5.190
 4124SOL     OW13270   4.555   6.608   3.238
 4124SOL    HW113271   4.479   6.552   3.205
 4124SOL    HW213272   4.568   6.685   3.176
 4125SOL     OW13273   4.732   1.428   1.793
 4125SOL    HW113274   4.723   1.371   1.875
 4125SOL    HW213275   4.695   1.519   1.811
 4126SOL     OW13276   2.183   3.867   4.805
 4126SOL    HW113277   2.239   3.933   4.856
 4126SOL    HW213278   2.139   3.805   4.869
 4127SOL     OW13279   5.451   4.573   4.480
 4127SOL    HW113280   5.415   4.645   4.539
 4127SOL    HW213281   5.500   4.615   4.403
 4128SOL     OW13282   0.014   1.659   1.807
 4128SOL    HW113283   0.024   1.684   1.711
 4128SOL    HW213284   6.995   1.735   1.857
 4129SOL     OW13285   0.014   3.086   6.539
 4129SOL    HW113286   0.001   3.118   6.633
 4129SOL    HW213287   0.069   3.002   6.540
 4130SOL     OW13288   6.427   1.845   1.574
 4130SOL    HW113289   6.445   1.917   1.507
 4130SOL    HW213290   6.443   1.881   1.666
 4131SOL     OW13291   6.852   3.083   3.085
 4131SOL    HW113292   6.866   3.036   2.998
 4131SOL    HW213293   6.930   3.068   3.145
 4132SOL     OW13294   4.810   1.719   4.542
 4132SOL    HW113295   4.773   1.753   4.628
 4132SOL    HW213296   4.765   1.765   4.466
 4133SOL     OW13297   2.587   2.440   1.059
 4133SOL    HW113298   2.539   2.360   1.024
 4133SOL    HW213299   2.635   2.416   1.144
 4134SOL     OW13300   1.900   0.890   0.143
 4134SOL    HW113301   1.835   0.965   0.160
 4134SOL    HW213302   1.953   0.874   0.226
 4135SOL     OW13303   1.772   0.414   0.873
 4135SOL    HW113304   1.722   0.350   0.815
 4135SOL    HW213305   1.709   0.482   0.911
 4136SOL     OW13306   0.932   1.842   3.499
 4136SOL    HW113307   0.991   1.799   3.431
 4136SOL    HW213308   0.914   1.778   3.574
 4137SOL     OW13309   4.043   3.112   5.287
 4137SOL    HW113310   4.012   3.018   5.271
 4137SOL    HW213311   3.981   3.175   5.240
 4138SOL     OW13312   4.885   5.719   1.642
 4138SOL    HW113313   4.849   5.797   1.590
 4138SOL    HW213314   4.984   5.727   1.651
 4139SOL     OW13315   2.996   2.030   0.342
 4139SOL    HW113316   2.909   2.074   0.320
 4139SOL    HW213317   3.038   1.997   0.257
 4140SOL     OW13318   4.658   2.012   5.356
 4140SOL    HW113319   4.633   1.972   5.267
 4140SOL    HW213320   4.747   1.977   5.384
 4141SOL     OW13321   5.199   6.229   1.231
 4141SOL    HW113322   5.244   6.174   1.160
 4141SOL    HW213323   5.268   6.277   1.285
 4142SOL     OW13324   6.056   3.179   1.551
 4142SOL    HW113325   6.036   3.113   1.624
 4142SOL    HW213326   6.147   3.219   1.567
 4143SOL     OW13327   0.934   3.171   1.663
 4143SOL    HW113328   0.891   3.121   1.738
 4143SOL    HW213329   1.033   3.157   1.666
 4144SOL     OW13330   3.946   0.862   2.174
 4144SOL    HW113331   4.013   0.851   2.101
 4144SOL    HW213332   3.922   0.772   2.211
 4145SOL     OW13333   2.816   0.279   3.458
 4145SOL    HW113334   2.786   0.259   3.365
 4145SOL    HW213335   2.766   0.359   3.492
 4146SOL     OW13336   4.927   4.347   0.494
 4146SOL    HW113337   4.880   4.332   0.581
 4146SOL    HW213338   4.972   4.262   0.466
 4147SOL     OW13339   2.439   1.837   5.805
 4147SOL    HW113340   2.465   1.882   5.891
 4147SOL    HW213341   2.439   1.738   5.818
 4148SOL     OW13342   6.923   7.001   2.467
 4148SOL    HW113343   6.897   0.046   2.397
 4148SOL    HW213344   6.926   0.025   2.556
 4149SOL     OW13345   4.786   4.234   2.141
 4149SOL    HW113346   4.710   4.239   2.075
 4149SOL    HW213347   4.749   4.222   2.233
 4150SOL     OW13348   3.902   0.208   5.221
 4150SOL    HW113349   3.978   0.223   5.284
 4150SOL    HW213350   3.823   0.263   5.250
 4151SOL     OW13351   0.457   5.553   0.358
 4151SOL    HW113352   0.363   5.584   0.341
 4151SOL    HW213353   0.498   5.610   0.430
 4152SOL     OW13354   3.231   3.906   0.964
 4152SOL    HW113355   3.264   3.880   1.055
 4152SOL    HW213356   3.186   3.828   0.921
 4153SOL     OW13357   6.424   5.619   6.120
 4153SOL    HW113358   6.425   5.575   6.209
 4153SOL    HW213359   6.417   5.718   6.131
 4154SOL     OW13360   4.549   2.504   4.725
 4154SOL    HW113361   4.579   2.559   4.803
 4154SOL    HW213362   4.575   2.548   4.640
 4155SOL     OW13363   1.729   2.816   0.281
 4155SOL    HW113364   1.642   2.781   0.246
 4155SOL    HW213365   1.800   2.748   0.265
 4156SOL     OW13366   5.942   0.682   5.190
 4156SOL    HW113367   6.005   0.715   5.261
 4156SOL    HW213368   5.877   0.755   5.167
 4157SOL     OW13369   3.511   0.757   3.289
 4157SOL    HW113370   3.580   0.778   3.359
 4157SOL    HW213371   3.479   0.843   3.248
 4158SOL     OW13372   1.134   0.662   3.641
 4158SOL    HW113373   1.076   0.676   3.722
 4158SOL    HW213374   1.094   0.711   3.563
 4159SOL     OW13375   0.057   4.536   5.434
 4159SOL    HW113376   0.118   4.614   5.421
 4159SOL    HW213377   0.110   4.457   5.466
 4160SOL     OW13378   0.188   0.438   0.867
 4160SOL    HW113379   0.264   0.498   0.894
 4160SOL    HW213380   0.209   0.344   0.894
 4161SOL     OW13381   6.093   1.728   1.202
 4161SOL    HW113382   6.123   1.640   1.239
 4161SOL    HW213383   6.129   1.739   1.110
 4162SOL     OW13384   1.115   6.924   5.429
 4162SOL    HW113385   1.198   6.915   5.374
 4162SOL    HW213386   1.073   6.835   5.442
 4163SOL     OW13387   6.791   1.730   5.505
 4163SOL    HW113388   6.720   1.720   5.576
 4163SOL    HW213389   6.751   1.711   5.416
 4164SOL     OW13390   2.947   6.613   5.482
 4164SOL    HW113391   2.879   6.643   5.550
 4164SOL    HW213392   2.905   6.610   5.392
 4165SOL     OW13393   1.836   6.374   1.584
 4165SOL    HW113394   1.927   6.332   1.584
 4165SOL    HW213395   1.818   6.412   1.493
 4166SOL     OW13396   6.098   2.105   2.354
 4166SOL    HW113397   6.031   2.107   2.428
 4166SOL    HW213398   6.053   2.075   2.270
 4167SOL     OW13399   1.614   2.713   1.097
 4167SOL    HW113400   1.555   2.721   1.177
 4167SOL    HW213401   1.673   2.633   1.107
 4168SOL     OW13402   2.186   5.695   0.997
 4168SOL    HW113403   2.283   5.712   0.983
 4168SOL    HW213404   2.173   5.604   1.037
 4169SOL     OW13405   6.655   3.291   6.776
 4169SOL    HW113406   6.749   3.324   6.773
 4169SOL    HW213407   6.593   3.365   6.749
 4170SOL     OW13408   3.055   0.816   5.620
 4170SOL    HW113409   3.025   0.889   5.558
 4170SOL    HW213410   3.147   0.787   5.595
 4171SOL     OW13411   6.115   3.030   1.773
 4171SOL    HW113412   6.140   2.934   1.759
 4171SOL    HW213413   6.161   3.065   1.855
 4172SOL     OW13414   2.819   0.795   1.192
 4172SOL    HW113415   2.853   0.701   1.191
 4172SOL    HW213416   2.857   0.845   1.114
 4173SOL     OW13417   4.188   3.636   5.576
 4173SOL    HW113418   4.212   3.725   5.614
 4173SOL    HW213419   4.266   3.574   5.584
 4174SOL     OW13420   4.828   0.871   3.215
 4174SOL    HW113421   4.794   0.957   3.253
 4174SOL    HW213422   4.875   0.889   3.129
 4175SOL     OW13423   2.412   1.364   2.575
 4175SOL    HW113424   2.430   1.279   2.624
 4175SOL    HW213425   2.487   1.385   2.513
 4176SOL     OW13426   5.903   4.811   2.946
 4176SOL    HW113427   5.843   4.774   3.018
 4176SOL    HW213428   5.896   4.911   2.945
 4177SOL     OW13429   0.062   5.303   3.158
 4177SOL    HW113430   0.079   5.326   3.253
 4177SOL    HW213431   0.077   5.205   3.144
 4178SOL     OW13432   4.264   2.460   5.418
 4178SOL    HW113433   4.251   2.524   5.342
 4178SOL    HW213434   4.176   2.444   5.463
 4179SOL     OW13435   6.719   1.798   0.123
 4179SOL    HW113436   6.653   1.863   0.161
 4179SOL    HW213437   6.772   1.757   0.197
 4180SOL     OW13438   5.540   3.654   1.463
 4180SOL    HW113439   5.635   3.679   1.445
 4180SOL    HW213440   5.511   3.693   1.550
 4181SOL     OW13441   6.266   1.114   0.877
 4181SOL    HW113442   6.166   1.110   0.887
 4181SOL    HW213443   6.293   1.208   0.854
 4182SOL     OW13444   6.032   0.900   3.631
 4182SOL    HW113445   5.942   0.894   3.674
 4182SOL    HW213446   6.024   0.943   3.542
 4183SOL     OW13447   1.232   0.852   1.954
 4183SOL    HW113448   1.184   0.764   1.949
 4183SOL    HW213449   1.171   0.925   1.925
 4184SOL     OW13450   4.305   4.280   6.143
 4184SOL    HW113451   4.399   4.302   6.117
 4184SOL    HW213452   4.306   4.210   6.214
 4185SOL     OW13453   0.050   0.490   4.035
 4185SOL    HW113454   0.084   0.568   4.088
 4185SOL    HW213455   0.051   0.408   4.093
 4186SOL     OW13456   3.524   3.893   1.886
 4186SOL    HW113457   3.603   3.926   1.937
 4186SOL    HW213458   3.454   3.862   1.950
 4187SOL     OW13459   4.317   5.168   5.998
 4187SOL    HW113460   4.321   5.267   6.005
 4187SOL    HW213461   4.246   5.142   5.933
 4188SOL     OW13462   4.872   5.816   3.129
 4188SOL    HW113463   4.918   5.904   3.121
 4188SOL    HW213464   4.925   5.745   3.081
 4189SOL     OW13465   1.314   3.289   3.132
 4189SOL    HW113466   1.353   3.204   3.096
 4189SOL    HW213467   1.215   3.287   3.123
 4190SOL     OW13468   2.381   6.812   1.750
 4190SOL    HW113469   2.302   6.752   1.745
 4190SOL    HW213470   2.460   6.767   1.709
 4191SOL     OW13471   0.638   2.232   3.588
 4191SOL    HW113472   0.546   2.270   3.580
 4191SOL    HW213473   0.678   2.259   3.676
 4192SOL     OW13474   6.045   6.270   3.764
 4192SOL    HW113475   6.060   6.173   3.748
 4192SOL    HW213476   6.133   6.313   3.788
 4193SOL     OW13477   1.554   6.909   4.001
 4193SOL    HW113478   1.462   6.875   3.980
 4193SOL    HW213479   1.618   6.882   3.929
 4194SOL     OW13480   5.409   0.100   3.085
 4194SOL    HW113481   5.443   0.009   3.107
 4194SOL    HW213482   5.471   0.144   3.020
 4195SOL     OW13483   4.633   0.208   3.756
 4195SOL    HW113484   4.623   0.216   3.657
 4195SOL    HW213485   4.545   0.220   3.801
 4196SOL     OW13486   5.005   2.512   3.388
 4196SOL    HW113487   5.011   2.452   3.308
 4196SOL    HW213488   5.003   2.608   3.358
 4197SOL     OW13489   5.348   3.798   4.489
 4197SOL    HW113490   5.330   3.716   4.434
 4197SOL    HW213491   5.269   3.818   4.546
 4198SOL     OW13492   5.955   3.218   5.643
 4198SOL    HW113493   5.874   3.233   5.699
 4198SOL    HW213494   6.037   3.243   5.695
 4199SOL     OW13495   2.907   3.967   5.575
 4199SOL    HW113496   2.823   3.935   5.530
 4199SOL    HW213497   2.936   4.053   5.533
 4200SOL     OW13498   3.364   0.407   6.383
 4200SOL    HW113499   3.441   0.445   6.434
 4200SOL    HW213500   3.281   0.413   6.439
 4201SOL     OW13501   6.654   0.021   4.743
 4201SOL    HW113502   6.711   0.076   4.804
 4201SOL    HW213503   6.603   6.975   4.797
 4202SOL     OW13504   5.670   3.022   4.839
 4202SOL    HW113505   5.757   2.988   4.873
 4202SOL    HW213506   5.613   3.051   4.917
 4203SOL     OW13507   3.929   5.702   4.685
 4203SOL    HW113508   3.851   5.666   4.635
 4203SOL    HW213509   3.910   5.699   4.783
 4204SOL     OW13510   1.688   4.015   0.459
 4204SOL    HW113511   1.783   4.022   0.429
 4204SOL    HW213512   1.685   4.002   0.558
 4205SOL     OW13513   2.609   6.349   3.543
 4205SOL    HW113514   2.671   6.292   3.598
 4205SOL    HW213515   2.554   6.290   3.484
 4206SOL     OW13516   4.807   6.218   3.833
 4206SOL    HW113517   4.782   6.121   3.843
 4206SOL    HW213518   4.893   6.235   3.880
 4207SOL     OW13519   1.376   6.317   0.195
 4207SOL    HW113520   1.281   6.320   0.226
 4207SOL    HW213521   1.386   6.245   0.127
 4208SOL     OW13522   0.756   2.337   1.665
 4208SOL    HW113523   0.789   2.243   1.667
 4208SOL    HW213524   0.807   2.391   1.732
 4209SOL     OW13525   2.963   0.249   5.519
 4209SOL    HW113526   2.949   0.188   5.597
 4209SOL    HW213527   2.876   0.260   5.470
 4210SOL     OW13528   3.691   3.045   0.599
 4210SOL    HW113529   3.594   3.067   0.587
 4210SOL    HW213530   3.706   3.012   0.692
 4211SOL     OW13531   5.752   3.631   4.335
 4211SOL    HW113532   5.731   3.545   4.288
 4211SOL    HW213533   5.716   3.628   4.428
 4212SOL     OW13534   5.916   0.084   1.944
 4212SOL    HW113535   5.831   0.031   1.944
 4212SOL    HW213536   5.994   0.021   1.941
 4213SOL     OW13537   0.795   6.822   1.373
 4213SOL    HW113538   0.858   6.784   1.306
 4213SOL    HW213539   0.774   6.917   1.351
 4214SOL     OW13540   2.469   5.910   3.456
 4214SOL    HW113541   2.427   5.827   3.492
 4214SOL    HW213542   2.568   5.903   3.461
 4215SOL     OW13543   1.464   6.052   6.812
 4215SOL    HW113544   1.428   6.011   6.729
 4215SOL    HW213545   1.562   6.072   6.800
 4216SOL     OW13546   2.483   2.764   5.309
 4216SOL    HW113547   2.491   2.861   5.288
 4216SOL    HW213548   2.386   2.738   5.310
 4217SOL     OW13549   6.576   0.931   4.462
 4217SOL    HW113550   6.565   0.876   4.545
 4217SOL    HW213551   6.534   1.021   4.475
 4218SOL     OW13552   2.977   5.523   2.841
 4218SOL    HW113553   3.038   5.448   2.866
 4218SOL    HW213554   2.945   5.568   2.925
 4219SOL     OW13555   4.897   0.087   2.899
 4219SOL    HW113556   4.876   0.067   2.803
 4219SOL    HW213557   4.996   0.094   2.911
 4220SOL     OW13558   0.212   4.423   2.783
 4220SOL    HW113559   0.150   4.468   2.719
 4220SOL    HW213560   0.299   4.403   2.736
 4221SOL     OW13561   5.197   6.413   6.270
 4221SOL    HW113562   5.191   6.384   6.174
 4221SOL    HW213563   5.195   6.333   6.329
 4222SOL     OW13564   2.617   2.449   0.042
 4222SOL    HW113565   2.606   2.450   0.141
 4222SOL    HW213566   2.666   2.531   0.013
 4223SOL     OW13567   3.769   4.050   3.305
 4223SOL    HW113568   3.791   3.961   3.266
 4223SOL    HW213569   3.817   4.062   3.392
 4224SOL     OW13570   3.548   2.165   5.614
 4224SOL    HW113571   3.589   2.076   5.635
 4224SOL    HW213572   3.581   2.197   5.526
 4225SOL     OW13573   5.166   6.797   4.790
 4225SOL    HW113574   5.196   6.873   4.733
 4225SOL    HW213575   5.191   6.711   4.746
 4226SOL     OW13576   2.618   2.037   2.302
 4226SOL    HW113577   2.692   2.101   2.325
 4226SOL    HW213578   2.641   1.990   2.217
 4227SOL     OW13579   5.322   4.253   0.385
 4227SOL    HW113580   5.224   4.250   0.406
 4227SOL    HW213581   5.368   4.313   0.450
 4228SOL     OW13582   4.174   5.668   3.177
 4228SOL    HW113583   4.230   5.703   3.102
 4228SOL    HW213584   4.222   5.593   3.223
 4229SOL     OW13585   3.974   4.866   4.872
 4229SOL    HW113586   4.046   4.817   4.822
 4229SOL    HW213587   3.992   4.859   4.970
 4230SOL     OW13588   2.134   1.068   6.068
 4230SOL    HW113589   2.223   1.108   6.045
 4230SOL    HW213590   2.079   1.061   5.984
 4231SOL     OW13591   4.045   6.146   6.278
 4231SOL    HW113592   3.975   6.076   6.290
 4231SOL    HW213593   4.113   6.114   6.213
 4232SOL     OW13594   1.361   4.120   1.478
 4232SOL    HW113595   1.444   4.162   1.514
 4232SOL    HW213596   1.369   4.110   1.379
 4233SOL     OW13597   5.342   5.200   1.441
 4233SOL    HW113598   5.298   5.191   1.530
 4233SOL    HW213599   5.441   5.187   1.451
 4234SOL     OW13600   3.865   3.394   5.853
 4234SOL    HW113601   3.896   3.455   5.780
 4234SOL    HW213602   3.769   3.369   5.836
 4235SOL     OW13603   0.663   4.040   4.774
 4235SOL    HW113604   0.600   4.117   4.765
 4235SOL    HW213605   0.756   4.075   4.787
 4236SOL     OW13606   1.080   4.003   4.576
 4236SOL    HW113607   0.983   3.992   4.558
 4236SOL    HW213608   1.120   4.065   4.508
 4237SOL     OW13609   5.476   3.623   5.575
 4237SOL    HW113610   5.522   3.540   5.542
 4237SOL    HW213611   5.491   3.697   5.509
 4238SOL     OW13612   4.843   4.735   4.935
 4238SOL    HW113613   4.871   4.815   4.882
 4238SOL    HW213614   4.921   4.674   4.947
 4239SOL     OW13615   4.993   5.183   5.251
 4239SOL    HW113616   5.040   5.113   5.306
 4239SOL    HW213617   4.965   5.258   5.311
 4240SOL     OW13618   2.703   4.754   6.075
 4240SOL    HW113619   2.669   4.821   6.141
 4240SOL    HW213620   2.735   4.800   5.993
 4241SOL     OW13621   3.195   2.080   1.487
 4241SOL    HW113622   3.293   2.070   1.469
 4241SOL    HW213623   3.153   2.133   1.413
 4242SOL     OW13624   2.757   0.505   1.788
 4242SOL    HW113625   2.749   0.405   1.788
 4242SOL    HW213626   2.782   0.537   1.880
 4243SOL     OW13627   1.824   2.025   1.823
 4243SOL    HW113628   1.774   2.072   1.750
 4243SOL    HW213629   1.759   1.973   1.879
 4244SOL     OW13630   2.863   0.075   0.771
 4244SOL    HW113631   2.861   0.004   0.841
 4244SOL    HW213632   2.950   0.124   0.775
 4245SOL     OW13633   0.230   1.574   1.131
 4245SOL    HW113634   0.197   1.669   1.127
 4245SOL    HW213635   0.293   1.564   1.208
 4246SOL     OW13636   4.045   1.954   3.607
 4246SOL    HW113637   4.094   1.907   3.533
 4246SOL    HW213638   4.011   2.042   3.574
 4247SOL     OW13639   2.427   5.480   6.661
 4247SOL    HW113640   2.410   5.381   6.662
 4247SOL    HW213641   2.403   5.519   6.750
 4248SOL     OW13642   2.739   0.022   2.505
 4248SOL    HW113643   2.661   0.049   2.449
 4248SOL    HW213644   2.790   0.103   2.533
 4249SOL     OW13645   6.168   0.802   5.332
 4249SOL    HW113646   6.248   0.746   5.352
 4249SOL    HW213647   6.197   0.893   5.303
 4250SOL     OW13648   0.919   5.496   4.154
 4250SOL    HW113649   0.897   5.590   4.182
 4250SOL    HW213650   0.947   5.497   4.058
 4251SOL     OW13651   4.843   2.067   4.984
 4251SOL    HW113652   4.791   2.135   5.036
 4251SOL    HW213653   4.934   2.102   4.965
 4252SOL     OW13654   0.810   6.976   6.378
 4252SOL    HW113655   0.876   6.943   6.445
 4252SOL    HW213656   0.718   6.944   6.404
 4253SOL     OW13657   3.962   6.874   2.776
 4253SOL    HW113658   3.989   6.794   2.829
 4253SOL    HW213659   4.027   6.888   2.701
 4254SOL     OW13660   0.892   1.181   5.288
 4254SOL    HW113661   0.866   1.277   5.279
 4254SOL    HW213662   0.871   1.133   5.203
 4255SOL     OW13663   1.071   3.051   4.319
 4255SOL    HW113664   1.059   3.012   4.227
 4255SOL    HW213665   1.145   3.002   4.366
 4256SOL     OW13666   5.931   6.378   0.969
 4256SOL    HW113667   5.856   6.357   0.907
 4256SOL    HW213668   5.960   6.294   1.016
 4257SOL     OW13669   0.116   0.944   2.199
 4257SOL    HW113670   0.139   1.029   2.152
 4257SOL    HW213671   0.196   0.911   2.250
 4258SOL     OW13672   2.699   5.853   0.952
 4258SOL    HW113673   2.757   5.785   0.908
 4258SOL    HW213674   2.755   5.931   0.981
 4259SOL     OW13675   0.884   6.569   0.376
 4259SOL    HW113676   0.920   6.558   0.468
 4259SOL    HW213677   0.880   6.481   0.330
 4260SOL     OW13678   0.117   0.683   5.464
 4260SOL    HW113679   0.164   0.771   5.472
 4260SOL    HW213680   0.183   0.609   5.470
 4261SOL     OW13681   2.350   6.902   3.606
 4261SOL    HW113682   2.414   6.881   3.532
 4261SOL    HW213683   2.284   6.828   3.615
 4262SOL     OW13684   1.515   3.620   4.762
 4262SOL    HW113685   1.529   3.700   4.703
 4262SOL    HW213686   1.603   3.577   4.781
 4263SOL     OW13687   3.531   0.665   2.906
 4263SOL    HW113688   3.627   0.637   2.905
 4263SOL    HW213689   3.521   0.753   2.861
 4264SOL     OW13690   4.399   1.957   6.725
 4264SOL    HW113691   4.319   1.939   6.783
 4264SOL    HW213692   4.469   1.887   6.743
 4265SOL     OW13693   3.283   6.566   6.898
 4265SOL    HW113694   3.231   6.587   6.815
 4265SOL    HW213695   3.221   6.531   6.968
 4266SOL     OW13696   1.308   4.319   2.511
 4266SOL    HW113697   1.243   4.394   2.516
 4266SOL    HW213698   1.378   4.330   2.582
 4267SOL     OW13699   2.092   3.739   3.626
 4267SOL    HW113700   2.007   3.721   3.677
 4267SOL    HW213701   2.098   3.837   3.606
 4268SOL     OW13702   1.494   4.096   6.204
 4268SOL    HW113703   1.535   4.126   6.290
 4268SOL    HW213704   1.397   4.076   6.220
 4269SOL     OW13705   1.972   1.690   4.433
 4269SOL    HW113706   1.892   1.638   4.404
 4269SOL    HW213707   2.015   1.733   4.353
 4270SOL     OW13708   4.104   4.278   1.069
 4270SOL    HW113709   4.062   4.188   1.058
 4270SOL    HW213710   4.057   4.329   1.141
 4271SOL     OW13711   6.249   0.437   0.374
 4271SOL    HW113712   6.315   0.364   0.392
 4271SOL    HW213713   6.159   0.397   0.357
 4272SOL     OW13714   6.438   1.557   5.468
 4272SOL    HW113715   6.440   1.493   5.392
 4272SOL    HW213716   6.477   1.514   5.549
 4273SOL     OW13717   3.411   5.981   3.761
 4273SOL    HW113718   3.494   5.926   3.759
 4273SOL    HW213719   3.366   5.977   3.672
 4274SOL     OW13720   6.847   0.390   1.451
 4274SOL    HW113721   6.760   0.431   1.480
 4274SOL    HW213722   6.921   0.456   1.465
 4275SOL     OW13723   5.849   1.359   4.486
 4275SOL    HW113724   5.809   1.449   4.467
 4275SOL    HW213725   5.775   1.294   4.502
 4276SOL     OW13726   1.710   0.753   2.796
 4276SOL    HW113727   1.709   0.809   2.714
 4276SOL    HW213728   1.733   0.810   2.875
 4277SOL     OW13729   6.242   5.152   2.535
 4277SOL    HW113730   6.185   5.097   2.596
 4277SOL    HW213731   6.313   5.199   2.588
 4278SOL     OW13732   0.484   0.086   1.725
 4278SOL    HW113733   0.388   0.106   1.704
 4278SOL    HW213734   0.489   0.008   1.787
 4279SOL     OW13735   1.289   3.566   3.197
 4279SOL    HW113736   1.231   3.601   3.125
 4279SOL    HW213737   1.286   3.466   3.198
 4280SOL     OW13738   2.754   6.472   6.531
 4280SOL    HW113739   2.851   6.447   6.535
 4280SOL    HW213740   2.703   6.421   6.600
 4281SOL     OW13741   6.746   6.875   2.740
 4281SOL    HW113742   6.692   6.798   2.708
 4281SOL    HW213743   6.839   6.868   2.703
 4282SOL     OW13744   5.110   4.762   2.087
 4282SOL    HW113745   5.171   4.691   2.052
 4282SOL    HW213746   5.123   4.772   2.186
 4283SOL     OW13747   6.105   1.471   4.995
 4283SOL    HW113748   6.010   1.481   4.968
 4283SOL    HW213749   6.163   1.473   4.913
 4284SOL     OW13750   4.862   6.024   0.032
 4284SOL    HW113751   4.830   5.933   0.059
 4284SOL    HW213752   4.825   6.092   0.095
 4285SOL     OW13753   2.862   1.233   6.160
 4285SOL    HW113754   2.869   1.133   6.152
 4285SOL    HW213755   2.837   1.257   6.254
 4286SOL     OW13756   5.409   6.171   7.008
 4286SOL    HW113757   5.334   6.169   0.054
 4286SOL    HW213758   5.484   6.227   0.022
 4287SOL     OW13759   4.406   0.253   0.881
 4287SOL    HW113760   4.413   0.160   0.919
 4287SOL    HW213761   4.493   0.279   0.841
 4288SOL     OW13762   0.158   6.671   2.384
 4288SOL    HW113763   0.157   6.577   2.347
 4288SOL    HW213764   0.072   6.716   2.360
 4289SOL     OW13765   0.364   4.255   5.825
 4289SOL    HW113766   0.277   4.224   5.863
 4289SOL    HW213767   0.437   4.192   5.852
 4290SOL     OW13768   0.165   1.018   2.836
 4290SOL    HW113769   0.183   1.109   2.872
 4290SOL    HW213770   0.073   0.989   2.864
 4291SOL     OW13771   4.575   4.947   5.946
 4291SOL    HW113772   4.614   5.014   6.009
 4291SOL    HW213773   4.648   4.909   5.889
 4292SOL     OW13774   6.458   0.001   0.410
 4292SOL    HW113775   6.400   6.943   0.428
 4292SOL    HW213776   6.548   6.992   0.378
 4293SOL     OW13777   4.148   2.631   5.777
 4293SOL    HW113778   4.107   2.685   5.851
 4293SOL    HW213779   4.163   2.690   5.697
 4294SOL     OW13780   3.291   2.250   0.207
 4294SOL    HW113781   3.226   2.276   0.278
 4294SOL    HW213782   3.384   2.260   0.242
 4295SOL     OW13783   4.204   6.548   2.652
 4295SOL    HW113784   4.291   6.501   2.664
 4295SOL    HW213785   4.162   6.518   2.566
 4296SOL     OW13786   2.121   5.566   1.702
 4296SOL    HW113787   2.193   5.586   1.635
 4296SOL    HW213788   2.163   5.536   1.787
 4297SOL     OW13789   5.037   4.594   7.019
 4297SOL    HW113790   4.937   4.600   7.018
 4297SOL    HW213791   5.075   4.676   6.976
 4298SOL     OW13792   2.268   6.120   0.653
 4298SOL    HW113793   2.254   6.047   0.721
 4298SOL    HW213794   2.188   6.179   0.650
 4299SOL     OW13795   6.840   3.036   6.286
 4299SOL    HW113796   6.848   3.030   6.385
 4299SOL    HW213797   6.906   3.102   6.251
 4300SOL     OW13798   3.697   0.821   1.986
 4300SOL    HW113799   3.678   0.822   2.084
 4300SOL    HW213800   3.773   0.759   1.967
 4301SOL     OW13801   2.015   6.090   4.673
 4301SOL    HW113802   1.938   6.026   4.675
 4301SOL    HW213803   2.070   6.079   4.756
 4302SOL     OW13804   4.348   5.219   0.164
 4302SOL    HW113805   4.347   5.287   0.237
 4302SOL    HW213806   4.257   5.211   0.125
 4303SOL     OW13807   4.515   4.958   3.176
 4303SOL    HW113808   4.451   4.933   3.249
 4303SOL    HW213809   4.609   4.941   3.206
 4304SOL     OW13810   3.407   4.256   1.753
 4304SOL    HW113811   3.476   4.228   1.820
 4304SOL    HW213812   3.403   4.356   1.749
 4305SOL     OW13813   0.995   6.715   5.566
 4305SOL    HW113814   1.072   6.757   5.613
 4305SOL    HW213815   0.910   6.737   5.615
 4306SOL     OW13816   6.344   3.753   5.154
 4306SOL    HW113817   6.384   3.662   5.155
 4306SOL    HW213818   6.404   3.816   5.104
 4307SOL     OW13819   6.556   1.689   4.318
 4307SOL    HW113820   6.534   1.785   4.334
 4307SOL    HW213821   6.480   1.643   4.272
 4308SOL     OW13822   4.237   5.816   5.910
 4308SOL    HW113823   4.196   5.898   5.872
 4308SOL    HW213824   4.326   5.839   5.951
 4309SOL     OW13825   2.959   2.004   0.894
 4309SOL    HW113826   2.935   2.097   0.920
 4309SOL    HW213827   2.948   1.992   0.795
 4310SOL     OW13828   6.493   1.356   4.330
 4310SOL    HW113829   6.557   1.414   4.380
 4310SOL    HW213830   6.494   1.264   4.370
 4311SOL     OW13831   1.155   6.828   1.552
 4311SOL    HW113832   1.070   6.795   1.593
 4311SOL    HW213833   1.162   6.927   1.567
 4312SOL     OW13834   0.758   2.974   2.586
 4312SOL    HW113835   0.750   3.043   2.515
 4312SOL    HW213836   0.674   2.920   2.589
 4313SOL     OW13837   0.953   3.410   0.720
 4313SOL    HW113838   1.042   3.380   0.685
 4313SOL    HW213839   0.893   3.331   0.730
 4314SOL     OW13840   2.641   1.695   5.634
 4314SOL    HW113841   2.592   1.737   5.710
 4314SOL    HW213842   2.578   1.640   5.580
 4315SOL     OW13843   2.742   2.400   5.501
 4315SOL    HW113844   2.823   2.426   5.448
 4315SOL    HW213845   2.691   2.481   5.527
 4316SOL     OW13846   4.255   4.184   1.423
 4316SOL    HW113847   4.292   4.128   1.350
 4316SOL    HW213848   4.305   4.270   1.429
 4317SOL     OW13849   5.145   0.229   3.787
 4317SOL    HW113850   5.197   0.144   3.792
 4317SOL    HW213851   5.074   0.220   3.716
 4318SOL     OW13852   2.125   6.136   4.161
 4318SOL    HW113853   2.126   6.089   4.249
 4318SOL    HW213854   2.039   6.117   4.113
 4319SOL     OW13855   2.060   4.879   1.301
 4319SOL    HW113856   2.105   4.793   1.275
 4319SOL    HW213857   2.128   4.944   1.333
 4320SOL     OW13858   4.231   1.453   1.952
 4320SOL    HW113859   4.265   1.457   2.046
 4320SOL    HW213860   4.140   1.412   1.952
 4321SOL     OW13861   6.429   6.087   2.993
 4321SOL    HW113862   6.373   6.064   3.073
 4321SOL    HW213863   6.526   6.074   3.015
 4322SOL     OW13864   2.661   2.112   4.495
 4322SOL    HW113865   2.577   2.124   4.548
 4322SOL    HW213866   2.671   2.016   4.469
 4323SOL     OW13867   5.407   4.131   1.812
 4323SOL    HW113868   5.435   4.038   1.835
 4323SOL    HW213869   5.460   4.196   1.866
 4324SOL     OW13870   6.691   3.998   5.340
 4324SOL    HW113871   6.610   4.049   5.311
 4324SOL    HW213872   6.669   3.945   5.422
 4325SOL     OW13873   1.508   0.870   0.928
 4325SOL    HW113874   1.575   0.858   0.855
 4325SOL    HW213875   1.556   0.893   1.013
 4326SOL     OW13876   5.042   2.619   2.163
 4326SOL    HW113877   5.069   2.689   2.230
 4326SOL    HW213878   4.947   2.593   2.179
 4327SOL     OW13879   3.052   6.556   4.195
 4327SOL    HW113880   3.060   6.538   4.097
 4327SOL    HW213881   2.956   6.555   4.222
 4328SOL     OW13882   5.833   0.049   2.357
 4328SOL    HW113883   5.825   0.148   2.350
 4328SOL    HW213884   5.783   0.017   2.438
 4329SOL     OW13885   5.898   4.010   0.315
 4329SOL    HW113886   5.800   4.017   0.294
 4329SOL    HW213887   5.943   4.096   0.294
 4330SOL     OW13888   2.899   6.072   5.091
 4330SOL    HW113889   2.868   6.159   5.131
 4330SOL    HW213890   2.819   6.015   5.072
 4331SOL     OW13891   5.996   1.323   2.794
 4331SOL    HW113892   6.014   1.398   2.858
 4331SOL    HW213893   6.013   1.236   2.839
 4332SOL     OW13894   0.007   5.974   1.280
 4332SOL    HW113895   0.091   6.024   1.300
 4332SOL    HW213896   6.956   6.038   1.254
 4333SOL     OW13897   3.853   2.814   5.613
 4333SOL    HW113898   3.861   2.715   5.600
 4333SOL    HW213899   3.762   2.844   5.582
 4334SOL     OW13900   0.678   1.922   3.610
 4334SOL    HW113901   0.663   2.020   3.596
 4334SOL    HW213902   0.762   1.895   3.564
 4335SOL     OW13903   2.024   2.885   1.446
 4335SOL    HW113904   2.082   2.876   1.365
 4335SOL    HW213905   1.987   2.978   1.450
 4336SOL     OW13906   2.398   5.381   5.292
 4336SOL    HW113907   2.314   5.342   5.330
 4336SOL    HW213908   2.399   5.367   5.193
 4337SOL     OW13909   0.537   4.601   4.183
 4337SOL    HW113910   0.563   4.593   4.086
 4337SOL    HW213911   0.438   4.602   4.191
 4338SOL     OW13912   3.439   3.152   5.405
 4338SOL    HW113913   3.513   3.181   5.467
 4338SOL    HW213914   3.478   3.123   5.318
 4339SOL     OW13915   3.562   3.861   5.441
 4339SOL    HW113916   3.648   3.830   5.401
 4339SOL    HW213917   3.487   3.806   5.406
 4340SOL     OW13918   6.997   4.313   0.095
 4340SOL    HW113919   6.956   4.351   0.178
 4340SOL    HW213920   0.050   4.251   0.120
 4341SOL     OW13921   6.015   6.360   1.408
 4341SOL    HW113922   6.020   6.454   1.441
 4341SOL    HW213923   6.101   6.312   1.429
 4342SOL     OW13924   4.936   3.438   2.060
 4342SOL    HW113925   4.889   3.463   1.975
 4342SOL    HW213926   4.933   3.339   2.072
 4343SOL     OW13927   4.371   6.678   6.203
 4343SOL    HW113928   4.345   6.764   6.247
 4343SOL    HW213929   4.297   6.647   6.143
 4344SOL     OW13930   1.403   3.990   2.030
 4344SOL    HW113931   1.404   4.088   2.051
 4344SOL    HW213932   1.457   3.941   2.099
 4345SOL     OW13933   4.094   3.329   2.560
 4345SOL    HW113934   4.171   3.266   2.551
 4345SOL    HW213935   4.106   3.406   2.499
 4346SOL     OW13936   0.886   3.274   2.382
 4346SOL    HW113937   0.917   3.331   2.306
 4346SOL    HW213938   0.880   3.179   2.352
 4347SOL     OW13939   6.131   6.466   1.160
 4347SOL    HW113940   6.044   6.438   1.202
 4347SOL    HW213941   6.113   6.505   1.069
 4348SOL     OW13942   6.321   4.321   6.346
 4348SOL    HW113943   6.339   4.245   6.283
 4348SOL    HW213944   6.400   4.333   6.407
 4349SOL     OW13945   0.908   3.639   3.943
 4349SOL    HW113946   1.001   3.677   3.938
 4349SOL    HW213947   0.911   3.552   3.993
 4350SOL     OW13948   5.263   7.005   3.788
 4350SOL    HW113949   5.340   6.941   3.784
 4350SOL    HW213950   5.180   6.958   3.758
 4351SOL     OW13951   0.303   6.209   1.133
 4351SOL    HW113952   0.364   6.184   1.058
 4351SOL    HW213953   0.297   6.308   1.139
 4352SOL     OW13954   3.498   4.516   1.339
 4352SOL    HW113955   3.480   4.419   1.348
 4352SOL    HW213956   3.412   4.567   1.343
 4353SOL     OW13957   2.265   4.151   0.309
 4353SOL    HW113958   2.293   4.064   0.349
 4353SOL    HW213959   2.228   4.136   0.217
 4354SOL     OW13960   5.589   5.025   2.091
 4354SOL    HW113961   5.671   4.971   2.071
 4354SOL    HW213962   5.518   4.966   2.127
 4355SOL     OW13963   1.880   4.818   3.704
 4355SOL    HW113964   1.902   4.873   3.623
 4355SOL    HW213965   1.964   4.778   3.741
 4356SOL     OW13966   5.733   1.666   5.863
 4356SOL    HW113967   5.792   1.588   5.885
 4356SOL    HW213968   5.703   1.710   5.948
 4357SOL     OW13969   4.662   6.171   2.735
 4357SOL    HW113970   4.676   6.176   2.636
 4357SOL    HW213971   4.565   6.153   2.754
 4358SOL     OW13972   2.939   0.535   1.221
 4358SOL    HW113973   2.876   0.503   1.150
 4358SOL    HW213974   2.919   0.487   1.306
 4359SOL     OW13975   2.733   3.443   1.483
 4359SOL    HW113976   2.703   3.349   1.472
 4359SOL    HW213977   2.683   3.486   1.559
 4360SOL     OW13978   2.682   6.360   4.028
 4360SOL    HW113979   2.768   6.339   4.075
 4360SOL    HW213980   2.702   6.390   3.935
 4361SOL     OW13981   1.887   0.945   6.486
 4361SOL    HW113982   1.808   0.959   6.545
 4361SOL    HW213983   1.946   0.875   6.525
 4362SOL     OW13984   6.609   5.932   2.426
 4362SOL    HW113985   6.673   5.856   2.413
 4362SOL    HW213986   6.578   5.934   2.521
 4363SOL     OW13987   3.888   0.327   2.384
 4363SOL    HW113988   3.830   0.280   2.451
 4363SOL    HW213989   3.971   0.275   2.369
 4364SOL     OW13990   3.105   4.020   3.124
 4364SOL    HW113991   3.086   3.981   3.215
 4364SOL    HW213992   3.200   4.050   3.120
 4365SOL     OW13993   2.509   1.589   0.563
 4365SOL    HW113994   2.593   1.621   0.605
 4365SOL    HW213995   2.518   1.491   0.541
 4366SOL     OW13996   4.938   5.828   4.839
 4366SOL    HW113997   4.962   5.907   4.782
 4366SOL    HW213998   4.863   5.778   4.795
 4367SOL     OW13999   2.007   6.986   1.643
 4367SOL    HW114000   2.094   0.001   1.677
 4367SOL    HW214001   1.933   0.029   1.664
 4368SOL     OW14002   4.823   5.276   4.397
 4368SOL    HW114003   4.746   5.220   4.365
 4368SOL    HW214004   4.902   5.259   4.339
 4369SOL     OW14005   6.906   3.919   4.392
 4369SOL    HW114006   6.878   4.008   4.356
 4369SOL    HW214007   7.005   3.908   4.378
 4370SOL     OW14008   5.166   4.424   1.462
 4370SOL    HW114009   5.197   4.331   1.480
 4370SOL    HW214010   5.069   4.423   1.437
 4371SOL     OW14011   3.491   0.482   3.353
 4371SOL    HW114012   3.500   0.490   3.452
 4371SOL    HW214013   3.501   0.572   3.311
 4372SOL     OW14014   1.738   4.557   5.248
 4372SOL    HW114015   1.776   4.543   5.157
 4372SOL    HW214016   1.761   4.479   5.307
 4373SOL     OW14017   4.600   0.637   0.223
 4373SOL    HW114018   4.657   0.588   0.157
 4373SOL    HW214019   4.596   0.586   0.309
 4374SOL     OW14020   2.071   6.040   0.336
 4374SOL    HW114021   2.036   6.027   0.429
 4374SOL    HW214022   2.034   6.125   0.298
 4375SOL     OW14023   4.670   0.902   5.922
 4375SOL    HW114024   4.752   0.878   5.868
 4375SOL    HW214025   4.664   0.842   6.001
 4376SOL     OW14026   3.050   4.643   6.959
 4376SOL    HW114027   3.065   4.619   0.033
 4376SOL    HW214028   3.138   4.651   6.912
 4377SOL     OW14029   5.609   6.386   0.113
 4377SOL    HW114030   5.650   6.376   0.023
 4377SOL    HW214031   5.650   6.463   0.161
 4378SOL     OW14032   3.287   4.711   1.344
 4378SOL    HW114033   3.210   4.713   1.408
 4378SOL    HW214034   3.343   4.793   1.356
 4379SOL     OW14035   6.350   6.211   0.523
 4379SOL    HW114036   6.424   6.193   0.459
 4379SOL    HW214037   6.319   6.125   0.563
 4380SOL     OW14038   1.762   6.356   4.956
 4380SOL    HW114039   1.788   6.264   4.924
 4380SOL    HW214040   1.673   6.380   4.919
 4381SOL     OW14041   3.335   6.335   4.241
 4381SOL    HW114042   3.395   6.274   4.293
 4381SOL    HW214043   3.312   6.415   4.296
 4382SOL     OW14044   5.417   3.995   3.864
 4382SOL    HW114045   5.381   3.941   3.940
 4382SOL    HW214046   5.344   4.012   3.797
 4383SOL     OW14047   1.236   0.420   6.753
 4383SOL    HW114048   1.158   0.374   6.709
 4383SOL    HW214049   1.228   0.519   6.740
 4384SOL     OW14050   3.836   6.687   1.898
 4384SOL    HW114051   3.775   6.762   1.872
 4384SOL    HW214052   3.922   6.726   1.933
 4385SOL     OW14053   6.133   2.598   4.339
 4385SOL    HW114054   6.058   2.569   4.398
 4385SOL    HW214055   6.220   2.573   4.381
 4386SOL     OW14056   1.801   5.689   6.899
 4386SOL    HW114057   1.843   5.766   6.946
 4386SOL    HW214058   1.798   5.707   6.801
 4387SOL     OW14059   6.236   2.272   1.100
 4387SOL    HW114060   6.166   2.240   1.164
 4387SOL    HW214061   6.212   2.364   1.068
 4388SOL     OW14062   4.411   1.373   5.901
 4388SOL    HW114063   4.444   1.279   5.896
 4388SOL    HW214064   4.377   1.392   5.993
 4389SOL     OW14065   1.142   2.254   2.695
 4389SOL    HW114066   1.169   2.342   2.657
 4389SOL    HW214067   1.043   2.253   2.710
 4390SOL     OW14068   4.659   3.985   1.042
 4390SOL    HW114069   4.575   3.989   0.989
 4390SOL    HW214070   4.704   3.896   1.026
 4391SOL     OW14071   0.485   5.634   0.861
 4391SOL    HW114072   0.446   5.543   0.848
 4391SOL    HW214073   0.585   5.627   0.860
 4392SOL     OW14074   5.107   5.167   4.816
 4392SOL    HW114075   5.064   5.231   4.879
 4392SOL    HW214076   5.090   5.196   4.722
 4393SOL     OW14077   4.629   6.519   2.745
 4393SOL    HW114078   4.624   6.564   2.656
 4393SOL    HW214079   4.559   6.555   2.805
 4394SOL     OW14080   4.553   0.904   2.663
 4394SOL    HW114081   4.485   0.830   2.658
 4394SOL    HW214082   4.636   0.870   2.707
 4395SOL     OW14083   4.532   2.479   0.857
 4395SOL    HW114084   4.631   2.474   0.852
 4395SOL    HW214085   4.492   2.445   0.772
 4396SOL     OW14086   1.940   1.412   2.366
 4396SOL    HW114087   2.004   1.414   2.443
 4396SOL    HW214088   1.929   1.318   2.334
 4397SOL     OW14089   4.068   1.761   6.959
 4397SOL    HW114090   4.052   1.665   6.981
 4397SOL    HW214091   4.087   1.770   6.861
 4398SOL     OW14092   0.956   5.015   4.799
 4398SOL    HW114093   0.978   5.091   4.860
 4398SOL    HW214094   1.031   5.002   4.734
 4399SOL     OW14095   2.948   0.374   1.501
 4399SOL    HW114096   2.940   0.289   1.449
 4399SOL    HW214097   2.981   0.353   1.593
 4400SOL     OW14098   3.126   4.968   2.788
 4400SOL    HW114099   3.135   4.919   2.874
 4400SOL    HW214100   3.051   4.930   2.735
 4401SOL     OW14101   5.089   6.394   4.508
 4401SOL    HW114102   4.990   6.385   4.502
 4401SOL    HW214103   5.125   6.329   4.575
 4402SOL     OW14104   0.140   6.319   1.827
 4402SOL    HW114105   0.057   6.371   1.848
 4402SOL    HW214106   0.141   6.234   1.881
 4403SOL     OW14107   6.407   1.624   3.483
 4403SOL    HW114108   6.465   1.552   3.445
 4403SOL    HW214109   6.437   1.713   3.448
 4404SOL     OW14110   1.756   3.593   2.454
 4404SOL    HW114111   1.701   3.531   2.397
 4404SOL    HW214112   1.714   3.601   2.544
 4405SOL     OW14113   2.535   3.690   6.640
 4405SOL    HW114114   2.600   3.696   6.716
 4405SOL    HW214115   2.586   3.685   6.554
 4406SOL     OW14116   5.882   2.652   2.270
 4406SOL    HW114117   5.825   2.577   2.238
 4406SOL    HW214118   5.972   2.646   2.229
 4407SOL     OW14119   1.010   0.601   0.286
 4407SOL    HW114120   0.969   0.531   0.345
 4407SOL    HW214121   1.093   0.565   0.245
 4408SOL     OW14122   4.156   6.225   1.367
 4408SOL    HW114123   4.111   6.266   1.447
 4408SOL    HW214124   4.139   6.282   1.286
 4409SOL     OW14125   3.497   2.022   3.322
 4409SOL    HW114126   3.518   1.935   3.365
 4409SOL    HW214127   3.565   2.091   3.348
 4410SOL     OW14128   2.029   5.586   0.797
 4410SOL    HW114129   2.074   5.610   0.883
 4410SOL    HW214130   2.095   5.588   0.722
 4411SOL     OW14131   3.417   2.943   2.227
 4411SOL    HW114132   3.434   2.995   2.310
 4411SOL    HW214133   3.501   2.894   2.201
 4412SOL     OW14134   3.678   1.495   5.988
 4412SOL    HW114135   3.588   1.477   5.949
 4412SOL    HW214136   3.681   1.461   6.082
 4413SOL     OW14137   3.722   5.605   3.785
 4413SOL    HW114138   3.710   5.510   3.815
 4413SOL    HW214139   3.814   5.617   3.747
 4414SOL     OW14140   3.401   4.887   1.742
 4414SOL    HW114141   3.425   4.790   1.746
 4414SOL    HW214142   3.431   4.932   1.826
 4415SOL     OW14143   4.327   0.953   1.521
 4415SOL    HW114144   4.233   0.984   1.510
 4415SOL    HW214145   4.357   0.969   1.615
 4416SOL     OW14146   2.985   2.209   4.732
 4416SOL    HW114147   3.043   2.258   4.798
 4416SOL    HW214148   2.919   2.153   4.781
 4417SOL     OW14149   5.474   7.019   1.477
 4417SOL    HW114150   5.510   0.070   1.537
 4417SOL    HW214151   5.527   7.017   1.393
 4418SOL     OW14152   4.455   0.102   3.030
 4418SOL    HW114153   4.547   0.116   3.067
 4418SOL    HW214154   4.390   0.159   3.080
 4419SOL     OW14155   6.197   5.335   6.330
 4419SOL    HW114156   6.190   5.241   6.296
 4419SOL    HW214157   6.286   5.373   6.305
 4420SOL     OW14158   5.328   0.892   0.805
 4420SOL    HW114159   5.344   0.990   0.803
 4420SOL    HW214160   5.414   0.843   0.790
 4421SOL     OW14161   0.425   1.743   3.030
 4421SOL    HW114162   0.442   1.838   3.056
 4421SOL    HW214163   0.425   1.734   2.931
 4422SOL     OW14164   1.379   4.190   5.909
 4422SOL    HW114165   1.379   4.158   6.003
 4422SOL    HW214166   1.384   4.112   5.847
 4423SOL     OW14167   6.533   1.446   5.708
 4423SOL    HW114168   6.610   1.509   5.714
 4423SOL    HW214169   6.467   1.467   5.779
 4424SOL     OW14170   1.590   5.644   3.285
 4424SOL    HW114171   1.679   5.615   3.249
 4424SOL    HW214172   1.519   5.580   3.255
 4425SOL     OW14173   5.116   3.919   1.974
 4425SOL    HW114174   5.053   3.960   2.040
 4425SOL    HW214175   5.065   3.857   1.914
 4426SOL     OW14176   0.613   6.754   6.501
 4426SOL    HW114177   0.676   6.708   6.439
 4426SOL    HW214178   0.537   6.693   6.522
 4427SOL     OW14179   0.818   5.406   3.405
 4427SOL    HW114180   0.839   5.496   3.442
 4427SOL    HW214181   0.720   5.388   3.414
 4428SOL     OW14182   1.392   0.163   3.021
 4428SOL    HW114183   1.376   0.262   3.025
 4428SOL    HW214184   1.478   0.146   2.973
 4429SOL     OW14185   2.738   0.035   2.188
 4429SOL    HW114186   2.664   0.079   2.137
 4429SOL    HW214187   2.734   0.064   2.283
 4430SOL     OW14188   2.112   0.222   1.933
 4430SOL    HW114189   2.036   0.165   1.967
 4430SOL    HW214190   2.180   0.163   1.888
 4431SOL     OW14191   1.952   1.948   2.845
 4431SOL    HW114192   2.050   1.966   2.838
 4431SOL    HW214193   1.909   1.961   2.756
 4432SOL     OW14194   3.710   3.988   4.691
 4432SOL    HW114195   3.642   4.001   4.619
 4432SOL    HW214196   3.732   3.891   4.700
 4433SOL     OW14197   6.654   0.169   1.552
 4433SOL    HW114198   6.710   0.248   1.524
 4433SOL    HW214199   6.587   0.149   1.481
 4434SOL     OW14200   5.649   1.842   5.674
 4434SOL    HW114201   5.555   1.825   5.644
 4434SOL    HW214202   5.674   1.777   5.745
 4435SOL     OW14203   3.736   2.827   1.950
 4435SOL    HW114204   3.743   2.855   1.854
 4435SOL    HW214205   3.730   2.727   1.955
 4436SOL     OW14206   5.743   0.189   0.226
 4436SOL    HW114207   5.655   0.147   0.207
 4436SOL    HW214208   5.736   0.245   0.308
 4437SOL     OW14209   3.409   6.663   5.700
 4437SOL    HW114210   3.434   6.695   5.791
 4437SOL    HW214211   3.464   6.711   5.632
 4438SOL     OW14212   3.818   2.568   6.831
 4438SOL    HW114213   3.896   2.630   6.839
 4438SOL    HW214214   3.820   2.523   6.742
 4439SOL     OW14215   1.296   4.491   3.235
 4439SOL    HW114216   1.263   4.576   3.278
 4439SOL    HW214217   1.396   4.490   3.236
 4440SOL     OW14218   6.436   1.148   0.603
 4440SOL    HW114219   6.406   1.229   0.653
 4440SOL    HW214220   6.377   1.070   0.627
 4441SOL     OW14221   6.436   0.597   4.075
 4441SOL    HW114222   6.462   0.680   4.124
 4441SOL    HW214223   6.514   0.534   4.071
 4442SOL     OW14224   2.040   5.986   2.383
 4442SOL    HW114225   1.996   5.924   2.318
 4442SOL    HW214226   1.971   6.029   2.440
 4443SOL     OW14227   1.869   1.197   1.193
 4443SOL    HW114228   1.917   1.233   1.273
 4443SOL    HW214229   1.921   1.220   1.110
 4444SOL     OW14230   4.775   1.795   3.289
 4444SOL    HW114231   4.843   1.844   3.344
 4444SOL    HW214232   4.821   1.745   3.216
 4445SOL     OW14233   0.812   2.086   6.330
 4445SOL    HW114234   0.784   2.182   6.322
 4445SOL    HW214235   0.748   2.038   6.390
 4446SOL     OW14236   6.937   4.756   4.509
 4446SOL    HW114237   6.925   4.800   4.420
 4446SOL    HW214238   0.013   4.751   4.531
 4447SOL     OW14239   4.951   3.867   5.037
 4447SOL    HW114240   4.901   3.783   5.017
 4447SOL    HW214241   4.960   3.878   5.136
 4448SOL     OW14242   2.306   3.378   6.693
 4448SOL    HW114243   2.372   3.397   6.620
 4448SOL    HW214244   2.215   3.406   6.664
 4449SOL     OW14245   6.847   1.453   5.341
 4449SOL    HW114246   6.767   1.511   5.323
 4449SOL    HW214247   6.824   1.358   5.323
 4450SOL     OW14248   3.803   3.504   3.379
 4450SOL    HW114249   3.731   3.469   3.320
 4450SOL    HW214250   3.783   3.480   3.474
 4451SOL     OW14251   0.557   5.005   1.260
 4451SOL    HW114252   0.600   5.022   1.171
 4451SOL    HW214253   0.600   4.926   1.303
 4452SOL     OW14254   0.730   3.846   6.787
 4452SOL    HW114255   0.667   3.921   6.809
 4452SOL    HW214256   0.693   3.760   6.822
 4453SOL     OW14257   5.876   0.483   1.499
 4453SOL    HW114258   5.827   0.555   1.450
 4453SOL    HW214259   5.881   0.507   1.596
 4454SOL     OW14260   5.905   3.418   1.844
 4454SOL    HW114261   5.888   3.323   1.872
 4454SOL    HW214262   5.820   3.458   1.809
 4455SOL     OW14263   4.562   2.316   2.580
 4455SOL    HW114264   4.502   2.389   2.547
 4455SOL    HW214265   4.515   2.228   2.575
 4456SOL     OW14266   0.337   6.032   2.428
 4456SOL    HW114267   0.406   6.050   2.358
 4456SOL    HW214268   0.295   5.943   2.412
 4457SOL     OW14269   4.343   2.503   6.111
 4457SOL    HW114270   4.342   2.430   6.179
 4457SOL    HW214271   4.308   2.587   6.152
 4458SOL     OW14272   4.888   1.903   1.229
 4458SOL    HW114273   4.852   1.957   1.305
 4458SOL    HW214274   4.830   1.915   1.149
 4459SOL     OW14275   5.867   5.547   6.111
 4459SOL    HW114276   5.852   5.602   6.194
 4459SOL    HW214277   5.965   5.531   6.100
 4460SOL     OW14278   1.360   1.079   0.471
 4460SOL    HW114279   1.433   1.122   0.524
 4460SOL    HW214280   1.285   1.145   0.459
 4461SOL     OW14281   1.900   0.836   2.999
 4461SOL    HW114282   1.903   0.893   3.081
 4461SOL    HW214283   1.983   0.850   2.946
 4462SOL     OW14284   0.092   3.664   0.873
 4462SOL    HW114285   0.170   3.662   0.935
 4462SOL    HW214286   0.021   3.602   0.906
 4463SOL     OW14287   0.585   4.508   6.870
 4463SOL    HW114288   0.673   4.491   6.825
 4463SOL    HW214289   0.513   4.515   6.801
 4464SOL     OW14290   6.899   3.075   0.041
 4464SOL    HW114291   6.912   3.149   0.108
 4464SOL    HW214292   6.950   2.994   0.071
 4465SOL     OW14293   6.106   5.313   1.172
 4465SOL    HW114294   6.075   5.280   1.261
 4465SOL    HW214295   6.176   5.250   1.136
 4466SOL     OW14296   6.694   3.239   4.066
 4466SOL    HW114297   6.594   3.242   4.058
 4466SOL    HW214298   6.720   3.166   4.129
 4467SOL     OW14299   1.067   0.198   4.664
 4467SOL    HW114300   1.000   0.208   4.737
 4467SOL    HW214301   1.159   0.211   4.700
 4468SOL     OW14302   1.060   0.853   0.699
 4468SOL    HW114303   1.157   0.836   0.678
 4468SOL    HW214304   1.044   0.951   0.709
 4469SOL     OW14305   4.656   6.729   0.306
 4469SOL    HW114306   4.741   6.680   0.287
 4469SOL    HW214307   4.676   6.817   0.349
 4470SOL     OW14308   4.878   4.286   1.444
 4470SOL    HW114309   4.920   4.241   1.523
 4470SOL    HW214310   4.781   4.300   1.461
 4471SOL     OW14311   5.788   2.429   1.751
 4471SOL    HW114312   5.792   2.363   1.826
 4471SOL    HW214313   5.813   2.383   1.666
 4472SOL     OW14314   2.534   5.241   1.499
 4472SOL    HW114315   2.442   5.202   1.500
 4472SOL    HW214316   2.598   5.177   1.542
 4473SOL     OW14317   6.159   0.296   0.968
 4473SOL    HW114318   6.228   0.334   0.907
 4473SOL    HW214319   6.142   0.359   1.043
 4474SOL     OW14320   6.235   1.055   5.224
 4474SOL    HW114321   6.225   1.152   5.203
 4474SOL    HW214322   6.258   1.005   5.140
 4475SOL     OW14323   1.530   3.323   0.461
 4475SOL    HW114324   1.564   3.416   0.479
 4475SOL    HW214325   1.493   3.319   0.368
 4476SOL     OW14326   3.711   6.318   2.739
 4476SOL    HW114327   3.681   6.269   2.821
 4476SOL    HW214328   3.809   6.304   2.725
 4477SOL     OW14329   2.019   2.308   0.997
 4477SOL    HW114330   1.935   2.353   1.028
 4477SOL    HW214331   2.040   2.339   0.904
 4478SOL     OW14332   1.200   4.771   1.018
 4478SOL    HW114333   1.194   4.778   1.117
 4478SOL    HW214334   1.139   4.698   0.986
 4479SOL     OW14335   1.763   6.541   6.162
 4479SOL    HW114336   1.834   6.499   6.218
 4479SOL    HW214337   1.765   6.503   6.070
 4480SOL     OW14338   6.651   3.585   3.252
 4480SOL    HW114339   6.747   3.584   3.225
 4480SOL    HW214340   6.624   3.679   3.274
 4481SOL     OW14341   0.814   1.043   4.570
 4481SOL    HW114342   0.804   0.944   4.584
 4481SOL    HW214343   0.898   1.061   4.519
 4482SOL     OW14344   0.406   3.947   3.056
 4482SOL    HW114345   0.361   3.890   3.124
 4482SOL    HW214346   0.386   3.913   2.964
 4483SOL     OW14347   5.893   3.707   1.105
 4483SOL    HW114348   5.887   3.779   1.036
 4483SOL    HW214349   5.807   3.702   1.155
 4484SOL     OW14350   3.004   3.715   6.470
 4484SOL    HW114351   2.920   3.738   6.422
 4484SOL    HW214352   2.985   3.705   6.567
 4485SOL     OW14353   4.328   0.131   5.861
 4485SOL    HW114354   4.323   0.198   5.787
 4485SOL    HW214355   4.371   0.047   5.828
 4486SOL     OW14356   6.222   3.497   4.114
 4486SOL    HW114357   6.175   3.410   4.107
 4486SOL    HW214358   6.180   3.553   4.185
 4487SOL     OW14359   3.286   3.033   5.957
 4487SOL    HW114360   3.303   3.026   5.859
 4487SOL    HW214361   3.203   3.087   5.972
 4488SOL     OW14362   0.037   2.083   6.455
 4488SOL    HW114363   6.963   2.066   6.483
 4488SOL    HW214364   0.092   2.002   6.476
 4489SOL     OW14365   0.637   1.138   3.039
 4489SOL    HW114366   0.684   1.093   2.963
 4489SOL    HW214367   0.694   1.212   3.074
 4490SOL     OW14368   6.745   2.292   4.256
 4490SOL    HW114369   6.668   2.229   4.270
 4490SOL    HW214370   6.711   2.386   4.256
 4491SOL     OW14371   2.032   4.631   2.164
 4491SOL    HW114372   2.049   4.634   2.263
 4491SOL    HW214373   1.944   4.587   2.147
 4492SOL     OW14374   5.348   3.832   5.746
 4492SOL    HW114375   5.381   3.758   5.688
 4492SOL    HW214376   5.329   3.797   5.837
 4493SOL     OW14377   5.798   4.550   3.163
 4493SOL    HW114378   5.827   4.505   3.248
 4493SOL    HW214379   5.854   4.516   3.087
 4494SOL     OW14380   5.112   2.556   1.917
 4494SOL    HW114381   5.033   2.553   1.856
 4494SOL    HW214382   5.082   2.558   2.012
 4495SOL     OW14383   5.720   5.319   1.893
 4495SOL    HW114384   5.742   5.285   1.985
 4495SOL    HW214385   5.657   5.256   1.848
 4496SOL     OW14386   5.765   3.259   6.047
 4496SOL    HW114387   5.778   3.291   6.141
 4496SOL    HW214388   5.787   3.162   6.042
 4497SOL     OW14389   6.705   6.471   1.272
 4497SOL    HW114390   6.773   6.446   1.341
 4497SOL    HW214391   6.749   6.524   1.199
 4498SOL     OW14392   1.135   4.244   6.009
 4498SOL    HW114393   1.104   4.169   6.069
 4498SOL    HW214394   1.223   4.220   5.969
 4499SOL     OW14395   5.582   4.003   0.517
 4499SOL    HW114396   5.669   3.970   0.551
 4499SOL    HW214397   5.584   4.006   0.417
 4500SOL     OW14398   3.784   4.104   2.106
 4500SOL    HW114399   3.824   4.182   2.058
 4500SOL    HW214400   3.808   4.019   2.058
 4501SOL     OW14401   1.920   5.648   4.986
 4501SOL    HW114402   1.940   5.622   5.080
 4501SOL    HW214403   1.980   5.723   4.959
 4502SOL     OW14404   5.829   2.490   0.531
 4502SOL    HW114405   5.749   2.479   0.590
 4502SOL    HW214406   5.811   2.562   0.464
 4503SOL     OW14407   1.061   3.335   3.054
 4503SOL    HW114408   1.017   3.425   3.059
 4503SOL    HW214409   1.084   3.315   2.959
 4504SOL     OW14410   4.416   2.044   4.152
 4504SOL    HW114411   4.487   2.031   4.083
 4504SOL    HW214412   4.343   2.101   4.114
 4505SOL     OW14413   2.375   5.336   0.232
 4505SOL    HW114414   2.470   5.357   0.207
 4505SOL    HW214415   2.368   5.325   0.331
 4506SOL     OW14416   3.654   6.747   5.569
 4506SOL    HW114417   3.701   6.677   5.517
 4506SOL    HW214418   3.706   6.833   5.564
 4507SOL     OW14419   5.896   3.773   2.675
 4507SOL    HW114420   5.915   3.866   2.708
 4507SOL    HW214421   5.910   3.770   2.576
 4508SOL     OW14422   2.107   4.167   0.582
 4508SOL    HW114423   2.088   4.154   0.485
 4508SOL    HW214424   2.193   4.217   0.593
 4509SOL     OW14425   0.819   2.803   3.395
 4509SOL    HW114426   0.830   2.805   3.494
 4509SOL    HW214427   0.909   2.800   3.351
 4510SOL     OW14428   2.936   6.690   6.625
 4510SOL    HW114429   2.930   6.741   6.538
 4510SOL    HW214430   2.903   6.597   6.611
 4511SOL     OW14431   0.541   2.495   0.038
 4511SOL    HW114432   0.539   2.586   0.081
 4511SOL    HW214433   0.555   2.505   6.961
 4512SOL     OW14434   2.154   4.063   0.051
 4512SOL    HW114435   2.241   4.076   0.005
 4512SOL    HW214436   2.117   3.973   0.030
 4513SOL     OW14437   6.363   1.278   2.882
 4513SOL    HW114438   6.290   1.213   2.861
 4513SOL    HW214439   6.336   1.335   2.959
 4514SOL     OW14440   2.154   0.387   4.892
 4514SOL    HW114441   2.093   0.441   4.949
 4514SOL    HW214442   2.230   0.444   4.861
 4515SOL     OW14443   0.068   4.715   0.563
 4515SOL    HW114444   0.149   4.740   0.616
 4515SOL    HW214445   7.007   4.746   0.610
 4516SOL     OW14446   0.724   0.026   3.751
 4516SOL    HW114447   0.626   0.012   3.765
 4516SOL    HW214448   0.750   7.013   3.660
 4517SOL     OW14449   2.648   0.719   6.799
 4517SOL    HW114450   2.670   0.713   6.896
 4517SOL    HW214451   2.728   0.748   6.748
 4518SOL     OW14452   1.421   0.667   3.585
 4518SOL    HW114453   1.424   0.711   3.495
 4518SOL    HW214454   1.326   0.644   3.608
 4519SOL     OW14455   6.614   2.184   4.799
 4519SOL    HW114456   6.696   2.127   4.792
 4519SOL    HW214457   6.534   2.132   4.770
 4520SOL     OW14458   0.142   3.260   2.980
 4520SOL    HW114459   0.061   3.202   2.988
 4520SOL    HW214460   0.216   3.223   3.036
 4521SOL     OW14461   5.249   1.803   6.292
 4521SOL    HW114462   5.205   1.743   6.359
 4521SOL    HW214463   5.250   1.757   6.203
 4522SOL     OW14464   5.380   6.762   3.454
 4522SOL    HW114465   5.479   6.749   3.464
 4522SOL    HW214466   5.361   6.854   3.420
 4523SOL     OW14467   4.839   1.979   5.850
 4523SOL    HW114468   4.758   1.938   5.809
 4523SOL    HW214469   4.832   2.079   5.846
 4524SOL     OW14470   5.735   1.104   5.547
 4524SOL    HW114471   5.783   1.029   5.501
 4524SOL    HW214472   5.718   1.177   5.480
 4525SOL     OW14473   6.802   1.431   3.854
 4525SOL    HW114474   6.875   1.483   3.897
 4525SOL    HW214475   6.748   1.492   3.795
 4526SOL     OW14476   2.638   1.560   1.377
 4526SOL    HW114477   2.544   1.580   1.403
 4526SOL    HW214478   2.701   1.602   1.443
 4527SOL     OW14479   4.641   6.651   3.740
 4527SOL    HW114480   4.631   6.671   3.837
 4527SOL    HW214481   4.583   6.713   3.687
 4528SOL     OW14482   4.654   0.312   6.497
 4528SOL    HW114483   4.691   0.262   6.420
 4528SOL    HW214484   4.635   0.406   6.470
 4529SOL     OW14485   3.304   0.488   4.325
 4529SOL    HW114486   3.263   0.575   4.353
 4529SOL    HW214487   3.402   0.500   4.311
 4530SOL     OW14488   6.561   2.603   4.136
 4530SOL    HW114489   6.589   2.639   4.047
 4530SOL    HW214490   6.488   2.537   4.123
 4531SOL     OW14491   0.194   4.150   3.681
 4531SOL    HW114492   0.215   4.098   3.764
 4531SOL    HW214493   0.200   4.248   3.701
 4532SOL     OW14494   0.448   2.468   0.348
 4532SOL    HW114495   0.389   2.465   0.429
 4532SOL    HW214496   0.412   2.536   0.284
 4533SOL     OW14497   3.401   6.417   1.901
 4533SOL    HW114498   3.391   6.516   1.915
 4533SOL    HW214499   3.446   6.400   1.814
 4534SOL     OW14500   6.785   3.897   6.052
 4534SOL    HW114501   6.773   3.986   6.097
 4534SOL    HW214502   6.858   3.903   5.984
 4535SOL     OW14503   5.055   2.142   2.704
 4535SOL    HW114504   4.978   2.197   2.672
 4535SOL    HW214505   5.075   2.070   2.637
 4536SOL     OW14506   6.865   0.032   3.760
 4536SOL    HW114507   6.956   0.070   3.746
 4536SOL    HW214508   6.860   6.963   3.718
 4537SOL     OW14509   5.002   2.867   5.454
 4537SOL    HW114510   5.052   2.888   5.371
 4537SOL    HW214511   4.926   2.804   5.432
 4538SOL     OW14512   3.674   2.041   1.818
 4538SOL    HW114513   3.589   2.062   1.768
 4538SOL    HW214514   3.690   2.112   1.887
 4539SOL     OW14515   2.545   3.201   1.491
 4539SOL    HW114516   2.471   3.162   1.546
 4539SOL    HW214517   2.523   3.192   1.394
 4540SOL     OW14518   3.903   3.075   4.597
 4540SOL    HW114519   3.913   3.080   4.498
 4540SOL    HW214520   3.832   3.009   4.620
 4541SOL     OW14521   6.301   1.270   1.499
 4541SOL    HW114522   6.260   1.311   1.580
 4541SOL    HW214523   6.301   1.170   1.509
 4542SOL     OW14524   5.284   6.477   3.595
 4542SOL    HW114525   5.281   6.503   3.691
 4542SOL    HW214526   5.331   6.549   3.543
 4543SOL     OW14527   5.184   2.494   2.534
 4543SOL    HW114528   5.105   2.463   2.481
 4543SOL    HW214529   5.159   2.575   2.587
 4544SOL     OW14530   5.555   4.878   6.510
 4544SOL    HW114531   5.571   4.797   6.566
 4544SOL    HW214532   5.501   4.944   6.562
 4545SOL     OW14533   3.971   3.547   6.987
 4545SOL    HW114534   3.983   3.537   6.889
 4545SOL    HW214535   3.874   3.537   7.010
 4546SOL     OW14536   0.644   6.062   0.607
 4546SOL    HW114537   0.724   6.118   0.624
 4546SOL    HW214538   0.585   6.107   0.540
 4547SOL     OW14539   4.697   1.438   2.616
 4547SOL    HW114540   4.792   1.469   2.604
 4547SOL    HW214541   4.695   1.355   2.672
 4548SOL     OW14542   0.833   3.454   4.292
 4548SOL    HW114543   0.918   3.496   4.262
 4548SOL    HW214544   0.853   3.370   4.343
 4549SOL     OW14545   5.732   1.262   2.459
 4549SOL    HW114546   5.708   1.182   2.514
 4549SOL    HW214547   5.795   1.320   2.509
 4550SOL     OW14548   2.361   5.282   5.017
 4550SOL    HW114549   2.340   5.249   4.925
 4550SOL    HW214550   2.368   5.205   5.080
 4551SOL     OW14551   6.740   3.568   0.571
 4551SOL    HW114552   6.744   3.476   0.609
 4551SOL    HW214553   6.831   3.610   0.572
 4552SOL     OW14554   0.191   3.476   4.984
 4552SOL    HW114555   0.100   3.503   5.014
 4552SOL    HW214556   0.202   3.377   4.996
 4553SOL     OW14557   5.451   5.091   6.666
 4553SOL    HW114558   5.536   5.097   6.718
 4553SOL    HW214559   5.384   5.039   6.720
 4554SOL     OW14560   6.656   6.537   3.839
 4554SOL    HW114561   6.592   6.500   3.772
 4554SOL    HW214562   6.695   6.462   3.893
 4555SOL     OW14563   3.898   2.790   0.414
 4555SOL    HW114564   3.942   2.870   0.453
 4555SOL    HW214565   3.842   2.817   0.335
 4556SOL     OW14566   4.408   0.515   5.245
 4556SOL    HW114567   4.380   0.607   5.274
 4556SOL    HW214568   4.334   0.473   5.193
 4557SOL     OW14569   5.439   1.214   4.221
 4557SOL    HW114570   5.482   1.170   4.300
 4557SOL    HW214571   5.424   1.311   4.241
 4558SOL     OW14572   0.327   2.971   6.345
 4558SOL    HW114573   0.318   2.947   6.248
 4558SOL    HW214574   0.247   2.937   6.395
 4559SOL     OW14575   1.696   6.779   1.378
 4559SOL    HW114576   1.762   6.830   1.323
 4559SOL    HW214577   1.724   6.683   1.384
 4560SOL     OW14578   6.059   2.843   3.212
 4560SOL    HW114579   6.082   2.843   3.115
 4560SOL    HW214580   5.961   2.856   3.223
 4561SOL     OW14581   3.346   6.256   6.236
 4561SOL    HW114582   3.344   6.348   6.199
 4561SOL    HW214583   3.272   6.202   6.196
 4562SOL     OW14584   2.605   3.852   5.982
 4562SOL    HW114585   2.541   3.853   5.905
 4562SOL    HW214586   2.599   3.764   6.029
 4563SOL     OW14587   5.919   2.726   0.001
 4563SOL    HW114588   5.828   2.761   0.020
 4563SOL    HW214589   5.970   2.794   6.970
 4564SOL     OW14590   6.969   5.029   6.986
 4564SOL    HW114591   7.001   5.043   0.059
 4564SOL    HW214592   6.938   4.935   6.975
 4565SOL     OW14593   3.618   1.045   3.783
 4565SOL    HW114594   3.602   1.097   3.867
 4565SOL    HW214595   3.533   1.000   3.755
 4566SOL     OW14596   1.857   0.862   0.763
 4566SOL    HW114597   1.835   0.847   0.859
 4566SOL    HW214598   1.802   0.801   0.706
 4567SOL     OW14599   5.690   2.183   0.443
 4567SOL    HW114600   5.610   2.230   0.405
 4567SOL    HW214601   5.716   2.106   0.385
 4568SOL     OW14602   4.600   4.493   4.017
 4568SOL    HW114603   4.556   4.579   3.991
 4568SOL    HW214604   4.627   4.497   4.113
 4569SOL     OW14605   1.433   2.015   4.045
 4569SOL    HW114606   1.377   2.089   4.006
 4569SOL    HW214607   1.399   1.927   4.013
 4570SOL     OW14608   5.351   5.753   5.172
 4570SOL    HW114609   5.288   5.790   5.240
 4570SOL    HW214610   5.300   5.708   5.099
 4571SOL     OW14611   3.947   3.112   3.953
 4571SOL    HW114612   3.964   3.191   3.894
 4571SOL    HW214613   3.928   3.032   3.897
 4572SOL     OW14614   2.962   5.451   0.838
 4572SOL    HW114615   2.989   5.419   0.747
 4572SOL    HW214616   2.874   5.498   0.831
 4573SOL     OW14617   5.009   0.013   1.439
 4573SOL    HW114618   5.081   0.032   1.373
 4573SOL    HW214619   4.935   0.080   1.429
 4574SOL     OW14620   6.968   4.762   2.031
 4574SOL    HW114621   6.975   4.699   1.954
 4574SOL    HW214622   6.920   4.845   2.002
 4575SOL     OW14623   0.025   5.861   2.022
 4575SOL    HW114624   0.088   5.936   2.000
 4575SOL    HW214625   6.996   5.835   1.940
 4576SOL     OW14626   3.271   6.563   4.361
 4576SOL    HW114627   3.203   6.568   4.288
 4576SOL    HW214628   3.302   6.655   4.386
 4577SOL     OW14629   2.033   4.107   3.881
 4577SOL    HW114630   1.999   4.163   3.805
 4577SOL    HW214631   2.053   4.167   3.959
 4578SOL     OW14632   6.056   5.741   3.721
 4578SOL    HW114633   6.078   5.645   3.738
 4578SOL    HW214634   6.008   5.749   3.633
 4579SOL     OW14635   4.508   1.902   3.570
 4579SOL    HW114636   4.469   1.986   3.534
 4579SOL    HW214637   4.449   1.866   3.642
 4580SOL     OW14638   0.302   5.416   6.958
 4580SOL    HW114639   0.280   5.345   0.004
 4580SOL    HW214640   0.308   5.375   6.867
 4581SOL     OW14641   3.461   6.031   4.911
 4581SOL    HW114642   3.510   5.990   4.834
 4581SOL    HW214643   3.368   5.996   4.914
 4582SOL     OW14644   5.086   6.690   3.357
 4582SOL    HW114645   5.087   6.636   3.441
 4582SOL    HW214646   5.037   6.775   3.372
 4583SOL     OW14647   3.469   7.016   5.715
 4583SOL    HW114648   3.520   6.935   5.743
 4583SOL    HW214649   3.531   0.060   5.671
 4584SOL     OW14650   6.851   5.410   5.610
 4584SOL    HW114651   6.851   5.409   5.710
 4584SOL    HW214652   6.809   5.326   5.577
 4585SOL     OW14653   2.830   6.466   2.357
 4585SOL    HW114654   2.772   6.434   2.432
 4585SOL    HW214655   2.828   6.399   2.283
 4586SOL     OW14656   2.350   6.108   1.551
 4586SOL    HW114657   2.396   6.179   1.497
 4586SOL    HW214658   2.260   6.091   1.512
 4587SOL     OW14659   3.077   4.744   0.608
 4587SOL    HW114660   3.159   4.749   0.665
 4587SOL    HW214661   3.058   4.648   0.586
 4588SOL     OW14662   3.157   4.050   5.081
 4588SOL    HW114663   3.243   4.031   5.129
 4588SOL    HW214664   3.085   4.065   5.148
 4589SOL     OW14665   1.931   2.204   3.352
 4589SOL    HW114666   1.943   2.233   3.447
 4589SOL    HW214667   2.015   2.162   3.319
 4590SOL     OW14668   4.100   6.303   2.967
 4590SOL    HW114669   4.143   6.213   2.974
 4590SOL    HW214670   4.073   6.333   3.059
 4591SOL     OW14671   4.839   6.131   5.092
 4591SOL    HW114672   4.883   6.042   5.108
 4591SOL    HW214673   4.895   6.203   5.133
 4592SOL     OW14674   3.266   1.729   5.819
 4592SOL    HW114675   3.357   1.764   5.844
 4592SOL    HW214676   3.197   1.798   5.839
 4593SOL     OW14677   4.161   5.985   1.791
 4593SOL    HW114678   4.088   5.953   1.851
 4593SOL    HW214679   4.229   6.034   1.845
 4594SOL     OW14680   3.868   1.900   2.403
 4594SOL    HW114681   3.917   1.832   2.457
 4594SOL    HW214682   3.815   1.854   2.331
 4595SOL     OW14683   4.287   3.053   5.399
 4595SOL    HW114684   4.216   3.077   5.334
 4595SOL    HW214685   4.245   3.020   5.484
 4596SOL     OW14686   4.982   0.531   2.767
 4596SOL    HW114687   4.892   0.488   2.761
 4596SOL    HW214688   5.002   0.577   2.680
 4597SOL     OW14689   6.316   3.774   6.059
 4597SOL    HW114690   6.384   3.704   6.082
 4597SOL    HW214691   6.305   3.777   5.959
 4598SOL     OW14692   2.423   3.969   6.598
 4598SOL    HW114693   2.408   3.870   6.608
 4598SOL    HW214694   2.394   3.997   6.507
 4599SOL     OW14695   3.284   5.067   0.229
 4599SOL    HW114696   3.277   5.015   0.314
 4599SOL    HW214697   3.331   5.013   0.160
 4600SOL     OW14698   2.637   3.764   0.765
 4600SOL    HW114699   2.598   3.673   0.745
 4600SOL    HW214700   2.613   3.791   0.858
 4601SOL     OW14701   2.007   5.219   3.557
 4601SOL    HW114702   1.923   5.243   3.604
 4601SOL    HW214703   2.067   5.169   3.619
 4602SOL     OW14704   1.618   6.900   1.650
 4602SOL    HW114705   1.660   6.916   1.561
 4602SOL    HW214706   1.668   6.950   1.720
 4603SOL     OW14707   3.019   1.374   1.970
 4603SOL    HW114708   2.967   1.296   1.934
 4603SOL    HW214709   2.972   1.459   1.948
 4604SOL     OW14710   1.326   6.938   3.270
 4604SOL    HW114711   1.238   6.916   3.312
 4604SOL    HW214712   1.344   6.875   3.195
 4605SOL     OW14713   5.614   6.503   5.446
 4605SOL    HW114714   5.592   6.571   5.377
 4605SOL    HW214715   5.708   6.515   5.477
 4606SOL     OW14716   6.370   6.356   4.583
 4606SOL    HW114717   6.418   6.440   4.557
 4606SOL    HW214718   6.423   6.277   4.552
 4607SOL     OW14719   3.130   3.687   0.847
 4607SOL    HW114720   3.108   3.589   0.847
 4607SOL    HW214721   3.045   3.740   0.848
 4608SOL     OW14722   1.301   3.279   6.158
 4608SOL    HW114723   1.338   3.225   6.082
 4608SOL    HW214724   1.367   3.281   6.233
 4609SOL     OW14725   3.335   0.087   0.416
 4609SOL    HW114726   3.358   0.063   0.510
 4609SOL    HW214727   3.244   0.130   0.415
 4610SOL     OW14728   6.972   3.719   0.260
 4610SOL    HW114729   6.969   3.788   0.332
 4610SOL    HW214730   6.879   3.687   0.241
 4611SOL     OW14731   1.863   5.078   6.319
 4611SOL    HW114732   1.920   5.050   6.396
 4611SOL    HW214733   1.921   5.093   6.239
 4612SOL     OW14734   1.788   0.626   6.707
 4612SOL    HW114735   1.848   0.705   6.713
 4612SOL    HW214736   1.737   0.629   6.621
 4613SOL     OW14737   3.970   4.834   1.391
 4613SOL    HW114738   3.996   4.891   1.313
 4613SOL    HW214739   3.880   4.794   1.374
 4614SOL     OW14740   1.995   4.576   0.278
 4614SOL    HW114741   1.984   4.667   0.239
 4614SOL    HW214742   2.092   4.550   0.273
 4615SOL     OW14743   5.892   3.182   6.355
 4615SOL    HW114744   5.854   3.275   6.358
 4615SOL    HW214745   5.819   3.116   6.368
 4616SOL     OW14746   5.365   0.734   6.860
 4616SOL    HW114747   5.326   0.810   6.912
 4616SOL    HW214748   5.411   0.769   6.779
 4617SOL     OW14749   0.371   4.043   1.501
 4617SOL    HW114750   0.313   4.079   1.575
 4617SOL    HW214751   0.439   4.111   1.475
 4618SOL     OW14752   1.015   3.378   6.573
 4618SOL    HW114753   1.091   3.438   6.550
 4618SOL    HW214754   0.985   3.328   6.492
 4619SOL     OW14755   4.070   0.984   4.067
 4619SOL    HW114756   4.074   1.011   4.164
 4619SOL    HW214757   4.074   1.066   4.010
 4620SOL     OW14758   1.641   5.767   0.429
 4620SOL    HW114759   1.695   5.800   0.352
 4620SOL    HW214760   1.652   5.668   0.438
 4621SOL     OW14761   6.622   0.428   6.756
 4621SOL    HW114762   6.539   0.373   6.768
 4621SOL    HW214763   6.702   0.371   6.773
 4622SOL     OW14764   1.587   4.419   0.448
 4622SOL    HW114765   1.664   4.431   0.385
 4622SOL    HW214766   1.610   4.349   0.516
 4623SOL     OW14767   5.304   3.541   4.002
 4623SOL    HW114768   5.268   3.606   3.935
 4623SOL    HW214769   5.247   3.459   4.002
 4624SOL     OW14770   4.510   6.281   6.238
 4624SOL    HW114771   4.496   6.379   6.231
 4624SOL    HW214772   4.530   6.256   6.333
 4625SOL     OW14773   1.332   4.059   6.543
 4625SOL    HW114774   1.340   4.026   6.449
 4625SOL    HW214775   1.308   3.983   6.603
 4626SOL     OW14776   6.097   4.475   2.229
 4626SOL    HW114777   6.047   4.515   2.153
 4626SOL    HW214778   6.117   4.547   2.297
 4627SOL     OW14779   2.163   7.006   4.658
 4627SOL    HW114780   2.084   6.947   4.674
 4627SOL    HW214781   2.136   0.063   4.602
 4628SOL     OW14782   6.670   2.793   2.136
 4628SOL    HW114783   6.753   2.833   2.174
 4628SOL    HW214784   6.632   2.854   2.067
 4629SOL     OW14785   4.108   5.058   4.072
 4629SOL    HW114786   4.143   5.036   3.980
 4629SOL    HW214787   4.050   4.983   4.104
 4630SOL     OW14788   2.536   6.030   2.456
 4630SOL    HW114789   2.443   6.064   2.472
 4630SOL    HW214790   2.602   6.105   2.470
 4631SOL     OW14791   1.947   1.246   2.621
 4631SOL    HW114792   2.041   1.220   2.641
 4631SOL    HW214793   1.905   1.284   2.703
 4632SOL     OW14794   5.743   5.954   3.557
 4632SOL    HW114795   5.647   5.929   3.543
 4632SOL    HW214796   5.802   5.879   3.528
 4633SOL     OW14797   5.208   2.887   6.106
 4633SOL    HW114798   5.297   2.866   6.148
 4633SOL    HW214799   5.136   2.842   6.159
 4634SOL     OW14800   2.673   4.195   0.434
 4634SOL    HW114801   2.660   4.097   0.452
 4634SOL    HW214802   2.588   4.233   0.396
 4635SOL     OW14803   4.916   3.397   1.475
 4635SOL    HW114804   4.920   3.433   1.568
 4635SOL    HW214805   4.845   3.445   1.424
 4636SOL     OW14806   0.910   4.954   2.035
 4636SOL    HW114807   0.988   4.934   1.977
 4636SOL    HW214808   0.837   4.994   1.980
 4637SOL     OW14809   0.637   0.817   5.713
 4637SOL    HW114810   0.555   0.804   5.769
 4637SOL    HW214811   0.676   0.728   5.691
 4638SOL     OW14812   4.276   4.907   5.807
 4638SOL    HW114813   4.338   4.926   5.731
 4638SOL    HW214814   4.183   4.935   5.783
 4639SOL     OW14815   6.749   2.098   5.188
 4639SOL    HW114816   6.718   2.040   5.263
 4639SOL    HW214817   6.796   2.042   5.120
 4640SOL     OW14818   6.508   5.083   2.779
 4640SOL    HW114819   6.573   5.098   2.854
 4640SOL    HW214820   6.447   5.162   2.772
 4641SOL     OW14821   2.436   3.842   5.416
 4641SOL    HW114822   2.371   3.892   5.473
 4641SOL    HW214823   2.423   3.868   5.320
 4642SOL     OW14824   5.710   5.629   4.407
 4642SOL    HW114825   5.708   5.725   4.436
 4642SOL    HW214826   5.699   5.625   4.307
 4643SOL     OW14827   4.606   3.685   1.389
 4643SOL    HW114828   4.677   3.623   1.355
 4643SOL    HW214829   4.626   3.710   1.484
 4644SOL     OW14830   3.560   4.848   5.517
 4644SOL    HW114831   3.601   4.939   5.530
 4644SOL    HW214832   3.579   4.817   5.424
 4645SOL     OW14833   1.728   6.560   4.645
 4645SOL    HW114834   1.818   6.588   4.613
 4645SOL    HW214835   1.724   6.461   4.652
 4646SOL     OW14836   3.287   0.986   1.177
 4646SOL    HW114837   3.310   1.009   1.082
 4646SOL    HW214838   3.236   1.062   1.218
 4647SOL     OW14839   6.724   0.353   5.255
 4647SOL    HW114840   6.661   0.420   5.294
 4647SOL    HW214841   6.718   0.267   5.306
 4648SOL     OW14842   2.391   6.202   3.424
 4648SOL    HW114843   2.297   6.233   3.437
 4648SOL    HW214844   2.400   6.108   3.456
 4649SOL     OW14845   6.061   5.512   5.813
 4649SOL    HW114846   6.157   5.528   5.833
 4649SOL    HW214847   6.018   5.598   5.785
 4650SOL     OW14848   6.410   4.819   1.363
 4650SOL    HW114849   6.439   4.726   1.385
 4650SOL    HW214850   6.464   4.884   1.417
 4651SOL     OW14851   5.865   2.021   2.181
 4651SOL    HW114852   5.786   1.968   2.149
 4651SOL    HW214853   5.835   2.090   2.246
 4652SOL     OW14854   0.304   6.071   5.341
 4652SOL    HW114855   0.228   6.019   5.302
 4652SOL    HW214856   0.391   6.029   5.315
 4653SOL     OW14857   1.471   4.795   0.254
 4653SOL    HW114858   1.405   4.816   0.182
 4653SOL    HW214859   1.564   4.800   0.216
 4654SOL     OW14860   1.504   1.999   0.300
 4654SOL    HW114861   1.415   1.991   0.254
 4654SOL    HW214862   1.560   1.920   0.278
 4655SOL     OW14863   0.895   4.887   4.000
 4655SOL    HW114864   0.801   4.878   3.966
 4655SOL    HW214865   0.918   4.807   4.055
 4656SOL     OW14866   2.681   0.520   3.035
 4656SOL    HW114867   2.606   0.465   2.997
 4656SOL    HW214868   2.742   0.548   2.961
 4657SOL     OW14869   6.525   0.640   6.124
 4657SOL    HW114870   6.508   0.731   6.162
 4657SOL    HW214871   6.444   0.583   6.136
 4658SOL     OW14872   5.497   0.372   3.256
 4658SOL    HW114873   5.553   0.427   3.195
 4658SOL    HW214874   5.469   0.288   3.209
 4659SOL     OW14875   2.028   3.400   4.557
 4659SOL    HW114876   1.964   3.443   4.493
 4659SOL    HW214877   2.094   3.468   4.589
 4660SOL     OW14878   6.899   1.166   4.996
 4660SOL    HW114879   6.988   1.121   4.992
 4660SOL    HW214880   6.909   1.261   4.966
 4661SOL     OW14881   3.861   2.973   3.721
 4661SOL    HW114882   3.903   3.045   3.666
 4661SOL    HW214883   3.860   2.887   3.669
 4662SOL     OW14884   6.704   6.453   4.234
 4662SOL    HW114885   6.737   6.420   4.146
 4662SOL    HW214886   6.626   6.514   4.221
 4663SOL     OW14887   0.683   2.441   2.516
 4663SOL    HW114888   0.763   2.399   2.471
 4663SOL    HW214889   0.686   2.421   2.613
 4664SOL     OW14890   3.637   4.172   0.044
 4664SOL    HW114891   3.625   4.183   6.966
 4664SOL    HW214892   3.721   4.121   0.062
 4665SOL     OW14893   5.830   0.408   5.775
 4665SOL    HW114894   5.883   0.485   5.740
 4665SOL    HW214895   5.771   0.372   5.703
 4666SOL     OW14896   1.801   1.249   0.496
 4666SOL    HW114897   1.834   1.185   0.428
 4666SOL    HW214898   1.873   1.315   0.518
 4667SOL     OW14899   0.365   5.989   3.889
 4667SOL    HW114900   0.307   5.910   3.906
 4667SOL    HW214901   0.343   6.027   3.798
 4668SOL     OW14902   5.314   0.912   4.845
 4668SOL    HW114903   5.387   0.922   4.914
 4668SOL    HW214904   5.293   1.001   4.806
 4669SOL     OW14905   2.243   1.749   2.541
 4669SOL    HW114906   2.185   1.831   2.537
 4669SOL    HW214907   2.296   1.742   2.456
 4670SOL     OW14908   2.503   1.844   4.716
 4670SOL    HW114909   2.467   1.751   4.713
 4670SOL    HW214910   2.521   1.870   4.811
 4671SOL     OW14911   6.073   1.808   2.967
 4671SOL    HW114912   6.082   1.838   3.062
 4671SOL    HW214913   6.043   1.885   2.910
 4672SOL     OW14914   2.832   2.024   4.897
 4672SOL    HW114915   2.735   2.038   4.877
 4672SOL    HW214916   2.853   2.061   4.987
 4673SOL     OW14917   5.292   0.448   2.005
 4673SOL    HW114918   5.245   0.361   2.021
 4673SOL    HW214919   5.247   0.520   2.058
 4674SOL     OW14920   4.771   6.378   5.365
 4674SOL    HW114921   4.708   6.440   5.317
 4674SOL    HW214922   4.850   6.359   5.307
 4675SOL     OW14923   0.811   4.458   6.733
 4675SOL    HW114924   0.818   4.513   6.650
 4675SOL    HW214925   0.902   4.435   6.766
 4676SOL     OW14926   1.181   4.674   3.879
 4676SOL    HW114927   1.244   4.662   3.802
 4676SOL    HW214928   1.132   4.588   3.895
 4677SOL     OW14929   1.210   3.699   0.629
 4677SOL    HW114930   1.303   3.735   0.622
 4677SOL    HW214931   1.201   3.619   0.569
 4678SOL     OW14932   1.133   2.919   1.286
 4678SOL    HW114933   1.081   2.903   1.202
 4678SOL    HW214934   1.119   2.843   1.349
 4679SOL     OW14935   4.667   0.562   2.454
 4679SOL    HW114936   4.598   0.542   2.524
 4679SOL    HW214937   4.625   0.616   2.381
 4680SOL     OW14938   2.601   0.913   6.540
 4680SOL    HW114939   2.546   0.950   6.615
 4680SOL    HW214940   2.610   0.814   6.549
 4681SOL     OW14941   4.442   5.924   2.340
 4681SOL    HW114942   4.462   5.876   2.425
 4681SOL    HW214943   4.511   5.901   2.272
 4682SOL     OW14944   3.522   3.247   6.169
 4682SOL    HW114945   3.497   3.181   6.099
 4682SOL    HW214946   3.455   3.322   6.170
 4683SOL     OW14947   6.645   4.296   4.441
 4683SOL    HW114948   6.670   4.392   4.444
 4683SOL    HW214949   6.727   4.240   4.453
 4684SOL     OW14950   5.679   0.324   5.568
 4684SOL    HW114951   5.590   0.279   5.555
 4684SOL    HW214952   5.734   0.314   5.485
 4685SOL     OW14953   3.337   4.164   4.393
 4685SOL    HW114954   3.428   4.128   4.416
 4685SOL    HW214955   3.271   4.135   4.463
 4686SOL     OW14956   1.383   6.983   6.786
 4686SOL    HW114957   1.376   6.991   6.885
 4686SOL    HW214958   1.295   6.956   6.748
 4687SOL     OW14959   1.448   0.470   2.633
 4687SOL    HW114960   1.400   0.512   2.710
 4687SOL    HW214961   1.473   0.376   2.657
 4688SOL     OW14962   4.734   2.865   4.852
 4688SOL    HW114963   4.667   2.939   4.857
 4688SOL    HW214964   4.725   2.806   4.932
 4689SOL     OW14965   0.100   0.641   1.044
 4689SOL    HW114966   0.169   0.713   1.034
 4689SOL    HW214967   0.129   0.560   0.994
 4690SOL     OW14968   3.704   2.742   1.311
 4690SOL    HW114969   3.718   2.841   1.323
 4690SOL    HW214970   3.723   2.695   1.397
 4691SOL     OW14971   6.377   3.559   1.879
 4691SOL    HW114972   6.353   3.645   1.924
 4691SOL    HW214973   6.386   3.487   1.948
 4692SOL     OW14974   5.467   2.981   2.699
 4692SOL    HW114975   5.468   2.966   2.601
 4692SOL    HW214976   5.553   3.024   2.728
 4693SOL     OW14977   0.066   0.159   3.771
 4693SOL    HW114978   0.132   0.211   3.717
 4693SOL    HW214979   0.114   0.085   3.819
 4694SOL     OW14980   2.349   6.763   5.791
 4694SOL    HW114981   2.264   6.716   5.770
 4694SOL    HW214982   2.425   6.698   5.788
 4695SOL     OW14983   2.087   4.995   1.878
 4695SOL    HW114984   2.185   4.976   1.882
 4695SOL    HW214985   2.058   4.997   1.782
 4696SOL     OW14986   1.933   6.463   6.357
 4696SOL    HW114987   2.019   6.443   6.311
 4696SOL    HW214988   1.941   6.550   6.407
 4697SOL     OW14989   4.672   5.530   1.088
 4697SOL    HW114990   4.592   5.576   1.126
 4697SOL    HW214991   4.659   5.431   1.091
 4698SOL     OW14992   5.254   1.376   4.451
 4698SOL    HW114993   5.191   1.437   4.500
 4698SOL    HW214994   5.211   1.344   4.367
 4699SOL     OW14995   0.762   1.566   2.588
 4699SOL    HW114996   0.831   1.555   2.516
 4699SOL    HW214997   0.718   1.478   2.605
 4700SOL     OW14998   6.878   1.855   3.384
 4700SOL    HW114999   6.803   1.907   3.425
 4700SOL    HW215000   6.925   1.912   3.316
 4701SOL     OW15001   3.055   2.615   1.748
 4701SOL    HW115002   3.070   2.542   1.815
 4701SOL    HW215003   2.958   2.621   1.727
 4702SOL     OW15004   6.255   4.922   1.163
 4702SOL    HW115005   6.157   4.942   1.174
 4702SOL    HW215006   6.299   4.922   1.253
 4703SOL     OW15007   0.437   5.057   3.754
 4703SOL    HW115008   0.381   5.046   3.672
 4703SOL    HW215009   0.388   5.114   3.821
 4704SOL     OW15010   1.642   4.599   4.931
 4704SOL    HW115011   1.646   4.691   4.893
 4704SOL    HW215012   1.726   4.581   4.982
 4705SOL     OW15013   3.343   2.038   1.894
 4705SOL    HW115014   3.258   2.081   1.923
 4705SOL    HW215015   3.380   2.087   1.815
 4706SOL     OW15016   1.509   2.144   0.839
 4706SOL    HW115017   1.454   2.085   0.780
 4706SOL    HW215018   1.604   2.144   0.808
 4707SOL     OW15019   1.810   5.362   2.182
 4707SOL    HW115020   1.893   5.408   2.151
 4707SOL    HW215021   1.733   5.392   2.126
 4708SOL     OW15022   2.079   2.807   6.486
 4708SOL    HW115023   2.100   2.749   6.565
 4708SOL    HW215024   2.093   2.903   6.511
 4709SOL     OW15025   5.555   3.557   4.959
 4709SOL    HW115026   5.549   3.502   5.043
 4709SOL    HW215027   5.642   3.607   4.959
 4710SOL     OW15028   5.781   5.359   5.379
 4710SOL    HW115029   5.695   5.393   5.341
 4710SOL    HW215030   5.854   5.372   5.312
 4711SOL     OW15031   4.823   4.544   2.982
 4711SOL    HW115032   4.916   4.560   2.950
 4711SOL    HW215033   4.794   4.453   2.953
 4712SOL     OW15034   3.738   4.712   5.905
 4712SOL    HW115035   3.647   4.706   5.945
 4712SOL    HW215036   3.733   4.696   5.806
 4713SOL     OW15037   5.592   4.558   0.953
 4713SOL    HW115038   5.607   4.532   0.858
 4713SOL    HW215039   5.651   4.636   0.976
 4714SOL     OW15040   4.405   1.885   6.104
 4714SOL    HW115041   4.488   1.942   6.103
 4714SOL    HW215042   4.421   1.804   6.159
 4715SOL     OW15043   6.633   1.880   2.395
 4715SOL    HW115044   6.559   1.929   2.440
 4715SOL    HW215045   6.710   1.942   2.381
 4716SOL     OW15046   3.787   4.323   5.792
 4716SOL    HW115047   3.695   4.353   5.819
 4716SOL    HW215048   3.854   4.369   5.850
 4717SOL     OW15049   1.838   4.982   5.913
 4717SOL    HW115050   1.857   5.034   5.830
 4717SOL    HW215051   1.739   4.970   5.924
 4718SOL     OW15052   4.843   3.893   2.632
 4718SOL    HW115053   4.841   3.890   2.532
 4718SOL    HW215054   4.799   3.976   2.664
 4719SOL     OW15055   5.978   3.944   4.011
 4719SOL    HW115056   5.909   3.881   4.046
 4719SOL    HW215057   5.993   3.926   3.913
 4720SOL     OW15058   1.107   2.167   6.378
 4720SOL    HW115059   1.116   2.072   6.346
 4720SOL    HW215060   1.022   2.177   6.429
 4721SOL     OW15061   0.524   2.855   2.631
 4721SOL    HW115062   0.508   2.817   2.721
 4721SOL    HW215063   0.460   2.930   2.614
 4722SOL     OW15064   1.527   5.520   5.907
 4722SOL    HW115065   1.624   5.519   5.886
 4722SOL    HW215066   1.513   5.538   6.005
 4723SOL     OW15067   2.817   4.290   6.080
 4723SOL    HW115068   2.759   4.318   6.004
 4723SOL    HW215069   2.909   4.272   6.047
 4724SOL     OW15070   0.106   6.912   4.116
 4724SOL    HW115071   0.024   6.969   4.119
 4724SOL    HW215072   0.091   6.829   4.171
 4725SOL     OW15073   6.223   5.220   1.566
 4725SOL    HW115074   6.142   5.200   1.511
 4725SOL    HW215075   6.269   5.301   1.529
 4726SOL     OW15076   1.827   2.726   6.156
 4726SOL    HW115077   1.803   2.631   6.134
 4726SOL    HW215078   1.874   2.767   6.078
 4727SOL     OW15079   6.214   5.682   1.520
 4727SOL    HW115080   6.115   5.682   1.506
 4727SOL    HW215081   6.247   5.776   1.524
 4728SOL     OW15082   4.693   0.665   3.386
 4728SOL    HW115083   4.734   0.603   3.454
 4728SOL    HW215084   4.727   0.758   3.401
 4729SOL     OW15085   0.255   1.297   2.732
 4729SOL    HW115086   0.257   1.212   2.679
 4729SOL    HW215087   0.213   1.369   2.677
 4730SOL     OW15088   2.952   0.582   3.597
 4730SOL    HW115089   2.865   0.563   3.553
 4730SOL    HW215090   3.012   0.630   3.533
 4731SOL     OW15091   3.388   6.672   1.994
 4731SOL    HW115092   3.341   6.749   1.951
 4731SOL    HW215093   3.478   6.701   2.026
 4732SOL     OW15094   0.246   4.897   4.789
 4732SOL    HW115095   0.335   4.863   4.819
 4732SOL    HW215096   0.193   4.927   4.869
 4733SOL     OW15097   1.923   4.063   3.172
 4733SOL    HW115098   2.020   4.038   3.181
 4733SOL    HW215099   1.874   3.988   3.129
 4734SOL     OW15100   4.794   4.126   6.414
 4734SOL    HW115101   4.727   4.191   6.451
 4734SOL    HW215102   4.815   4.151   6.319
 4735SOL     OW15103   6.652   0.581   5.411
 4735SOL    HW115104   6.691   0.564   5.501
 4735SOL    HW215105   6.691   0.664   5.372
 4736SOL     OW15106   6.454   0.407   4.698
 4736SOL    HW115107   6.490   0.481   4.755
 4736SOL    HW215108   6.459   0.321   4.748
 4737SOL     OW15109   2.315   5.090   0.124
 4737SOL    HW115110   2.319   5.186   0.152
 4737SOL    HW215111   2.392   5.069   0.065
 4738SOL     OW15112   0.181   5.347   3.400
 4738SOL    HW115113   0.231   5.282   3.343
 4738SOL    HW215114   0.134   5.298   3.473
 4739SOL     OW15115   5.818   3.519   3.364
 4739SOL    HW115116   5.735   3.473   3.333
 4739SOL    HW215117   5.798   3.575   3.444
 4740SOL     OW15118   2.119   6.458   1.041
 4740SOL    HW115119   2.102   6.553   1.069
 4740SOL    HW215120   2.133   6.454   0.943
 4741SOL     OW15121   5.704   4.632   1.827
 4741SOL    HW115122   5.643   4.673   1.759
 4741SOL    HW215123   5.761   4.563   1.784
 4742SOL     OW15124   2.037   5.607   2.306
 4742SOL    HW115125   1.988   5.688   2.273
 4742SOL    HW215126   2.127   5.635   2.340
 4743SOL     OW15127   2.654   3.929   0.531
 4743SOL    HW115128   2.687   3.857   0.469
 4743SOL    HW215129   2.634   3.889   0.621
 4744SOL     OW15130   2.918   1.525   5.954
 4744SOL    HW115131   2.917   1.622   5.978
 4744SOL    HW215132   2.830   1.484   5.981
 4745SOL     OW15133   4.398   5.650   4.420
 4745SOL    HW115134   4.436   5.739   4.446
 4745SOL    HW215135   4.305   5.661   4.386
 4746SOL     OW15136   5.636   1.079   0.918
 4746SOL    HW115137   5.536   1.084   0.921
 4746SOL    HW215138   5.668   0.999   0.968
 4747SOL     OW15139   0.986   2.667   2.439
 4747SOL    HW115140   1.018   2.573   2.447
 4747SOL    HW215141   0.909   2.671   2.375
 4748SOL     OW15142   2.093   6.565   0.221
 4748SOL    HW115143   2.043   6.487   0.184
 4748SOL    HW215144   2.071   6.575   0.318
 4749SOL     OW15145   3.358   1.067   6.798
 4749SOL    HW115146   3.423   1.106   6.732
 4749SOL    HW215147   3.405   1.045   6.883
 4750SOL     OW15148   0.696   2.095   4.956
 4750SOL    HW115149   0.758   2.159   5.003
 4750SOL    HW215150   0.668   2.023   5.019
 4751SOL     OW15151   1.425   4.254   6.805
 4751SOL    HW115152   1.382   4.286   6.721
 4751SOL    HW215153   1.358   4.258   6.880
 4752SOL     OW15154   2.104   6.004   1.416
 4752SOL    HW115155   2.106   6.103   1.403
 4752SOL    HW215156   2.011   5.970   1.399
 4753SOL     OW15157   0.147   0.822   6.193
 4753SOL    HW115158   0.209   0.841   6.269
 4753SOL    HW215159   0.113   0.728   6.200
 4754SOL     OW15160   1.414   1.216   6.285
 4754SOL    HW115161   1.473   1.278   6.234
 4754SOL    HW215162   1.326   1.206   6.238
 4755SOL     OW15163   2.934   0.022   2.839
 4755SOL    HW115164   2.906   6.961   2.890
 4755SOL    HW215165   3.033   0.033   2.845
 4756SOL     OW15166   6.034   2.141   1.244
 4756SOL    HW115167   6.087   2.072   1.294
 4756SOL    HW215168   5.940   2.108   1.231
 4757SOL     OW15169   2.503   2.751   0.710
 4757SOL    HW115170   2.575   2.702   0.759
 4757SOL    HW215171   2.419   2.750   0.765
 4758SOL     OW15172   6.090   3.735   6.463
 4758SOL    HW115173   6.084   3.813   6.402
 4758SOL    HW215174   6.147   3.664   6.422
 4759SOL     OW15175   6.959   4.218   6.590
 4759SOL    HW115176   6.967   4.316   6.575
 4759SOL    HW215177   6.877   4.184   6.542
 4760SOL     OW15178   0.967   2.556   0.349
 4760SOL    HW115179   0.887   2.603   0.384
 4760SOL    HW215180   1.041   2.622   0.335
 4761SOL     OW15181   2.775   6.107   6.532
 4761SOL    HW115182   2.872   6.115   6.509
 4761SOL    HW215183   2.756   6.157   6.616
 4762SOL     OW15184   3.735   0.116   2.527
 4762SOL    HW115185   3.705   0.057   2.602
 4762SOL    HW215186   3.756   0.061   2.447
 4763SOL     OW15187   4.959   4.925   4.790
 4763SOL    HW115188   5.029   4.996   4.789
 4763SOL    HW215189   4.983   4.854   4.723
 4764SOL     OW15190   3.576   3.653   3.926
 4764SOL    HW115191   3.646   3.630   3.858
 4764SOL    HW215192   3.621   3.677   4.012
 4765SOL     OW15193   5.815   5.677   6.359
 4765SOL    HW115194   5.726   5.699   6.399
 4765SOL    HW215195   5.872   5.759   6.356
 4766SOL     OW15196   2.951   1.390   3.424
 4766SOL    HW115197   2.913   1.449   3.496
 4766SOL    HW215198   3.003   1.316   3.466
 4767SOL     OW15199   4.577   1.020   7.012
 4767SOL    HW115200   4.481   1.040   6.992
 4767SOL    HW215201   4.586   0.990   0.086
 4768SOL     OW15202   1.722   0.737   5.551
 4768SOL    HW115203   1.805   0.791   5.547
 4768SOL    HW215204   1.674   0.742   5.463
 4769SOL     OW15205   4.558   0.812   1.897
 4769SOL    HW115206   4.656   0.827   1.890
 4769SOL    HW215207   4.537   0.716   1.881
 4770SOL     OW15208   2.124   1.223   3.893
 4770SOL    HW115209   2.161   1.313   3.915
 4770SOL    HW215210   2.025   1.224   3.902
 4771SOL     OW15211   3.988   4.430   5.950
 4771SOL    HW115212   3.988   4.431   6.050
 4771SOL    HW215213   4.036   4.510   5.916
 4772SOL     OW15214   3.460   2.693   0.066
 4772SOL    HW115215   3.466   2.782   0.022
 4772SOL    HW215216   3.368   2.656   0.057
 4773SOL     OW15217   6.836   5.016   5.161
 4773SOL    HW115218   6.858   5.105   5.201
 4773SOL    HW215219   6.767   4.970   5.216
 4774SOL     OW15220   1.591   4.449   6.903
 4774SOL    HW115221   1.625   4.499   6.823
 4774SOL    HW215222   1.556   4.360   6.874
 4775SOL     OW15223   1.823   2.674   2.244
 4775SOL    HW115224   1.853   2.701   2.335
 4775SOL    HW215225   1.813   2.755   2.186
 4776SOL     OW15226   4.194   5.185   1.802
 4776SOL    HW115227   4.240   5.272   1.785
 4776SOL    HW215228   4.201   5.127   1.721
 4777SOL     OW15229   2.286   4.345   1.404
 4777SOL    HW115230   2.382   4.370   1.389
 4777SOL    HW215231   2.270   4.253   1.369
 4778SOL     OW15232   5.314   3.450   2.660
 4778SOL    HW115233   5.293   3.352   2.653
 4778SOL    HW215234   5.247   3.503   2.609
 4779SOL     OW15235   5.294   1.202   2.902
 4779SOL    HW115236   5.240   1.171   2.980
 4779SOL    HW215237   5.311   1.124   2.841
 4780SOL     OW15238   1.933   1.634   5.679
 4780SOL    HW115239   1.969   1.720   5.641
 4780SOL    HW215240   1.987   1.609   5.760
 4781SOL     OW15241   2.334   5.541   3.020
 4781SOL    HW115242   2.359   5.610   3.088
 4781SOL    HW215243   2.356   5.575   2.929
 4782SOL     OW15244   6.143   6.286   6.866
 4782SOL    HW115245   6.197   6.336   6.933
 4782SOL    HW215246   6.197   6.212   6.828
 4783SOL     OW15247   5.944   4.032   2.753
 4783SOL    HW115248   5.898   4.045   2.666
 4783SOL    HW215249   5.881   4.053   2.828
 4784SOL     OW15250   5.337   4.493   4.958
 4784SOL    HW115251   5.386   4.575   4.986
 4784SOL    HW215252   5.382   4.412   4.996
 4785SOL     OW15253   5.698   6.364   0.805
 4785SOL    HW115254   5.630   6.369   0.878
 4785SOL    HW215255   5.660   6.316   0.726
 4786SOL     OW15256   1.161   3.744   2.534
 4786SOL    HW115257   1.250   3.789   2.541
 4786SOL    HW215258   1.164   3.676   2.460
 4787SOL     OW15259   3.828   2.117   2.754
 4787SOL    HW115260   3.823   2.050   2.827
 4787SOL    HW215261   3.797   2.206   2.788
 4788SOL     OW15262   2.233   0.571   4.562
 4788SOL    HW115263   2.267   0.659   4.595
 4788SOL    HW215264   2.144   0.552   4.604
 4789SOL     OW15265   5.089   5.958   6.919
 4789SOL    HW115266   5.139   5.967   7.005
 4789SOL    HW215267   4.991   5.966   6.937
 4790SOL     OW15268   5.070   7.015   6.637
 4790SOL    HW115269   5.032   6.923   6.631
 4790SOL    HW215270   5.119   0.004   6.724
 4791SOL     OW15271   4.331   2.392   3.360
 4791SOL    HW115272   4.403   2.460   3.349
 4791SOL    HW215273   4.311   2.349   3.272
 4792SOL     OW15274   3.097   3.392   0.812
 4792SOL    HW115275   3.015   3.341   0.838
 4792SOL    HW215276   3.175   3.329   0.806
 4793SOL     OW15277   0.374   0.610   0.174
 4793SOL    HW115278   0.451   0.666   0.144
 4793SOL    HW215279   0.373   0.605   0.274
 4794SOL     OW15280   5.550   1.279   2.004
 4794SOL    HW115281   5.583   1.274   2.098
 4794SOL    HW215282   5.537   1.374   1.978
 4795SOL     OW15283   6.001   2.968   4.205
 4795SOL    HW115284   6.079   2.944   4.147
 4795SOL    HW215285   5.974   3.062   4.187
 4796SOL     OW15286   5.071   3.833   0.500
 4796SOL    HW115287   5.169   3.830   0.480
 4796SOL    HW215288   5.021   3.863   0.419
 4797SOL     OW15289   1.520   5.860   4.631
 4797SOL    HW115290   1.511   5.861   4.531
 4797SOL    HW215291   1.555   5.771   4.660
 4798SOL     OW15292   6.897   5.226   6.130
 4798SOL    HW115293   6.939   5.138   6.151
 4798SOL    HW215294   6.803   5.227   6.164
 4799SOL     OW15295   4.946   1.775   3.960
 4799SOL    HW115296   5.031   1.723   3.963
 4799SOL    HW215297   4.879   1.726   3.905
 4800SOL     OW15298   1.701   2.746   3.536
 4800SOL    HW115299   1.618   2.705   3.574
 4800SOL    HW215300   1.723   2.829   3.587
 4801SOL     OW15301   0.090   2.144   0.409
 4801SOL    HW115302   7.021   2.104   0.394
 4801SOL    HW215303   0.150   2.075   0.450
 4802SOL     OW15304   1.659   0.182   2.022
 4802SOL    HW115305   1.733   0.248   2.034
 4802SOL    HW215306   1.658   0.119   2.100
 4803SOL     OW15307   1.284   7.003   0.983
 4803SOL    HW115308   1.286   6.939   1.060
 4803SOL    HW215309   1.355   0.051   0.996
 4804SOL     OW15310   4.356   5.686   0.531
 4804SOL    HW115311   4.358   5.773   0.580
 4804SOL    HW215312   4.408   5.617   0.581
 4805SOL     OW15313   0.268   6.924   1.893
 4805SOL    HW115314   0.229   6.902   1.804
 4805SOL    HW215315   0.342   6.860   1.913
 4806SOL     OW15316   0.152   2.376   3.737
 4806SOL    HW115317   0.228   2.319   3.708
 4806SOL    HW215318   0.081   2.319   3.779
 4807SOL     OW15319   1.096   0.303   2.690
 4807SOL    HW115320   1.112   0.212   2.727
 4807SOL    HW215321   1.070   0.296   2.594
 4808SOL     OW15322   6.795   2.038   0.307
 4808SOL    HW115323   6.708   2.080   0.334
 4808SOL    HW215324   6.817   1.963   0.370
 4809SOL     OW15325   4.668   6.988   0.411
 4809SOL    HW115326   4.752   7.019   0.366
 4809SOL    HW215327   4.598   0.038   0.405
 4810SOL     OW15328   2.048   6.335   6.918
 4810SOL    HW115329   2.038   6.259   6.854
 4810SOL    HW215330   1.976   6.403   6.902
 4811SOL     OW15331   5.086   4.110   4.194
 4811SOL    HW115332   5.159   4.051   4.162
 4811SOL    HW215333   5.106   4.141   4.287
 4812SOL     OW15334   6.556   5.068   4.099
 4812SOL    HW115335   6.548   5.148   4.040
 4812SOL    HW215336   6.468   5.048   4.142
 4813SOL     OW15337   5.593   3.546   2.994
 4813SOL    HW115338   5.602   3.447   2.989
 4813SOL    HW215339   5.498   3.570   3.013
 4814SOL     OW15340   0.356   2.991   1.402
 4814SOL    HW115341   0.438   2.951   1.361
 4814SOL    HW215342   0.306   2.920   1.452
 4815SOL     OW15343   4.839   0.534   3.578
 4815SOL    HW115344   4.781   0.567   3.652
 4815SOL    HW215345   4.922   0.590   3.572
 4816SOL     OW15346   5.814   4.231   4.136
 4816SOL    HW115347   5.778   4.181   4.214
 4816SOL    HW215348   5.797   4.180   4.052
 4817SOL     OW15349   6.251   1.683   6.774
 4817SOL    HW115350   6.186   1.745   6.730
 4817SOL    HW215351   6.235   1.682   6.872
 4818SOL     OW15352   6.873   5.956   3.382
 4818SOL    HW115353   6.857   5.866   3.423
 4818SOL    HW215354   6.933   6.010   3.442
 4819SOL     OW15355   1.853   3.295   0.553
 4819SOL    HW115356   1.834   3.270   0.458
 4819SOL    HW215357   1.797   3.240   0.615
 4820SOL     OW15358   6.818   3.589   1.858
 4820SOL    HW115359   6.779   3.546   1.939
 4820SOL    HW215360   6.780   3.681   1.848
 4821SOL     OW15361   0.500   5.560   3.908
 4821SOL    HW115362   0.535   5.525   3.821
 4821SOL    HW215363   0.472   5.483   3.965
 4822SOL     OW15364   2.727   4.696   4.255
 4822SOL    HW115365   2.768   4.744   4.178
 4822SOL    HW215366   2.758   4.601   4.256
 4823SOL     OW15367   1.385   2.080   0.541
 4823SOL    HW115368   1.437   2.161   0.566
 4823SOL    HW215369   1.442   2.021   0.484
 4824SOL     OW15370   6.776   2.200   6.670
 4824SOL    HW115371   6.677   2.209   6.664
 4824SOL    HW215372   6.800   2.105   6.687
 4825SOL     OW15373   1.058   6.494   3.720
 4825SOL    HW115374   1.087   6.461   3.630
 4825SOL    HW215375   0.995   6.570   3.709
 4826SOL     OW15376   4.058   6.789   0.388
 4826SOL    HW115377   4.102   6.702   0.410
 4826SOL    HW215378   4.066   6.851   0.466
 4827SOL     OW15379   5.934   1.361   1.615
 4827SOL    HW115380   5.900   1.422   1.687
 4827SOL    HW215381   5.920   1.403   1.526
 4828SOL     OW15382   5.324   1.110   6.524
 4828SOL    HW115383   5.262   1.066   6.588
 4828SOL    HW215384   5.340   1.205   6.552
 4829SOL     OW15385   4.588   5.715   5.062
 4829SOL    HW115386   4.594   5.799   5.115
 4829SOL    HW215387   4.501   5.669   5.080
 4830SOL     OW15388   1.909   6.797   3.433
 4830SOL    HW115389   1.885   6.893   3.420
 4830SOL    HW215390   1.842   6.739   3.386
 4831SOL     OW15391   3.081   4.568   5.584
 4831SOL    HW115392   3.051   4.574   5.489
 4831SOL    HW215393   3.098   4.660   5.620
 4832SOL     OW15394   4.137   3.446   4.212
 4832SOL    HW115395   4.124   3.534   4.257
 4832SOL    HW215396   4.153   3.375   4.280
 4833SOL     OW15397   5.697   2.273   5.107
 4833SOL    HW115398   5.748   2.326   5.038
 4833SOL    HW215399   5.715   2.311   5.198
 4834SOL     OW15400   0.702   5.138   1.047
 4834SOL    HW115401   0.762   5.067   1.010
 4834SOL    HW215402   0.728   5.226   1.008
 4835SOL     OW15403   6.640   3.434   6.074
 4835SOL    HW115404   6.727   3.446   6.027
 4835SOL    HW215405   6.575   3.504   6.043
 4836SOL     OW15406   4.433   1.101   5.645
 4836SOL    HW115407   4.502   1.103   5.573
 4836SOL    HW215408   4.361   1.036   5.621
 4837SOL     OW15409   1.343   3.443   4.691
 4837SOL    HW115410   1.403   3.516   4.721
 4837SOL    HW215411   1.368   3.358   4.737
 4838SOL     OW15412   2.319   4.116   5.907
 4838SOL    HW115413   2.253   4.042   5.891
 4838SOL    HW215414   2.371   4.132   5.823
 4839SOL     OW15415   2.544   0.930   2.100
 4839SOL    HW115416   2.525   1.017   2.054
 4839SOL    HW215417   2.477   0.862   2.072
 4840SOL     OW15418   4.845   2.439   3.616
 4840SOL    HW115419   4.884   2.502   3.549
 4840SOL    HW215420   4.865   2.345   3.589
 4841SOL     OW15421   2.689   5.543   3.005
 4841SOL    HW115422   2.701   5.461   3.061
 4841SOL    HW215423   2.691   5.624   3.063
 4842SOL     OW15424   4.506   5.140   3.493
 4842SOL    HW115425   4.591   5.152   3.442
 4842SOL    HW215426   4.428   5.148   3.431
 4843SOL     OW15427   5.672   2.481   0.113
 4843SOL    HW115428   5.756   2.454   0.067
 4843SOL    HW215429   5.604   2.509   0.045
 4844SOL     OW15430   0.860   5.055   6.696
 4844SOL    HW115431   0.777   5.018   6.653
 4844SOL    HW215432   0.834   5.127   6.760
 4845SOL     OW15433   5.353   4.150   4.946
 4845SOL    HW115434   5.288   4.075   4.932
 4845SOL    HW215435   5.427   4.144   4.879
 4846SOL     OW15436   6.436   4.438   4.748
 4846SOL    HW115437   6.400   4.531   4.753
 4846SOL    HW215438   6.535   4.440   4.766
 4847SOL     OW15439   2.879   0.097   6.936
 4847SOL    HW115440   2.898   0.075   6.840
 4847SOL    HW215441   2.831   0.021   6.980
 4848SOL     OW15442   4.653   1.322   3.804
 4848SOL    HW115443   4.581   1.253   3.792
 4848SOL    HW215444   4.692   1.314   3.895
 4849SOL     OW15445   1.413   5.504   1.811
 4849SOL    HW115446   1.491   5.496   1.874
 4849SOL    HW215447   1.422   5.436   1.738
 4850SOL     OW15448   3.307   0.063   2.274
 4850SOL    HW115449   3.380   0.128   2.251
 4850SOL    HW215450   3.247   0.104   2.342
 4851SOL     OW15451   4.711   4.309   6.722
 4851SOL    HW115452   4.651   4.360   6.784
 4851SOL    HW215453   4.792   4.364   6.701
 4852SOL     OW15454   4.999   3.950   5.548
 4852SOL    HW115455   4.913   3.902   5.531
 4852SOL    HW215456   5.060   3.937   5.469
 4853SOL     OW15457   4.206   0.629   3.019
 4853SOL    HW115458   4.133   0.697   3.031
 4853SOL    HW215459   4.184   0.547   3.071
 4854SOL     OW15460   4.354   6.794   2.478
 4854SOL    HW115461   4.328   6.770   2.384
 4854SOL    HW215462   4.331   6.718   2.539
 4855SOL     OW15463   4.250   5.198   5.541
 4855SOL    HW115464   4.281   5.261   5.612
 4855SOL    HW215465   4.150   5.199   5.537
 4856SOL     OW15466   1.026   2.513   2.156
 4856SOL    HW115467   1.094   2.567   2.205
 4856SOL    HW215468   0.934   2.545   2.181
 4857SOL     OW15469   2.776   1.860   5.931
 4857SOL    HW115470   2.752   1.780   5.876
 4857SOL    HW215471   2.693   1.896   5.974
 4858SOL     OW15472   2.133   5.001   4.904
 4858SOL    HW115473   2.179   4.946   4.973
 4858SOL    HW215474   2.186   5.084   4.887
 4859SOL     OW15475   6.590   5.673   3.317
 4859SOL    HW115476   6.586   5.585   3.269
 4859SOL    HW215477   6.504   5.723   3.300
 4860SOL     OW15478   4.283   5.123   1.149
 4860SOL    HW115479   4.308   5.220   1.145
 4860SOL    HW215480   4.301   5.080   1.060
 4861SOL     OW15481   6.038   4.959   4.793
 4861SOL    HW115482   5.945   4.996   4.788
 4861SOL    HW215483   6.042   4.873   4.743
 4862SOL     OW15484   1.539   5.572   4.394
 4862SOL    HW115485   1.518   5.524   4.309
 4862SOL    HW215486   1.474   5.647   4.407
 4863SOL     OW15487   5.784   1.563   1.456
 4863SOL    HW115488   5.811   1.640   1.513
 4863SOL    HW215489   5.708   1.514   1.499
 4864SOL     OW15490   2.562   2.719   1.486
 4864SOL    HW115491   2.583   2.777   1.407
 4864SOL    HW215492   2.500   2.768   1.547
 4865SOL     OW15493   3.777   6.678   5.087
 4865SOL    HW115494   3.728   6.765   5.094
 4865SOL    HW215495   3.864   6.692   5.040
 4866SOL     OW15496   0.762   5.068   1.842
 4866SOL    HW115497   0.835   5.124   1.802
 4866SOL    HW215498   0.687   5.059   1.776
 4867SOL     OW15499   5.707   4.704   5.898
 4867SOL    HW115500   5.691   4.671   5.805
 4867SOL    HW215501   5.635   4.669   5.959
 4868SOL     OW15502   2.168   5.973   2.005
 4868SOL    HW115503   2.222   6.057   2.016
 4868SOL    HW215504   2.174   5.942   1.911
 4869SOL     OW15505   0.480   1.951   1.752
 4869SOL    HW115506   0.525   1.863   1.769
 4869SOL    HW215507   0.392   1.936   1.707
 4870SOL     OW15508   5.994   1.142   0.873
 4870SOL    HW115509   5.958   1.067   0.818
 4870SOL    HW215510   5.947   1.143   0.961
 4871SOL     OW15511   2.021   2.539   5.367
 4871SOL    HW115512   1.967   2.618   5.339
 4871SOL    HW215513   2.109   2.541   5.320
 4872SOL     OW15514   2.236   2.776   2.505
 4872SOL    HW115515   2.316   2.756   2.448
 4872SOL    HW215516   2.243   2.727   2.592
 4873SOL     OW15517   0.782   6.751   5.766
 4873SOL    HW115518   0.753   6.837   5.809
 4873SOL    HW215519   0.702   6.705   5.728
 4874SOL     OW15520   5.736   1.629   3.897
 4874SOL    HW115521   5.766   1.715   3.940
 4874SOL    HW215522   5.817   1.577   3.870
 4875SOL     OW15523   0.028   3.040   0.458
 4875SOL    HW115524   0.075   3.110   0.511
 4875SOL    HW215525   7.010   2.972   0.520
 4876SOL     OW15526   6.584   1.095   6.968
 4876SOL    HW115527   6.540   1.058   6.886
 4876SOL    HW215528   6.538   1.180   6.995
 4877SOL     OW15529   4.356   1.855   1.374
 4877SOL    HW115530   4.438   1.879   1.426
 4877SOL    HW215531   4.346   1.756   1.372
 4878SOL     OW15532   1.133   2.873   2.219
 4878SOL    HW115533   1.144   2.801   2.288
 4878SOL    HW215534   1.200   2.945   2.235
 4879SOL     OW15535   3.383   6.446   3.469
 4879SOL    HW115536   3.373   6.350   3.445
 4879SOL    HW215537   3.401   6.500   3.387
 4880SOL     OW15538   6.376   1.837   6.013
 4880SOL    HW115539   6.454   1.900   6.022
 4880SOL    HW215540   6.298   1.886   5.975
 4881SOL     OW15541   2.822   6.297   5.824
 4881SOL    HW115542   2.869   6.305   5.736
 4881SOL    HW215543   2.815   6.388   5.866
 4882SOL     OW15544   5.676   6.025   6.759
 4882SOL    HW115545   5.603   5.994   6.820
 4882SOL    HW215546   5.762   5.982   6.785
 4883SOL     OW15547   5.816   5.636   0.278
 4883SOL    HW115548   5.908   5.661   0.248
 4883SOL    HW215549   5.812   5.537   0.294
 4884SOL     OW15550   4.025   6.323   1.579
 4884SOL    HW115551   3.981   6.273   1.653
 4884SOL    HW215552   3.999   6.419   1.584
 4885SOL     OW15553   1.557   0.596   2.418
 4885SOL    HW115554   1.493   0.549   2.479
 4885SOL    HW215555   1.586   0.682   2.459
 4886SOL     OW15556   6.004   1.151   5.782
 4886SOL    HW115557   6.027   1.180   5.689
 4886SOL    HW215558   5.906   1.165   5.797
 4887SOL     OW15559   0.141   2.183   5.544
 4887SOL    HW115560   0.170   2.222   5.632
 4887SOL    HW215561   0.079   2.106   5.560
 4888SOL     OW15562   4.326   5.998   1.080
 4888SOL    HW115563   4.385   6.078   1.074
 4888SOL    HW215564   4.291   5.976   0.989
 4889SOL     OW15565   1.460   3.527   6.320
 4889SOL    HW115566   1.470   3.427   6.314
 4889SOL    HW215567   1.468   3.566   6.228
 4890SOL     OW15568   6.942   0.454   4.380
 4890SOL    HW115569   6.898   0.512   4.448
 4890SOL    HW215570   0.004   0.498   4.347
 4891SOL     OW15571   1.062   4.987   0.601
 4891SOL    HW115572   1.104   4.902   0.569
 4891SOL    HW215573   1.044   5.047   0.523
 4892SOL     OW15574   1.886   5.855   2.202
 4892SOL    HW115575   1.883   5.915   2.122
 4892SOL    HW215576   1.794   5.844   2.239
 4893SOL     OW15577   0.282   4.395   6.387
 4893SOL    HW115578   0.247   4.385   6.480
 4893SOL    HW215579   0.368   4.446   6.390
 4894SOL     OW15580   0.552   6.822   3.371
 4894SOL    HW115581   0.534   6.735   3.326
 4894SOL    HW215582   0.516   6.897   3.315
 4895SOL     OW15583   6.335   4.062   6.526
 4895SOL    HW115584   6.241   4.085   6.549
 4895SOL    HW215585   6.393   4.070   6.607
 4896SOL     OW15586   3.821   0.607   4.831
 4896SOL    HW115587   3.872   0.651   4.757
 4896SOL    HW215588   3.784   0.676   4.893
 4897SOL     OW15589   2.554   5.248   7.019
 4897SOL    HW115590   2.645   5.284   0.014
 4897SOL    HW215591   2.560   5.162   6.968
 4898SOL     OW15592   5.041   2.714   4.457
 4898SOL    HW115593   5.073   2.718   4.552
 4898SOL    HW215594   5.098   2.651   4.405
 4899SOL     OW15595   7.002   3.622   4.630
 4899SOL    HW115596   0.035   3.540   4.650
 4899SOL    HW215597   0.000   3.692   4.698
 4900SOL     OW15598   0.595   6.591   5.698
 4900SOL    HW115599   0.558   6.588   5.605
 4900SOL    HW215600   0.556   6.517   5.752
 4901SOL     OW15601   6.001   5.952   3.213
 4901SOL    HW115602   5.946   5.899   3.149
 4901SOL    HW215603   5.942   6.016   3.262
 4902SOL     OW15604   3.759   5.475   0.579
 4902SOL    HW115605   3.712   5.431   0.503
 4902SOL    HW215606   3.768   5.410   0.655
 4903SOL     OW15607   6.077   4.705   6.265
 4903SOL    HW115608   6.084   4.620   6.318
 4903SOL    HW215609   6.056   4.683   6.170
 4904SOL     OW15610   3.238   0.986   3.770
 4904SOL    HW115611   3.215   0.926   3.694
 4904SOL    HW215612   3.284   0.934   3.842
 4905SOL     OW15613   5.857   3.873   3.143
 4905SOL    HW115614   5.848   3.943   3.073
 4905SOL    HW215615   5.766   3.837   3.166
 4906SOL     OW15616   4.570   0.192   1.853
 4906SOL    HW115617   4.665   0.203   1.880
 4906SOL    HW215618   4.553   0.096   1.827
 4907SOL     OW15619   2.698   2.485   1.337
 4907SOL    HW115620   2.783   2.463   1.385
 4907SOL    HW215621   2.658   2.568   1.376
 4908SOL     OW15622   5.365   4.671   6.314
 4908SOL    HW115623   5.379   4.760   6.271
 4908SOL    HW215624   5.275   4.669   6.357
 4909SOL     OW15625   6.017   6.292   5.901
 4909SOL    HW115626   5.935   6.347   5.887
 4909SOL    HW215627   6.077   6.300   5.821
 4910SOL     OW15628   5.528   6.713   5.672
 4910SOL    HW115629   5.555   6.628   5.627
 4910SOL    HW215630   5.539   6.789   5.608
 4911SOL     OW15631   0.196   4.276   6.615
 4911SOL    HW115632   0.108   4.231   6.600
 4911SOL    HW215633   0.268   4.206   6.621
 4912SOL     OW15634   1.930   3.150   1.366
 4912SOL    HW115635   1.974   3.208   1.434
 4912SOL    HW215636   1.842   3.119   1.402
 4913SOL     OW15637   2.816   3.271   1.928
 4913SOL    HW115638   2.730   3.318   1.948
 4913SOL    HW215639   2.801   3.201   1.857
 4914SOL     OW15640   1.147   7.021   2.708
 4914SOL    HW115641   1.051   7.004   2.684
 4914SOL    HW215642   1.156   0.002   2.807
 4915SOL     OW15643   3.837   6.554   4.001
 4915SOL    HW115644   3.896   6.515   4.071
 4915SOL    HW215645   3.890   6.613   3.941
 4916SOL     OW15646   1.254   1.603   1.922
 4916SOL    HW115647   1.245   1.557   2.011
 4916SOL    HW215648   1.349   1.601   1.892
 4917SOL     OW15649   1.040   4.912   6.222
 4917SOL    HW115650   1.050   4.932   6.319
 4917SOL    HW215651   0.981   4.981   6.180
 4918SOL     OW15652   2.519   6.787   4.200
 4918SOL    HW115653   2.435   6.737   4.220
 4918SOL    HW215654   2.529   6.862   4.265
 4919SOL     OW15655   2.048   3.081   0.807
 4919SOL    HW115656   2.123   3.045   0.752
 4919SOL    HW215657   2.043   3.031   0.894
 4920SOL     OW15658   3.447   1.962   6.553
 4920SOL    HW115659   3.396   1.911   6.484
 4920SOL    HW215660   3.498   1.898   6.610
 4921SOL     OW15661   6.567   4.698   2.549
 4921SOL    HW115662   6.663   4.702   2.521
 4921SOL    HW215663   6.509   4.691   2.468
 4922SOL     OW15664   0.701   3.244   6.205
 4922SOL    HW115665   0.636   3.174   6.176
 4922SOL    HW215666   0.692   3.325   6.147
 4923SOL     OW15667   3.341   2.177   6.689
 4923SOL    HW115668   3.400   2.245   6.646
 4923SOL    HW215669   3.360   2.087   6.650
 4924SOL     OW15670   0.234   3.015   4.359
 4924SOL    HW115671   0.256   3.009   4.262
 4924SOL    HW215672   0.148   3.064   4.371
 4925SOL     OW15673   4.624   4.957   5.226
 4925SOL    HW115674   4.596   4.861   5.224
 4925SOL    HW215675   4.719   4.964   5.194
 4926SOL     OW15676   4.300   3.306   0.570
 4926SOL    HW115677   4.276   3.214   0.600
 4926SOL    HW215678   4.272   3.372   0.640
 4927SOL     OW15679   2.936   3.684   1.632
 4927SOL    HW115680   2.947   3.589   1.605
 4927SOL    HW215681   3.008   3.708   1.698
 4928SOL     OW15682   6.916   1.474   6.825
 4928SOL    HW115683   7.010   1.497   6.849
 4928SOL    HW215684   6.906   1.471   6.725
 4929SOL     OW15685   1.166   4.158   4.313
 4929SOL    HW115686   1.217   4.231   4.268
 4929SOL    HW215687   1.070   4.184   4.320
 4930SOL     OW15688   0.248   3.793   0.230
 4930SOL    HW115689   0.299   3.745   0.158
 4930SOL    HW215690   0.150   3.780   0.216
 4931SOL     OW15691   5.525   6.728   1.005
 4931SOL    HW115692   5.445   6.787   0.991
 4931SOL    HW215693   5.600   6.760   0.948
 4932SOL     OW15694   3.596   1.716   0.885
 4932SOL    HW115695   3.691   1.701   0.912
 4932SOL    HW215696   3.558   1.793   0.937
 4933SOL     OW15697   2.758   0.091   5.152
 4933SOL    HW115698   2.850   0.100   5.114
 4933SOL    HW215699   2.695   0.060   5.082
 4934SOL     OW15700   2.172   6.078   5.428
 4934SOL    HW115701   2.165   6.034   5.518
 4934SOL    HW215702   2.257   6.049   5.383
 4935SOL     OW15703   1.918   2.388   0.689
 4935SOL    HW115704   2.010   2.350   0.689
 4935SOL    HW215705   1.923   2.488   0.678
 4936SOL     OW15706   6.661   4.072   1.354
 4936SOL    HW115707   6.660   4.136   1.431
 4936SOL    HW215708   6.626   3.984   1.383
 4937SOL     OW15709   0.609   3.815   5.303
 4937SOL    HW115710   0.609   3.768   5.392
 4937SOL    HW215711   0.658   3.759   5.236
 4938SOL     OW15712   3.682   4.248   0.965
 4938SOL    HW115713   3.589   4.278   0.986
 4938SOL    HW215714   3.688   4.224   0.868
 4939SOL     OW15715   0.749   1.595   1.353
 4939SOL    HW115716   0.706   1.504   1.352
 4939SOL    HW215717   0.836   1.590   1.402
 4940SOL     OW15718   1.636   1.477   5.293
 4940SOL    HW115719   1.715   1.434   5.248
 4940SOL    HW215720   1.606   1.420   5.369
 4941SOL     OW15721   3.825   1.925   6.262
 4941SOL    HW115722   3.911   1.977   6.264
 4941SOL    HW215723   3.758   1.969   6.322
 4942SOL     OW15724   0.349   1.108   2.334
 4942SOL    HW115725   0.310   1.066   2.415
 4942SOL    HW215726   0.346   1.208   2.343
 4943SOL     OW15727   4.696   2.509   6.446
 4943SOL    HW115728   4.763   2.515   6.372
 4943SOL    HW215729   4.629   2.582   6.436
 4944SOL     OW15730   0.664   4.966   0.477
 4944SOL    HW115731   0.618   4.983   0.564
 4944SOL    HW215732   0.601   4.918   0.415
 4945SOL     OW15733   2.360   0.375   6.442
 4945SOL    HW115734   2.318   0.433   6.372
 4945SOL    HW215735   2.457   0.363   6.422
 4946SOL     OW15736   2.643   5.712   6.921
 4946SOL    HW115737   2.615   5.791   6.866
 4946SOL    HW215738   2.564   5.654   6.939
 4947SOL     OW15739   1.231   0.284   1.359
 4947SOL    HW115740   1.258   0.259   1.266
 4947SOL    HW215741   1.297   0.248   1.425
 4948SOL     OW15742   1.358   3.075   2.222
 4948SOL    HW115743   1.416   3.066   2.141
 4948SOL    HW215744   1.295   3.151   2.209
 4949SOL     OW15745   6.578   4.996   6.805
 4949SOL    HW115746   6.525   5.080   6.817
 4949SOL    HW215747   6.651   5.013   6.738
 4950SOL     OW15748   4.232   3.974   6.031
 4950SOL    HW115749   4.228   4.032   6.113
 4950SOL    HW215750   4.167   3.899   6.040
 4951SOL     OW15751   4.807   5.077   3.676
 4951SOL    HW115752   4.892   5.114   3.639
 4951SOL    HW215753   4.801   4.979   3.656
 4952SOL     OW15754   0.725   1.035   6.872
 4952SOL    HW115755   0.736   0.938   6.848
 4952SOL    HW215756   0.759   1.092   6.798
 4953SOL     OW15757   1.350   0.979   6.015
 4953SOL    HW115758   1.258   1.016   5.996
 4953SOL    HW215759   1.417   1.053   6.010
 4954SOL     OW15760   3.529   3.799   5.709
 4954SOL    HW115761   3.543   3.814   5.611
 4954SOL    HW215762   3.616   3.774   5.751
 4955SOL     OW15763   3.652   6.124   6.831
 4955SOL    HW115764   3.726   6.074   6.876
 4955SOL    HW215765   3.579   6.143   6.897
 4956SOL     OW15766   2.569   0.538   4.102
 4956SOL    HW115767   2.606   0.469   4.040
 4956SOL    HW215768   2.469   0.533   4.103
 4957SOL     OW15769   5.922   5.393   0.169
 4957SOL    HW115770   5.849   5.328   0.150
 4957SOL    HW215771   6.000   5.374   0.110
 4958SOL     OW15772   3.172   5.328   0.247
 4958SOL    HW115773   3.217   5.406   0.202
 4958SOL    HW215774   3.225   5.245   0.232
 4959SOL     OW15775   1.205   1.896   3.183
 4959SOL    HW115776   1.203   1.850   3.094
 4959SOL    HW215777   1.294   1.881   3.226
 4960SOL     OW15778   4.844   3.921   4.440
 4960SOL    HW115779   4.843   3.824   4.464
 4960SOL    HW215780   4.860   3.976   4.522
 4961SOL     OW15781   3.676   2.832   2.222
 4961SOL    HW115782   3.681   2.735   2.249
 4961SOL    HW215783   3.695   2.840   2.124
 4962SOL     OW15784   1.753   2.186   0.716
 4962SOL    HW115785   1.802   2.271   0.736
 4962SOL    HW215786   1.717   2.190   0.623
 4963SOL     OW15787   0.700   3.556   6.438
 4963SOL    HW115788   0.714   3.540   6.536
 4963SOL    HW215789   0.781   3.599   6.399
 4964SOL     OW15790   1.217   5.375   4.093
 4964SOL    HW115791   1.255   5.365   4.001
 4964SOL    HW215792   1.117   5.365   4.088
 4965SOL     OW15793   2.269   0.635   3.061
 4965SOL    HW115794   2.223   0.656   2.975
 4965SOL    HW215795   2.201   0.611   3.130
 4966SOL     OW15796   4.290   6.887   5.371
 4966SOL    HW115797   4.365   6.872   5.306
 4966SOL    HW215798   4.236   6.966   5.343
 4967SOL     OW15799   4.348   4.672   3.040
 4967SOL    HW115800   4.271   4.733   3.024
 4967SOL    HW215801   4.370   4.671   3.138
 4968SOL     OW15802   6.628   3.000   3.448
 4968SOL    HW115803   6.528   3.002   3.461
 4968SOL    HW215804   6.662   2.908   3.467
 4969SOL     OW15805   1.348   6.327   4.315
 4969SOL    HW115806   1.383   6.345   4.407
 4969SOL    HW215807   1.255   6.362   4.308
 4970SOL     OW15808   2.090   1.426   1.355
 4970SOL    HW115809   2.189   1.419   1.343
 4970SOL    HW215810   2.060   1.356   1.420
 4971SOL     OW15811   0.544   6.012   1.880
 4971SOL    HW115812   0.623   6.074   1.873
 4971SOL    HW215813   0.481   6.046   1.950
 4972SOL     OW15814   0.342   3.851   0.477
 4972SOL    HW115815   0.339   3.772   0.538
 4972SOL    HW215816   0.305   3.825   0.388
 4973SOL     OW15817   5.470   2.527   6.973
 4973SOL    HW115818   5.493   2.509   6.878
 4973SOL    HW215819   5.397   2.596   6.977
 4974SOL     OW15820   3.496   0.403   5.564
 4974SOL    HW115821   3.399   0.385   5.547
 4974SOL    HW215822   3.507   0.499   5.591
 4975SOL     OW15823   5.798   4.280   1.035
 4975SOL    HW115824   5.810   4.374   1.003
 4975SOL    HW215825   5.708   4.246   1.005
 4976SOL     OW15826   0.962   0.339   3.767
 4976SOL    HW115827   1.037   0.332   3.832
 4976SOL    HW215828   0.879   0.301   3.808
 4977SOL     OW15829   1.088   3.714   4.939
 4977SOL    HW115830   0.998   3.757   4.933
 4977SOL    HW215831   1.128   3.705   4.848
 4978SOL     OW15832   6.244   5.447   4.570
 4978SOL    HW115833   6.236   5.544   4.544
 4978SOL    HW215834   6.318   5.405   4.518
 4979SOL     OW15835   3.787   6.267   6.078
 4979SOL    HW115836   3.723   6.202   6.039
 4979SOL    HW215837   3.847   6.220   6.142
 4980SOL     OW15838   5.713   2.663   3.925
 4980SOL    HW115839   5.793   2.618   3.885
 4980SOL    HW215840   5.637   2.599   3.928
 4981SOL     OW15841   3.228   6.219   3.339
 4981SOL    HW115842   3.288   6.237   3.261
 4981SOL    HW215843   3.195   6.125   3.334
 4982SOL     OW15844   4.374   1.842   4.895
 4982SOL    HW115845   4.279   1.850   4.925
 4982SOL    HW215846   4.418   1.932   4.899
 4983SOL     OW15847   5.616   3.794   3.264
 4983SOL    HW115848   5.562   3.877   3.273
 4983SOL    HW215849   5.559   3.722   3.222
 4984SOL     OW15850   5.037   3.734   5.301
 4984SOL    HW115851   5.111   3.672   5.325
 4984SOL    HW215852   4.951   3.699   5.337
 4985SOL     OW15853   5.171   0.335   2.598
 4985SOL    HW115854   5.082   0.327   2.644
 4985SOL    HW215855   5.187   0.430   2.572
 4986SOL     OW15856   1.447   5.495   1.009
 4986SOL    HW115857   1.394   5.410   1.004
 4986SOL    HW215858   1.416   5.550   1.087
 4987SOL     OW15859   2.117   3.980   1.817
 4987SOL    HW115860   2.131   4.055   1.882
 4987SOL    HW215861   2.130   3.893   1.863
 4988SOL     OW15862   6.493   5.279   3.959
 4988SOL    HW115863   6.552   5.355   3.932
 4988SOL    HW215864   6.411   5.315   4.003
 4989SOL     OW15865   0.064   6.756   3.788
 4989SOL    HW115866   0.050   6.693   3.864
 4989SOL    HW215867   6.997   6.779   3.747
 4990SOL     OW15868   5.354   1.917   5.637
 4990SOL    HW115869   5.316   1.928   5.729
 4990SOL    HW215870   5.280   1.900   5.572
 4991SOL     OW15871   2.461   5.609   5.455
 4991SOL    HW115872   2.414   5.556   5.384
 4991SOL    HW215873   2.429   5.704   5.453
 4992SOL     OW15874   2.600   3.034   5.606
 4992SOL    HW115875   2.660   2.977   5.662
 4992SOL    HW215876   2.564   3.109   5.661
 4993SOL     OW15877   2.351   5.372   4.036
 4993SOL    HW115878   2.300   5.297   4.077
 4993SOL    HW215879   2.411   5.414   4.104
 4994SOL     OW15880   2.848   4.805   5.639
 4994SOL    HW115881   2.947   4.799   5.654
 4994SOL    HW215882   2.815   4.720   5.598
 4995SOL     OW15883   0.472   1.983   5.401
 4995SOL    HW115884   0.443   2.075   5.375
 4995SOL    HW215885   0.404   1.916   5.370
 4996SOL     OW15886   0.010   0.448   4.772
 4996SOL    HW115887   6.974   0.369   4.749
 4996SOL    HW215888   0.047   0.437   4.864
 4997SOL     OW15889   3.919   1.440   0.646
 4997SOL    HW115890   3.848   1.379   0.682
 4997SOL    HW215891   3.903   1.455   0.548
 4998SOL     OW15892   1.204   3.549   3.548
 4998SOL    HW115893   1.212   3.579   3.643
 4998SOL    HW215894   1.273   3.594   3.493
 4999SOL     OW15895   6.979   2.824   3.325
 4999SOL    HW115896   6.985   2.922   3.308
 4999SOL    HW215897   6.967   2.775   3.238
 5000SOL     OW15898   2.988   6.660   2.958
 5000SOL    HW115899   2.938   6.616   2.884
 5000SOL    HW215900   3.030   6.590   3.016
 5001SOL     OW15901   0.158   5.951   3.336
 5001SOL    HW115902   0.125   5.964   3.429
 5001SOL    HW215903   0.124   6.025   3.278
 5002SOL     OW15904   1.079   4.932   3.754
 5002SOL    HW115905   1.074   4.858   3.821
 5002SOL    HW215906   1.016   4.914   3.679
 5003SOL     OW15907   3.532   1.178   1.300
 5003SOL    HW115908   3.449   1.155   1.351
 5003SOL    HW215909   3.509   1.239   1.225
 5004SOL     OW15910   4.481   6.227   0.366
 5004SOL    HW115911   4.472   6.196   0.460
 5004SOL    HW215912   4.552   6.297   0.360
 5005SOL     OW15913   4.497   2.888   1.121
 5005SOL    HW115914   4.450   2.816   1.071
 5005SOL    HW215915   4.575   2.850   1.170
 5006SOL     OW15916   4.840   0.842   2.764
 5006SOL    HW115917   4.896   0.915   2.803
 5006SOL    HW215918   4.897   0.763   2.745
 5007SOL     OW15919   6.365   5.154   2.193
 5007SOL    HW115920   6.385   5.155   2.095
 5007SOL    HW215921   6.345   5.247   2.224
 5008SOL     OW15922   4.889   6.634   3.667
 5008SOL    HW115923   4.925   6.551   3.624
 5008SOL    HW215924   4.791   6.623   3.684
 5009SOL     OW15925   0.549   1.657   6.704
 5009SOL    HW115926   0.625   1.701   6.753
 5009SOL    HW215927   0.567   1.658   6.606
 5010SOL     OW15928   4.934   4.203   1.178
 5010SOL    HW115929   4.921   4.272   1.249
 5010SOL    HW215930   4.927   4.112   1.218
 5011SOL     OW15931   1.578   2.265   5.921
 5011SOL    HW115932   1.605   2.308   6.007
 5011SOL    HW215933   1.655   2.215   5.883
 5012SOL     OW15934   5.897   2.526   6.152
 5012SOL    HW115935   5.973   2.589   6.139
 5012SOL    HW215936   5.929   2.444   6.199
 5013SOL     OW15937   5.797   6.267   5.119
 5013SOL    HW115938   5.747   6.196   5.070
 5013SOL    HW215939   5.788   6.252   5.218
 5014SOL     OW15940   6.332   3.758   0.737
 5014SOL    HW115941   6.285   3.723   0.657
 5014SOL    HW215942   6.430   3.765   0.718
 5015SOL     OW15943   6.299   5.213   4.275
 5015SOL    HW115944   6.335   5.233   4.366
 5015SOL    HW215945   6.317   5.117   4.252
 5016SOL     OW15946   1.394   2.199   6.471
 5016SOL    HW115947   1.442   2.114   6.448
 5016SOL    HW215948   1.295   2.184   6.468
 5017SOL     OW15949   1.149   3.067   1.891
 5017SOL    HW115950   1.169   3.114   1.805
 5017SOL    HW215951   1.234   3.036   1.933
 5018SOL     OW15952   0.772   0.582   0.140
 5018SOL    HW115953   0.709   0.660   0.138
 5018SOL    HW215954   0.853   0.606   0.194
 5019SOL     OW15955   2.051   4.272   3.657
 5019SOL    HW115956   2.062   4.284   3.558
 5019SOL    HW215957   1.991   4.344   3.692
 5020SOL     OW15958   2.139   0.086   3.579
 5020SOL    HW115959   2.204   0.142   3.527
 5020SOL    HW215960   2.187   0.007   3.618
 5021SOL     OW15961   2.690   0.480   1.501
 5021SOL    HW115962   2.709   0.512   1.593
 5021SOL    HW215963   2.767   0.425   1.468
 5022SOL     OW15964   0.175   2.893   1.123
 5022SOL    HW115965   0.171   2.815   1.185
 5022SOL    HW215966   0.110   2.878   1.048
 5023SOL     OW15967   0.697   2.399   2.799
 5023SOL    HW115968   0.767   2.334   2.827
 5023SOL    HW215969   0.681   2.464   2.874
 5024SOL     OW15970   4.340   4.136   6.931
 5024SOL    HW115971   4.378   4.176   7.015
 5024SOL    HW215972   4.321   4.208   6.865
 5025SOL     OW15973   5.196   2.099   4.779
 5025SOL    HW115974   5.249   2.182   4.796
 5025SOL    HW215975   5.148   2.108   4.692
 5026SOL     OW15976   4.941   5.867   5.101
 5026SOL    HW115977   4.949   5.842   5.005
 5026SOL    HW215978   4.978   5.793   5.158
 5027SOL     OW15979   5.246   6.343   0.803
 5027SOL    HW115980   5.345   6.335   0.797
 5027SOL    HW215981   5.204   6.307   0.720
 5028SOL     OW15982   6.845   1.708   2.519
 5028SOL    HW115983   6.746   1.721   2.507
 5028SOL    HW215984   6.861   1.629   2.578
 5029SOL     OW15985   5.571   2.623   2.673
 5029SOL    HW115986   5.601   2.567   2.596
 5029SOL    HW215987   5.483   2.590   2.706
 5030SOL     OW15988   0.551   3.251   1.265
 5030SOL    HW115989   0.458   3.275   1.294
 5030SOL    HW215990   0.615   3.269   1.340
 5031SOL     OW15991   6.790   6.964   5.924
 5031SOL    HW115992   6.702   6.917   5.919
 5031SOL    HW215993   6.783   0.032   5.878
 5032SOL     OW15994   2.464   4.618   6.167
 5032SOL    HW115995   2.373   4.635   6.128
 5032SOL    HW215996   2.531   4.679   6.124
 5033SOL     OW15997   1.810   6.957   4.421
 5033SOL    HW115998   1.737   6.907   4.374
 5033SOL    HW215999   1.899   6.924   4.390
 5034SOL     OW16000   4.272   5.519   3.643
 5034SOL    HW116001   4.348   5.473   3.689
 5034SOL    HW216002   4.185   5.482   3.676
 5035SOL     OW16003   1.830   3.603   3.277
 5035SOL    HW116004   1.896   3.563   3.341
 5035SOL    HW216005   1.860   3.584   3.183
 5036SOL     OW16006   1.456   3.210   4.783
 5036SOL    HW116007   1.426   3.144   4.714
 5036SOL    HW216008   1.450   3.168   4.873
 5037SOL     OW16009   5.553   4.544   1.290
 5037SOL    HW116010   5.461   4.580   1.306
 5037SOL    HW216011   5.569   4.535   1.191
 5038SOL     OW16012   3.016   3.839   4.591
 5038SOL    HW116013   3.108   3.804   4.605
 5038SOL    HW216014   2.971   3.851   4.680
 5039SOL     OW16015   0.680   3.622   0.003
 5039SOL    HW116016   0.692   3.525   7.005
 5039SOL    HW216017   0.745   3.651   0.074
 5040SOL     OW16018   0.607   1.883   5.112
 5040SOL    HW116019   0.572   1.808   5.057
 5040SOL    HW216020   0.543   1.902   5.187
 5041SOL     OW16021   6.949   2.496   1.385
 5041SOL    HW116022   6.924   2.404   1.356
 5041SOL    HW216023   6.906   2.516   1.473
 5042SOL     OW16024   0.927   1.887   5.838
 5042SOL    HW116025   0.874   1.807   5.866
 5042SOL    HW216026   0.865   1.964   5.823
 5043SOL     OW16027   3.045   6.573   1.776
 5043SOL    HW116028   3.093   6.489   1.750
 5043SOL    HW216029   2.993   6.557   1.860
 5044SOL     OW16030   0.726   5.850   0.809
 5044SOL    HW116031   0.670   5.919   0.763
 5044SOL    HW216032   0.761   5.785   0.741
 5045SOL     OW16033   5.970   2.859   1.458
 5045SOL    HW116034   5.918   2.813   1.530
 5045SOL    HW216035   6.064   2.875   1.488
 5046SOL     OW16036   3.859   3.284   2.109
 5046SOL    HW116037   3.909   3.369   2.093
 5046SOL    HW216038   3.763   3.305   2.130
 5047SOL     OW16039   1.883   4.499   3.981
 5047SOL    HW116040   1.814   4.565   4.013
 5047SOL    HW216041   1.863   4.474   3.887
 5048SOL     OW16042   2.265   0.114   5.637
 5048SOL    HW116043   2.357   0.135   5.669
 5048SOL    HW216044   2.207   0.089   5.715
 5049SOL     OW16045   3.799   1.459   7.001
 5049SOL    HW116046   3.772   1.409   0.062
 5049SOL    HW216047   3.726   1.521   6.973
 5050SOL     OW16048   1.091   0.513   1.085
 5050SOL    HW116049   1.173   0.545   1.133
 5050SOL    HW216050   1.091   0.549   0.992
 5051SOL     OW16051   4.600   4.378   1.125
 5051SOL    HW116052   4.616   4.399   1.029
 5051SOL    HW216053   4.557   4.287   1.132
 5052SOL     OW16054   1.875   3.578   4.086
 5052SOL    HW116055   1.966   3.604   4.052
 5052SOL    HW216056   1.849   3.639   4.161
 5053SOL     OW16057   6.407   0.623   0.764
 5053SOL    HW116058   6.504   0.646   0.771
 5053SOL    HW216059   6.379   0.570   0.845
 5054SOL     OW16060   4.308   5.530   3.373
 5054SOL    HW116061   4.293   5.511   3.470
 5054SOL    HW216062   4.404   5.514   3.350
 5055SOL     OW16063   0.006   4.246   5.454
 5055SOL    HW116064   0.014   4.204   5.545
 5055SOL    HW216065   6.962   4.194   5.399
 5056SOL     OW16066   6.674   4.442   3.086
 5056SOL    HW116067   6.652   4.367   3.024
 5056SOL    HW216068   6.607   4.516   3.074
 5057SOL     OW16069   0.095   6.086   2.286
 5057SOL    HW116070   0.048   5.999   2.302
 5057SOL    HW216071   0.192   6.077   2.308
 5058SOL     OW16072   2.516   5.461   5.660
 5058SOL    HW116073   2.504   5.507   5.572
 5058SOL    HW216074   2.467   5.373   5.659
 5059SOL     OW16075   6.813   0.243   1.976
 5059SOL    HW116076   6.718   0.240   1.944
 5059SOL    HW216077   6.866   0.306   1.918
 5060SOL     OW16078   0.367   2.838   6.076
 5060SOL    HW116079   0.357   2.738   6.076
 5060SOL    HW216080   0.354   2.872   5.983
 5061SOL     OW16081   6.125   2.937   0.566
 5061SOL    HW116082   6.179   2.897   0.492
 5061SOL    HW216083   6.103   3.032   0.544
 5062SOL     OW16084   6.160   6.944   6.896
 5062SOL    HW116085   6.253   6.970   6.918
 5062SOL    HW216086   6.121   6.891   6.971
 5063SOL     OW16087   0.911   6.364   2.775
 5063SOL    HW116088   0.996   6.348   2.726
 5063SOL    HW216089   0.931   6.385   2.871
 5064SOL     OW16090   5.227   3.967   7.018
 5064SOL    HW116091   5.306   3.950   6.958
 5064SOL    HW216092   5.147   3.920   6.982
 5065SOL     OW16093   2.840   6.549   5.992
 5065SOL    HW116094   2.774   6.623   6.003
 5065SOL    HW216095   2.846   6.497   6.077
 5066SOL     OW16096   5.096   4.489   0.660
 5066SOL    HW116097   5.079   4.466   0.564
 5066SOL    HW216098   5.171   4.555   0.665
 5067SOL     OW16099   5.549   1.126   6.687
 5067SOL    HW116100   5.646   1.140   6.667
 5067SOL    HW216101   5.495   1.142   6.604
 5068SOL     OW16102   3.562   4.578   1.101
 5068SOL    HW116103   3.556   4.527   1.187
 5068SOL    HW216104   3.638   4.542   1.047
 5069SOL     OW16105   6.735   5.226   3.200
 5069SOL    HW116106   6.755   5.319   3.168
 5069SOL    HW216107   6.637   5.217   3.216
 5070SOL     OW16108   5.006   2.305   3.874
 5070SOL    HW116109   4.935   2.251   3.829
 5070SOL    HW216110   5.081   2.244   3.902
 5071SOL     OW16111   5.349   0.856   1.412
 5071SOL    HW116112   5.296   0.928   1.458
 5071SOL    HW216113   5.298   0.822   1.334
 5072SOL     OW16114   0.673   4.165   1.759
 5072SOL    HW116115   0.650   4.202   1.849
 5072SOL    HW216116   0.617   4.084   1.741
 5073SOL     OW16117   3.890   2.143   3.459
 5073SOL    HW116118   3.879   2.182   3.368
 5073SOL    HW216119   3.803   2.104   3.490
 5074SOL     OW16120   4.059   4.217   5.201
 5074SOL    HW116121   4.099   4.126   5.203
 5074SOL    HW216122   4.130   4.285   5.185
 5075SOL     OW16123   6.845   0.290   4.189
 5075SOL    HW116124   6.887   0.345   4.260
 5075SOL    HW216125   6.761   0.334   4.157
 5076SOL     OW16126   5.308   0.464   1.363
 5076SOL    HW116127   5.301   0.514   1.276
 5076SOL    HW216128   5.244   0.388   1.362
 5077SOL     OW16129   6.773   2.432   2.964
 5077SOL    HW116130   6.756   2.442   2.865
 5077SOL    HW216131   6.731   2.508   3.012
 5078SOL     OW16132   0.193   1.713   4.842
 5078SOL    HW116133   0.253   1.650   4.793
 5078SOL    HW216134   0.237   1.744   4.926
 5079SOL     OW16135   4.715   5.083   4.715
 5079SOL    HW116136   4.692   5.076   4.812
 5079SOL    HW216137   4.814   5.075   4.703
 5080SOL     OW16138   5.679   0.647   6.360
 5080SOL    HW116139   5.656   0.721   6.297
 5080SOL    HW216140   5.696   0.563   6.307
 5081SOL     OW16141   2.914   3.316   3.306
 5081SOL    HW116142   2.907   3.236   3.246
 5081SOL    HW216143   2.882   3.397   3.257
 5082SOL     OW16144   0.747   1.722   5.537
 5082SOL    HW116145   0.648   1.730   5.537
 5082SOL    HW216146   0.788   1.805   5.499
 5083SOL     OW16147   0.752   4.108   2.142
 5083SOL    HW116148   0.760   4.013   2.109
 5083SOL    HW216149   0.789   4.114   2.234
 5084SOL     OW16150   1.190   5.730   2.278
 5084SOL    HW116151   1.161   5.817   2.317
 5084SOL    HW216152   1.196   5.739   2.178
 5085SOL     OW16153   6.398   4.024   0.214
 5085SOL    HW116154   6.394   3.924   0.204
 5085SOL    HW216155   6.376   4.066   0.127
 5086SOL     OW16156   6.161   5.499   4.847
 5086SOL    HW116157   6.239   5.482   4.907
 5086SOL    HW216158   6.193   5.511   4.753
 5087SOL     OW16159   5.154   5.305   5.488
 5087SOL    HW116160   5.156   5.401   5.518
 5087SOL    HW216161   5.227   5.288   5.423
 5088SOL     OW16162   6.211   0.926   6.647
 5088SOL    HW116163   6.175   0.953   6.558
 5088SOL    HW216164   6.244   0.832   6.643
 5089SOL     OW16165   5.542   3.024   3.793
 5089SOL    HW116166   5.457   3.076   3.800
 5089SOL    HW216167   5.611   3.067   3.851
 5090SOL     OW16168   1.166   5.092   0.166
 5090SOL    HW116169   1.155   5.071   0.069
 5090SOL    HW216170   1.227   5.025   0.208
 5091SOL     OW16171   0.739   6.193   3.754
 5091SOL    HW116172   0.646   6.192   3.792
 5091SOL    HW216173   0.806   6.189   3.828
 5092SOL     OW16174   3.202   2.807   1.266
 5092SOL    HW116175   3.219   2.710   1.279
 5092SOL    HW216176   3.189   2.851   1.355
 5093SOL     OW16177   0.680   1.119   1.877
 5093SOL    HW116178   0.640   1.083   1.961
 5093SOL    HW216179   0.705   1.043   1.816
 5094SOL     OW16180   0.276   0.170   6.655
 5094SOL    HW116181   0.302   0.228   6.578
 5094SOL    HW216182   0.343   0.096   6.666
 5095SOL     OW16183   3.271   0.272   5.445
 5095SOL    HW116184   3.331   0.234   5.374
 5095SOL    HW216185   3.176   0.249   5.424
 5096SOL     OW16186   3.632   6.330   2.442
 5096SOL    HW116187   3.561   6.389   2.404
 5096SOL    HW216188   3.648   6.253   2.381
 5097SOL     OW16189   1.021   2.190   6.700
 5097SOL    HW116190   1.024   2.209   6.798
 5097SOL    HW216191   1.049   2.095   6.684
 5098SOL     OW16192   0.880   2.199   2.837
 5098SOL    HW116193   0.860   2.134   2.764
 5098SOL    HW216194   0.920   2.150   2.915
 5099SOL     OW16195   0.402   1.397   4.052
 5099SOL    HW116196   0.432   1.405   3.957
 5099SOL    HW216197   0.353   1.311   4.064
 5100SOL     OW16198   4.485   5.086   5.626
 5100SOL    HW116199   4.392   5.112   5.600
 5100SOL    HW216200   4.518   5.015   5.564
 5101SOL     OW16201   5.426   6.215   0.603
 5101SOL    HW116202   5.338   6.182   0.567
 5101SOL    HW216203   5.482   6.249   0.527
 5102SOL     OW16204   3.204   6.225   3.861
 5102SOL    HW116205   3.186   6.152   3.795
 5102SOL    HW216206   3.297   6.215   3.897
 5103SOL     OW16207   1.264   2.208   3.598
 5103SOL    HW116208   1.178   2.254   3.578
 5103SOL    HW216209   1.335   2.240   3.534
 5104SOL     OW16210   0.675   0.552   0.414
 5104SOL    HW116211   0.709   0.585   0.327
 5104SOL    HW216212   0.751   0.535   0.476
 5105SOL     OW16213   1.648   3.093   6.924
 5105SOL    HW116214   1.666   3.006   6.878
 5105SOL    HW216215   1.690   3.091   7.015
 5106SOL     OW16216   2.125   6.808   2.403
 5106SOL    HW116217   2.083   6.826   2.314
 5106SOL    HW216218   2.224   6.797   2.391
 5107SOL     OW16219   1.738   7.016   6.326
 5107SOL    HW116220   1.818   7.005   6.266
 5107SOL    HW216221   1.763   0.051   6.404
 5108SOL     OW16222   3.700   3.753   4.806
 5108SOL    HW116223   3.665   3.661   4.823
 5108SOL    HW216224   3.795   3.758   4.838
 5109SOL     OW16225   0.221   2.168   2.590
 5109SOL    HW116226   0.185   2.075   2.592
 5109SOL    HW216227   0.314   2.167   2.553
 5110SOL     OW16228   2.295   5.778   5.690
 5110SOL    HW116229   2.311   5.708   5.760
 5110SOL    HW216230   2.377   5.834   5.680
 5111SOL     OW16231   1.040   0.539   6.536
 5111SOL    HW116232   1.027   0.443   6.560
 5111SOL    HW216233   0.965   0.569   6.477
 5112SOL     OW16234   0.084   6.982   2.967
 5112SOL    HW116235   0.050   0.048   2.932
 5112SOL    HW216236   0.141   6.998   3.047
 5113SOL     OW16237   0.490   1.249   6.649
 5113SOL    HW116238   0.464   1.284   6.559
 5113SOL    HW216239   0.564   1.183   6.639
 5114SOL     OW16240   4.861   5.587   6.499
 5114SOL    HW116241   4.946   5.543   6.467
 5114SOL    HW216242   4.822   5.642   6.426
 5115SOL     OW16243   2.678   3.973   5.289
 5115SOL    HW116244   2.707   3.877   5.281
 5115SOL    HW216245   2.590   3.985   5.244
 5116SOL     OW16246   6.906   3.704   1.206
 5116SOL    HW116247   6.888   3.802   1.197
 5116SOL    HW216248   6.820   3.653   1.205
 5117SOL     OW16249   2.376   5.318   3.189
 5117SOL    HW116250   2.376   5.330   3.288
 5117SOL    HW216251   2.356   5.405   3.145
 5118SOL     OW16252   4.043   0.236   1.115
 5118SOL    HW116253   4.104   0.295   1.167
 5118SOL    HW216254   4.057   0.140   1.142
 5119SOL     OW16255   6.080   0.668   2.501
 5119SOL    HW116256   6.113   0.737   2.436
 5119SOL    HW216257   6.027   0.599   2.452
 5120SOL     OW16258   3.563   1.507   1.682
 5120SOL    HW116259   3.490   1.439   1.689
 5120SOL    HW216260   3.602   1.505   1.590
 5121SOL     OW16261   0.786   4.048   4.088
 5121SOL    HW116262   0.730   3.981   4.039
 5121SOL    HW216263   0.730   4.126   4.114
 5122SOL     OW16264   2.294   5.670   2.735
 5122SOL    HW116265   2.248   5.737   2.676
 5122SOL    HW216266   2.248   5.582   2.727
 5123SOL     OW16267   6.014   3.190   2.520
 5123SOL    HW116268   6.046   3.110   2.571
 5123SOL    HW216269   6.029   3.272   2.575
 5124SOL     OW16270   3.325   6.457   0.742
 5124SOL    HW116271   3.237   6.428   0.707
 5124SOL    HW216272   3.365   6.524   0.680
 5125SOL     OW16273   0.645   1.881   6.003
 5125SOL    HW116274   0.623   1.974   6.033
 5125SOL    HW216275   0.562   1.825   6.006
 5126SOL     OW16276   4.508   1.786   0.644
 5126SOL    HW116277   4.602   1.786   0.610
 5126SOL    HW216278   4.477   1.692   0.659
 5127SOL     OW16279   4.834   3.636   6.140
 5127SOL    HW116280   4.875   3.698   6.207
 5127SOL    HW216281   4.863   3.663   6.048
 5128SOL     OW16282   0.209   0.367   6.869
 5128SOL    HW116283   0.256   0.279   6.857
 5128SOL    HW216284   0.136   0.375   6.802
 5129SOL     OW16285   4.692   2.647   3.928
 5129SOL    HW116286   4.718   2.561   3.971
 5129SOL    HW216287   4.743   2.723   3.970
 5130SOL     OW16288   2.530   6.721   4.854
 5130SOL    HW116289   2.458   6.781   4.820
 5130SOL    HW216290   2.489   6.641   4.898
 5131SOL     OW16291   2.928   5.360   3.145
 5131SOL    HW116292   2.952   5.457   3.143
 5131SOL    HW216293   2.828   5.351   3.147
 5132SOL     OW16294   3.231   1.854   6.447
 5132SOL    HW116295   3.288   1.845   6.365
 5132SOL    HW216296   3.170   1.932   6.437
 5133SOL     OW16297   4.139   4.396   6.321
 5133SOL    HW116298   4.199   4.363   6.248
 5133SOL    HW216299   4.044   4.379   6.296
 5134SOL     OW16300   5.852   6.122   0.652
 5134SOL    HW116301   5.817   6.029   0.643
 5134SOL    HW216302   5.833   6.156   0.744
 5135SOL     OW16303   0.555   2.868   2.306
 5135SOL    HW116304   0.539   2.796   2.374
 5135SOL    HW216305   0.507   2.951   2.335
 5136SOL     OW16306   6.952   0.114   4.358
 5136SOL    HW116307   6.882   0.052   4.395
 5136SOL    HW216308   6.909   0.178   4.294
 5137SOL     OW16309   5.476   0.642   3.002
 5137SOL    HW116310   5.379   0.668   3.002
 5137SOL    HW216311   5.522   0.688   2.926
 5138SOL     OW16312   3.466   3.726   2.919
 5138SOL    HW116313   3.383   3.746   2.866
 5138SOL    HW216314   3.480   3.798   2.986
 5139SOL     OW16315   5.021   0.773   4.662
 5139SOL    HW116316   4.954   0.712   4.704
 5139SOL    HW216317   5.007   0.866   4.697
 5140SOL     OW16318   2.616   3.576   6.085
 5140SOL    HW116319   2.697   3.548   6.033
 5140SOL    HW216320   2.563   3.496   6.109
 5141SOL     OW16321   1.079   3.111   0.895
 5141SOL    HW116322   1.128   3.191   0.862
 5141SOL    HW216323   1.136   3.030   0.885
 5142SOL     OW16324   6.983   6.700   2.966
 5142SOL    HW116325   6.893   6.691   3.010
 5142SOL    HW216326   0.001   6.790   2.989
 5143SOL     OW16327   6.422   6.209   2.740
 5143SOL    HW116328   6.391   6.195   2.834
 5143SOL    HW216329   6.349   6.253   2.687
 5144SOL     OW16330   1.931   2.806   5.299
 5144SOL    HW116331   1.872   2.808   5.218
 5144SOL    HW216332   1.982   2.892   5.305
 5145SOL     OW16333   1.252   5.234   5.843
 5145SOL    HW116334   1.293   5.250   5.933
 5145SOL    HW216335   1.251   5.136   5.824
 5146SOL     OW16336   5.318   6.234   6.627
 5146SOL    HW116337   5.408   6.273   6.611
 5146SOL    HW216338   5.327   6.147   6.676
 5147SOL     OW16339   4.921   1.230   2.749
 5147SOL    HW116340   4.977   1.298   2.701
 5147SOL    HW216341   4.889   1.161   2.683
 5148SOL     OW16342   6.077   1.469   0.701
 5148SOL    HW116343   6.043   1.400   0.636
 5148SOL    HW216344   6.006   1.487   0.769
 5149SOL     OW16345   2.744   6.443   3.788
 5149SOL    HW116346   2.795   6.373   3.739
 5149SOL    HW216347   2.754   6.531   3.741
 5150SOL     OW16348   6.549   0.791   4.243
 5150SOL    HW116349   6.630   0.753   4.199
 5150SOL    HW216350   6.573   0.827   4.333
 5151SOL     OW16351   5.265   4.520   1.999
 5151SOL    HW116352   5.182   4.468   2.019
 5151SOL    HW216353   5.333   4.460   1.957
 5152SOL     OW16354   2.124   1.826   0.319
 5152SOL    HW116355   2.221   1.836   0.342
 5152SOL    HW216356   2.078   1.776   0.392
 5153SOL     OW16357   2.391   2.316   0.223
 5153SOL    HW116358   2.433   2.264   0.298
 5153SOL    HW216359   2.359   2.404   0.259
 5154SOL     OW16360   0.510   2.962   0.257
 5154SOL    HW116361   0.437   2.898   0.233
 5154SOL    HW216362   0.485   3.054   0.226
 5155SOL     OW16363   1.307   0.705   0.140
 5155SOL    HW116364   1.321   0.621   0.192
 5155SOL    HW216365   1.373   0.774   0.169
 5156SOL     OW16366   5.413   4.741   5.784
 5156SOL    HW116367   5.381   4.647   5.796
 5156SOL    HW216368   5.505   4.740   5.746
 5157SOL     OW16369   3.767   1.060   1.669
 5157SOL    HW116370   3.684   1.012   1.698
 5157SOL    HW216371   3.808   1.106   1.748
 5158SOL     OW16372   1.893   3.096   2.451
 5158SOL    HW116373   1.920   3.102   2.355
 5158SOL    HW216374   1.923   3.008   2.488
 5159SOL     OW16375   6.673   2.777   5.577
 5159SOL    HW116376   6.660   2.875   5.560
 5159SOL    HW216377   6.633   2.753   5.666
 5160SOL     OW16378   6.848   0.463   2.894
 5160SOL    HW116379   6.806   0.396   2.832
 5160SOL    HW216380   6.777   0.523   2.932
 5161SOL     OW16381   0.929   1.772   6.597
 5161SOL    HW116382   0.937   1.768   6.497
 5161SOL    HW216383   1.014   1.806   6.636
 5162SOL     OW16384   0.419   6.964   5.790
 5162SOL    HW116385   0.399   0.031   5.833
 5162SOL    HW216386   0.356   6.948   5.715
 5163SOL     OW16387   2.859   0.839   1.487
 5163SOL    HW116388   2.805   0.787   1.422
 5163SOL    HW216389   2.954   0.807   1.485
 5164SOL     OW16390   2.428   3.005   0.235
 5164SOL    HW116391   2.390   3.048   0.317
 5164SOL    HW216392   2.490   2.932   0.261
 5165SOL     OW16393   1.065   5.043   5.520
 5165SOL    HW116394   1.154   5.051   5.566
 5165SOL    HW216395   1.078   5.003   5.429
 5166SOL     OW16396   6.825   6.201   5.517
 5166SOL    HW116397   6.921   6.180   5.500
 5166SOL    HW216398   6.769   6.123   5.493
 5167SOL     OW16399   6.467   3.420   5.866
 5167SOL    HW116400   6.462   3.516   5.892
 5167SOL    HW216401   6.524   3.410   5.784
 5168SOL     OW16402   5.218   1.785   3.527
 5168SOL    HW116403   5.228   1.689   3.503
 5168SOL    HW216404   5.291   1.838   3.483
 5169SOL     OW16405   5.004   5.631   4.596
 5169SOL    HW116406   4.913   5.591   4.608
 5169SOL    HW216407   5.006   5.723   4.637
 5170SOL     OW16408   2.414   3.810   6.236
 5170SOL    HW116409   2.448   3.904   6.228
 5170SOL    HW216410   2.488   3.750   6.268
 5171SOL     OW16411   2.076   6.741   5.684
 5171SOL    HW116412   2.042   6.793   5.606
 5171SOL    HW216413   2.017   6.662   5.699
 5172SOL     OW16414   4.940   5.241   5.721
 5172SOL    HW116415   4.855   5.210   5.763
 5172SOL    HW216416   4.987   5.164   5.679
 5173SOL     OW16417   4.084   6.250   4.269
 5173SOL    HW116418   4.098   6.324   4.203
 5173SOL    HW216419   4.125   6.275   4.356
 5174SOL     OW16420   0.499   5.734   3.125
 5174SOL    HW116421   0.453   5.726   3.214
 5174SOL    HW216422   0.592   5.698   3.132
 5175SOL     OW16423   2.901   1.580   6.472
 5175SOL    HW116424   2.858   1.669   6.460
 5175SOL    HW216425   2.834   1.507   6.459
 5176SOL     OW16426   5.693   6.517   6.381
 5176SOL    HW116427   5.736   6.543   6.294
 5176SOL    HW216428   5.741   6.563   6.456
 5177SOL     OW16429   5.702   5.507   1.130
 5177SOL    HW116430   5.699   5.576   1.203
 5177SOL    HW216431   5.656   5.424   1.162
 5178SOL     OW16432   1.038   4.416   0.694
 5178SOL    HW116433   1.103   4.412   0.771
 5178SOL    HW216434   0.969   4.346   0.705
 5179SOL     OW16435   3.770   5.368   2.535
 5179SOL    HW116436   3.750   5.299   2.465
 5179SOL    HW216437   3.823   5.326   2.609
 5180SOL     OW16438   2.862   5.324   2.107
 5180SOL    HW116439   2.870   5.238   2.158
 5180SOL    HW216440   2.923   5.392   2.146
 5181SOL     OW16441   6.449   1.222   5.831
 5181SOL    HW116442   6.522   1.158   5.854
 5181SOL    HW216443   6.481   1.285   5.760
 5182SOL     OW16444   2.082   6.290   2.650
 5182SOL    HW116445   2.000   6.238   2.627
 5182SOL    HW216446   2.098   6.287   2.748
 5183SOL     OW16447   5.447   1.909   3.458
 5183SOL    HW116448   5.457   2.008   3.466
 5183SOL    HW216449   5.459   1.866   3.547
 5184SOL     OW16450   3.170   0.950   2.172
 5184SOL    HW116451   3.177   1.000   2.258
 5184SOL    HW216452   3.211   0.860   2.181
 5185SOL     OW16453   6.430   0.347   1.361
 5185SOL    HW116454   6.418   0.442   1.390
 5185SOL    HW216455   6.369   0.288   1.413
 5186SOL     OW16456   5.761   2.582   6.603
 5186SOL    HW116457   5.779   2.490   6.568
 5186SOL    HW216458   5.767   2.582   6.703
 5187SOL     OW16459   1.260   4.826   4.729
 5187SOL    HW116460   1.351   4.787   4.715
 5187SOL    HW216461   1.246   4.845   4.826
 5188SOL     OW16462   0.229   0.332   1.965
 5188SOL    HW116463   0.294   0.407   1.950
 5188SOL    HW216464   0.137   0.364   1.946
 5189SOL     OW16465   5.572   6.190   6.327
 5189SOL    HW116466   5.631   6.229   6.256
 5189SOL    HW216467   5.486   6.161   6.287
 5190SOL     OW16468   1.583   5.288   0.758
 5190SOL    HW116469   1.623   5.269   0.848
 5190SOL    HW216470   1.488   5.258   0.758
 5191SOL     OW16471   3.036   4.129   1.544
 5191SOL    HW116472   3.058   4.132   1.641
 5191SOL    HW216473   3.073   4.211   1.499
 5192SOL     OW16474   0.674   4.221   2.909
 5192SOL    HW116475   0.668   4.136   2.961
 5192SOL    HW216476   0.660   4.202   2.812
 5193SOL     OW16477   3.992   0.321   4.452
 5193SOL    HW116478   3.934   0.239   4.448
 5193SOL    HW216479   4.050   0.316   4.533
 5194SOL     OW16480   4.469   1.528   5.501
 5194SOL    HW116481   4.384   1.557   5.458
 5194SOL    HW216482   4.546   1.549   5.441
 5195SOL     OW16483   1.605   1.269   5.513
 5195SOL    HW116484   1.529   1.211   5.482
 5195SOL    HW216485   1.679   1.212   5.548
 5196SOL     OW16486   5.667   6.302   3.057
 5196SOL    HW116487   5.759   6.336   3.040
 5196SOL    HW216488   5.603   6.345   2.993
 5197SOL     OW16489   1.920   4.024   5.497
 5197SOL    HW116490   1.991   4.095   5.496
 5197SOL    HW216491   1.959   3.940   5.534
 5198SOL     OW16492   6.280   5.766   4.018
 5198SOL    HW116493   6.317   5.721   4.099
 5198SOL    HW216494   6.181   5.779   4.030
 5199SOL     OW16495   0.994   5.586   1.547
 5199SOL    HW116496   0.951   5.673   1.571
 5199SOL    HW216497   0.930   5.531   1.494
 5200SOL     OW16498   6.705   4.097   5.061
 5200SOL    HW116499   6.749   4.010   5.082
 5200SOL    HW216500   6.612   4.097   5.097
 5201SOL     OW16501   0.923   6.264   4.474
 5201SOL    HW116502   0.954   6.319   4.552
 5201SOL    HW216503   0.875   6.183   4.508
 5202SOL     OW16504   0.060   4.780   1.600
 5202SOL    HW116505   0.071   4.686   1.568
 5202SOL    HW216506   6.989   4.792   1.637
 5203SOL     OW16507   6.619   3.231   6.280
 5203SOL    HW116508   6.619   3.281   6.193
 5203SOL    HW216509   6.690   3.160   6.277
 5204SOL     OW16510   5.670   5.251   6.236
 5204SOL    HW116511   5.656   5.326   6.172
 5204SOL    HW216512   5.766   5.245   6.260
 5205SOL     OW16513   2.542   5.960   0.240
 5205SOL    HW116514   2.596   6.019   0.179
 5205SOL    HW216515   2.603   5.916   0.306
 5206SOL     OW16516   0.660   4.460   5.023
 5206SOL    HW116517   0.741   4.400   5.021
 5206SOL    HW216518   0.605   4.439   5.104
 5207SOL     OW16519   1.425   6.189   2.516
 5207SOL    HW116520   1.350   6.252   2.535
 5207SOL    HW216521   1.511   6.240   2.511
 5208SOL     OW16522   4.317   1.640   0.198
 5208SOL    HW116523   4.259   1.720   0.181
 5208SOL    HW216524   4.322   1.584   0.116
 5209SOL     OW16525   6.347   5.285   3.051
 5209SOL    HW116526   6.392   5.334   3.126
 5209SOL    HW216527   6.266   5.238   3.086
 5210SOL     OW16528   5.240   3.721   3.383
 5210SOL    HW116529   5.141   3.715   3.380
 5210SOL    HW216530   5.269   3.817   3.382
 5211SOL     OW16531   3.386   4.122   2.424
 5211SOL    HW116532   3.290   4.143   2.439
 5211SOL    HW216533   3.414   4.048   2.484
 5212SOL     OW16534   0.629   0.429   6.614
 5212SOL    HW116535   0.634   0.381   6.526
 5212SOL    HW216536   0.720   0.438   6.653
 5213SOL     OW16537   4.834   2.213   6.236
 5213SOL    HW116538   4.863   2.147   6.306
 5213SOL    HW216539   4.821   2.302   6.279
 5214SOL     OW16540   4.857   2.185   0.340
 5214SOL    HW116541   4.801   2.128   0.280
 5214SOL    HW216542   4.861   2.143   0.431
 5215SOL     OW16543   5.620   5.235   4.222
 5215SOL    HW116544   5.615   5.138   4.199
 5215SOL    HW216545   5.706   5.254   4.269
 5216SOL     OW16546   3.995   5.374   1.280
 5216SOL    HW116547   4.027   5.293   1.329
 5216SOL    HW216548   4.004   5.360   1.182
 5217SOL     OW16549   3.047   5.074   3.567
 5217SOL    HW116550   3.120   5.113   3.509
 5217SOL    HW216551   3.084   5.055   3.658
 5218SOL     OW16552   1.206   0.286   3.275
 5218SOL    HW116553   1.282   0.313   3.216
 5218SOL    HW216554   1.217   0.327   3.366
 5219SOL     OW16555   3.215   0.071   1.003
 5219SOL    HW116556   3.252   7.002   0.979
 5219SOL    HW216557   3.288   0.128   1.040
 5220SOL     OW16558   0.789   6.474   2.543
 5220SOL    HW116559   0.715   6.537   2.568
 5220SOL    HW216560   0.848   6.459   2.622
 5221SOL     OW16561   4.760   0.851   0.671
 5221SOL    HW116562   4.832   0.889   0.614
 5221SOL    HW216563   4.728   0.765   0.631
 5222SOL     OW16564   0.336   6.528   2.639
 5222SOL    HW116565   0.332   6.487   2.730
 5222SOL    HW216566   0.244   6.536   2.602
 5223SOL     OW16567   4.457   6.750   1.362
 5223SOL    HW116568   4.405   6.722   1.281
 5223SOL    HW216569   4.414   6.830   1.403
 5224SOL     OW16570   5.552   0.725   3.903
 5224SOL    HW116571   5.470   0.782   3.898
 5224SOL    HW216572   5.587   0.725   3.997
 5225SOL     OW16573   0.251   6.963   5.536
 5225SOL    HW116574   0.261   6.911   5.452
 5225SOL    HW216575   0.159   6.952   5.572
 5226SOL     OW16576   2.290   0.766   3.854
 5226SOL    HW116577   2.227   0.819   3.798
 5226SOL    HW216578   2.337   0.827   3.918
 5227SOL     OW16579   5.203   3.551   4.654
 5227SOL    HW116580   5.199   3.455   4.626
 5227SOL    HW216581   5.297   3.584   4.646
 5228SOL     OW16582   4.669   6.618   1.928
 5228SOL    HW116583   4.726   6.587   1.852
 5228SOL    HW216584   4.727   6.643   2.006
 5229SOL     OW16585   0.893   4.090   3.750
 5229SOL    HW116586   0.823   4.033   3.707
 5229SOL    HW216587   0.983   4.062   3.716
 5230SOL     OW16588   0.282   1.611   6.572
 5230SOL    HW116589   0.367   1.650   6.609
 5230SOL    HW216590   0.260   1.528   6.623
 5231SOL     OW16591   3.215   4.044   3.657
 5231SOL    HW116592   3.302   4.085   3.683
 5231SOL    HW216593   3.227   3.987   3.576
 5232SOL     OW16594   5.187   3.004   4.708
 5232SOL    HW116595   5.095   3.044   4.703
 5232SOL    HW216596   5.184   2.908   4.680
 5233SOL     OW16597   0.915   6.789   3.001
 5233SOL    HW116598   0.932   6.790   3.099
 5233SOL    HW216599   0.993   6.830   2.953
 5234SOL     OW16600   3.798   4.463   1.320
 5234SOL    HW116601   3.733   4.387   1.334
 5234SOL    HW216602   3.889   4.434   1.349
 5235SOL     OW16603   1.309   2.224   1.588
 5235SOL    HW116604   1.368   2.156   1.544
 5235SOL    HW216605   1.357   2.261   1.668
 5236SOL     OW16606   6.400   3.210   0.418
 5236SOL    HW116607   6.394   3.273   0.340
 5236SOL    HW216608   6.325   3.228   0.482
 5237SOL     OW16609   2.000   1.944   2.546
 5237SOL    HW116610   1.918   1.886   2.549
 5237SOL    HW216611   2.005   1.988   2.457
 5238SOL     OW16612   2.208   3.327   0.877
 5238SOL    HW116613   2.189   3.400   0.942
 5238SOL    HW216614   2.143   3.253   0.890
 5239SOL     OW16615   2.790   3.322   5.374
 5239SOL    HW116616   2.844   3.350   5.294
 5239SOL    HW216617   2.743   3.236   5.355
 5240SOL     OW16618   4.174   2.048   4.380
 5240SOL    HW116619   4.233   2.095   4.445
 5240SOL    HW216620   4.211   1.958   4.360
 5241SOL     OW16621   3.791   5.655   5.349
 5241SOL    HW116622   3.695   5.657   5.320
 5241SOL    HW216623   3.795   5.649   5.449
 5242SOL     OW16624   4.019   0.369   5.592
 5242SOL    HW116625   4.100   0.352   5.648
 5242SOL    HW216626   3.938   0.332   5.637
 5243SOL     OW16627   1.251   4.061   0.677
 5243SOL    HW116628   1.183   3.989   0.689
 5243SOL    HW216629   1.307   4.068   0.759
 5244SOL     OW16630   6.002   3.455   6.645
 5244SOL    HW116631   6.035   3.418   6.558
 5244SOL    HW216632   6.007   3.555   6.642
 5245SOL     OW16633   4.667   4.064   6.069
 5245SOL    HW116634   4.611   4.004   6.126
 5245SOL    HW216635   4.763   4.057   6.096
 5246SOL     OW16636   1.637   3.527   3.620
 5246SOL    HW116637   1.569   3.593   3.586
 5246SOL    HW216638   1.674   3.475   3.543
 5247SOL     OW16639   0.520   4.912   0.160
 5247SOL    HW116640   0.574   4.828   0.146
 5247SOL    HW216641   0.424   4.888   0.173
 5248SOL     OW16642   5.094   1.291   0.411
 5248SOL    HW116643   5.029   1.249   0.474
 5248SOL    HW216644   5.066   1.385   0.391
 5249SOL     OW16645   0.898   5.459   0.206
 5249SOL    HW116646   0.820   5.494   0.154
 5249SOL    HW216647   0.965   5.420   0.143
 5250SOL     OW16648   1.023   1.559   6.073
 5250SOL    HW116649   0.932   1.601   6.076
 5250SOL    HW216650   1.043   1.530   5.979
 5251SOL     OW16651   0.763   3.005   1.356
 5251SOL    HW116652   0.714   3.080   1.401
 5251SOL    HW216653   0.833   3.042   1.295
 5252SOL     OW16654   5.131   5.943   0.974
 5252SOL    HW116655   5.078   6.028   0.977
 5252SOL    HW216656   5.071   5.866   0.996
 5253SOL     OW16657   5.781   2.857   3.722
 5253SOL    HW116658   5.723   2.934   3.747
 5253SOL    HW216659   5.759   2.778   3.780
 5254SOL     OW16660   5.509   0.517   4.458
 5254SOL    HW116661   5.476   0.488   4.548
 5254SOL    HW216662   5.491   0.444   4.392
 5255SOL     OW16663   2.421   5.953   3.079
 5255SOL    HW116664   2.450   5.891   3.152
 5255SOL    HW216665   2.469   6.040   3.090
 5256SOL     OW16666   4.911   6.086   2.313
 5256SOL    HW116667   4.938   5.999   2.271
 5256SOL    HW216668   4.972   6.106   2.390
 5257SOL     OW16669   3.172   1.088   2.432
 5257SOL    HW116670   3.106   1.054   2.499
 5257SOL    HW216671   3.135   1.169   2.386
 5258SOL     OW16672   5.668   2.053   1.501
 5258SOL    HW116673   5.750   2.048   1.558
 5258SOL    HW216674   5.693   2.084   1.409
 5259SOL     OW16675   5.963   4.986   1.578
 5259SOL    HW116676   5.989   4.894   1.605
 5259SOL    HW216677   5.972   5.048   1.656
 5260SOL     OW16678   4.945   2.810   1.861
 5260SOL    HW116679   4.871   2.800   1.927
 5260SOL    HW216680   4.907   2.819   1.769
 5261SOL     OW16681   2.225   2.667   5.076
 5261SOL    HW116682   2.199   2.729   5.150
 5261SOL    HW216683   2.143   2.628   5.035
 5262SOL     OW16684   1.425   0.201   1.759
 5262SOL    HW116685   1.406   0.158   1.847
 5262SOL    HW216686   1.417   0.300   1.768
 5263SOL     OW16687   1.280   0.038   7.019
 5263SOL    HW116688   1.338   0.057   0.077
 5263SOL    HW216689   1.184   0.029   0.028
 5264SOL     OW16690   0.866   0.477   0.613
 5264SOL    HW116691   0.801   0.424   0.666
 5264SOL    HW216692   0.901   0.553   0.668
 5265SOL     OW16693   5.511   4.764   4.045
 5265SOL    HW116694   5.516   4.665   4.057
 5265SOL    HW216695   5.456   4.786   3.965
 5266SOL     OW16696   1.912   0.199   1.269
 5266SOL    HW116697   1.868   0.227   1.354
 5266SOL    HW216698   2.004   0.238   1.264
 5267SOL     OW16699   3.951   4.001   5.016
 5267SOL    HW116700   3.998   4.089   5.009
 5267SOL    HW216701   3.858   4.010   4.980
 5268SOL     OW16702   5.564   5.016   5.553
 5268SOL    HW116703   5.551   4.941   5.618
 5268SOL    HW216704   5.592   5.099   5.601
 5269SOL     OW16705   2.685   5.390   5.277
 5269SOL    HW116706   2.589   5.395   5.305
 5269SOL    HW216707   2.723   5.301   5.301
 5270SOL     OW16708   6.980   2.122   2.982
 5270SOL    HW116709   0.030   2.166   2.927
 5270SOL    HW216710   7.021   2.080   3.063
 5271SOL     OW16711   5.400   3.705   5.201
 5271SOL    HW116712   5.448   3.792   5.218
 5271SOL    HW216713   5.349   3.711   5.115
 5272SOL     OW16714   2.231   2.127   3.610
 5272SOL    HW116715   2.305   2.124   3.544
 5272SOL    HW216716   2.189   2.036   3.617
 5273SOL     OW16717   6.581   0.595   5.852
 5273SOL    HW116718   6.532   0.664   5.798
 5273SOL    HW216719   6.570   0.614   5.949
 5274SOL     OW16720   0.531   5.274   4.300
 5274SOL    HW116721   0.581   5.332   4.365
 5274SOL    HW216722   0.559   5.179   4.311
 5275SOL     OW16723   2.296   6.441   6.912
 5275SOL    HW116724   2.199   6.417   6.915
 5275SOL    HW216725   2.322   6.465   6.819
 5276SOL     OW16726   0.205   0.079   0.455
 5276SOL    HW116727   0.180   0.134   0.375
 5276SOL    HW216728   0.194   0.134   0.538
 5277SOL     OW16729   0.539   1.212   1.528
 5277SOL    HW116730   0.605   1.142   1.556
 5277SOL    HW216731   0.447   1.180   1.549
 5278SOL     OW16732   0.366   4.773   6.074
 5278SOL    HW116733   0.338   4.835   6.001
 5278SOL    HW216734   0.302   4.696   6.079
 5279SOL     OW16735   2.425   6.381   0.114
 5279SOL    HW116736   2.363   6.362   0.190
 5279SOL    HW216737   2.373   6.401   0.031
 5280SOL     OW16738   4.649   6.144   6.052
 5280SOL    HW116739   4.674   6.210   5.981
 5280SOL    HW216740   4.592   6.190   6.121
 5281SOL     OW16741   2.201   6.667   4.762
 5281SOL    HW116742   2.158   6.577   4.754
 5281SOL    HW216743   2.214   6.689   4.859
 5282SOL     OW16744   6.610   5.765   0.907
 5282SOL    HW116745   6.607   5.725   0.816
 5282SOL    HW216746   6.703   5.760   0.943
 5283SOL     OW16747   1.389   0.695   4.365
 5283SOL    HW116748   1.399   0.778   4.420
 5283SOL    HW216749   1.466   0.634   4.384
 5284SOL     OW16750   4.824   2.883   2.311
 5284SOL    HW116751   4.908   2.829   2.314
 5284SOL    HW216752   4.820   2.933   2.225
 5285SOL     OW16753   1.684   1.807   4.181
 5285SOL    HW116754   1.612   1.742   4.204
 5285SOL    HW216755   1.656   1.899   4.209
 5286SOL     OW16756   0.037   3.367   1.228
 5286SOL    HW116757   0.016   3.273   1.254
 5286SOL    HW216758   0.091   3.410   1.300
 5287SOL     OW16759   0.465   4.944   2.247
 5287SOL    HW116760   0.541   4.908   2.302
 5287SOL    HW216761   0.408   4.868   2.215
 5288SOL     OW16762   4.431   1.090   1.272
 5288SOL    HW116763   4.399   1.045   1.356
 5288SOL    HW216764   4.352   1.115   1.216
 5289SOL     OW16765   1.661   5.266   6.291
 5289SOL    HW116766   1.640   5.254   6.388
 5289SOL    HW216767   1.726   5.196   6.262
 5290SOL     OW16768   1.464   2.935   5.322
 5290SOL    HW116769   1.542   2.877   5.345
 5290SOL    HW216770   1.496   3.028   5.303
 5291SOL     OW16771   2.936   5.617   4.726
 5291SOL    HW116772   2.943   5.710   4.690
 5291SOL    HW216773   2.839   5.592   4.735
 5292SOL     OW16774   0.933   4.110   4.793
 5292SOL    HW116775   0.987   4.032   4.763
 5292SOL    HW216776   0.985   4.195   4.780
 5293SOL     OW16777   2.423   0.556   3.297
 5293SOL    HW116778   2.431   0.501   3.214
 5293SOL    HW216779   2.348   0.521   3.353
 5294SOL     OW16780   4.942   6.866   4.026
 5294SOL    HW116781   4.904   6.940   3.970
 5294SOL    HW216782   5.040   6.882   4.039
 5295SOL     OW16783   2.215   0.568   0.947
 5295SOL    HW116784   2.139   0.567   0.882
 5295SOL    HW216785   2.190   0.515   1.028
 5296SOL     OW16786   4.600   5.304   2.291
 5296SOL    HW116787   4.675   5.248   2.256
 5296SOL    HW216788   4.522   5.298   2.228
 5297SOL     OW16789   3.377   5.088   6.145
 5297SOL    HW116790   3.467   5.053   6.168
 5297SOL    HW216791   3.324   5.102   6.229
 5298SOL     OW16792   3.369   1.261   7.010
 5298SOL    HW116793   3.400   1.322   0.062
 5298SOL    HW216794   3.328   1.315   6.936
 5299SOL     OW16795   2.107   0.429   1.153
 5299SOL    HW116796   2.155   0.402   1.236
 5299SOL    HW216797   2.079   0.348   1.103
 5300SOL     OW16798   3.033   5.092   6.549
 5300SOL    HW116799   2.955   5.142   6.510
 5300SOL    HW216800   3.057   5.131   6.638
 5301SOL     OW16801   6.530   6.825   5.899
 5301SOL    HW116802   6.497   6.739   5.862
 5301SOL    HW216803   6.474   6.900   5.864
 5302SOL     OW16804   4.918   5.343   2.989
 5302SOL    HW116805   4.874   5.380   2.907
 5302SOL    HW216806   4.854   5.281   3.035
 5303SOL     OW16807   1.436   6.419   4.938
 5303SOL    HW116808   1.444   6.477   5.019
 5303SOL    HW216809   1.410   6.326   4.967
 5304SOL     OW16810   0.193   0.536   3.159
 5304SOL    HW116811   0.169   0.440   3.172
 5304SOL    HW216812   0.248   0.546   3.077
 5305SOL     OW16813   6.965   5.365   4.693
 5305SOL    HW116814   7.008   5.277   4.671
 5305SOL    HW216815   6.886   5.350   4.751
 5306SOL     OW16816   0.873   1.833   6.284
 5306SOL    HW116817   0.803   1.822   6.213
 5306SOL    HW216818   0.877   1.929   6.313
 5307SOL     OW16819   0.589   1.352   1.301
 5307SOL    HW116820   0.595   1.298   1.385
 5307SOL    HW216821   0.626   1.299   1.225
 5308SOL     OW16822   2.004   4.503   2.573
 5308SOL    HW116823   2.015   4.450   2.488
 5308SOL    HW216824   2.016   4.443   2.652
 5309SOL     OW16825   5.483   6.317   3.488
 5309SOL    HW116826   5.397   6.344   3.533
 5309SOL    HW216827   5.549   6.290   3.558
 5310SOL     OW16828   6.454   1.647   3.098
 5310SOL    HW116829   6.437   1.745   3.085
 5310SOL    HW216830   6.520   1.635   3.173
 5311SOL     OW16831   5.858   6.995   0.429
 5311SOL    HW116832   5.883   7.014   0.524
 5311SOL    HW216833   5.775   0.025   0.406
 5312SOL     OW16834   5.895   6.809   1.013
 5312SOL    HW116835   5.957   6.801   0.935
 5312SOL    HW216836   5.804   6.833   0.981
 5313SOL     OW16837   1.416   6.745   5.900
 5313SOL    HW116838   1.470   6.824   5.927
 5313SOL    HW216839   1.467   6.690   5.835
 5314SOL     OW16840   5.890   2.329   1.519
 5314SOL    HW116841   5.888   2.352   1.422
 5314SOL    HW216842   5.933   2.239   1.531
 5315SOL     OW16843   4.141   2.259   3.511
 5315SOL    HW116844   4.209   2.301   3.451
 5315SOL    HW216845   4.055   2.249   3.462
 5316SOL     OW16846   0.314   3.012   4.908
 5316SOL    HW116847   0.240   2.975   4.852
 5316SOL    HW216848   0.400   3.006   4.857
 5317SOL     OW16849   5.672   3.192   0.498
 5317SOL    HW116850   5.667   3.212   0.400
 5317SOL    HW216851   5.660   3.276   0.550
 5318SOL     OW16852   7.017   3.914   5.889
 5318SOL    HW116853   0.027   3.820   5.902
 5318SOL    HW216854   0.045   3.956   5.813
 5319SOL     OW16855   3.904   6.309   2.435
 5319SOL    HW116856   3.807   6.327   2.420
 5319SOL    HW216857   3.921   6.300   2.533
 5320SOL     OW16858   4.834   5.925   0.727
 5320SOL    HW116859   4.868   5.889   0.640
 5320SOL    HW216860   4.762   5.865   0.762
 5321SOL     OW16861   1.663   3.965   6.033
 5321SOL    HW116862   1.606   4.017   6.097
 5321SOL    HW216863   1.675   3.872   6.067
 5322SOL     OW16864   3.672   6.365   1.931
 5322SOL    HW116865   3.630   6.413   2.008
 5322SOL    HW216866   3.673   6.425   1.851
 5323SOL     OW16867   4.044   0.482   6.353
 5323SOL    HW116868   4.083   0.390   6.346
 5323SOL    HW216869   3.950   0.477   6.384
 5324SOL     OW16870   1.509   1.846   1.473
 5324SOL    HW116871   1.469   1.854   1.565
 5324SOL    HW216872   1.517   1.750   1.449
 5325SOL     OW16873   2.029   2.736   4.521
 5325SOL    HW116874   2.014   2.652   4.468
 5325SOL    HW216875   2.014   2.815   4.462
 5326SOL     OW16876   6.025   6.908   1.319
 5326SOL    HW116877   5.968   6.832   1.289
 5326SOL    HW216878   6.117   6.898   1.282
 5327SOL     OW16879   0.665   2.703   5.409
 5327SOL    HW116880   0.589   2.652   5.450
 5327SOL    HW216881   0.692   2.776   5.471
 5328SOL     OW16882   4.334   5.121   0.593
 5328SOL    HW116883   4.375   5.211   0.580
 5328SOL    HW216884   4.249   5.114   0.541
 5329SOL     OW16885   2.371   6.419   6.156
 5329SOL    HW116886   2.295   6.398   6.094
 5329SOL    HW216887   2.454   6.435   6.102
 5330SOL     OW16888   2.692   5.042   1.216
 5330SOL    HW116889   2.692   4.949   1.182
 5330SOL    HW216890   2.670   5.106   1.142
 5331SOL     OW16891   6.525   1.380   6.686
 5331SOL    HW116892   6.565   1.452   6.744
 5331SOL    HW216893   6.441   1.346   6.730
 5332SOL     OW16894   0.850   4.474   1.572
 5332SOL    HW116895   0.825   4.558   1.619
 5332SOL    HW216896   0.859   4.400   1.639
 5333SOL     OW16897   0.980   6.518   4.735
 5333SOL    HW116898   1.031   6.604   4.741
 5333SOL    HW216899   0.985   6.470   4.822
 5334SOL     OW16900   3.778   6.996   5.491
 5334SOL    HW116901   3.873   0.001   5.507
 5334SOL    HW216902   3.717   0.051   5.515
 5335SOL     OW16903   6.653   6.083   0.756
 5335SOL    HW116904   6.676   6.159   0.817
 5335SOL    HW216905   6.624   6.005   0.811
 5336SOL     OW16906   1.204   4.471   1.312
 5336SOL    HW116907   1.154   4.396   1.355
 5336SOL    HW216908   1.222   4.448   1.216
 5337SOL     OW16909   4.884   4.448   1.841
 5337SOL    HW116910   4.816   4.377   1.825
 5337SOL    HW216911   4.976   4.408   1.835
 5338SOL     OW16912   5.380   2.984   0.540
 5338SOL    HW116913   5.296   2.933   0.524
 5338SOL    HW216914   5.422   2.954   0.626
 5339SOL     OW16915   6.546   0.230   1.877
 5339SOL    HW116916   6.550   0.168   1.799
 5339SOL    HW216917   6.462   0.285   1.871
 5340SOL     OW16918   4.865   2.618   6.679
 5340SOL    HW116919   4.780   2.587   6.636
 5340SOL    HW216920   4.912   2.540   6.721
 5341SOL     OW16921   4.518   0.371   1.157
 5341SOL    HW116922   4.606   0.357   1.110
 5341SOL    HW216923   4.466   0.441   1.109
 5342SOL     OW16924   2.715   0.408   5.865
 5342SOL    HW116925   2.629   0.388   5.912
 5342SOL    HW216926   2.698   0.416   5.766
 5343SOL     OW16927   3.322   3.948   1.670
 5343SOL    HW116928   3.259   3.872   1.685
 5343SOL    HW216929   3.379   3.961   1.751
 5344SOL     OW16930   2.040   2.351   2.353
 5344SOL    HW116931   1.953   2.384   2.389
 5344SOL    HW216932   2.116   2.389   2.405
 5345SOL     OW16933   4.737   0.466   3.196
 5345SOL    HW116934   4.684   0.407   3.257
 5345SOL    HW216935   4.755   0.553   3.242
 5346SOL     OW16936   3.173   0.642   3.989
 5346SOL    HW116937   3.105   0.710   4.018
 5346SOL    HW216938   3.163   0.559   4.043
 5347SOL     OW16939   6.685   1.455   1.658
 5347SOL    HW116940   6.665   1.471   1.561
 5347SOL    HW216941   6.607   1.410   1.701
 5348SOL     OW16942   6.405   1.566   0.118
 5348SOL    HW116943   6.434   1.560   0.214
 5348SOL    HW216944   6.483   1.593   0.062
 5349SOL     OW16945   5.841   0.176   1.577
 5349SOL    HW116946   5.892   0.116   1.515
 5349SOL    HW216947   5.905   0.239   1.622
 5350SOL     OW16948   2.636   0.637   6.528
 5350SOL    HW116949   2.622   0.568   6.458
 5350SOL    HW216950   2.626   0.595   6.619
 5351SOL     OW16951   4.375   1.083   2.057
 5351SOL    HW116952   4.327   1.134   2.128
 5351SOL    HW216953   4.356   0.985   2.067
 5352SOL     OW16954   3.286   6.887   3.429
 5352SOL    HW116955   3.261   6.872   3.524
 5352SOL    HW216956   3.328   6.803   3.392
 5353SOL     OW16957   5.927   0.315   6.016
 5353SOL    HW116958   6.013   0.367   6.015
 5353SOL    HW216959   5.876   0.333   5.933
 5354SOL     OW16960   1.702   3.395   0.825
 5354SOL    HW116961   1.695   3.307   0.777
 5354SOL    HW216962   1.790   3.438   0.803
 5355SOL     OW16963   4.747   1.493   6.013
 5355SOL    HW116964   4.826   1.531   6.061
 5355SOL    HW216965   4.724   1.551   5.935
 5356SOL     OW16966   6.351   3.179   1.352
 5356SOL    HW116967   6.256   3.189   1.323
 5356SOL    HW216968   6.407   3.151   1.274
 5357SOL     OW16969   3.759   6.122   0.118
 5357SOL    HW116970   3.757   6.217   0.149
 5357SOL    HW216971   3.825   6.112   0.043
 5358SOL     OW16972   5.174   4.241   1.841
 5358SOL    HW116973   5.255   4.183   1.848
 5358SOL    HW216974   5.135   4.254   1.932
 5359SOL     OW16975   3.444   0.089   6.002
 5359SOL    HW116976   3.435   0.050   5.911
 5359SOL    HW216977   3.440   0.188   5.997
 5360SOL     OW16978   4.369   1.405   6.965
 5360SOL    HW116979   4.397   1.352   0.025
 5360SOL    HW216980   4.277   1.377   6.937
 5361SOL     OW16981   1.514   0.935   6.278
 5361SOL    HW116982   1.432   0.897   6.234
 5361SOL    HW216983   1.502   1.033   6.293
 5362SOL     OW16984   4.158   5.754   3.495
 5362SOL    HW116985   4.164   5.721   3.400
 5362SOL    HW216986   4.207   5.691   3.555
 5363SOL     OW16987   0.873   5.977   4.623
 5363SOL    HW116988   0.910   5.888   4.595
 5363SOL    HW216989   0.775   5.980   4.604
 5364SOL     OW16990   1.311   6.185   6.972
 5364SOL    HW116991   1.292   6.271   6.925
 5364SOL    HW216992   1.375   6.131   6.917
 5365SOL     OW16993   3.805   2.024   5.924
 5365SOL    HW116994   3.769   2.111   5.958
 5365SOL    HW216995   3.779   1.950   5.986
 5366SOL     OW16996   3.604   3.888   6.216
 5366SOL    HW116997   3.561   3.809   6.173
 5366SOL    HW216998   3.575   3.972   6.171
 5367SOL     OW16999   0.369   4.864   0.882
 5367SOL    HW117000   0.310   4.897   0.955
 5367SOL    HW217001   0.437   4.802   0.920
 5368SOL     OW17002   0.776   0.551   3.804
 5368SOL    HW117003   0.855   0.493   3.786
 5368SOL    HW217004   0.694   0.494   3.810
 5369SOL     OW17005   2.050   3.524   2.485
 5369SOL    HW117006   2.108   3.578   2.424
 5369SOL    HW217007   1.961   3.568   2.495
 5370SOL     OW17008   3.690   3.013   1.631
 5370SOL    HW117009   3.727   3.102   1.655
 5370SOL    HW217010   3.610   2.994   1.687
 5371SOL     OW17011   1.865   4.244   4.990
 5371SOL    HW117012   1.881   4.276   4.897
 5371SOL    HW217013   1.946   4.196   5.023
 5372SOL     OW17014   3.086   6.421   2.410
 5372SOL    HW117015   2.996   6.464   2.405
 5372SOL    HW217016   3.149   6.467   2.347
 5373SOL     OW17017   1.828   5.278   3.736
 5373SOL    HW117018   1.728   5.277   3.728
 5373SOL    HW217019   1.857   5.212   3.806
 5374SOL     OW17020   2.949   2.388   0.640
 5374SOL    HW117021   2.853   2.407   0.620
 5374SOL    HW217022   2.993   2.471   0.673
 5375SOL     OW17023   1.185   3.819   5.155
 5375SOL    HW117024   1.268   3.873   5.141
 5375SOL    HW217025   1.146   3.794   5.066
 5376SOL     OW17026   2.768   4.921   5.884
 5376SOL    HW117027   2.809   4.895   5.797
 5376SOL    HW217028   2.725   5.011   5.876
 5377SOL     OW17029   0.604   2.201   1.944
 5377SOL    HW117030   0.568   2.132   1.881
 5377SOL    HW217031   0.601   2.291   1.901
 5378SOL     OW17032   4.837   0.591   6.565
 5378SOL    HW117033   4.933   0.586   6.537
 5378SOL    HW217034   4.780   0.550   6.494
 5379SOL     OW17035   6.845   6.962   0.555
 5379SOL    HW117036   6.903   6.881   0.566
 5379SOL    HW217037   6.773   6.961   0.624
 5380SOL     OW17038   1.869   1.416   5.147
 5380SOL    HW117039   1.904   1.506   5.172
 5380SOL    HW217040   1.941   1.347   5.162
 5381SOL     OW17041   6.026   3.718   1.837
 5381SOL    HW117042   5.972   3.657   1.895
 5381SOL    HW217043   6.017   3.688   1.742
 5382SOL     OW17044   2.105   6.710   1.674
 5382SOL    HW117045   2.014   6.701   1.716
 5382SOL    HW217046   2.107   6.793   1.619
 5383SOL     OW17047   2.270   2.011   4.904
 5383SOL    HW117048   2.226   2.016   4.815
 5383SOL    HW217049   2.242   2.089   4.960
 5384SOL     OW17050   5.195   6.541   4.714
 5384SOL    HW117051   5.155   6.475   4.650
 5384SOL    HW217052   5.195   6.502   4.806
 5385SOL     OW17053   3.837   3.995   2.825
 5385SOL    HW117054   3.908   3.927   2.843
 5385SOL    HW217055   3.855   4.040   2.738
 5386SOL     OW17056   6.218   6.476   5.994
 5386SOL    HW117057   6.133   6.434   5.961
 5386SOL    HW217058   6.204   6.513   6.086
 5387SOL     OW17059   3.717   4.962   0.740
 5387SOL    HW117060   3.813   4.935   0.748
 5387SOL    HW217061   3.689   4.961   0.644
 5388SOL     OW17062   5.763   5.801   3.119
 5388SOL    HW117063   5.718   5.890   3.133
 5388SOL    HW217064   5.734   5.738   3.191
 5389SOL     OW17065   5.782   3.222   1.575
 5389SOL    HW117066   5.878   3.221   1.548
 5389SOL    HW217067   5.724   3.227   1.494
 5390SOL     OW17068   6.380   5.042   6.407
 5390SOL    HW117069   6.291   5.077   6.378
 5390SOL    HW217070   6.419   5.103   6.476
 5391SOL     OW17071   3.513   3.706   0.099
 5391SOL    HW117072   3.473   3.764   0.028
 5391SOL    HW217073   3.447   3.694   0.173
 5392SOL     OW17074   0.164   2.441   3.327
 5392SOL    HW117075   0.078   2.457   3.278
 5392SOL    HW217076   0.152   2.365   3.392
 5393SOL     OW17077   6.528   6.952   6.341
 5393SOL    HW117078   6.457   6.882   6.350
 5393SOL    HW217079   6.488   0.015   6.306
 5394SOL     OW17080   1.691   3.724   6.166
 5394SOL    HW117081   1.679   3.774   6.252
 5394SOL    HW217082   1.788   3.711   6.148
 5395SOL     OW17083   4.321   0.562   1.349
 5395SOL    HW117084   4.359   0.566   1.441
 5395SOL    HW217085   4.354   0.640   1.296
 5396SOL     OW17086   4.964   2.332   1.300
 5396SOL    HW117087   4.881   2.283   1.327
 5396SOL    HW217088   4.971   2.333   1.201
 5397SOL     OW17089   1.575   2.546   1.737
 5397SOL    HW117090   1.650   2.528   1.801
 5397SOL    HW217091   1.503   2.478   1.751
 5398SOL     OW17092   3.440   3.463   2.767
 5398SOL    HW117093   3.433   3.559   2.792
 5398SOL    HW217094   3.352   3.432   2.730
 5399SOL     OW17095   0.496   5.288   0.310
 5399SOL    HW117096   0.475   5.383   0.334
 5399SOL    HW217097   0.447   5.263   0.226
 5400SOL     OW17098   2.098   3.423   6.940
 5400SOL    HW117099   2.047   3.494   6.892
 5400SOL    HW217100   2.056   3.334   6.924
 5401SOL     OW17101   6.599   1.692   0.676
 5401SOL    HW117102   6.610   1.593   0.687
 5401SOL    HW217103   6.677   1.739   0.717
 5402SOL     OW17104   0.840   5.948   2.166
 5402SOL    HW117105   0.814   5.877   2.102
 5402SOL    HW217106   0.888   6.021   2.117
 5403SOL     OW17107   6.439   2.710   6.300
 5403SOL    HW117108   6.467   2.629   6.352
 5403SOL    HW217109   6.483   2.791   6.339
 5404SOL     OW17110   0.967   3.072   3.110
 5404SOL    HW117111   1.034   3.040   3.177
 5404SOL    HW217112   0.990   3.165   3.082
 5405SOL     OW17113   6.466   4.443   5.452
 5405SOL    HW117114   6.485   4.490   5.366
 5405SOL    HW217115   6.552   4.423   5.498
 5406SOL     OW17116   1.613   0.284   3.589
 5406SOL    HW117117   1.695   0.227   3.595
 5406SOL    HW217118   1.550   0.244   3.523
 5407SOL     OW17119   4.234   3.283   6.360
 5407SOL    HW117120   4.190   3.275   6.450
 5407SOL    HW217121   4.332   3.300   6.372
 5408SOL     OW17122   3.577   1.204   6.212
 5408SOL    HW117123   3.603   1.120   6.163
 5408SOL    HW217124   3.658   1.259   6.228
 5409SOL     OW17125   4.777   0.666   1.958
 5409SOL    HW117126   4.695   0.610   1.969
 5409SOL    HW217127   4.859   0.609   1.968
 5410SOL     OW17128   1.311   2.627   3.120
 5410SOL    HW117129   1.228   2.628   3.063
 5410SOL    HW217130   1.305   2.552   3.186
 5411SOL     OW17131   2.532   4.779   4.919
 5411SOL    HW117132   2.585   4.783   5.004
 5411SOL    HW217133   2.518   4.871   4.883
 5412SOL     OW17134   6.342   1.942   2.423
 5412SOL    HW117135   6.252   1.966   2.386
 5412SOL    HW217136   6.339   1.849   2.459
 5413SOL     OW17137   1.497   6.907   2.824
 5413SOL    HW117138   1.462   6.929   2.733
 5413SOL    HW217139   1.562   6.978   2.853
 5414SOL     OW17140   4.251   0.307   6.237
 5414SOL    HW117141   4.311   0.311   6.157
 5414SOL    HW217142   4.302   0.269   6.314
 5415SOL     OW17143   6.334   3.493   2.827
 5415SOL    HW117144   6.258   3.453   2.879
 5415SOL    HW217145   6.415   3.498   2.885
 5416SOL     OW17146   4.254   5.019   4.281
 5416SOL    HW117147   4.289   5.103   4.322
 5416SOL    HW217148   4.207   5.040   4.195
 5417SOL     OW17149   2.956   0.003   5.600
 5417SOL    HW117150   3.036   6.964   5.593
 5417SOL    HW217151   2.894   7.005   5.524
 5418SOL     OW17152   3.833   0.969   3.196
 5418SOL    HW117153   3.851   0.893   3.259
 5418SOL    HW217154   3.770   1.034   3.240
 5419SOL     OW17155   3.398   4.176   6.789
 5419SOL    HW117156   3.358   4.262   6.822
 5419SOL    HW217157   3.335   4.132   6.725
 5420SOL     OW17158   1.124   2.602   2.912
 5420SOL    HW117159   1.154   2.508   2.890
 5420SOL    HW217160   1.147   2.662   2.836
 5421SOL     OW17161   2.220   2.279   0.711
 5421SOL    HW117162   2.215   2.235   0.621
 5421SOL    HW217163   2.301   2.246   0.759
 5422SOL     OW17164   0.802   3.480   0.436
 5422SOL    HW117165   0.810   3.564   0.490
 5422SOL    HW217166   0.824   3.402   0.494
 5423SOL     OW17167   4.512   2.965   5.820
 5423SOL    HW117168   4.426   2.946   5.773
 5423SOL    HW217169   4.584   2.907   5.784
 5424SOL     OW17170   5.313   2.843   5.676
 5424SOL    HW117171   5.405   2.840   5.716
 5424SOL    HW217172   5.320   2.868   5.580
 5425SOL     OW17173   4.923   1.016   4.777
 5425SOL    HW117174   4.929   1.006   4.876
 5425SOL    HW217175   4.916   1.112   4.753
 5426SOL     OW17176   0.347   0.199   4.638
 5426SOL    HW117177   0.406   0.122   4.617
 5426SOL    HW217178   0.343   0.213   4.737
 5427SOL     OW17179   4.073   0.140   0.312
 5427SOL    HW117180   4.091   0.218   0.252
 5427SOL    HW217181   4.097   0.055   0.264
 5428SOL     OW17182   1.695   0.803   0.325
 5428SOL    HW117183   1.706   0.721   0.268
 5428SOL    HW217184   1.774   0.812   0.386
 5429SOL     OW17185   1.060   2.619   6.207
 5429SOL    HW117186   1.100   2.677   6.135
 5429SOL    HW217187   1.090   2.525   6.195
 5430SOL     OW17188   2.258   2.724   5.561
 5430SOL    HW117189   2.214   2.811   5.540
 5430SOL    HW217190   2.271   2.671   5.477
 5431SOL     OW17191   3.850   5.544   4.092
 5431SOL    HW117192   3.943   5.513   4.069
 5431SOL    HW217193   3.850   5.644   4.100
 5432SOL     OW17194   5.893   4.776   1.384
 5432SOL    HW117195   5.850   4.708   1.444
 5432SOL    HW217196   5.892   4.865   1.428
 5433SOL     OW17197   1.043   1.704   3.294
 5433SOL    HW117198   1.112   1.760   3.248
 5433SOL    HW217199   0.969   1.683   3.229
 5434SOL     OW17200   2.220   6.380   5.094
 5434SOL    HW117201   2.238   6.393   5.192
 5434SOL    HW217202   2.282   6.311   5.057
 5435SOL     OW17203   4.548   0.831   2.275
 5435SOL    HW117204   4.499   0.901   2.327
 5435SOL    HW217205   4.587   0.872   2.192
 5436SOL     OW17206   5.502   4.089   2.836
 5436SOL    HW117207   5.479   3.992   2.830
 5436SOL    HW217208   5.470   4.136   2.753
 5437SOL     OW17209   3.847   4.730   6.198
 5437SOL    HW117210   3.770   4.686   6.244
 5437SOL    HW217211   3.845   4.707   6.101
 5438SOL     OW17212   6.662   0.739   0.825
 5438SOL    HW117213   6.721   0.703   0.897
 5438SOL    HW217214   6.711   0.735   0.738
 5439SOL     OW17215   1.393   3.108   0.570
 5439SOL    HW117216   1.414   3.066   0.658
 5439SOL    HW217217   1.462   3.177   0.549
 5440SOL     OW17218   1.897   0.800   1.516
 5440SOL    HW117219   1.902   0.731   1.444
 5440SOL    HW217220   1.963   0.779   1.588
 5441SOL     OW17221   3.765   2.049   4.536
 5441SOL    HW117222   3.815   2.069   4.451
 5441SOL    HW217223   3.814   1.978   4.587
 5442SOL     OW17224   3.133   0.964   1.874
 5442SOL    HW117225   3.065   0.957   1.947
 5442SOL    HW217226   3.189   1.045   1.889
 5443SOL     OW17227   1.593   6.555   5.732
 5443SOL    HW117228   1.605   6.475   5.789
 5443SOL    HW217229   1.546   6.530   5.647
 5444SOL     OW17230   0.400   1.063   3.424
 5444SOL    HW117231   0.359   0.980   3.461
 5444SOL    HW217232   0.498   1.049   3.409
 5445SOL     OW17233   6.300   3.407   2.097
 5445SOL    HW117234   6.314   3.394   2.195
 5445SOL    HW217235   6.218   3.463   2.082
 5446SOL     OW17236   6.651   5.853   5.825
 5446SOL    HW117237   6.742   5.817   5.845
 5446SOL    HW217238   6.584   5.778   5.824
 5447SOL     OW17239   3.125   2.458   0.986
 5447SOL    HW117240   3.194   2.448   1.058
 5447SOL    HW217241   3.130   2.380   0.924
 5448SOL     OW17242   5.644   1.748   6.613
 5448SOL    HW117243   5.586   1.700   6.678
 5448SOL    HW217244   5.660   1.842   6.645
 5449SOL     OW17245   0.291   2.678   6.826
 5449SOL    HW117246   0.232   2.601   6.800
 5449SOL    HW217247   0.320   2.727   6.744
 5450SOL     OW17248   2.391   6.048   0.922
 5450SOL    HW117249   2.364   6.097   1.005
 5450SOL    HW217250   2.464   6.097   0.876
 5451SOL     OW17251   2.520   0.395   2.455
 5451SOL    HW117252   2.584   0.422   2.526
 5451SOL    HW217253   2.445   0.461   2.451
 5452SOL     OW17254   2.483   3.884   5.751
 5452SOL    HW117255   2.398   3.887   5.698
 5452SOL    HW217256   2.559   3.858   5.692
 5453SOL     OW17257   0.612   5.391   5.353
 5453SOL    HW117258   0.624   5.425   5.446
 5453SOL    HW217259   0.614   5.291   5.354
 5454SOL     OW17260   0.905   3.867   5.581
 5454SOL    HW117261   0.835   3.799   5.561
 5454SOL    HW217262   0.973   3.868   5.507
 5455SOL     OW17263   6.838   2.024   0.948
 5455SOL    HW117264   6.807   1.974   1.029
 5455SOL    HW217265   6.805   2.118   0.951
 5456SOL     OW17266   3.623   7.004   1.275
 5456SOL    HW117267   3.640   6.954   1.190
 5456SOL    HW217268   3.623   6.940   1.352
 5457SOL     OW17269   6.376   3.507   1.062
 5457SOL    HW117270   6.344   3.416   1.034
 5457SOL    HW217271   6.452   3.535   1.003
 5458SOL     OW17272   1.702   4.371   5.750
 5458SOL    HW117273   1.684   4.283   5.704
 5458SOL    HW217274   1.795   4.371   5.785
 5459SOL     OW17275   2.185   3.845   6.088
 5459SOL    HW117276   2.262   3.850   6.152
 5459SOL    HW217277   2.160   3.749   6.074
 5460SOL     OW17278   3.922   0.172   4.035
 5460SOL    HW117279   3.849   0.122   3.989
 5460SOL    HW217280   4.002   0.114   4.045
 5461SOL     OW17281   4.364   6.787   5.037
 5461SOL    HW117282   4.415   6.872   5.022
 5461SOL    HW217283   4.428   6.710   5.039
 5462SOL     OW17284   0.138   0.468   1.645
 5462SOL    HW117285   0.190   0.435   1.567
 5462SOL    HW217286   0.194   0.530   1.699
 5463SOL     OW17287   6.743   2.879   1.007
 5463SOL    HW117288   6.697   2.843   0.926
 5463SOL    HW217289   6.698   2.964   1.036
 5464SOL     OW17290   1.569   6.754   4.551
 5464SOL    HW117291   1.615   6.677   4.596
 5464SOL    HW217292   1.596   6.758   4.455
 5465SOL     OW17293   2.943   5.753   6.909
 5465SOL    HW117294   3.001   5.830   6.882
 5465SOL    HW217295   2.847   5.782   6.908
 5466SOL     OW17296   5.445   5.863   4.679
 5466SOL    HW117297   5.389   5.914   4.745
 5466SOL    HW217298   5.492   5.789   4.726
 5467SOL     OW17299   5.806   1.723   1.671
 5467SOL    HW117300   5.799   1.795   1.740
 5467SOL    HW217301   5.898   1.685   1.671
 5468SOL     OW17302   4.419   1.381   6.578
 5468SOL    HW117303   4.518   1.391   6.569
 5468SOL    HW217304   4.398   1.300   6.634
 5469SOL     OW17305   4.785   4.954   1.875
 5469SOL    HW117306   4.713   4.994   1.818
 5469SOL    HW217307   4.795   4.857   1.854
 5470SOL     OW17308   6.947   4.828   3.234
 5470SOL    HW117309   6.900   4.775   3.305
 5470SOL    HW217310   6.957   4.772   3.152
 5471SOL     OW17311   6.558   4.435   2.269
 5471SOL    HW117312   6.640   4.418   2.323
 5471SOL    HW217313   6.539   4.534   2.268
 5472SOL     OW17314   3.822   5.345   4.973
 5472SOL    HW117315   3.736   5.311   5.011
 5472SOL    HW217316   3.898   5.292   5.010
 5473SOL     OW17317   1.736   4.780   4.050
 5473SOL    HW117318   1.661   4.822   4.000
 5473SOL    HW217319   1.700   4.715   4.117
 5474SOL     OW17320   0.957   5.750   2.943
 5474SOL    HW117321   0.964   5.686   3.020
 5474SOL    HW217322   0.907   5.831   2.972
 5475SOL     OW17323   3.142   2.904   1.505
 5475SOL    HW117324   3.182   2.993   1.481
 5475SOL    HW217325   3.133   2.898   1.605
 5476SOL     OW17326   1.956   3.201   6.810
 5476SOL    HW117327   1.902   3.131   6.856
 5476SOL    HW217328   2.052   3.189   6.834
 5477SOL     OW17329   2.095   2.476   2.092
 5477SOL    HW117330   2.048   2.437   2.171
 5477SOL    HW217331   2.193   2.485   2.111
 5478SOL     OW17332   0.050   5.608   5.346
 5478SOL    HW117333   0.094   5.541   5.407
 5478SOL    HW217334   7.016   5.559   5.278
 5479SOL     OW17335   4.351   6.328   5.661
 5479SOL    HW117336   4.336   6.262   5.588
 5479SOL    HW217337   4.435   6.380   5.643
 5480SOL     OW17338   0.182   2.418   5.815
 5480SOL    HW117339   0.101   2.426   5.757
 5480SOL    HW217340   0.191   2.324   5.847
 5481SOL     OW17341   4.067   6.322   3.232
 5481SOL    HW117342   4.075   6.393   3.302
 5481SOL    HW217343   4.147   6.262   3.236
 5482SOL     OW17344   1.614   6.089   2.186
 5482SOL    HW117345   1.686   6.147   2.225
 5482SOL    HW217346   1.632   5.993   2.211
 5483SOL     OW17347   0.792   2.333   6.712
 5483SOL    HW117348   0.868   2.275   6.683
 5483SOL    HW217349   0.828   2.418   6.752
 5484SOL     OW17350   5.309   6.991   4.678
 5484SOL    HW117351   5.319   0.056   4.629
 5484SOL    HW217352   5.364   6.993   4.761
 5485SOL     OW17353   3.607   0.852   4.743
 5485SOL    HW117354   3.660   0.854   4.658
 5485SOL    HW217355   3.659   0.804   4.813
 5486SOL     OW17356   3.187   4.858   3.357
 5486SOL    HW117357   3.215   4.853   3.453
 5486SOL    HW217358   3.106   4.801   3.343
 5487SOL     OW17359   3.468   6.175   5.138
 5487SOL    HW117360   3.557   6.208   5.169
 5487SOL    HW217361   3.480   6.114   5.060
 5488SOL     OW17362   4.732   2.119   6.521
 5488SOL    HW117363   4.705   2.144   6.614
 5488SOL    HW217364   4.656   2.072   6.476
 5489SOL     OW17365   6.590   2.657   3.865
 5489SOL    HW117366   6.673   2.622   3.822
 5489SOL    HW217367   6.599   2.755   3.880
 5490SOL     OW17368   0.716   5.243   2.057
 5490SOL    HW117369   0.688   5.171   1.994
 5490SOL    HW217370   0.636   5.282   2.102
 5491SOL     OW17371   6.189   4.121   0.430
 5491SOL    HW117372   6.179   4.093   0.525
 5491SOL    HW217373   6.227   4.044   0.377
 5492SOL     OW17374   0.659   1.862   6.867
 5492SOL    HW117375   0.649   1.960   6.885
 5492SOL    HW217376   0.571   1.816   6.880
 5493SOL     OW17377   4.355   4.076   6.558
 5493SOL    HW117378   4.391   4.012   6.626
 5493SOL    HW217379   4.313   4.154   6.605
 5494SOL     OW17380   5.686   2.378   5.366
 5494SOL    HW117381   5.639   2.290   5.360
 5494SOL    HW217382   5.638   2.438   5.430
 5495SOL     OW17383   5.932   0.664   1.018
 5495SOL    HW117384   5.853   0.610   1.046
 5495SOL    HW217385   5.901   0.755   0.988
 5496SOL     OW17386   4.297   6.138   6.080
 5496SOL    HW117387   4.359   6.187   6.142
 5496SOL    HW217388   4.337   6.050   6.055
 5497SOL     OW17389   0.961   6.954   6.137
 5497SOL    HW117390   1.008   0.021   6.127
 5497SOL    HW217391   0.893   6.961   6.210
 5498SOL     OW17392   0.580   5.768   1.814
 5498SOL    HW117393   0.561   5.860   1.846
 5498SOL    HW217394   0.659   5.731   1.863
 5499SOL     OW17395   2.269   0.488   3.500
 5499SOL    HW117396   2.257   0.425   3.578
 5499SOL    HW217397   2.285   0.580   3.534
 5500SOL     OW17398   1.359   6.369   1.878
 5500SOL    HW117399   1.331   6.461   1.849
 5500SOL    HW217400   1.330   6.303   1.809
 5501SOL     OW17401   5.608   3.682   0.718
 5501SOL    HW117402   5.644   3.723   0.634
 5501SOL    HW217403   5.510   3.701   0.725
 5502SOL     OW17404   4.495   3.574   0.375
 5502SOL    HW117405   4.416   3.630   0.350
 5502SOL    HW217406   4.576   3.633   0.383
 5503SOL     OW17407   6.278   2.846   1.522
 5503SOL    HW117408   6.244   2.757   1.490
 5503SOL    HW217409   6.302   2.839   1.619
 5504SOL     OW17410   3.396   2.132   7.008
 5504SOL    HW117411   3.361   2.150   6.916
 5504SOL    HW217412   3.333   2.171   0.054
 5505SOL     OW17413   2.621   5.471   2.091
 5505SOL    HW117414   2.691   5.412   2.131
 5505SOL    HW217415   2.532   5.449   2.130
 5506SOL     OW17416   6.478   2.482   5.950
 5506SOL    HW117417   6.535   2.479   6.032
 5506SOL    HW217418   6.456   2.389   5.922
 5507SOL     OW17419   3.899   6.410   0.113
 5507SOL    HW117420   3.934   6.453   0.030
 5507SOL    HW217421   3.975   6.368   0.163
 5508SOL     OW17422   6.576   2.044   6.060
 5508SOL    HW117423   6.659   1.994   6.086
 5508SOL    HW217424   6.558   2.115   6.127
 5509SOL     OW17425   6.018   4.249   0.259
 5509SOL    HW117426   6.060   4.306   0.189
 5509SOL    HW217427   6.089   4.216   0.322
 5510SOL     OW17428   5.563   5.888   7.014
 5510SOL    HW117429   5.622   5.969   7.020
 5510SOL    HW217430   5.473   5.915   6.981
 5511SOL     OW17431   0.974   2.845   6.380
 5511SOL    HW117432   0.964   2.816   6.475
 5511SOL    HW217433   1.011   2.770   6.326
 5512SOL     OW17434   3.141   6.873   2.130
 5512SOL    HW117435   3.066   6.813   2.157
 5512SOL    HW217436   3.180   6.916   2.211
 5513SOL     OW17437   4.117   4.523   6.842
 5513SOL    HW117438   4.034   4.475   6.815
 5513SOL    HW217439   4.165   4.470   6.912
 5514SOL     OW17440   3.582   1.594   0.422
 5514SOL    HW117441   3.500   1.548   0.388
 5514SOL    HW217442   3.658   1.529   0.423
 5515SOL     OW17443   3.273   4.918   2.483
 5515SOL    HW117444   3.198   4.881   2.427
 5515SOL    HW217445   3.244   4.923   2.578
 5516SOL     OW17446   0.719   2.353   6.341
 5516SOL    HW117447   0.622   2.339   6.320
 5516SOL    HW217448   0.733   2.447   6.372
 5517SOL     OW17449   1.102   1.851   4.477
 5517SOL    HW117450   1.138   1.935   4.517
 5517SOL    HW217451   1.166   1.817   4.407
 5518SOL     OW17452   4.171   4.201   5.861
 5518SOL    HW117453   4.114   4.279   5.883
 5518SOL    HW217454   4.162   4.131   5.933
 5519SOL     OW17455   5.325   2.421   5.621
 5519SOL    HW117456   5.365   2.330   5.621
 5519SOL    HW217457   5.236   2.419   5.666
 5520SOL     OW17458   5.140   5.796   1.653
 5520SOL    HW117459   5.235   5.780   1.625
 5520SOL    HW217460   5.125   5.894   1.667
 5521SOL     OW17461   4.461   0.580   2.226
 5521SOL    HW117462   4.476   0.678   2.239
 5521SOL    HW217463   4.363   0.561   2.220
 5522SOL     OW17464   4.616   6.307   6.788
 5522SOL    HW117465   4.561   6.282   6.867
 5522SOL    HW217466   4.694   6.245   6.781
 5523SOL     OW17467   5.159   1.653   0.721
 5523SOL    HW117468   5.097   1.720   0.763
 5523SOL    HW217469   5.253   1.684   0.731
 5524SOL     OW17470   2.273   1.839   2.959
 5524SOL    HW117471   2.221   1.775   2.902
 5524SOL    HW217472   2.370   1.831   2.938
 5525SOL     OW17473   6.937   0.965   1.037
 5525SOL    HW117474   6.918   0.988   0.941
 5525SOL    HW217475   6.910   0.870   1.054
 5526SOL     OW17476   4.950   4.370   4.043
 5526SOL    HW117477   4.975   4.464   4.064
 5526SOL    HW217478   4.976   4.310   4.118
 5527SOL     OW17479   6.188   0.065   2.438
 5527SOL    HW117480   6.153   0.156   2.463
 5527SOL    HW217481   6.226   0.020   2.519
 5528SOL     OW17482   1.486   1.212   0.190
 5528SOL    HW117483   1.401   1.214   0.242
 5528SOL    HW217484   1.465   1.211   0.092
 5529SOL     OW17485   3.499   0.264   2.175
 5529SOL    HW117486   3.580   0.206   2.188
 5529SOL    HW217487   3.523   0.340   2.115
 5530SOL     OW17488   0.957   1.669   1.021
 5530SOL    HW117489   0.975   1.599   1.090
 5530SOL    HW217490   0.926   1.752   1.066
 5531SOL     OW17491   1.279   4.961   0.363
 5531SOL    HW117492   1.223   4.890   0.407
 5531SOL    HW217493   1.368   4.922   0.340
 5532SOL     OW17494   0.219   4.543   6.093
 5532SOL    HW117495   0.233   4.473   6.164
 5532SOL    HW217496   0.222   4.500   6.003
 5533SOL     OW17497   2.950   0.966   3.465
 5533SOL    HW117498   2.921   1.007   3.551
 5533SOL    HW217499   2.870   0.951   3.406
 5534SOL     OW17500   1.334   0.725   4.670
 5534SOL    HW117501   1.341   0.727   4.769
 5534SOL    HW217502   1.303   0.635   4.640
 5535SOL     OW17503   0.324   2.042   2.337
 5535SOL    HW117504   0.306   2.038   2.239
 5535SOL    HW217505   0.318   1.950   2.376
 5536SOL     OW17506   4.712   0.291   4.319
 5536SOL    HW117507   4.627   0.301   4.268
 5536SOL    HW217508   4.779   0.358   4.286
 5537SOL     OW17509   2.714   2.431   2.807
 5537SOL    HW117510   2.745   2.508   2.752
 5537SOL    HW217511   2.702   2.350   2.749
 5538SOL     OW17512   3.996   5.433   3.610
 5538SOL    HW117513   3.962   5.526   3.626
 5538SOL    HW217514   3.963   5.373   3.683
 5539SOL     OW17515   2.476   4.006   0.101
 5539SOL    HW117516   2.516   4.097   0.107
 5539SOL    HW217517   2.428   3.996   0.013
 5540SOL     OW17518   3.621   5.298   1.068
 5540SOL    HW117519   3.570   5.365   1.121
 5540SOL    HW217520   3.674   5.239   1.129
 5541SOL     OW17521   4.650   0.551   6.345
 5541SOL    HW117522   4.649   0.513   6.253
 5541SOL    HW217523   4.598   0.637   6.346
 5542SOL     OW17524   5.682   3.827   6.719
 5542SOL    HW117525   5.715   3.908   6.767
 5542SOL    HW217526   5.754   3.792   6.659
 5543SOL     OW17527   0.832   2.341   5.038
 5543SOL    HW117528   0.919   2.319   5.082
 5543SOL    HW217529   0.794   2.424   5.079
 5544SOL     OW17530   5.294   0.275   0.317
 5544SOL    HW117531   5.350   0.206   0.272
 5544SOL    HW217532   5.206   0.283   0.270
 5545SOL     OW17533   2.364   2.524   2.111
 5545SOL    HW117534   2.414   2.438   2.121
 5545SOL    HW217535   2.399   2.575   2.032
 5546SOL     OW17536   3.559   5.642   4.831
 5546SOL    HW117537   3.642   5.628   4.884
 5546SOL    HW217538   3.538   5.740   4.826
 5547SOL     OW17539   2.864   4.825   3.587
 5547SOL    HW117540   2.774   4.801   3.552
 5547SOL    HW217541   2.900   4.903   3.536
 5548SOL     OW17542   6.640   1.751   4.750
 5548SOL    HW117543   6.576   1.801   4.692
 5548SOL    HW217544   6.663   1.664   4.707
 5549SOL     OW17545   3.230   5.204   5.931
 5549SOL    HW117546   3.299   5.184   6.001
 5549SOL    HW217547   3.252   5.290   5.887
 5550SOL     OW17548   2.870   6.057   2.337
 5550SOL    HW117549   2.823   5.987   2.284
 5550SOL    HW217550   2.870   6.143   2.286
 5551SOL     OW17551   0.526   1.396   2.457
 5551SOL    HW117552   0.573   1.310   2.479
 5551SOL    HW217553   0.499   1.442   2.542
 5552SOL     OW17554   2.066   2.083   2.308
 5552SOL    HW117555   2.018   2.069   2.221
 5552SOL    HW217556   2.073   2.181   2.326
 5553SOL     OW17557   5.002   6.545   6.433
 5553SOL    HW117558   4.987   6.483   6.509
 5553SOL    HW217559   5.046   6.496   6.358
 5554SOL     OW17560   3.016   0.489   5.396
 5554SOL    HW117561   3.008   0.575   5.446
 5554SOL    HW217562   3.019   0.412   5.460
 5555SOL     OW17563   1.312   5.914   1.761
 5555SOL    HW117564   1.286   5.820   1.739
 5555SOL    HW217565   1.231   5.966   1.788
 5556SOL     OW17566   6.510   1.312   4.828
 5556SOL    HW117567   6.421   1.357   4.818
 5556SOL    HW217568   6.572   1.373   4.876
 5557SOL     OW17569   3.935   1.091   2.355
 5557SOL    HW117570   3.841   1.079   2.387
 5557SOL    HW217571   3.952   1.030   2.278
 5558SOL     OW17572   4.888   2.569   6.035
 5558SOL    HW117573   4.868   2.664   6.007
 5558SOL    HW217574   4.841   2.506   5.974
 5559SOL     OW17575   2.897   0.867   0.653
 5559SOL    HW117576   2.804   0.902   0.660
 5559SOL    HW217577   2.909   0.791   0.718
 5560SOL     OW17578   6.992   1.844   4.755
 5560SOL    HW117579   7.001   1.883   4.664
 5560SOL    HW217580   0.060   1.810   4.786
 5561SOL     OW17581   2.139   4.578   1.891
 5561SOL    HW117582   2.235   4.553   1.899
 5561SOL    HW217583   2.095   4.574   1.981
 5562SOL     OW17584   3.785   2.437   0.468
 5562SOL    HW117585   3.743   2.521   0.432
 5562SOL    HW217586   3.830   2.388   0.393
 5563SOL     OW17587   3.908   4.537   0.781
 5563SOL    HW117588   3.889   4.523   0.879
 5563SOL    HW217589   3.838   4.491   0.727
 5564SOL     OW17590   6.463   1.045   2.051
 5564SOL    HW117591   6.532   1.010   1.987
 5564SOL    HW217592   6.403   1.108   2.003
 5565SOL     OW17593   1.532   2.837   5.871
 5565SOL    HW117594   1.618   2.822   5.823
 5565SOL    HW217595   1.547   2.827   5.970
 5566SOL     OW17596   2.394   4.358   0.433
 5566SOL    HW117597   2.434   4.328   0.520
 5566SOL    HW217598   2.350   4.280   0.388
 5567SOL     OW17599   1.364   5.424   3.285
 5567SOL    HW117600   1.325   5.361   3.352
 5567SOL    HW217601   1.313   5.510   3.286
 5568SOL     OW17602   3.971   2.875   7.016
 5568SOL    HW117603   4.007   2.814   6.945
 5568SOL    HW217604   3.982   2.831   0.085
 5569SOL     OW17605   4.829   1.495   6.570
 5569SOL    HW117606   4.819   1.402   6.536
 5569SOL    HW217607   4.774   1.557   6.514
 5570SOL     OW17608   1.822   2.471   6.105
 5570SOL    HW117609   1.778   2.386   6.135
 5570SOL    HW217610   1.911   2.449   6.063
 5571SOL     OW17611   0.530   4.560   6.434
 5571SOL    HW117612   0.621   4.527   6.459
 5571SOL    HW217613   0.537   4.625   6.358
 5572SOL     OW17614   1.029   3.557   5.535
 5572SOL    HW117615   1.116   3.581   5.579
 5572SOL    HW217616   1.010   3.621   5.462
 5573SOL     OW17617   6.861   3.453   6.328
 5573SOL    HW117618   6.876   3.370   6.274
 5573SOL    HW217619   6.945   3.476   6.378
 5574SOL     OW17620   2.191   6.092   4.430
 5574SOL    HW117621   2.260   6.020   4.439
 5574SOL    HW217622   2.126   6.086   4.505
 5575SOL     OW17623   1.522   1.266   2.945
 5575SOL    HW117624   1.534   1.169   2.925
 5575SOL    HW217625   1.444   1.278   3.007
 5576SOL     OW17626   5.243   6.748   6.151
 5576SOL    HW117627   5.292   6.760   6.065
 5576SOL    HW217628   5.287   6.677   6.205
 5577SOL     OW17629   1.196   5.090   4.667
 5577SOL    HW117630   1.270   5.157   4.660
 5577SOL    HW217631   1.234   4.999   4.683
 5578SOL     OW17632   4.178   1.587   6.270
 5578SOL    HW117633   4.270   1.627   6.268
 5578SOL    HW217634   4.120   1.634   6.204
 5579SOL     OW17635   4.687   4.948   2.465
 5579SOL    HW117636   4.712   5.024   2.526
 5579SOL    HW217637   4.770   4.907   2.427
 5580SOL     OW17638   6.488   1.298   1.809
 5580SOL    HW117639   6.552   1.265   1.879
 5580SOL    HW217640   6.407   1.239   1.808
 5581SOL     OW17641   3.517   3.403   0.523
 5581SOL    HW117642   3.506   3.453   0.609
 5581SOL    HW217643   3.551   3.311   0.541
 5582SOL     OW17644   2.902   3.497   5.156
 5582SOL    HW117645   2.870   3.538   5.070
 5582SOL    HW217646   2.991   3.453   5.141
 5583SOL     OW17647   3.880   1.043   6.396
 5583SOL    HW117648   3.875   1.081   6.304
 5583SOL    HW217649   3.881   1.118   6.463
 5584SOL     OW17650   5.015   3.156   4.407
 5584SOL    HW117651   4.997   3.088   4.478
 5584SOL    HW217652   4.967   3.130   4.323
 5585SOL     OW17653   6.946   0.784   3.428
 5585SOL    HW117654   6.994   0.837   3.357
 5585SOL    HW217655   6.889   0.846   3.482
 5586SOL     OW17656   1.659   0.645   6.958
 5586SOL    HW117657   1.704   0.600   6.881
 5586SOL    HW217658   1.573   0.685   6.927
 5587SOL     OW17659   3.385   6.174   3.054
 5587SOL    HW117660   3.351   6.138   2.967
 5587SOL    HW217661   3.475   6.135   3.074
 5588SOL     OW17662   4.758   5.336   0.134
 5588SOL    HW117663   4.732   5.264   0.070
 5588SOL    HW217664   4.800   5.412   0.083
 5589SOL     OW17665   1.494   2.758   6.674
 5589SOL    HW117666   1.508   2.762   6.575
 5589SOL    HW217667   1.459   2.668   6.699
 5590SOL     OW17668   6.250   0.577   3.422
 5590SOL    HW117669   6.263   0.647   3.492
 5590SOL    HW217670   6.224   0.491   3.467
 5591SOL     OW17671   5.340   1.375   6.546
 5591SOL    HW117672   5.256   1.428   6.533
 5591SOL    HW217673   5.400   1.422   6.611
 5592SOL     OW17674   1.296   3.437   2.515
 5592SOL    HW117675   1.217   3.476   2.467
 5592SOL    HW217676   1.263   3.380   2.591
 5593SOL     OW17677   2.195   3.541   5.175
 5593SOL    HW117678   2.099   3.518   5.192
 5593SOL    HW217679   2.253   3.486   5.235
 5594SOL     OW17680   2.944   0.812   6.257
 5594SOL    HW117681   2.891   0.893   6.233
 5594SOL    HW217682   3.041   0.830   6.241
 5595SOL     OW17683   6.779   3.434   0.272
 5595SOL    HW117684   6.745   3.424   0.366
 5595SOL    HW217685   6.863   3.380   0.262
 5596SOL     OW17686   4.926   3.660   4.480
 5596SOL    HW117687   4.933   3.636   4.577
 5596SOL    HW217688   4.960   3.584   4.424
 5597SOL     OW17689   0.325   2.029   6.466
 5597SOL    HW117690   0.415   1.987   6.455
 5597SOL    HW217691   0.258   1.977   6.413
 5598SOL     OW17692   6.562   6.908   3.321
 5598SOL    HW117693   6.658   6.880   3.327
 5598SOL    HW217694   6.557   7.001   3.285
 5599SOL     OW17695   4.865   3.143   3.272
 5599SOL    HW117696   4.792   3.076   3.260
 5599SOL    HW217697   4.941   3.121   3.211
 5600SOL     OW17698   1.942   3.090   1.700
 5600SOL    HW117699   1.922   2.993   1.717
 5600SOL    HW217700   1.858   3.143   1.710
 5601SOL     OW17701   5.130   2.579   6.578
 5601SOL    HW117702   5.173   2.503   6.626
 5601SOL    HW217703   5.031   2.565   6.574
 5602SOL     OW17704   5.930   0.898   2.722
 5602SOL    HW117705   5.995   0.830   2.754
 5602SOL    HW217706   5.943   0.984   2.772
 5603SOL     OW17707   3.781   1.229   5.895
 5603SOL    HW117708   3.693   1.204   5.856
 5603SOL    HW217709   3.784   1.328   5.911
 5604SOL     OW17710   1.590   4.340   3.603
 5604SOL    HW117711   1.657   4.273   3.571
 5604SOL    HW217712   1.555   4.312   3.692
 5605SOL     OW17713   3.499   6.666   4.778
 5605SOL    HW117714   3.481   6.590   4.716
 5605SOL    HW217715   3.429   6.669   4.848
 5606SOL     OW17716   4.472   4.082   1.253
 5606SOL    HW117717   4.428   4.119   1.171
 5606SOL    HW217718   4.517   3.995   1.231
 5607SOL     OW17719   1.440   1.805   2.247
 5607SOL    HW117720   1.342   1.797   2.265
 5607SOL    HW217721   1.458   1.886   2.192
 5608SOL     OW17722   6.448   6.426   3.693
 5608SOL    HW117723   6.457   6.499   3.625
 5608SOL    HW217724   6.447   6.337   3.646
 5609SOL     OW17725   6.718   1.105   0.550
 5609SOL    HW117726   6.631   1.123   0.595
 5609SOL    HW217727   6.702   1.079   0.454
 5610SOL     OW17728   5.428   6.776   6.784
 5610SOL    HW117729   5.411   6.814   6.693
 5610SOL    HW217730   5.445   6.677   6.776
 5611SOL     OW17731   6.884   4.002   1.618
 5611SOL    HW117732   6.912   3.974   1.710
 5611SOL    HW217733   6.954   3.973   1.553
 5612SOL     OW17734   5.326   2.069   1.283
 5612SOL    HW117735   5.401   2.049   1.220
 5612SOL    HW217736   5.345   2.026   1.371
 5613SOL     OW17737   6.725   5.217   5.415
 5613SOL    HW117738   6.819   5.211   5.381
 5613SOL    HW217739   6.683   5.127   5.413
 5614SOL     OW17740   5.727   2.764   4.380
 5614SOL    HW117741   5.726   2.780   4.281
 5614SOL    HW217742   5.804   2.813   4.421
 5615SOL     OW17743   0.623   3.234   2.482
 5615SOL    HW117744   0.710   3.265   2.444
 5615SOL    HW217745   0.566   3.312   2.504
 5616SOL     OW17746   1.670   2.986   1.418
 5616SOL    HW117747   1.584   3.008   1.464
 5616SOL    HW217748   1.728   2.931   1.478
 5617SOL     OW17749   0.412   5.161   4.726
 5617SOL    HW117750   0.456   5.073   4.709
 5617SOL    HW217751   0.355   5.185   4.647
 5618SOL     OW17752   4.946   1.006   2.991
 5618SOL    HW117753   4.892   1.087   3.018
 5618SOL    HW217754   5.034   1.008   3.038
 5619SOL     OW17755   3.917   4.018   4.506
 5619SOL    HW117756   3.848   4.055   4.568
 5619SOL    HW217757   3.973   3.950   4.555
 5620SOL     OW17758   4.585   4.845   5.526
 5620SOL    HW117759   4.577   4.806   5.618
 5620SOL    HW217760   4.525   4.797   5.463
 5621SOL     OW17761   1.025   3.401   0.013
 5621SOL    HW117762   1.011   3.334   6.962
 5621SOL    HW217763   0.962   3.383   0.089
 5622SOL     OW17764   5.371   5.730   3.181
 5622SOL    HW117765   5.286   5.686   3.211
 5622SOL    HW217766   5.350   5.801   3.114
 5623SOL     OW17767   4.391   4.809   3.563
 5623SOL    HW117768   4.424   4.760   3.643
 5623SOL    HW217769   4.386   4.907   3.584
 5624SOL     OW17770   4.960   4.081   3.888
 5624SOL    HW117771   4.923   4.154   3.945
 5624SOL    HW217772   4.930   3.992   3.924
 5625SOL     OW17773   4.029   0.031   6.381
 5625SOL    HW117774   4.022   0.057   6.285
 5625SOL    HW217775   3.972   6.972   6.398
 5626SOL     OW17776   1.939   4.351   5.873
 5626SOL    HW117777   1.961   4.272   5.928
 5626SOL    HW217778   2.010   4.365   5.804
 5627SOL     OW17779   0.818   5.616   0.994
 5627SOL    HW117780   0.794   5.708   0.963
 5627SOL    HW217781   0.910   5.592   0.961
 5628SOL     OW17782   0.875   2.600   0.001
 5628SOL    HW117783   0.958   2.645   0.036
 5628SOL    HW217784   0.865   2.511   0.044
 5629SOL     OW17785   0.656   3.380   4.822
 5629SOL    HW117786   0.655   3.342   4.729
 5629SOL    HW217787   0.591   3.330   4.879
 5630SOL     OW17788   1.082   4.504   6.597
 5630SOL    HW117789   1.161   4.445   6.617
 5630SOL    HW217790   1.015   4.453   6.544
 5631SOL     OW17791   3.183   0.848   3.501
 5631SOL    HW117792   3.090   0.884   3.502
 5631SOL    HW217793   3.183   0.757   3.461
 5632SOL     OW17794   3.362   6.508   6.105
 5632SOL    HW117795   3.452   6.473   6.079
 5632SOL    HW217796   3.325   6.565   6.032
 5633SOL     OW17797   2.228   5.734   4.951
 5633SOL    HW117798   2.250   5.756   4.856
 5633SOL    HW217799   2.194   5.640   4.957
 5634SOL     OW17800   2.597   0.102   1.564
 5634SOL    HW117801   2.634   0.126   1.654
 5634SOL    HW217802   2.548   0.181   1.526
 5635SOL     OW17803   4.185   1.199   2.214
 5635SOL    HW117804   4.222   1.291   2.226
 5635SOL    HW217805   4.120   1.179   2.287
 5636SOL     OW17806   4.889   0.683   4.370
 5636SOL    HW117807   4.914   0.601   4.319
 5636SOL    HW217808   4.953   0.757   4.347
 5637SOL     OW17809   6.041   0.065   5.478
 5637SOL    HW117810   5.997   0.134   5.420
 5637SOL    HW217811   6.016   0.081   5.573
 5638SOL     OW17812   1.316   5.785   0.014
 5638SOL    HW117813   1.217   5.771   0.016
 5638SOL    HW217814   1.341   5.829   6.948
 5639SOL     OW17815   3.414   6.928   1.724
 5639SOL    HW117816   3.443   6.992   1.796
 5639SOL    HW217817   3.336   6.875   1.757
 5640SOL     OW17818   4.201   6.763   4.171
 5640SOL    HW117819   4.293   6.786   4.202
 5640SOL    HW217820   4.149   6.725   4.248
 5641SOL     OW17821   6.338   5.076   3.806
 5641SOL    HW117822   6.404   5.150   3.823
 5641SOL    HW217823   6.379   5.010   3.743
 5642SOL     OW17824   2.394   1.846   6.401
 5642SOL    HW117825   2.487   1.814   6.414
 5642SOL    HW217826   2.395   1.939   6.362
 5643SOL     OW17827   5.144   2.756   3.552
 5643SOL    HW117828   5.106   2.708   3.631
 5643SOL    HW217829   5.228   2.803   3.580
 5644SOL     OW17830   3.155   0.689   5.837
 5644SOL    HW117831   3.254   0.702   5.834
 5644SOL    HW217832   3.112   0.749   5.769
 5645SOL     OW17833   6.703   6.241   4.399
 5645SOL    HW117834   6.776   6.250   4.467
 5645SOL    HW217835   6.686   6.330   4.356
 5646SOL     OW17836   6.399   1.088   2.363
 5646SOL    HW117837   6.323   1.082   2.299
 5646SOL    HW217838   6.405   1.181   2.399
 5647SOL     OW17839   5.757   3.417   6.263
 5647SOL    HW117840   5.673   3.402   6.315
 5647SOL    HW217841   5.749   3.502   6.210
 5648SOL     OW17842   1.662   1.478   3.729
 5648SOL    HW117843   1.708   1.558   3.768
 5648SOL    HW217844   1.729   1.418   3.687
 5649SOL     OW17845   6.817   0.633   4.588
 5649SOL    HW117846   6.759   0.708   4.622
 5649SOL    HW217847   6.910   0.645   4.621
 5650SOL     OW17848   6.095   4.850   5.541
 5650SOL    HW117849   6.025   4.779   5.553
 5650SOL    HW217850   6.068   4.932   5.590
 5651SOL     OW17851   5.844   0.518   3.330
 5651SOL    HW117852   5.909   0.481   3.264
 5651SOL    HW217853   5.787   0.588   3.286
 5652SOL     OW17854   4.318   4.303   6.710
 5652SOL    HW117855   4.220   4.320   6.708
 5652SOL    HW217856   4.366   4.375   6.661
 5653SOL     OW17857   2.210   6.468   6.635
 5653SOL    HW117858   2.123   6.512   6.613
 5653SOL    HW217859   2.281   6.539   6.647
 5654SOL     OW17860   2.554   6.900   0.152
 5654SOL    HW117861   2.646   6.915   0.187
 5654SOL    HW217862   2.540   6.803   0.135
 5655SOL     OW17863   6.472   5.739   2.596
 5655SOL    HW117864   6.395   5.789   2.636
 5655SOL    HW217865   6.441   5.688   2.516
 5656SOL     OW17866   3.250   5.121   6.400
 5656SOL    HW117867   3.166   5.120   6.454
 5656SOL    HW217868   3.305   5.041   6.423
 5657SOL     OW17869   5.065   5.508   2.046
 5657SOL    HW117870   5.126   5.527   1.969
 5657SOL    HW217871   5.117   5.512   2.131
 5658SOL     OW17872   4.919   6.335   6.136
 5658SOL    HW117873   4.877   6.351   6.046
 5658SOL    HW217874   5.008   6.291   6.124
 5659SOL     OW17875   2.902   3.600   2.339
 5659SOL    HW117876   2.900   3.550   2.252
 5659SOL    HW217877   2.928   3.695   2.321
 5660SOL     OW17878   0.048   5.388   1.812
 5660SOL    HW117879   0.147   5.388   1.803
 5660SOL    HW217880   0.006   5.393   1.721
 5661SOL     OW17881   6.055   5.632   4.319
 5661SOL    HW117882   6.080   5.722   4.355
 5661SOL    HW217883   5.973   5.599   4.365
 5662SOL     OW17884   1.535   3.765   4.528
 5662SOL    HW117885   1.617   3.786   4.580
 5662SOL    HW217886   1.516   3.839   4.463
 5663SOL     OW17887   2.476   3.635   0.337
 5663SOL    HW117888   2.529   3.650   0.254
 5663SOL    HW217889   2.525   3.673   0.415
 5664SOL     OW17890   6.371   6.829   1.551
 5664SOL    HW117891   6.428   6.880   1.615
 5664SOL    HW217892   6.389   6.731   1.561
 5665SOL     OW17893   1.636   0.645   5.837
 5665SOL    HW117894   1.666   0.619   5.746
 5665SOL    HW217895   1.560   0.710   5.830
 5666SOL     OW17896   5.042   6.325   6.663
 5666SOL    HW117897   5.140   6.307   6.668
 5666SOL    HW217898   5.011   6.311   6.569
 5667SOL     OW17899   5.150   4.361   3.099
 5667SOL    HW117900   5.109   4.433   3.043
 5667SOL    HW217901   5.237   4.332   3.059
 5668SOL     OW17902   6.334   2.361   6.583
 5668SOL    HW117903   6.259   2.295   6.586
 5668SOL    HW217904   6.303   2.448   6.621
 5669SOL     OW17905   0.247   2.147   5.047
 5669SOL    HW117906   0.264   2.165   5.143
 5669SOL    HW217907   0.327   2.174   4.993
 5670SOL     OW17908   1.434   3.004   1.931
 5670SOL    HW117909   1.415   2.920   1.982
 5670SOL    HW217910   1.454   2.982   1.836
 5671SOL     OW17911   0.741   0.590   5.613
 5671SOL    HW117912   0.649   0.552   5.609
 5671SOL    HW217913   0.804   0.530   5.565
 5672SOL     OW17914   4.236   4.579   5.807
 5672SOL    HW117915   4.228   4.493   5.757
 5672SOL    HW217916   4.171   4.645   5.771
 5673SOL     OW17917   2.197   6.449   1.568
 5673SOL    HW117918   2.130   6.520   1.544
 5673SOL    HW217919   2.287   6.492   1.582
 5674SOL     OW17920   0.651   2.798   0.840
 5674SOL    HW117921   0.622   2.878   0.789
 5674SOL    HW217922   0.616   2.715   0.796
 5675SOL     OW17923   4.398   1.102   5.359
 5675SOL    HW117924   4.417   1.195   5.326
 5675SOL    HW217925   4.324   1.105   5.427
 5676SOL     OW17926   2.286   6.455   2.572
 5676SOL    HW117927   2.206   6.396   2.577
 5676SOL    HW217928   2.283   6.523   2.645
 5677SOL     OW17929   6.027   0.113   2.833
 5677SOL    HW117930   6.105   0.070   2.788
 5677SOL    HW217931   5.946   0.055   2.823
 5678SOL     OW17932   1.533   5.253   2.764
 5678SOL    HW117933   1.484   5.322   2.710
 5678SOL    HW217934   1.466   5.195   2.811
 5679SOL     OW17935   3.943   5.985   5.492
 5679SOL    HW117936   3.918   6.081   5.506
 5679SOL    HW217937   3.868   5.938   5.444
 5680SOL     OW17938   1.619   0.234   6.487
 5680SOL    HW117939   1.599   0.151   6.539
 5680SOL    HW217940   1.545   0.300   6.499
 5681SOL     OW17941   3.267   3.514   0.508
 5681SOL    HW117942   3.322   3.436   0.539
 5681SOL    HW217943   3.297   3.596   0.556
 5682SOL     OW17944   2.169   3.668   4.603
 5682SOL    HW117945   2.190   3.695   4.509
 5682SOL    HW217946   2.190   3.744   4.665
 5683SOL     OW17947   3.588   3.590   5.044
 5683SOL    HW117948   3.655   3.516   5.033
 5683SOL    HW217949   3.635   3.673   5.074
 5684SOL     OW17950   3.335   4.137   3.202
 5684SOL    HW117951   3.404   4.126   3.273
 5684SOL    HW217952   3.301   4.231   3.204
 5685SOL     OW17953   0.229   0.178   1.639
 5685SOL    HW117954   0.143   0.170   1.689
 5685SOL    HW217955   0.216   0.237   1.559
 5686SOL     OW17956   3.398   4.777   6.408
 5686SOL    HW117957   3.330   4.740   6.471
 5686SOL    HW217958   3.382   4.741   6.316
 5687SOL     OW17959   4.541   5.967   6.590
 5687SOL    HW117960   4.442   5.975   6.596
 5687SOL    HW217961   4.580   6.051   6.552
 5688SOL     OW17962   5.228   1.769   2.596
 5688SOL    HW117963   5.293   1.745   2.524
 5688SOL    HW217964   5.268   1.749   2.685
 5689SOL     OW17965   3.900   3.034   5.025
 5689SOL    HW117966   3.942   3.114   5.068
 5689SOL    HW217967   3.876   2.967   5.096
 5690SOL     OW17968   3.971   0.384   3.002
 5690SOL    HW117969   3.974   0.291   2.967
 5690SOL    HW217970   4.009   0.386   3.095
 5691SOL     OW17971   3.561   0.563   4.534
 5691SOL    HW117972   3.509   0.583   4.617
 5691SOL    HW217973   3.648   0.612   4.536
 5692SOL     OW17974   6.246   2.822   0.350
 5692SOL    HW117975   6.170   2.860   0.297
 5692SOL    HW217976   6.331   2.869   0.326
 5693SOL     OW17977   5.477   3.300   1.936
 5693SOL    HW117978   5.424   3.317   2.019
 5693SOL    HW217979   5.532   3.380   1.914
 5694SOL     OW17980   1.888   2.033   5.034
 5694SOL    HW117981   1.920   2.119   5.073
 5694SOL    HW217982   1.933   2.017   4.947
 5695SOL     OW17983   2.016   3.502   3.476
 5695SOL    HW117984   1.975   3.438   3.540
 5695SOL    HW217985   2.032   3.590   3.522
 5696SOL     OW17986   3.592   1.302   6.805
 5696SOL    HW117987   3.521   1.290   6.876
 5696SOL    HW217988   3.651   1.221   6.804
 5697SOL     OW17989   6.876   4.045   0.356
 5697SOL    HW117990   6.898   4.065   0.452
 5697SOL    HW217991   6.952   4.074   0.298
 5698SOL     OW17992   1.750   4.340   4.178
 5698SOL    HW117993   1.822   4.364   4.112
 5698SOL    HW217994   1.678   4.408   4.175
 5699SOL     OW17995   1.137   2.605   5.256
 5699SOL    HW117996   1.151   2.697   5.220
 5699SOL    HW217997   1.058   2.605   5.318
 5700SOL     OW17998   1.254   5.190   4.297
 5700SOL    HW117999   1.254   5.251   4.218
 5700SOL    HW218000   1.179   5.215   4.359
 5701SOL     OW18001   4.912   2.460   2.435
 5701SOL    HW118002   4.902   2.461   2.336
 5701SOL    HW218003   4.855   2.532   2.475
 5702SOL     OW18004   3.884   0.369   6.832
 5702SOL    HW118005   3.926   0.434   6.896
 5702SOL    HW218006   3.923   0.278   6.847
 5703SOL     OW18007   5.069   4.315   2.732
 5703SOL    HW118008   4.991   4.290   2.675
 5703SOL    HW218009   5.154   4.291   2.684
 5704SOL     OW18010   5.194   3.993   3.448
 5704SOL    HW118011   5.270   4.048   3.482
 5704SOL    HW218012   5.135   4.050   3.391
 5705SOL     OW18013   6.821   1.002   3.600
 5705SOL    HW118014   6.813   0.912   3.641
 5705SOL    HW218015   6.830   1.071   3.672
 5706SOL     OW18016   2.354   1.199   6.057
 5706SOL    HW118017   2.346   1.197   6.157
 5706SOL    HW218018   2.439   1.154   6.029
 5707SOL     OW18019   3.994   1.022   0.921
 5707SOL    HW118020   4.011   1.078   0.840
 5707SOL    HW218021   3.901   1.039   0.954
 5708SOL     OW18022   0.927   6.916   0.564
 5708SOL    HW118023   0.886   6.825   0.570
 5708SOL    HW218024   1.005   6.913   0.501
 5709SOL     OW18025   0.518   2.669   0.663
 5709SOL    HW118026   0.461   2.744   0.628
 5709SOL    HW218027   0.564   2.624   0.587
 5710SOL     OW18028   3.650   4.914   6.730
 5710SOL    HW118029   3.727   4.865   6.772
 5710SOL    HW218030   3.611   4.859   6.657
 5711SOL     OW18031   4.910   1.714   4.853
 5711SOL    HW118032   4.973   1.756   4.918
 5711SOL    HW218033   4.853   1.785   4.812
 5712SOL     OW18034   5.397   6.839   6.495
 5712SOL    HW118035   5.302   6.868   6.481
 5712SOL    HW218036   5.413   6.754   6.445
 5713SOL     OW18037   0.149   3.816   2.767
 5713SOL    HW118038   0.117   3.747   2.702
 5713SOL    HW218039   0.227   3.780   2.818
 5714SOL     OW18040   2.350   0.801   0.976
 5714SOL    HW118041   2.438   0.753   0.966
 5714SOL    HW218042   2.275   0.737   0.957
 5715SOL     OW18043   0.319   6.129   3.667
 5715SOL    HW118044   0.305   6.227   3.658
 5715SOL    HW218045   0.390   6.099   3.602
 5716SOL     OW18046   1.882   2.302   5.363
 5716SOL    HW118047   1.934   2.387   5.353
 5716SOL    HW218048   1.835   2.282   5.276
 5717SOL     OW18049   0.908   3.558   5.839
 5717SOL    HW118050   0.935   3.469   5.875
 5717SOL    HW218051   0.846   3.546   5.762
 5718SOL     OW18052   3.361   5.912   5.852
 5718SOL    HW118053   3.320   5.858   5.778
 5718SOL    HW218054   3.324   6.005   5.848
 5719SOL     OW18055   2.655   1.216   6.780
 5719SOL    HW118056   2.614   1.255   6.862
 5719SOL    HW218057   2.727   1.152   6.806
 5720SOL     OW18058   2.443   5.945   4.029
 5720SOL    HW118059   2.436   6.034   4.075
 5720SOL    HW218060   2.524   5.944   3.970
 5721SOL     OW18061   6.423   5.192   6.949
 5721SOL    HW118062   6.441   5.290   6.941
 5721SOL    HW218063   6.333   5.179   6.989
 5722SOL     OW18064   5.292   1.119   4.708
 5722SOL    HW118065   5.363   1.189   4.701
 5722SOL    HW218066   5.294   1.060   4.627
 5723SOL     OW18067   6.863   4.682   1.103
 5723SOL    HW118068   6.804   4.610   1.066
 5723SOL    HW218069   6.811   4.767   1.111
 5724SOL     OW18070   4.884   2.863   6.059
 5724SOL    HW118071   4.955   2.813   6.107
 5724SOL    HW218072   4.837   2.924   6.123
 5725SOL     OW18073   6.113   6.727   5.596
 5725SOL    HW118074   6.064   6.742   5.509
 5725SOL    HW218075   6.204   6.691   5.577
 5726SOL     OW18076   3.760   5.217   5.666
 5726SOL    HW118077   3.801   5.192   5.753
 5726SOL    HW218078   3.792   5.155   5.595
 5727SOL     OW18079   5.771   2.223   3.831
 5727SOL    HW118080   5.699   2.216   3.762
 5727SOL    HW218081   5.812   2.315   3.827
 5728SOL     OW18082   3.689   1.120   5.268
 5728SOL    HW118083   3.691   1.199   5.330
 5728SOL    HW218084   3.689   1.152   5.174
 5729SOL     OW18085   2.528   2.494   4.202
 5729SOL    HW118086   2.592   2.463   4.132
 5729SOL    HW218087   2.575   2.495   4.291
 5730SOL     OW18088   4.154   4.857   0.460
 5730SOL    HW118089   4.235   4.800   0.441
 5730SOL    HW218090   4.076   4.798   0.478
 5731SOL     OW18091   4.793   1.218   5.344
 5731SOL    HW118092   4.736   1.222   5.262
 5731SOL    HW218093   4.742   1.253   5.423
 5732SOL     OW18094   6.746   4.092   4.233
 5732SOL    HW118095   6.679   4.019   4.241
 5732SOL    HW218096   6.758   4.116   4.136
 5733SOL     OW18097   2.202   6.649   1.311
 5733SOL    HW118098   2.294   6.637   1.349
 5733SOL    HW218099   2.165   6.737   1.342
 5734SOL     OW18100   1.989   0.370   5.499
 5734SOL    HW118101   2.002   0.356   5.401
 5734SOL    HW218102   2.078   0.379   5.544
 5735SOL     OW18103   5.299   1.282   0.573
 5735SOL    HW118104   5.214   1.281   0.520
 5735SOL    HW218105   5.374   1.313   0.514
 5736SOL     OW18106   4.704   3.356   6.618
 5736SOL    HW118107   4.760   3.438   6.611
 5736SOL    HW218108   4.758   3.281   6.656
 5737SOL     OW18109   5.165   5.728   2.582
 5737SOL    HW118110   5.091   5.675   2.624
 5737SOL    HW218111   5.167   5.820   2.623
 5738SOL     OW18112   3.361   1.678   1.211
 5738SOL    HW118113   3.276   1.693   1.161
 5738SOL    HW218114   3.431   1.741   1.176
 5739SOL     OW18115   2.278   1.124   5.764
 5739SOL    HW118116   2.360   1.152   5.814
 5739SOL    HW218117   2.219   1.203   5.750
 5740SOL     OW18118   4.872   3.012   2.839
 5740SOL    HW118119   4.825   2.946   2.899
 5740SOL    HW218120   4.897   3.093   2.892
 5741SOL     OW18121   1.773   3.351   3.921
 5741SOL    HW118122   1.811   3.380   4.008
 5741SOL    HW218123   1.686   3.396   3.906
 5742SOL     OW18124   6.184   4.999   2.318
 5742SOL    HW118125   6.228   5.018   2.230
 5742SOL    HW218126   6.212   5.067   2.385
 5743SOL     OW18127   3.701   6.702   6.640
 5743SOL    HW118128   3.765   6.629   6.616
 5743SOL    HW218129   3.713   6.727   6.736
 5744SOL     OW18130   5.149   5.613   3.295
 5744SOL    HW118131   5.121   5.636   3.388
 5744SOL    HW218132   5.069   5.587   3.241
 5745SOL     OW18133   0.975   3.400   2.125
 5745SOL    HW118134   0.943   3.334   2.056
 5745SOL    HW218135   0.984   3.490   2.084
 5746SOL     OW18136   5.380   0.980   3.615
 5746SOL    HW118137   5.431   0.896   3.592
 5746SOL    HW218138   5.443   1.046   3.657
 5747SOL     OW18139   1.466   6.609   2.031
 5747SOL    HW118140   1.515   6.619   1.944
 5747SOL    HW218141   1.485   6.519   2.070
 5748SOL     OW18142   6.298   6.657   7.004
 5748SOL    HW118143   6.382   6.650   0.037
 5748SOL    HW218144   6.233   6.717   0.029
 5749SOL     OW18145   1.974   6.660   6.548
 5749SOL    HW118146   2.063   6.701   6.531
 5749SOL    HW218147   1.903   6.731   6.544
 5750SOL     OW18148   6.148   2.411   4.135
 5750SOL    HW118149   6.247   2.416   4.149
 5750SOL    HW218150   6.106   2.495   4.167
 5751SOL     OW18151   0.299   3.983   3.873
 5751SOL    HW118152   0.224   3.921   3.851
 5751SOL    HW218153   0.327   3.969   3.968
 5752SOL     OW18154   5.833   1.542   6.667
 5752SOL    HW118155   5.779   1.495   6.736
 5752SOL    HW218156   5.781   1.619   6.630
 5753SOL     OW18157   3.485   3.109   4.316
 5753SOL    HW118158   3.445   3.173   4.250
 5753SOL    HW218159   3.500   3.020   4.272
 5754SOL     OW18160   6.346   6.991   0.859
 5754SOL    HW118161   6.380   0.055   0.821
 5754SOL    HW218162   6.264   7.009   0.913
 5755SOL     OW18163   0.436   3.630   6.402
 5755SOL    HW118164   0.415   3.575   6.483
 5755SOL    HW218165   0.534   3.626   6.384
 5756SOL     OW18166   6.114   6.411   1.762
 5756SOL    HW118167   6.136   6.351   1.840
 5756SOL    HW218168   6.018   6.401   1.738
 5757SOL     OW18169   1.250   1.880   3.652
 5757SOL    HW118170   1.181   1.949   3.628
 5757SOL    HW218171   1.211   1.788   3.640
 5758SOL     OW18172   5.944   6.771   3.015
 5758SOL    HW118173   5.977   6.770   3.109
 5758SOL    HW218174   5.943   6.678   2.979
 5759SOL     OW18175   2.185   6.324   2.898
 5759SOL    HW118176   2.163   6.422   2.899
 5759SOL    HW218177   2.227   6.298   2.985
 5760SOL     OW18178   0.466   2.028   0.243
 5760SOL    HW118179   0.405   2.091   0.195
 5760SOL    HW218180   0.494   1.954   0.181
 5761SOL     OW18181   6.253   6.995   5.347
 5761SOL    HW118182   6.321   0.019   5.405
 5761SOL    HW218183   6.162   7.016   5.381
 5762SOL     OW18184   1.002   5.921   5.642
 5762SOL    HW118185   1.003   5.920   5.742
 5762SOL    HW218186   0.931   5.860   5.609
 5763SOL     OW18187   5.013   0.732   0.040
 5763SOL    HW118188   4.914   0.723   0.044
 5763SOL    HW218189   5.049   0.738   0.133
 5764SOL     OW18190   3.646   6.455   4.290
 5764SOL    HW118191   3.645   6.527   4.222
 5764SOL    HW218192   3.583   6.478   4.365
 5765SOL     OW18193   6.853   6.523   2.621
 5765SOL    HW118194   6.846   6.477   2.532
 5765SOL    HW218195   6.851   6.622   2.608
 5766SOL     OW18196   0.555   0.767   4.780
 5766SOL    HW118197   0.628   0.792   4.843
 5766SOL    HW218198   0.590   0.699   4.715
 5767SOL     OW18199   6.141   6.592   0.322
 5767SOL    HW118200   6.059   6.544   0.291
 5767SOL    HW218201   6.215   6.526   0.334
 5768SOL     OW18202   0.882   0.520   4.956
 5768SOL    HW118203   0.910   0.588   4.888
 5768SOL    HW218204   0.961   0.465   4.982
 5769SOL     OW18205   1.193   2.700   5.986
 5769SOL    HW118206   1.202   2.617   5.930
 5769SOL    HW218207   1.143   2.770   5.935
 5770SOL     OW18208   1.380   3.899   2.571
 5770SOL    HW118209   1.368   3.988   2.615
 5770SOL    HW218210   1.442   3.842   2.626
 5771SOL     OW18211   2.574   6.168   3.166
 5771SOL    HW118212   2.526   6.250   3.198
 5771SOL    HW218213   2.638   6.193   3.093
 5772SOL     OW18214   2.491   0.778   3.140
 5772SOL    HW118215   2.561   0.726   3.188
 5772SOL    HW218216   2.410   0.721   3.127
 5773SOL     OW18217   5.933   0.583   4.474
 5773SOL    HW118218   5.973   0.523   4.405
 5773SOL    HW218219   5.919   0.533   4.559
 5774SOL     OW18220   1.093   5.838   3.578
 5774SOL    HW118221   1.109   5.876   3.669
 5774SOL    HW218222   1.086   5.912   3.511
 5775SOL     OW18223   5.099   4.515   2.467
 5775SOL    HW118224   5.155   4.530   2.548
 5775SOL    HW218225   5.009   4.555   2.481
 5776SOL     OW18226   3.691   0.692   3.973
 5776SOL    HW118227   3.732   0.783   3.980
 5776SOL    HW218228   3.610   0.697   3.914
 5777SOL     OW18229   0.832   0.850   1.818
 5777SOL    HW118230   0.769   0.806   1.883
 5777SOL    HW218231   0.857   0.784   1.747
 5778SOL     OW18232   0.257   0.978   0.128
 5778SOL    HW118233   0.303   1.038   0.193
 5778SOL    HW218234   0.297   0.991   0.037
 5779SOL     OW18235   5.500   1.469   0.207
 5779SOL    HW118236   5.517   1.551   0.261
 5779SOL    HW218237   5.547   1.476   0.119
 5780SOL     OW18238   5.160   4.987   4.457
 5780SOL    HW118239   5.221   5.018   4.384
 5780SOL    HW218240   5.112   5.066   4.496
 5781SOL     OW18241   1.416   6.275   6.006
 5781SOL    HW118242   1.379   6.347   6.064
 5781SOL    HW218243   1.393   6.293   5.910
 5782SOL     OW18244   6.163   0.521   1.170
 5782SOL    HW118245   6.086   0.585   1.166
 5782SOL    HW218246   6.230   0.545   1.099
 5783SOL     OW18247   2.421   2.494   6.476
 5783SOL    HW118248   2.428   2.566   6.545
 5783SOL    HW218249   2.357   2.522   6.404
 5784SOL     OW18250   6.730   6.591   0.560
 5784SOL    HW118251   6.732   6.568   0.463
 5784SOL    HW218252   6.792   6.667   0.578
 5785SOL     OW18253   1.694   1.686   1.729
 5785SOL    HW118254   1.656   1.765   1.777
 5785SOL    HW218255   1.791   1.677   1.750
 5786SOL     OW18256   6.262   5.464   1.944
 5786SOL    HW118257   6.285   5.549   1.896
 5786SOL    HW218258   6.187   5.418   1.896
 5787SOL     OW18259   1.808   3.116   6.572
 5787SOL    HW118260   1.839   3.126   6.478
 5787SOL    HW218261   1.880   3.147   6.634
 5788SOL     OW18262   3.257   0.388   3.290
 5788SOL    HW118263   3.354   0.406   3.308
 5788SOL    HW218264   3.213   0.357   3.375
 5789SOL     OW18265   3.097   4.518   5.973
 5789SOL    HW118266   3.093   4.597   6.034
 5789SOL    HW218267   3.079   4.547   5.879
 5790SOL     OW18268   1.571   3.833   3.918
 5790SOL    HW118269   1.533   3.919   3.951
 5790SOL    HW218270   1.496   3.767   3.906
 5791SOL     OW18271   1.318   0.996   3.527
 5791SOL    HW118272   1.227   1.014   3.489
 5791SOL    HW218273   1.361   0.921   3.478
 5792SOL     OW18274   0.495   2.439   3.158
 5792SOL    HW118275   0.505   2.457   3.256
 5792SOL    HW218276   0.515   2.342   3.140
 5793SOL     OW18277   6.083   1.171   5.515
 5793SOL    HW118278   6.182   1.166   5.512
 5793SOL    HW218279   6.045   1.130   5.432
 5794SOL     OW18280   0.144   3.807   6.539
 5794SOL    HW118281   0.048   3.798   6.510
 5794SOL    HW218282   0.201   3.829   6.461
 5795SOL     OW18283   6.810   4.680   6.549
 5795SOL    HW118284   6.764   4.691   6.637
 5795SOL    HW218285   6.743   4.691   6.475
 5796SOL     OW18286   2.583   2.236   0.797
 5796SOL    HW118287   2.635   2.210   0.878
 5796SOL    HW218288   2.537   2.154   0.760
 5797SOL     OW18289   3.194   3.249   5.378
 5797SOL    HW118290   3.287   3.213   5.385
 5797SOL    HW218291   3.197   3.349   5.372
 5798SOL     OW18292   6.689   4.843   4.046
 5798SOL    HW118293   6.720   4.840   3.951
 5798SOL    HW218294   6.624   4.919   4.057
 5799SOL     OW18295   5.558   0.362   4.056
 5799SOL    HW118296   5.628   0.295   4.081
 5799SOL    HW218297   5.549   0.365   3.956
 5800SOL     OW18298   5.704   6.345   6.874
 5800SOL    HW118299   5.710   6.253   6.836
 5800SOL    HW218300   5.789   6.395   6.854
 5801SOL     OW18301   1.520   1.531   1.880
 5801SOL    HW118302   1.570   1.486   1.954
 5801SOL    HW218303   1.584   1.566   1.812
 5802SOL     OW18304   0.171   2.472   4.446
 5802SOL    HW118305   0.211   2.463   4.354
 5802SOL    HW218306   0.183   2.566   4.478
 5803SOL     OW18307   1.362   5.204   1.319
 5803SOL    HW118308   1.269   5.225   1.351
 5803SOL    HW218309   1.425   5.207   1.397
 5804SOL     OW18310   0.524   3.089   6.085
 5804SOL    HW118311   0.569   3.093   5.995
 5804SOL    HW218312   0.472   3.004   6.091
 5805SOL     OW18313   4.979   3.407   6.817
 5805SOL    HW118314   4.900   3.386   6.875
 5805SOL    HW218315   4.974   3.353   6.733
 5806SOL     OW18316   6.388   6.779   6.138
 5806SOL    HW118317   6.452   6.775   6.060
 5806SOL    HW218318   6.294   6.775   6.104
 5807SOL     OW18319   2.743   4.102   1.482
 5807SOL    HW118320   2.682   4.032   1.520
 5807SOL    HW218321   2.836   4.066   1.476
 5808SOL     OW18322   6.519   1.821   3.337
 5808SOL    HW118323   6.583   1.874   3.392
 5808SOL    HW218324   6.463   1.883   3.282
 5809SOL     OW18325   0.630   2.552   3.959
 5809SOL    HW118326   0.710   2.595   4.002
 5809SOL    HW218327   0.628   2.455   3.983
 5810SOL     OW18328   3.021   2.090   2.736
 5810SOL    HW118329   3.114   2.055   2.752
 5810SOL    HW218330   3.009   2.110   2.639
 5811SOL     OW18331   2.695   0.232   1.789
 5811SOL    HW118332   2.632   0.225   1.867
 5811SOL    HW218333   2.766   0.161   1.798
 5812SOL     OW18334   4.447   0.517   4.511
 5812SOL    HW118335   4.451   0.617   4.506
 5812SOL    HW218336   4.538   0.480   4.498
 5813SOL     OW18337   1.793   1.875   5.221
 5813SOL    HW118338   1.842   1.933   5.156
 5813SOL    HW218339   1.716   1.926   5.260
 5814SOL     OW18340   0.431   5.218   1.350
 5814SOL    HW118341   0.361   5.175   1.407
 5814SOL    HW218342   0.478   5.147   1.297
 5815SOL     OW18343   4.237   6.747   4.522
 5815SOL    HW118344   4.228   6.654   4.558
 5815SOL    HW218345   4.332   6.778   4.534
 5816SOL     OW18346   5.336   6.469   0.177
 5816SOL    HW118347   5.296   6.393   0.229
 5816SOL    HW218348   5.422   6.438   0.135
 5817SOL     OW18349   6.022   2.719   6.569
 5817SOL    HW118350   5.939   2.663   6.569
 5817SOL    HW218351   6.006   2.803   6.518
 5818SOL     OW18352   6.518   6.849   4.895
 5818SOL    HW118353   6.468   6.826   4.812
 5818SOL    HW218354   6.453   6.869   4.969
 5819SOL     OW18355   6.717   0.128   1.191
 5819SOL    HW118356   6.772   0.059   1.145
 5819SOL    HW218357   6.777   0.190   1.242
 5820SOL     OW18358   5.363   4.887   1.798
 5820SOL    HW118359   5.371   4.850   1.891
 5820SOL    HW218360   5.418   4.831   1.736
 5821SOL     OW18361   3.007   6.903   2.422
 5821SOL    HW118362   2.968   6.850   2.347
 5821SOL    HW218363   2.965   6.994   2.424
 5822SOL     OW18364   0.253   1.013   2.570
 5822SOL    HW118365   0.224   1.008   2.666
 5822SOL    HW218366   0.216   0.935   2.521
 5823SOL     OW18367   1.770   2.621   3.960
 5823SOL    HW118368   1.687   2.676   3.967
 5823SOL    HW218369   1.768   2.569   3.875
 5824SOL     OW18370   4.934   0.243   3.613
 5824SOL    HW118371   4.882   0.326   3.630
 5824SOL    HW218372   4.928   0.220   3.515
 5825SOL     OW18373   3.348   1.333   1.652
 5825SOL    HW118374   3.342   1.268   1.577
 5825SOL    HW218375   3.287   1.410   1.635
 5826SOL     OW18376   0.473   6.750   3.643
 5826SOL    HW118377   0.378   6.730   3.622
 5826SOL    HW218378   0.514   6.803   3.569
 5827SOL     OW18379   1.738   4.858   5.529
 5827SOL    HW118380   1.737   4.761   5.554
 5827SOL    HW218381   1.828   4.882   5.493
 5828SOL     OW18382   6.174   1.935   1.368
 5828SOL    HW118383   6.258   1.924   1.421
 5828SOL    HW218384   6.175   1.871   1.291
 5829SOL     OW18385   2.160   1.741   1.294
 5829SOL    HW118386   2.114   1.654   1.314
 5829SOL    HW218387   2.105   1.793   1.229
 5830SOL     OW18388   1.429   0.855   5.784
 5830SOL    HW118389   1.475   0.937   5.751
 5830SOL    HW218390   1.382   0.875   5.870
 5831SOL     OW18391   5.752   5.455   2.918
 5831SOL    HW118392   5.742   5.396   2.838
 5831SOL    HW218393   5.700   5.539   2.903
 5832SOL     OW18394   3.648   3.488   4.724
 5832SOL    HW118395   3.572   3.433   4.759
 5832SOL    HW218396   3.619   3.536   4.641
 5833SOL     OW18397   3.115   3.015   4.833
 5833SOL    HW118398   3.100   2.917   4.818
 5833SOL    HW218399   3.075   3.066   4.757
 5834SOL     OW18400   6.180   1.101   6.894
 5834SOL    HW118401   6.147   1.150   6.813
 5834SOL    HW218402   6.205   1.008   6.868
 5835SOL     OW18403   5.386   2.939   4.042
 5835SOL    HW118404   5.460   2.890   3.995
 5835SOL    HW218405   5.304   2.937   3.984
 5836SOL     OW18406   3.495   0.211   3.741
 5836SOL    HW118407   3.519   0.127   3.692
 5836SOL    HW218408   3.557   0.224   3.818
 5837SOL     OW18409   4.276   3.779   6.436
 5837SOL    HW118410   4.355   3.839   6.419
 5837SOL    HW218411   4.210   3.826   6.495
 5838SOL     OW18412   0.597   1.382   5.943
 5838SOL    HW118413   0.499   1.362   5.950
 5838SOL    HW218414   0.625   1.377   5.847
 5839SOL     OW18415   7.014   2.389   2.518
 5839SOL    HW118416   0.059   2.388   2.444
 5839SOL    HW218417   6.971   2.299   2.526
 5840SOL     OW18418   3.476   5.715   0.710
 5840SOL    HW118419   3.507   5.703   0.804
 5840SOL    HW218420   3.421   5.635   0.683
 5841SOL     OW18421   6.260   1.962   3.275
 5841SOL    HW118422   6.212   1.875   3.280
 5841SOL    HW218423   6.228   2.023   3.347
 5842SOL     OW18424   3.628   1.925   1.218
 5842SOL    HW118425   3.590   1.939   1.309
 5842SOL    HW218426   3.661   2.012   1.182
 5843SOL     OW18427   0.383   2.535   1.233
 5843SOL    HW118428   0.379   2.601   1.158
 5843SOL    HW218429   0.451   2.465   1.211
 5844SOL     OW18430   1.552   6.603   6.337
 5844SOL    HW118431   1.511   6.520   6.375
 5844SOL    HW218432   1.612   6.578   6.261
 5845SOL     OW18433   1.656   2.849   4.799
 5845SOL    HW118434   1.591   2.814   4.866
 5845SOL    HW218435   1.743   2.870   4.845
 5846SOL     OW18436   0.339   3.729   6.975
 5846SOL    HW118437   0.358   3.668   0.030
 5846SOL    HW218438   0.383   3.818   6.991
 5847SOL     OW18439   1.639   2.560   4.298
 5847SOL    HW118440   1.622   2.604   4.386
 5847SOL    HW218441   1.598   2.469   4.296
 5848SOL     OW18442   0.692   4.581   3.496
 5848SOL    HW118443   0.744   4.625   3.422
 5848SOL    HW218444   0.755   4.540   3.562
 5849SOL     OW18445   2.740   0.134   6.055
 5849SOL    HW118446   2.727   0.218   6.003
 5849SOL    HW218447   2.663   0.123   6.119
 5850SOL     OW18448   0.935   4.161   3.076
 5850SOL    HW118449   0.869   4.088   3.061
 5850SOL    HW218450   1.021   4.122   3.109
 5851SOL     OW18451   6.388   2.872   2.004
 5851SOL    HW118452   6.444   2.943   1.961
 5851SOL    HW218453   6.390   2.885   2.103
 5852SOL     OW18454   3.797   6.185   3.203
 5852SOL    HW118455   3.762   6.225   3.288
 5852SOL    HW218456   3.892   6.212   3.189
 5853SOL     OW18457   4.832   4.074   5.259
 5853SOL    HW118458   4.871   4.149   5.312
 5853SOL    HW218459   4.782   4.111   5.180
 5854SOL     OW18460   0.952   1.326   6.893
 5854SOL    HW118461   1.020   1.396   6.913
 5854SOL    HW218462   0.860   1.364   6.905
 5855SOL     OW18463   1.532   1.758   4.493
 5855SOL    HW118464   1.627   1.774   4.519
 5855SOL    HW218465   1.484   1.712   4.568
 5856SOL     OW18466   1.052   5.975   3.324
 5856SOL    HW118467   1.142   5.985   3.282
 5856SOL    HW218468   0.988   6.038   3.281
 5857SOL     OW18469   0.149   2.450   5.093
 5857SOL    HW118470   0.248   2.454   5.078
 5857SOL    HW218471   0.114   2.362   5.059
 5858SOL     OW18472   2.936   6.851   3.895
 5858SOL    HW118473   2.932   6.951   3.894
 5858SOL    HW218474   2.872   6.814   3.828
 5859SOL     OW18475   5.892   5.526   1.952
 5859SOL    HW118476   5.912   5.536   2.050
 5859SOL    HW218477   5.810   5.470   1.940
 5860SOL     OW18478   6.872   4.512   0.841
 5860SOL    HW118479   6.895   4.457   0.921
 5860SOL    HW218480   6.774   4.507   0.823
 5861SOL     OW18481   6.119   1.504   4.073
 5861SOL    HW118482   6.128   1.483   3.975
 5861SOL    HW218483   6.078   1.425   4.120
 5862SOL     OW18484   5.745   4.949   3.912
 5862SOL    HW118485   5.817   4.978   3.976
 5862SOL    HW218486   5.656   4.974   3.949
 5863SOL     OW18487   2.225   1.220   0.163
 5863SOL    HW118488   2.226   1.295   0.228
 5863SOL    HW218489   2.179   1.249   0.079
 5864SOL     OW18490   4.922   4.957   0.981
 5864SOL    HW118491   4.838   4.963   1.035
 5864SOL    HW218492   4.902   4.976   0.885
 5865SOL     OW18493   4.441   1.008   2.908
 5865SOL    HW118494   4.511   1.048   2.966
 5865SOL    HW218495   4.483   0.971   2.825
 5866SOL     OW18496   3.314   1.539   6.833
 5866SOL    HW118497   3.321   1.553   6.932
 5866SOL    HW218498   3.249   1.605   6.795
 5867SOL     OW18499   6.644   2.993   1.922
 5867SOL    HW118500   6.657   2.949   1.834
 5867SOL    HW218501   6.723   3.050   1.943
 5868SOL     OW18502   0.313   6.324   5.214
 5868SOL    HW118503   0.354   6.301   5.126
 5868SOL    HW218504   0.292   6.239   5.263
 5869SOL     OW18505   2.416   4.912   4.345
 5869SOL    HW118506   2.372   4.842   4.288
 5869SOL    HW218507   2.480   4.868   4.408
 5870SOL     OW18508   5.154   5.704   3.966
 5870SOL    HW118509   5.085   5.633   3.979
 5870SOL    HW218510   5.113   5.794   3.982
 5871SOL     OW18511   3.240   4.490   0.456
 5871SOL    HW118512   3.243   4.466   0.553
 5871SOL    HW218513   3.305   4.433   0.405
 5872SOL     OW18514   4.297   5.782   3.899
 5872SOL    HW118515   4.376   5.809   3.953
 5872SOL    HW218516   4.276   5.686   3.916
 5873SOL     OW18517   2.141   2.839   0.326
 5873SOL    HW118518   2.228   2.832   0.375
 5873SOL    HW218519   2.115   2.935   0.318
 5874SOL     OW18520   0.808   4.468   6.447
 5874SOL    HW118521   0.833   4.373   6.429
 5874SOL    HW218522   0.851   4.528   6.380
 5875SOL     OW18523   4.007   2.039   1.218
 5875SOL    HW118524   3.999   1.976   1.296
 5875SOL    HW218525   4.100   2.035   1.182
 5876SOL     OW18526   4.486   3.684   5.842
 5876SOL    HW118527   4.418   3.757   5.840
 5876SOL    HW218528   4.466   3.621   5.918
 5877SOL     OW18529   5.323   0.218   2.798
 5877SOL    HW118530   5.270   0.215   2.884
 5877SOL    HW218531   5.270   0.266   2.729
 5878SOL     OW18532   4.946   3.241   2.998
 5878SOL    HW118533   4.902   3.316   3.047
 5878SOL    HW218534   5.028   3.275   2.951
 5879SOL     OW18535   3.038   4.893   5.044
 5879SOL    HW118536   3.097   4.914   4.966
 5879SOL    HW218537   2.981   4.813   5.022
 5880SOL     OW18538   6.127   2.571   0.104
 5880SOL    HW118539   6.119   2.514   0.186
 5880SOL    HW218540   6.037   2.605   0.078
 5881SOL     OW18541   1.047   6.012   2.782
 5881SOL    HW118542   1.069   5.926   2.736
 5881SOL    HW218543   0.993   5.993   2.864
 5882SOL     OW18544   1.655   5.527   5.256
 5882SOL    HW118545   1.613   5.551   5.169
 5882SOL    HW218546   1.595   5.555   5.331
 5883SOL     OW18547   0.190   5.625   0.318
 5883SOL    HW118548   0.140   5.605   0.234
 5883SOL    HW218549   0.135   5.599   0.397
 5884SOL     OW18550   0.264   1.402   2.298
 5884SOL    HW118551   0.195   1.445   2.241
 5884SOL    HW218552   0.278   1.457   2.381
 5885SOL     OW18553   6.965   5.770   1.758
 5885SOL    HW118554   6.937   5.766   1.662
 5885SOL    HW218555   6.913   5.703   1.811
 5886SOL     OW18556   1.782   4.728   3.389
 5886SOL    HW118557   1.841   4.806   3.411
 5886SOL    HW218558   1.833   4.643   3.404
 5887SOL     OW18559   2.358   4.040   0.944
 5887SOL    HW118560   2.414   3.960   0.963
 5887SOL    HW218561   2.303   4.062   1.025
 5888SOL     OW18562   2.947   6.160   1.588
 5888SOL    HW118563   2.931   6.185   1.684
 5888SOL    HW218564   3.037   6.193   1.560
 5889SOL     OW18565   4.987   1.685   1.936
 5889SOL    HW118566   4.894   1.716   1.916
 5889SOL    HW218567   5.039   1.677   1.850
 5890SOL     OW18568   2.518   4.658   3.178
 5890SOL    HW118569   2.442   4.598   3.200
 5890SOL    HW218570   2.491   4.722   3.106
 5891SOL     OW18571   2.693   2.736   6.731
 5891SOL    HW118572   2.752   2.678   6.675
 5891SOL    HW218573   2.598   2.709   6.717
 5892SOL     OW18574   0.281   2.706   0.848
 5892SOL    HW118575   0.378   2.717   0.867
 5892SOL    HW218576   0.250   2.617   0.881
 5893SOL     OW18577   0.212   6.124   1.378
 5893SOL    HW118578   0.258   6.148   1.292
 5893SOL    HW218579   0.280   6.106   1.449
 5894SOL     OW18580   2.301   4.959   6.128
 5894SOL    HW118581   2.270   4.921   6.215
 5894SOL    HW218582   2.401   4.956   6.124
 5895SOL     OW18583   6.113   2.816   3.857
 5895SOL    HW118584   6.164   2.747   3.805
 5895SOL    HW218585   6.056   2.869   3.794
 5896SOL     OW18586   5.520   2.621   1.073
 5896SOL    HW118587   5.592   2.560   1.104
 5896SOL    HW218588   5.479   2.585   0.989
 5897SOL     OW18589   3.814   3.187   0.363
 5897SOL    HW118590   3.738   3.219   0.307
 5897SOL    HW218591   3.779   3.137   0.442
 5898SOL     OW18592   3.473   0.734   6.640
 5898SOL    HW118593   3.463   0.794   6.561
 5898SOL    HW218594   3.385   0.727   6.687
 5899SOL     OW18595   0.448   0.348   0.109
 5899SOL    HW118596   0.518   0.357   0.038
 5899SOL    HW218597   0.407   0.438   0.126
 5900SOL     OW18598   5.539   6.498   2.892
 5900SOL    HW118599   5.573   6.520   2.801
 5900SOL    HW218600   5.463   6.433   2.885
 5901SOL     OW18601   1.256   0.823   4.929
 5901SOL    HW118602   1.263   0.915   4.889
 5901SOL    HW218603   1.346   0.794   4.961
 5902SOL     OW18604   4.036   3.733   6.183
 5902SOL    HW118605   4.100   3.656   6.190
 5902SOL    HW218606   3.989   3.745   6.271
 5903SOL     OW18607   5.709   1.625   5.108
 5903SOL    HW118608   5.656   1.560   5.161
 5903SOL    HW218609   5.744   1.581   5.025
 5904SOL     OW18610   6.837   4.960   1.893
 5904SOL    HW118611   6.901   5.034   1.912
 5904SOL    HW218612   6.767   4.957   1.964
 5905SOL     OW18613   6.319   2.283   4.696
 5905SOL    HW118614   6.292   2.291   4.600
 5905SOL    HW218615   6.237   2.283   4.753
 5906SOL     OW18616   4.030   0.677   4.674
 5906SOL    HW118617   4.072   0.601   4.723
 5906SOL    HW218618   4.002   0.646   4.582
 5907SOL     OW18619   0.426   3.512   5.729
 5907SOL    HW118620   0.394   3.468   5.645
 5907SOL    HW218621   0.489   3.451   5.777
 5908SOL     OW18622   4.493   3.422   6.433
 5908SOL    HW118623   4.525   3.468   6.350
 5908SOL    HW218624   4.571   3.400   6.491
 5909SOL     OW18625   6.324   4.797   3.311
 5909SOL    HW118626   6.296   4.753   3.226
 5909SOL    HW218627   6.414   4.838   3.300
 5910SOL     OW18628   2.736   4.350   1.551
 5910SOL    HW118629   2.721   4.257   1.518
 5910SOL    HW218630   2.832   4.360   1.579
 5911SOL     OW18631   6.393   0.659   5.638
 5911SOL    HW118632   6.396   0.683   5.541
 5911SOL    HW218633   6.331   0.581   5.651
 5912SOL     OW18634   0.655   3.713   6.073
 5912SOL    HW118635   0.734   3.670   6.030
 5912SOL    HW218636   0.615   3.651   6.139
 5913SOL     OW18637   1.622   2.664   4.552
 5913SOL    HW118638   1.647   2.717   4.633
 5913SOL    HW218639   1.584   2.576   4.580
 5914SOL     OW18640   1.336   5.517   0.377
 5914SOL    HW118641   1.241   5.546   0.376
 5914SOL    HW218642   1.351   5.447   0.307
 5915SOL     OW18643   5.666   4.172   4.376
 5915SOL    HW118644   5.608   4.237   4.424
 5915SOL    HW218645   5.634   4.078   4.393
 5916SOL     OW18646   3.152   1.051   6.479
 5916SOL    HW118647   3.199   1.114   6.541
 5916SOL    HW218648   3.160   1.085   6.385
 5917SOL     OW18649   3.540   4.038   2.210
 5917SOL    HW118650   3.610   4.110   2.212
 5917SOL    HW218651   3.468   4.060   2.276
 5918SOL     OW18652   2.814   1.774   4.219
 5918SOL    HW118653   2.877   1.846   4.248
 5918SOL    HW218654   2.865   1.689   4.206
 5919SOL     OW18655   1.538   1.959   6.584
 5919SOL    HW118656   1.616   1.957   6.521
 5919SOL    HW218657   1.567   1.999   6.671
 5920SOL     OW18658   2.217   4.734   6.639
 5920SOL    HW118659   2.132   4.783   6.655
 5920SOL    HW218660   2.276   4.742   6.719
 5921SOL     OW18661   3.788   6.093   4.614
 5921SOL    HW118662   3.737   6.137   4.689
 5921SOL    HW218663   3.780   6.149   4.532
 5922SOL     OW18664   6.776   5.478   2.156
 5922SOL    HW118665   6.678   5.480   2.138
 5922SOL    HW218666   6.804   5.385   2.179
 5923SOL     OW18667   0.543   0.690   3.134
 5923SOL    HW118668   0.553   0.649   3.043
 5923SOL    HW218669   0.453   0.734   3.141
 5924SOL     OW18670   5.687   1.924   4.662
 5924SOL    HW118671   5.620   1.984   4.706
 5924SOL    HW218672   5.749   1.979   4.606
 5925SOL     OW18673   6.663   5.901   0.539
 5925SOL    HW118674   6.701   5.924   0.450
 5925SOL    HW218675   6.687   5.972   0.605
 5926SOL     OW18676   2.858   6.260   1.834
 5926SOL    HW118677   2.799   6.207   1.895
 5926SOL    HW218678   2.882   6.346   1.878
 5927SOL     OW18679   2.185   5.243   1.163
 5927SOL    HW118680   2.113   5.286   1.108
 5927SOL    HW218681   2.235   5.177   1.107
 5928SOL     OW18682   6.827   6.160   1.194
 5928SOL    HW118683   6.873   6.227   1.251
 5928SOL    HW218684   6.818   6.195   1.100
 5929SOL     OW18685   0.183   0.021   5.982
 5929SOL    HW118686   0.272   0.028   6.028
 5929SOL    HW218687   0.152   6.947   5.985
 5930SOL     OW18688   6.235   1.308   5.171
 5930SOL    HW118689   6.188   1.362   5.101
 5930SOL    HW218690   6.308   1.363   5.212
 5931SOL     OW18691   5.408   4.837   0.542
 5931SOL    HW118692   5.427   4.779   0.463
 5931SOL    HW218693   5.495   4.868   0.582
 5932SOL     OW18694   2.333   0.248   0.312
 5932SOL    HW118695   2.428   0.274   0.295
 5932SOL    HW218696   2.284   0.243   0.225
 5933SOL     OW18697   6.059   2.177   3.076
 5933SOL    HW118698   6.025   2.270   3.091
 5933SOL    HW218699   6.009   2.114   3.135
 5934SOL     OW18700   4.189   3.263   2.015
 5934SOL    HW118701   4.270   3.206   2.027
 5934SOL    HW218702   4.143   3.239   1.929
 5935SOL     OW18703   3.776   2.922   2.727
 5935SOL    HW118704   3.797   2.939   2.631
 5935SOL    HW218705   3.763   2.824   2.741
 5936SOL     OW18706   6.492   6.279   6.725
 5936SOL    HW118707   6.512   6.200   6.667
 5936SOL    HW218708   6.457   6.248   6.813
 5937SOL     OW18709   0.784   4.469   0.150
 5937SOL    HW118710   0.685   4.457   0.138
 5937SOL    HW218711   0.801   4.556   0.197
 5938SOL     OW18712   2.710   5.054   0.859
 5938SOL    HW118713   2.723   4.963   0.897
 5938SOL    HW218714   2.674   5.115   0.930
 5939SOL     OW18715   1.241   0.724   2.409
 5939SOL    HW118716   1.254   0.767   2.320
 5939SOL    HW218717   1.289   0.636   2.410
 5940SOL     OW18718   3.827   4.833   2.863
 5940SOL    HW118719   3.730   4.847   2.886
 5940SOL    HW218720   3.844   4.867   2.770
 5941SOL     OW18721   6.111   2.535   3.664
 5941SOL    HW118722   6.187   2.595   3.641
 5941SOL    HW218723   6.055   2.518   3.583
 5942SOL     OW18724   0.024   1.265   4.695
 5942SOL    HW118725   0.086   1.238   4.768
 5942SOL    HW218726   0.038   1.362   4.674
 5943SOL     OW18727   1.697   5.391   1.097
 5943SOL    HW118728   1.616   5.443   1.071
 5943SOL    HW218729   1.675   5.331   1.173
 5944SOL     OW18730   5.302   2.773   2.748
 5944SOL    HW118731   5.380   2.835   2.734
 5944SOL    HW218732   5.219   2.815   2.712
 5945SOL     OW18733   6.769   5.746   6.105
 5945SOL    HW118734   6.762   5.712   6.199
 5945SOL    HW218735   6.775   5.668   6.042
 5946SOL     OW18736   3.807   2.492   5.357
 5946SOL    HW118737   3.777   2.486   5.452
 5946SOL    HW218738   3.883   2.555   5.349
 5947SOL     OW18739   5.033   3.699   2.723
 5947SOL    HW118740   4.937   3.711   2.699
 5947SOL    HW218741   5.088   3.769   2.678
 5948SOL     OW18742   2.465   5.699   3.244
 5948SOL    HW118743   2.454   5.677   3.341
 5948SOL    HW218744   2.558   5.731   3.228
 5949SOL     OW18745   4.723   4.293   2.964
 5949SOL    HW118746   4.733   4.241   3.049
 5949SOL    HW218747   4.636   4.343   2.966
 5950SOL     OW18748   6.611   2.012   4.514
 5950SOL    HW118749   6.552   1.996   4.593
 5950SOL    HW218750   6.702   2.040   4.545
 5951SOL     OW18751   2.201   0.851   3.560
 5951SOL    HW118752   2.213   0.933   3.503
 5951SOL    HW218753   2.111   0.811   3.541
 5952SOL     OW18754   0.403   6.440   4.091
 5952SOL    HW118755   0.416   6.509   4.019
 5952SOL    HW218756   0.309   6.445   4.124
 5953SOL     OW18757   0.406   3.579   6.116
 5953SOL    HW118758   0.393   3.585   6.215
 5953SOL    HW218759   0.372   3.491   6.083
 5954SOL     OW18760   1.405   5.009   6.244
 5954SOL    HW118761   1.327   4.951   6.219
 5954SOL    HW218762   1.409   5.088   6.184
 5955SOL     OW18763   3.936   5.584   2.486
 5955SOL    HW118764   3.872   5.519   2.527
 5955SOL    HW218765   3.958   5.555   2.393
 5956SOL     OW18766   0.178   2.144   7.016
 5956SOL    HW118767   0.153   2.057   0.039
 5956SOL    HW218768   0.230   2.200   0.059
 5957SOL     OW18769   4.375   6.574   5.811
 5957SOL    HW118770   4.419   6.485   5.823
 5957SOL    HW218771   4.342   6.583   5.717
 5958SOL     OW18772   1.147   5.392   2.332
 5958SOL    HW118773   1.224   5.357   2.279
 5958SOL    HW218774   1.152   5.492   2.336
 5959SOL     OW18775   1.608   0.583   6.103
 5959SOL    HW118776   1.518   0.544   6.084
 5959SOL    HW218777   1.641   0.632   6.023
 5960SOL     OW18778   3.698   5.968   5.322
 5960SOL    HW118779   3.702   5.913   5.239
 5960SOL    HW218780   3.727   6.062   5.302
 5961SOL     OW18781   2.715   1.006   5.573
 5961SOL    HW118782   2.713   1.096   5.617
 5961SOL    HW218783   2.622   0.976   5.553
 5962SOL     OW18784   5.415   4.491   2.510
 5962SOL    HW118785   5.400   4.436   2.428
 5962SOL    HW218786   5.482   4.563   2.491
 5963SOL     OW18787   4.240   4.389   1.721
 5963SOL    HW118788   4.164   4.325   1.735
 5963SOL    HW218789   4.321   4.356   1.769
 5964SOL     OW18790   1.408   3.394   5.430
 5964SOL    HW118791   1.439   3.468   5.370
 5964SOL    HW218792   1.366   3.433   5.512
 5965SOL     OW18793   1.987   1.822   4.180
 5965SOL    HW118794   2.027   1.822   4.089
 5965SOL    HW218795   1.887   1.817   4.172
 5966SOL     OW18796   1.737   6.388   4.326
 5966SOL    HW118797   1.817   6.441   4.298
 5966SOL    HW218798   1.734   6.382   4.425
 5967SOL     OW18799   4.645   5.268   1.150
 5967SOL    HW118800   4.736   5.294   1.182
 5967SOL    HW218801   4.644   5.170   1.126
 5968SOL     OW18802   1.348   1.933   4.393
 5968SOL    HW118803   1.422   1.867   4.408
 5968SOL    HW218804   1.352   1.965   4.298
 5969SOL     OW18805   0.598   1.952   2.772
 5969SOL    HW118806   0.509   1.975   2.811
 5969SOL    HW218807   0.648   2.036   2.752
 5970SOL     OW18808   2.161   4.005   3.600
 5970SOL    HW118809   2.112   4.090   3.620
 5970SOL    HW218810   2.248   4.004   3.648
 5971SOL     OW18811   2.980   5.656   3.425
 5971SOL    HW118812   3.050   5.671   3.356
 5971SOL    HW218813   2.932   5.743   3.443
 5972SOL     OW18814   6.004   0.318   1.767
 5972SOL    HW118815   6.074   0.376   1.809
 5972SOL    HW218816   5.956   0.267   1.838
 5973SOL     OW18817   2.523   4.933   3.405
 5973SOL    HW118818   2.573   5.006   3.357
 5973SOL    HW218819   2.571   4.846   3.392
 5974SOL     OW18820   1.000   4.283   6.414
 5974SOL    HW118821   1.096   4.309   6.409
 5974SOL    HW218822   0.988   4.190   6.379
 5975SOL     OW18823   2.188   2.274   6.469
 5975SOL    HW118824   2.194   2.327   6.553
 5975SOL    HW218825   2.193   2.335   6.390
 5976SOL     OW18826   3.594   3.616   4.493
 5976SOL    HW118827   3.517   3.664   4.451
 5976SOL    HW218828   3.678   3.670   4.481
 5977SOL     OW18829   0.502   3.449   2.593
 5977SOL    HW118830   0.431   3.417   2.656
 5977SOL    HW218831   0.561   3.515   2.639
 5978SOL     OW18832   5.213   5.565   1.822
 5978SOL    HW118833   5.172   5.631   1.759
 5978SOL    HW218834   5.313   5.573   1.819
 5979SOL     OW18835   0.909   1.164   1.660
 5979SOL    HW118836   0.933   1.192   1.753
 5979SOL    HW218837   0.833   1.100   1.662
 5980SOL     OW18838   5.914   2.768   5.421
 5980SOL    HW118839   5.899   2.672   5.445
 5980SOL    HW218840   5.925   2.822   5.505
 5981SOL     OW18841   3.276   2.186   0.573
 5981SOL    HW118842   3.211   2.225   0.509
 5981SOL    HW218843   3.324   2.259   0.621
 5982SOL     OW18844   6.427   2.732   6.820
 5982SOL    HW118845   6.416   2.680   6.904
 5982SOL    HW218846   6.408   2.829   6.837
 5983SOL     OW18847   0.637   0.324   4.567
 5983SOL    HW118848   0.650   0.241   4.620
 5983SOL    HW218849   0.661   0.307   4.472
 5984SOL     OW18850   0.739   0.343   5.929
 5984SOL    HW118851   0.673   0.404   5.884
 5984SOL    HW218852   0.767   0.271   5.866
 5985SOL     OW18853   5.902   3.233   4.109
 5985SOL    HW118854   5.837   3.197   4.043
 5985SOL    HW218855   5.853   3.286   4.179
 5986SOL     OW18856   3.219   3.720   2.773
 5986SOL    HW118857   3.165   3.683   2.849
 5986SOL    HW218858   3.192   3.677   2.688
 5987SOL     OW18859   4.211   0.299   5.372
 5987SOL    HW118860   4.267   0.248   5.437
 5987SOL    HW218861   4.185   0.387   5.412
 5988SOL     OW18862   3.906   6.522   6.031
 5988SOL    HW118863   3.865   6.565   5.951
 5988SOL    HW218864   3.866   6.431   6.044
 5989SOL     OW18865   3.129   1.713   6.677
 5989SOL    HW118866   3.053   1.726   6.612
 5989SOL    HW218867   3.210   1.761   6.643
 5990SOL     OW18868   3.221   5.494   2.996
 5990SOL    HW118869   3.245   5.496   2.899
 5990SOL    HW218870   3.224   5.400   3.029
 5991SOL     OW18871   3.435   4.901   3.218
 5991SOL    HW118872   3.383   4.967   3.165
 5991SOL    HW218873   3.385   4.877   3.300
 5992SOL     OW18874   3.922   1.694   4.476
 5992SOL    HW118875   3.844   1.720   4.419
 5992SOL    HW218876   3.941   1.767   4.541
 5993SOL     OW18877   2.772   5.116   3.630
 5993SOL    HW118878   2.859   5.127   3.677
 5993SOL    HW218879   2.723   5.038   3.667
 5994SOL     OW18880   6.365   2.259   0.007
 5994SOL    HW118881   6.322   2.223   0.089
 5994SOL    HW218882   6.306   2.330   6.988
 5995SOL     OW18883   0.345   3.843   2.091
 5995SOL    HW118884   0.322   3.854   2.187
 5995SOL    HW218885   0.439   3.809   2.083
 5996SOL     OW18886   1.553   5.910   6.117
 5996SOL    HW118887   1.588   5.845   6.184
 5996SOL    HW218888   1.552   5.868   6.027
 5997SOL     OW18889   0.893   0.707   1.597
 5997SOL    HW118890   0.875   0.721   1.500
 5997SOL    HW218891   0.893   0.609   1.618
 5998SOL     OW18892   5.367   3.061   3.475
 5998SOL    HW118893   5.344   3.040   3.380
 5998SOL    HW218894   5.375   2.977   3.527
 5999SOL     OW18895   2.429   2.678   2.890
 5999SOL    HW118896   2.508   2.620   2.867
 5999SOL    HW218897   2.374   2.634   2.961
 6000SOL     OW18898   4.804   1.390   3.348
 6000SOL    HW118899   4.846   1.372   3.259
 6000SOL    HW218900   4.704   1.395   3.337
 6001SOL     OW18901   6.176   1.324   0.324
 6001SOL    HW118902   6.125   1.286   0.402
 6001SOL    HW218903   6.236   1.254   0.286
 6002SOL     OW18904   2.356   0.050   2.147
 6002SOL    HW118905   2.282   0.117   2.151
 6002SOL    HW218906   2.321   6.985   2.112
 6003SOL     OW18907   4.683   4.344   3.647
 6003SOL    HW118908   4.725   4.415   3.703
 6003SOL    HW218909   4.656   4.267   3.704
 6004SOL     OW18910   0.559   3.196   1.798
 6004SOL    HW118911   0.634   3.130   1.807
 6004SOL    HW218912   0.581   3.278   1.851
 6005SOL     OW18913   1.852   6.116   2.529
 6005SOL    HW118914   1.780   6.177   2.495
 6005SOL    HW218915   1.811   6.031   2.562
 6006SOL     OW18916   2.317   5.367   6.949
 6006SOL    HW118917   2.292   5.463   6.963
 6006SOL    HW218918   2.404   5.348   6.993
 6007SOL     OW18919   5.665   3.612   4.603
 6007SOL    HW118920   5.573   3.576   4.614
 6007SOL    HW218921   5.727   3.565   4.665
 6008SOL     OW18922   4.749   3.954   1.885
 6008SOL    HW118923   4.748   4.046   1.846
 6008SOL    HW218924   4.673   3.901   1.846
 6009SOL     OW18925   4.181   1.439   4.882
 6009SOL    HW118926   4.086   1.408   4.878
 6009SOL    HW218927   4.203   1.489   4.798
 6010SOL     OW18928   1.925   4.486   3.404
 6010SOL    HW118929   1.927   4.389   3.430
 6010SOL    HW218930   2.016   4.525   3.414
 6011SOL     OW18931   6.360   2.013   2.116
 6011SOL    HW118932   6.264   1.984   2.119
 6011SOL    HW218933   6.408   1.976   2.196
 6012SOL     OW18934   0.902   3.005   1.078
 6012SOL    HW118935   0.965   3.046   1.012
 6012SOL    HW218936   0.870   2.917   1.044
 6013SOL     OW18937   5.498   0.410   2.534
 6013SOL    HW118938   5.507   0.393   2.436
 6013SOL    HW218939   5.428   0.479   2.549
 6014SOL     OW18940   6.362   0.895   0.729
 6014SOL    HW118941   6.337   0.948   0.810
 6014SOL    HW218942   6.362   0.797   0.751
 6015SOL     OW18943   5.940   0.073   4.445
 6015SOL    HW118944   5.865   0.036   4.388
 6015SOL    HW218945   5.935   0.173   4.444
 6016SOL     OW18946   1.532   0.336   5.724
 6016SOL    HW118947   1.604   0.394   5.685
 6016SOL    HW218948   1.446   0.388   5.727
 6017SOL     OW18949   6.950   3.656   2.422
 6017SOL    HW118950   6.891   3.576   2.411
 6017SOL    HW218951   6.992   3.679   2.334
 6018SOL     OW18952   3.265   4.917   1.137
 6018SOL    HW118953   3.205   4.879   1.209
 6018SOL    HW218954   3.357   4.880   1.148
 6019SOL     OW18955   6.378   6.405   3.153
 6019SOL    HW118956   6.464   6.357   3.168
 6019SOL    HW218957   6.389   6.501   3.179
 6020SOL     OW18958   2.127   6.579   2.912
 6020SOL    HW118959   2.121   6.625   2.823
 6020SOL    HW218960   2.129   6.647   2.985
 6021SOL     OW18961   3.091   0.642   3.365
 6021SOL    HW118962   3.121   0.548   3.344
 6021SOL    HW218963   3.053   0.684   3.283
 6022SOL     OW18964   3.778   1.218   5.546
 6022SOL    HW118965   3.755   1.136   5.600
 6022SOL    HW218966   3.871   1.208   5.509
 6023SOL     OW18967   0.375   2.004   2.010
 6023SOL    HW118968   0.344   2.095   1.983
 6023SOL    HW218969   0.445   1.973   1.946
 6024SOL     OW18970   6.298   5.758   2.958
 6024SOL    HW118971   6.199   5.770   2.952
 6024SOL    HW218972   6.343   5.824   2.898
 6025SOL     OW18973   4.443   2.087   2.627
 6025SOL    HW118974   4.526   2.056   2.673
 6025SOL    HW218975   4.406   2.012   2.571
 6026SOL     OW18976   0.688   4.401   5.665
 6026SOL    HW118977   0.596   4.384   5.631
 6026SOL    HW218978   0.753   4.393   5.590
 6027SOL     OW18979   4.476   4.212   0.510
 6027SOL    HW118980   4.465   4.296   0.457
 6027SOL    HW218981   4.407   4.145   0.483
 6028SOL     OW18982   0.766   4.187   6.677
 6028SOL    HW118983   0.783   4.285   6.687
 6028SOL    HW218984   0.736   4.168   6.583
 6029SOL     OW18985   1.130   5.313   1.431
 6029SOL    HW118986   1.142   5.339   1.527
 6029SOL    HW218987   1.038   5.339   1.401
 6030SOL     OW18988   1.780   6.445   2.093
 6030SOL    HW118989   1.858   6.503   2.114
 6030SOL    HW218990   1.764   6.445   1.994
 6031SOL     OW18991   5.197   0.997   4.189
 6031SOL    HW118992   5.114   0.980   4.242
 6031SOL    HW218993   5.259   0.919   4.199
 6032SOL     OW18994   1.253   2.485   2.344
 6032SOL    HW118995   1.262   2.393   2.305
 6032SOL    HW218996   1.330   2.541   2.314
 6033SOL     OW18997   0.063   6.667   4.252
 6033SOL    HW118998   0.029   6.653   4.345
 6033SOL    HW218999   0.109   6.584   4.221
 6034SOL     OW19000   2.586   4.568   4.740
 6034SOL    HW119001   2.643   4.502   4.788
 6034SOL    HW219002   2.574   4.649   4.798
 6035SOL     OW19003   4.839   0.031   3.852
 6035SOL    HW119004   4.762   0.094   3.843
 6035SOL    HW219005   4.907   0.050   3.781
 6036SOL     OW19006   5.830   0.361   4.939
 6036SOL    HW119007   5.894   0.381   4.864
 6036SOL    HW219008   5.869   0.394   5.025
 6037SOL     OW19009   0.572   5.969   4.602
 6037SOL    HW119010   0.552   5.983   4.698
 6037SOL    HW219011   0.556   5.873   4.578
 6038SOL     OW19012   0.511   4.115   6.824
 6038SOL    HW119013   0.595   4.159   6.792
 6038SOL    HW219014   0.464   4.074   6.746
 6039SOL     OW19015   3.387   3.264   4.072
 6039SOL    HW119016   3.457   3.207   4.030
 6039SOL    HW219017   3.304   3.261   4.016
 6040SOL     OW19018   1.093   0.614   0.830
 6040SOL    HW119019   1.135   0.553   0.762
 6040SOL    HW219020   1.044   0.687   0.783
 6041SOL     OW19021   0.790   3.082   0.272
 6041SOL    HW119022   0.827   3.121   0.357
 6041SOL    HW219023   0.721   3.014   0.294
 6042SOL     OW19024   5.154   5.710   4.952
 6042SOL    HW119025   5.097   5.758   4.885
 6042SOL    HW219026   5.096   5.668   5.021
 6043SOL     OW19027   0.232   4.444   3.745
 6043SOL    HW119028   0.156   4.477   3.690
 6043SOL    HW219029   0.317   4.486   3.714
 6044SOL     OW19030   1.684   0.555   1.239
 6044SOL    HW119031   1.643   0.522   1.324
 6044SOL    HW219032   1.782   0.565   1.251
 6045SOL     OW19033   6.423   4.585   6.784
 6045SOL    HW119034   6.342   4.643   6.770
 6045SOL    HW219035   6.433   4.565   6.881
 6046SOL     OW19036   1.301   3.562   6.777
 6046SOL    HW119037   1.324   3.472   6.741
 6046SOL    HW219038   1.203   3.566   6.797
 6047SOL     OW19039   1.233   5.477   4.817
 6047SOL    HW119040   1.267   5.490   4.724
 6047SOL    HW219041   1.246   5.382   4.845
 6048SOL     OW19042   4.508   5.851   4.075
 6048SOL    HW119043   4.544   5.817   4.162
 6048SOL    HW219044   4.456   5.934   4.091
 6049SOL     OW19045   6.700   5.585   6.944
 6049SOL    HW119046   6.724   5.654   7.012
 6049SOL    HW219047   6.752   5.501   6.960
 6050SOL     OW19048   6.148   4.518   5.311
 6050SOL    HW119049   6.154   4.482   5.218
 6050SOL    HW219050   6.101   4.451   5.370
 6051SOL     OW19051   2.941   1.962   3.736
 6051SOL    HW119052   2.957   1.934   3.641
 6051SOL    HW219053   2.856   1.922   3.769
 6052SOL     OW19054   0.344   1.904   6.738
 6052SOL    HW119055   0.340   1.922   6.640
 6052SOL    HW219056   0.410   1.831   6.755
 6053SOL     OW19057   1.144   0.168   6.156
 6053SOL    HW119058   1.211   0.235   6.188
 6053SOL    HW219059   1.142   0.167   6.056
 6054SOL     OW19060   0.750   4.370   5.929
 6054SOL    HW119061   0.768   4.274   5.909
 6054SOL    HW219062   0.723   4.417   5.845
 6055SOL     OW19063   5.399   6.959   2.793
 6055SOL    HW119064   5.359   0.025   2.820
 6055SOL    HW219065   5.385   6.892   2.866
 6056SOL     OW19066   5.396   3.097   6.274
 6056SOL    HW119067   5.353   3.121   6.361
 6056SOL    HW219068   5.370   3.164   6.204
 6057SOL     OW19069   4.121   0.916   6.452
 6057SOL    HW119070   4.117   0.931   6.551
 6057SOL    HW219071   4.042   0.959   6.409
 6058SOL     OW19072   5.194   2.000   5.255
 6058SOL    HW119073   5.229   1.998   5.161
 6058SOL    HW219074   5.224   2.084   5.300
 6059SOL     OW19075   0.076   6.457   6.845
 6059SOL    HW119076   0.175   6.467   6.841
 6059SOL    HW219077   0.036   6.478   6.756
 6060SOL     OW19078   3.056   5.828   6.360
 6060SOL    HW119079   3.014   5.917   6.380
 6060SOL    HW219080   3.088   5.826   6.266
 6061SOL     OW19081   1.709   1.353   0.048
 6061SOL    HW119082   1.656   1.320   0.126
 6061SOL    HW219083   1.735   1.276   7.011
 6062SOL     OW19084   1.474   0.296   3.849
 6062SOL    HW119085   1.499   0.392   3.835
 6062SOL    HW219086   1.481   0.246   3.763
 6063SOL     OW19087   5.979   5.728   6.883
 6063SOL    HW119088   6.056   5.670   6.907
 6063SOL    HW219089   5.929   5.688   6.806
 6064SOL     OW19090   1.059   5.118   2.455
 6064SOL    HW119091   1.028   5.163   2.372
 6064SOL    HW219092   1.037   5.175   2.534
 6065SOL     OW19093   5.290   6.794   1.705
 6065SOL    HW119094   5.202   6.823   1.742
 6065SOL    HW219095   5.358   6.865   1.722
 6066SOL     OW19096   4.146   1.919   5.702
 6066SOL    HW119097   4.172   1.923   5.799
 6066SOL    HW219098   4.161   1.826   5.667
 6067SOL     OW19099   4.756   1.882   6.704
 6067SOL    HW119100   4.781   1.854   6.797
 6067SOL    HW219101   4.839   1.890   6.648
 6068SOL     OW19102   5.048   0.451   5.623
 6068SOL    HW119103   5.023   0.471   5.528
 6068SOL    HW219104   4.971   0.474   5.682
 6069SOL     OW19105   6.693   5.238   3.597
 6069SOL    HW119106   6.608   5.271   3.637
 6069SOL    HW219107   6.719   5.297   3.519
 6070SOL     OW19108   5.113   3.483   0.857
 6070SOL    HW119109   5.078   3.518   0.770
 6070SOL    HW219110   5.038   3.441   0.909
 6071SOL     OW19111   4.839   6.742   5.185
 6071SOL    HW119112   4.911   6.719   5.250
 6071SOL    HW219113   4.880   6.768   5.097
 6072SOL     OW19114   6.063   1.639   1.653
 6072SOL    HW119115   6.143   1.680   1.696
 6072SOL    HW219116   6.089   1.595   1.567
 6073SOL     OW19117   6.150   0.820   1.227
 6073SOL    HW119118   6.078   0.844   1.161
 6073SOL    HW219119   6.236   0.808   1.178
 6074SOL     OW19120   0.529   0.489   5.820
 6074SOL    HW119121   0.470   0.496   5.740
 6074SOL    HW219122   0.500   0.556   5.889
 6075SOL     OW19123   5.139   3.495   5.873
 6075SOL    HW119124   5.227   3.499   5.825
 6075SOL    HW219125   5.155   3.486   5.971
 6076SOL     OW19126   2.718   0.823   3.949
 6076SOL    HW119127   2.685   0.749   4.007
 6076SOL    HW219128   2.708   0.797   3.853
 6077SOL     OW19129   5.043   4.926   3.220
 6077SOL    HW119130   5.133   4.882   3.215
 6077SOL    HW219131   5.044   5.010   3.167
 6078SOL     OW19132   1.834   4.707   4.687
 6078SOL    HW119133   1.894   4.659   4.750
 6078SOL    HW219134   1.758   4.749   4.738
 6079SOL     OW19135   3.172   1.858   1.049
 6079SOL    HW119136   3.114   1.908   0.984
 6079SOL    HW219137   3.141   1.879   1.142
 6080SOL     OW19138   5.864   3.308   3.537
 6080SOL    HW119139   5.883   3.345   3.445
 6080SOL    HW219140   5.773   3.266   3.537
 6081SOL     OW19141   0.301   4.394   1.887
 6081SOL    HW119142   0.375   4.446   1.931
 6081SOL    HW219143   0.339   4.337   1.814
 6082SOL     OW19144   4.337   1.792   5.245
 6082SOL    HW119145   4.283   1.742   5.177
 6082SOL    HW219146   4.407   1.847   5.198
 6083SOL     OW19147   1.842   6.806   6.885
 6083SOL    HW119148   1.933   6.823   6.848
 6083SOL    HW219149   1.822   6.872   6.958
 6084SOL     OW19150   0.055   5.603   5.802
 6084SOL    HW119151   0.103   5.673   5.856
 6084SOL    HW219152   6.985   5.589   5.840
 6085SOL     OW19153   5.112   5.067   1.654
 6085SOL    HW119154   5.107   5.039   1.750
 6085SOL    HW219155   5.163   4.998   1.603
 6086SOL     OW19156   3.258   1.632   2.505
 6086SOL    HW119157   3.227   1.727   2.506
 6086SOL    HW219158   3.358   1.630   2.503
 6087SOL     OW19159   3.711   0.735   0.361
 6087SOL    HW119160   3.661   0.743   0.447
 6087SOL    HW219161   3.705   0.640   0.328
 6088SOL     OW19162   0.073   0.440   5.052
 6088SOL    HW119163   0.016   0.481   5.123
 6088SOL    HW219164   0.163   0.418   5.091
 6089SOL     OW19165   6.539   3.859   1.115
 6089SOL    HW119166   6.570   3.765   1.132
 6089SOL    HW219167   6.442   3.858   1.090
 6090SOL     OW19168   6.705   5.805   4.462
 6090SOL    HW119169   6.705   5.868   4.540
 6090SOL    HW219170   6.611   5.777   4.442
 6091SOL     OW19171   6.824   2.463   1.988
 6091SOL    HW119172   6.858   2.404   1.915
 6091SOL    HW219173   6.874   2.550   1.986
 6092SOL     OW19174   1.059   3.885   0.764
 6092SOL    HW119175   1.119   3.809   0.739
 6092SOL    HW219176   0.964   3.860   0.746
 6093SOL     OW19177   0.825   4.776   0.586
 6093SOL    HW119178   0.784   4.861   0.554
 6093SOL    HW219179   0.924   4.788   0.595
 6094SOL     OW19180   0.293   1.323   1.050
 6094SOL    HW119181   0.266   1.416   1.075
 6094SOL    HW219182   0.335   1.279   1.129
 6095SOL     OW19183   6.815   3.849   5.099
 6095SOL    HW119184   6.791   3.799   5.016
 6095SOL    HW219185   6.783   3.797   5.179
 6096SOL     OW19186   5.332   1.669   2.828
 6096SOL    HW119187   5.282   1.610   2.765
 6096SOL    HW219188   5.426   1.635   2.838
 6097SOL     OW19189   3.722   1.645   2.805
 6097SOL    HW119190   3.652   1.599   2.859
 6097SOL    HW219191   3.809   1.644   2.854
 6098SOL     OW19192   0.578   0.805   6.777
 6098SOL    HW119193   0.501   0.771   6.831
 6098SOL    HW219194   0.662   0.764   6.811
 6099SOL     OW19195   5.987   4.233   4.694
 6099SOL    HW119196   6.055   4.185   4.749
 6099SOL    HW219197   5.917   4.168   4.664
 6100SOL     OW19198   0.149   3.170   0.895
 6100SOL    HW119199   0.124   3.200   0.988
 6100SOL    HW219200   0.118   3.076   0.881
 6101SOL     OW19201   6.398   6.163   3.612
 6101SOL    HW119202   6.318   6.153   3.552
 6101SOL    HW219203   6.392   6.098   3.687
 6102SOL     OW19204   3.369   6.704   5.002
 6102SOL    HW119205   3.394   6.739   5.093
 6102SOL    HW219206   3.292   6.642   5.011
 6103SOL     OW19207   5.839   1.831   5.217
 6103SOL    HW119208   5.841   1.823   5.316
 6103SOL    HW219209   5.816   1.743   5.176
 6104SOL     OW19210   1.921   3.148   1.078
 6104SOL    HW119211   1.921   3.142   1.178
 6104SOL    HW219212   1.857   3.220   1.049
 6105SOL     OW19213   3.292   4.905   4.380
 6105SOL    HW119214   3.208   4.888   4.431
 6105SOL    HW219215   3.369   4.912   4.443
 6106SOL     OW19216   2.041   5.095   3.963
 6106SOL    HW119217   1.954   5.046   3.960
 6106SOL    HW219218   2.026   5.187   4.001
 6107SOL     OW19219   2.429   5.292   5.932
 6107SOL    HW119220   2.447   5.359   6.005
 6107SOL    HW219221   2.380   5.213   5.970
 6108SOL     OW19222   5.275   1.936   5.003
 6108SOL    HW119223   5.234   1.992   4.931
 6108SOL    HW219224   5.351   1.884   4.965
 6109SOL     OW19225   6.953   4.255   1.562
 6109SOL    HW119226   6.996   4.289   1.645
 6109SOL    HW219227   6.925   4.160   1.575
 6110SOL     OW19228   3.448   2.106   3.663
 6110SOL    HW119229   3.425   2.099   3.760
 6110SOL    HW219230   3.372   2.072   3.608
 6111SOL     OW19231   0.501   4.369   3.581
 6111SOL    HW119232   0.492   4.303   3.506
 6111SOL    HW219233   0.539   4.454   3.546
 6112SOL     OW19234   1.456   1.239   1.337
 6112SOL    HW119235   1.491   1.310   1.277
 6112SOL    HW219236   1.529   1.207   1.397
 6113SOL     OW19237   1.316   4.942   5.241
 6113SOL    HW119238   1.369   5.023   5.218
 6113SOL    HW219239   1.363   4.890   5.313
 6114SOL     OW19240   3.853   4.459   1.054
 6114SOL    HW119241   3.828   4.370   1.016
 6114SOL    HW219242   3.838   4.458   1.153
 6115SOL     OW19243   0.037   4.940   2.424
 6115SOL    HW119244   6.984   5.006   2.440
 6115SOL    HW219245   0.119   4.969   2.474
 6116SOL     OW19246   4.002   2.499   1.481
 6116SOL    HW119247   3.951   2.415   1.498
 6116SOL    HW219248   3.953   2.576   1.521
 6117SOL     OW19249   5.329   5.549   4.134
 6117SOL    HW119250   5.284   5.600   4.060
 6117SOL    HW219251   5.390   5.480   4.095
 6118SOL     OW19252   6.503   0.259   3.398
 6118SOL    HW119253   6.453   0.298   3.476
 6118SOL    HW219254   6.580   0.204   3.432
 6119SOL     OW19255   5.845   5.276   4.383
 6119SOL    HW119256   5.820   5.348   4.447
 6119SOL    HW219257   5.889   5.201   4.432
 6120SOL     OW19258   2.450   1.633   3.389
 6120SOL    HW119259   2.515   1.697   3.346
 6120SOL    HW219260   2.380   1.685   3.436
 6121SOL     OW19261   7.006   1.927   3.688
 6121SOL    HW119262   6.951   1.877   3.622
 6121SOL    HW219263   0.082   1.904   3.676
 6122SOL     OW19264   4.061   5.909   3.858
 6122SOL    HW119265   4.153   5.886   3.890
 6122SOL    HW219266   4.013   5.958   3.931
 6123SOL     OW19267   5.803   1.670   2.828
 6123SOL    HW119268   5.836   1.583   2.865
 6123SOL    HW219269   5.771   1.728   2.903
 6124SOL     OW19270   3.094   0.317   4.963
 6124SOL    HW119271   3.041   0.277   5.037
 6124SOL    HW219272   3.186   0.339   4.995
 6125SOL     OW19273   1.249   4.146   2.315
 6125SOL    HW119274   1.308   4.177   2.241
 6125SOL    HW219275   1.258   4.208   2.393
 6126SOL     OW19276   3.399   6.514   3.194
 6126SOL    HW119277   3.470   6.566   3.241
 6126SOL    HW219278   3.436   6.477   3.108
 6127SOL     OW19279   2.082   5.349   1.508
 6127SOL    HW119280   2.067   5.418   1.580
 6127SOL    HW219281   2.059   5.388   1.419
 6128SOL     OW19282   5.544   4.320   1.435
 6128SOL    HW119283   5.450   4.300   1.464
 6128SOL    HW219284   5.545   4.403   1.380
 6129SOL     OW19285   6.426   3.706   3.557
 6129SOL    HW119286   6.351   3.736   3.617
 6129SOL    HW219287   6.400   3.721   3.462
 6130SOL     OW19288   5.155   3.529   2.877
 6130SOL    HW119289   5.241   3.513   2.828
 6130SOL    HW219290   5.096   3.587   2.822
 6131SOL     OW19291   6.538   1.066   5.352
 6131SOL    HW119292   6.532   0.975   5.312
 6131SOL    HW219293   6.475   1.072   5.430
 6132SOL     OW19294   0.131   2.643   0.446
 6132SOL    HW119295   0.057   2.684   0.499
 6132SOL    HW219296   0.100   2.556   0.406
 6133SOL     OW19297   1.543   5.171   0.096
 6133SOL    HW119298   1.576   5.140   0.185
 6133SOL    HW219299   1.463   5.229   0.109
 6134SOL     OW19300   4.961   3.733   6.709
 6134SOL    HW119301   4.916   3.664   6.653
 6134SOL    HW219302   5.060   3.728   6.694
 6135SOL     OW19303   5.876   6.705   2.460
 6135SOL    HW119304   5.917   6.782   2.509
 6135SOL    HW219305   5.914   6.701   2.368
 6136SOL     OW19306   1.352   1.756   2.555
 6136SOL    HW119307   1.413   1.771   2.478
 6136SOL    HW219308   1.381   1.813   2.632
 6137SOL     OW19309   3.576   6.764   6.382
 6137SOL    HW119310   3.654   6.785   6.323
 6137SOL    HW219311   3.608   6.746   6.475
 6138SOL     OW19312   4.555   0.731   2.927
 6138SOL    HW119313   4.634   0.790   2.947
 6138SOL    HW219314   4.473   0.788   2.919
 6139SOL     OW19315   2.472   6.095   3.729
 6139SOL    HW119316   2.457   6.187   3.766
 6139SOL    HW219317   2.391   6.039   3.744
 6140SOL     OW19318   2.555   5.611   1.263
 6140SOL    HW119319   2.648   5.576   1.260
 6140SOL    HW219320   2.549   5.696   1.212
 6141SOL     OW19321   0.930   5.742   5.044
 6141SOL    HW119322   0.999   5.739   4.971
 6141SOL    HW219323   0.973   5.719   5.131
 6142SOL     OW19324   6.886   3.617   3.828
 6142SOL    HW119325   6.877   3.679   3.905
 6142SOL    HW219326   6.975   3.571   3.832
 6143SOL     OW19327   6.023   5.506   6.515
 6143SOL    HW119328   6.079   5.453   6.452
 6143SOL    HW219329   5.930   5.513   6.479
 6144SOL     OW19330   0.377   5.648   4.364
 6144SOL    HW119331   0.448   5.632   4.295
 6144SOL    HW219332   0.355   5.745   4.367
 6145SOL     OW19333   5.955   4.956   3.584
 6145SOL    HW119334   5.857   4.979   3.583
 6145SOL    HW219335   6.008   5.037   3.608
 6146SOL     OW19336   5.841   2.004   3.579
 6146SOL    HW119337   5.757   2.057   3.590
 6146SOL    HW219338   5.819   1.915   3.539
 6147SOL     OW19339   1.315   3.669   3.805
 6147SOL    HW119340   1.318   3.737   3.732
 6147SOL    HW219341   1.260   3.704   3.881
 6148SOL     OW19342   6.224   6.348   2.936
 6148SOL    HW119343   6.291   6.373   3.006
 6148SOL    HW219344   6.213   6.248   2.935
 6149SOL     OW19345   1.144   5.840   4.535
 6149SOL    HW119346   1.090   5.815   4.614
 6149SOL    HW219347   1.179   5.933   4.547
 6150SOL     OW19348   4.533   6.691   6.451
 6150SOL    HW119349   4.524   6.659   6.545
 6150SOL    HW219350   4.525   6.614   6.388
 6151SOL     OW19351   4.497   0.256   5.034
 6151SOL    HW119352   4.557   0.329   5.065
 6151SOL    HW219353   4.406   0.266   5.074
 6152SOL     OW19354   6.358   4.053   6.245
 6152SOL    HW119355   6.353   4.055   6.345
 6152SOL    HW219356   6.396   3.966   6.215
 6153SOL     OW19357   3.790   5.660   5.618
 6153SOL    HW119358   3.866   5.692   5.673
 6153SOL    HW219359   3.748   5.581   5.662
 6154SOL     OW19360   5.232   3.075   3.203
 6154SOL    HW119361   5.258   3.150   3.143
 6154SOL    HW219362   5.201   2.998   3.148
 6155SOL     OW19363   2.729   4.727   4.583
 6155SOL    HW119364   2.680   4.671   4.650
 6155SOL    HW219365   2.717   4.687   4.492
 6156SOL     OW19366   5.695   0.701   4.428
 6156SOL    HW119367   5.625   0.634   4.451
 6156SOL    HW219368   5.784   0.657   4.426
 6157SOL     OW19369   0.981   1.334   4.952
 6157SOL    HW119370   0.895   1.344   4.902
 6157SOL    HW219371   1.029   1.422   4.954
 6158SOL     OW19372   5.191   0.052   6.866
 6158SOL    HW119373   5.166   0.149   6.877
 6158SOL    HW219374   5.276   0.034   6.916
 6159SOL     OW19375   5.300   3.731   5.994
 6159SOL    HW119376   5.223   3.795   6.003
 6159SOL    HW219377   5.278   3.646   6.041
 6160SOL     OW19378   6.452   5.457   6.964
 6160SOL    HW119379   6.545   5.494   6.971
 6160SOL    HW219380   6.387   5.531   6.949
 6161SOL     OW19381   5.530   0.183   6.160
 6161SOL    HW119382   5.513   0.226   6.071
 6161SOL    HW219383   5.444   0.173   6.209
 6162SOL     OW19384   5.975   5.175   3.920
 6162SOL    HW119385   5.885   5.177   3.876
 6162SOL    HW219386   5.980   5.247   3.989
 6163SOL     OW19387   6.777   3.633   2.981
 6163SOL    HW119388   6.681   3.617   3.004
 6163SOL    HW219389   6.828   3.547   2.984
 6164SOL     OW19390   4.800   2.797   1.196
 6164SOL    HW119391   4.868   2.863   1.163
 6164SOL    HW219392   4.823   2.771   1.290
 6165SOL     OW19393   4.060   0.205   0.836
 6165SOL    HW119394   4.135   0.259   0.797
 6165SOL    HW219395   4.063   0.211   0.936
 6166SOL     OW19396   3.072   0.364   0.004
 6166SOL    HW119397   3.137   0.293   0.032
 6166SOL    HW219398   2.981   0.342   0.040
 6167SOL     OW19399   6.896   5.055   3.414
 6167SOL    HW119400   6.915   4.963   3.379
 6167SOL    HW219401   6.839   5.105   3.349
 6168SOL     OW19402   0.396   2.681   1.705
 6168SOL    HW119403   0.436   2.616   1.639
 6168SOL    HW219404   0.344   2.631   1.773
 6169SOL     OW19405   1.234   4.142   1.154
 6169SOL    HW119406   1.155   4.086   1.128
 6169SOL    HW219407   1.203   4.234   1.178
 6170SOL     OW19408   6.657   1.991   3.517
 6170SOL    HW119409   6.690   2.085   3.514
 6170SOL    HW219410   6.578   1.986   3.579
 6171SOL     OW19411   5.704   2.052   6.410
 6171SOL    HW119412   5.765   2.032   6.333
 6171SOL    HW219413   5.613   2.015   6.391
 6172SOL     OW19414   0.619   4.892   3.896
 6172SOL    HW119415   0.605   4.814   3.835
 6172SOL    HW219416   0.562   4.968   3.866
 6173SOL     OW19417   5.325   6.301   3.019
 6173SOL    HW119418   5.370   6.221   3.058
 6173SOL    HW219419   5.262   6.340   3.085
 6174SOL     OW19420   0.160   2.122   3.463
 6174SOL    HW119421   0.139   2.120   3.561
 6174SOL    HW219422   0.221   2.046   3.441
 6175SOL     OW19423   4.205   2.383   6.567
 6175SOL    HW119424   4.296   2.387   6.608
 6175SOL    HW219425   4.176   2.475   6.540
 6176SOL     OW19426   3.064   5.077   5.775
 6176SOL    HW119427   2.990   5.143   5.766
 6176SOL    HW219428   3.141   5.120   5.824
 6177SOL     OW19429   5.884   5.428   1.553
 6177SOL    HW119430   5.894   5.527   1.554
 6177SOL    HW219431   5.790   5.403   1.577
 6178SOL     OW19432   4.404   4.896   1.949
 6178SOL    HW119433   4.408   4.872   2.046
 6178SOL    HW219434   4.364   4.820   1.898
 6179SOL     OW19435   4.673   5.155   4.979
 6179SOL    HW119436   4.654   5.226   5.046
 6179SOL    HW219437   4.748   5.097   5.012
 6180SOL     OW19438   2.232   3.770   6.858
 6180SOL    HW119439   2.159   3.830   6.893
 6180SOL    HW219440   2.194   3.708   6.790
 6181SOL     OW19441   0.050   6.466   0.113
 6181SOL    HW119442   0.142   6.448   0.148
 6181SOL    HW219443   0.044   6.436   0.018
 6182SOL     OW19444   3.065   2.805   6.070
 6182SOL    HW119445   3.079   2.707   6.057
 6182SOL    HW219446   3.146   2.845   6.112
 6183SOL     OW19447   0.417   0.646   0.437
 6183SOL    HW119448   0.506   0.599   0.439
 6183SOL    HW219449   0.427   0.736   0.480
 6184SOL     OW19450   3.659   6.440   5.399
 6184SOL    HW119451   3.560   6.451   5.390
 6184SOL    HW219452   3.703   6.530   5.402
 6185SOL     OW19453   3.074   3.038   3.892
 6185SOL    HW119454   3.152   3.062   3.835
 6185SOL    HW219455   2.998   3.005   3.835
 6186SOL     OW19456   0.965   1.578   2.412
 6186SOL    HW119457   1.062   1.571   2.437
 6186SOL    HW219458   0.954   1.641   2.335
 6187SOL     OW19459   3.513   1.827   5.860
 6187SOL    HW119460   3.574   1.880   5.801
 6187SOL    HW219461   3.565   1.786   5.935
 6188SOL     OW19462   1.689   1.377   6.079
 6188SOL    HW119463   1.774   1.375   6.132
 6188SOL    HW219464   1.651   1.470   6.082
 6189SOL     OW19465   6.674   5.661   0.661
 6189SOL    HW119466   6.765   5.646   0.697
 6189SOL    HW219467   6.669   5.750   0.617
 6190SOL     OW19468   0.820   2.835   3.675
 6190SOL    HW119469   0.816   2.925   3.633
 6190SOL    HW219470   0.852   2.844   3.769
 6191SOL     OW19471   3.277   4.388   6.927
 6191SOL    HW119472   3.333   4.450   6.982
 6191SOL    HW219473   3.184   4.387   6.962
 6192SOL     OW19474   3.041   1.837   1.339
 6192SOL    HW119475   2.982   1.896   1.394
 6192SOL    HW219476   3.110   1.794   1.397
 6193SOL     OW19477   4.864   5.515   6.949
 6193SOL    HW119478   4.955   5.478   6.932
 6193SOL    HW219479   4.845   5.589   6.884
 6194SOL     OW19480   5.408   0.060   5.715
 6194SOL    HW119481   5.454   0.126   5.774
 6194SOL    HW219482   5.472   0.026   5.646
 6195SOL     OW19483   4.580   5.639   5.729
 6195SOL    HW119484   4.585   5.544   5.696
 6195SOL    HW219485   4.617   5.644   5.822
 6196SOL     OW19486   6.888   3.474   3.335
 6196SOL    HW119487   6.868   3.557   3.387
 6196SOL    HW219488   6.970   3.430   3.371
 6197SOL     OW19489   0.567   5.765   0.557
 6197SOL    HW119490   0.634   5.705   0.599
 6197SOL    HW219491   0.609   5.853   0.535
 6198SOL     OW19492   6.459   1.555   6.167
 6198SOL    HW119493   6.395   1.543   6.091
 6198SOL    HW219494   6.482   1.466   6.206
 6199SOL     OW19495   2.338   0.032   6.222
 6199SOL    HW119496   2.327   0.099   6.148
 6199SOL    HW219497   2.298   0.068   6.306
 6200SOL     OW19498   1.583   6.690   6.957
 6200SOL    HW119499   1.667   6.733   6.925
 6200SOL    HW219500   1.541   6.746   0.008
 6201SOL     OW19501   0.664   4.558   3.952
 6201SOL    HW119502   0.672   4.469   3.907
 6201SOL    HW219503   0.673   4.631   3.884
 6202SOL     OW19504   6.100   0.868   1.480
 6202SOL    HW119505   6.107   0.859   1.380
 6202SOL    HW219506   6.025   0.930   1.503
 6203SOL     OW19507   0.230   1.214   2.027
 6203SOL    HW119508   0.289   1.224   1.946
 6203SOL    HW219509   0.276   1.252   2.106
 6204SOL     OW19510   1.207   6.106   4.576
 6204SOL    HW119511   1.168   6.197   4.561
 6204SOL    HW219512   1.251   6.103   4.666
 6205SOL     OW19513   6.887   3.994   3.558
 6205SOL    HW119514   6.909   4.064   3.626
 6205SOL    HW219515   6.831   4.035   3.486
 6206SOL     OW19516   5.175   2.268   3.604
 6206SOL    HW119517   5.200   2.243   3.510
 6206SOL    HW219518   5.077   2.251   3.617
 6207SOL     OW19519   1.583   5.579   3.548
 6207SOL    HW119520   1.572   5.587   3.449
 6207SOL    HW219521   1.646   5.649   3.581
 6208SOL     OW19522   3.650   4.308   6.490
 6208SOL    HW119523   3.557   4.320   6.525
 6208SOL    HW219524   3.714   4.297   6.566
 6209SOL     OW19525   3.452   0.894   2.778
 6209SOL    HW119526   3.404   0.944   2.706
 6209SOL    HW219527   3.505   0.958   2.834
 6210SOL     OW19528   5.633   0.497   3.795
 6210SOL    HW119529   5.602   0.568   3.857
 6210SOL    HW219530   5.576   0.497   3.713
 6211SOL     OW19531   4.931   2.605   4.843
 6211SOL    HW119532   4.832   2.610   4.831
 6211SOL    HW219533   4.953   2.621   4.940
 6212SOL     OW19534   5.437   3.787   4.844
 6212SOL    HW119535   5.353   3.805   4.896
 6212SOL    HW219536   5.480   3.704   4.878
 6213SOL     OW19537   5.535   5.955   0.605
 6213SOL    HW119538   5.489   5.925   0.688
 6213SOL    HW219539   5.506   6.048   0.583
 6214SOL     OW19540   6.781   6.568   6.395
 6214SOL    HW119541   6.682   6.565   6.379
 6214SOL    HW219542   6.823   6.485   6.359
 6215SOL     OW19543   5.583   2.570   5.085
 6215SOL    HW119544   5.627   2.644   5.135
 6215SOL    HW219545   5.608   2.482   5.127
 6216SOL     OW19546   5.097   2.389   5.772
 6216SOL    HW119547   5.035   2.467   5.773
 6216SOL    HW219548   5.067   2.322   5.841
 6217SOL     OW19549   7.013   4.241   2.376
 6217SOL    HW119550   0.083   4.235   2.416
 6217SOL    HW219551   6.987   4.337   2.366
 6218SOL     OW19552   4.719   6.590   1.355
 6218SOL    HW119553   4.656   6.567   1.281
 6218SOL    HW219554   4.742   6.688   1.350
 6219SOL     OW19555   2.406   0.833   0.490
 6219SOL    HW119556   2.432   0.739   0.467
 6219SOL    HW219557   2.365   0.876   0.410
 6220SOL     OW19558   3.226   0.614   2.637
 6220SOL    HW119559   3.262   0.549   2.704
 6220SOL    HW219560   3.174   0.686   2.684
 6221SOL     OW19561   4.480   4.703   5.320
 6221SOL    HW119562   4.405   4.705   5.255
 6221SOL    HW219563   4.559   4.658   5.279
 6222SOL     OW19564   6.660   0.998   1.858
 6222SOL    HW119565   6.651   0.993   1.759
 6222SOL    HW219566   6.754   1.024   1.882
 6223SOL     OW19567   6.835   5.146   4.008
 6223SOL    HW119568   6.750   5.101   4.032
 6223SOL    HW219569   6.863   5.207   4.082
 6224SOL     OW19570   3.893   0.056   0.093
 6224SOL    HW119571   3.900   0.110   0.177
 6224SOL    HW219572   3.951   6.996   0.100
 6225SOL     OW19573   5.376   5.764   6.662
 6225SOL    HW119574   5.279   5.739   6.668
 6225SOL    HW219575   5.385   5.863   6.671
 6226SOL     OW19576   1.035   1.185   4.373
 6226SOL    HW119577   1.043   1.139   4.284
 6226SOL    HW219578   0.983   1.270   4.361
 6227SOL     OW19579   2.154   4.302   6.056
 6227SOL    HW119580   2.204   4.260   5.981
 6227SOL    HW219581   2.219   4.346   6.119
 6228SOL     OW19582   0.510   2.843   4.108
 6228SOL    HW119583   0.427   2.871   4.060
 6228SOL    HW219584   0.549   2.763   4.061
 6229SOL     OW19585   0.253   4.501   5.046
 6229SOL    HW119586   0.310   4.558   5.106
 6229SOL    HW219587   0.188   4.559   4.997
 6230SOL     OW19588   0.766   0.670   1.108
 6230SOL    HW119589   0.854   0.625   1.094
 6230SOL    HW219590   0.696   0.621   1.057
 6231SOL     OW19591   2.327   5.555   5.875
 6231SOL    HW119592   2.349   5.562   5.972
 6231SOL    HW219593   2.390   5.491   5.831
 6232SOL     OW19594   3.987   0.674   6.649
 6232SOL    HW119595   4.047   0.595   6.637
 6232SOL    HW219596   3.935   0.689   6.565
 6233SOL     OW19597   6.982   4.299   1.016
 6233SOL    HW119598   6.940   4.291   1.107
 6233SOL    HW219599   6.970   4.212   0.967
 6234SOL     OW19600   4.572   5.599   2.847
 6234SOL    HW119601   4.526   5.622   2.761
 6234SOL    HW219602   4.517   5.532   2.897
 6235SOL     OW19603   0.226   0.646   1.829
 6235SOL    HW119604   0.161   0.684   1.895
 6235SOL    HW219605   0.270   0.720   1.779
 6236SOL     OW19606   6.566   5.869   1.495
 6236SOL    HW119607   6.612   5.893   1.409
 6236SOL    HW219608   6.468   5.889   1.486
 6237SOL     OW19609   4.292   1.335   2.619
 6237SOL    HW119610   4.248   1.260   2.570
 6237SOL    HW219611   4.239   1.355   2.702
 6238SOL     OW19612   2.356   0.258   4.009
 6238SOL    HW119613   2.349   0.178   4.069
 6238SOL    HW219614   2.446   0.301   4.022
 6239SOL     OW19615   3.826   1.453   4.274
 6239SOL    HW119616   3.750   1.435   4.336
 6239SOL    HW219617   3.830   1.551   4.253
 6240SOL     OW19618   3.667   3.360   3.973
 6240SOL    HW119619   3.616   3.446   3.980
 6240SOL    HW219620   3.735   3.356   4.046
 6241SOL     OW19621   4.195   0.004   3.583
 6241SOL    HW119622   4.173   0.090   3.630
 6241SOL    HW219623   4.161   6.949   3.638
 6242SOL     OW19624   3.339   2.120   4.544
 6242SOL    HW119625   3.338   2.116   4.644
 6242SOL    HW219626   3.247   2.140   4.511
 6243SOL     OW19627   3.113   0.775   0.168
 6243SOL    HW119628   3.127   0.862   0.122
 6243SOL    HW219629   3.055   0.789   0.248
 6244SOL     OW19630   4.706   2.465   1.605
 6244SOL    HW119631   4.672   2.549   1.649
 6244SOL    HW219632   4.778   2.425   1.661
 6245SOL     OW19633   6.871   4.732   1.756
 6245SOL    HW119634   6.862   4.648   1.809
 6245SOL    HW219635   6.837   4.809   1.810
 6246SOL     OW19636   0.721   5.592   4.881
 6246SOL    HW119637   0.743   5.673   4.935
 6246SOL    HW219638   0.657   5.534   4.932
 6247SOL     OW19639   5.683   5.327   2.695
 6247SOL    HW119640   5.688   5.399   2.625
 6247SOL    HW219641   5.751   5.257   2.675
 6248SOL     OW19642   4.297   2.743   6.226
 6248SOL    HW119643   4.235   2.788   6.290
 6248SOL    HW219644   4.290   2.788   6.136
 6249SOL     OW19645   5.662   2.574   3.152
 6249SOL    HW119646   5.640   2.641   3.223
 6249SOL    HW219647   5.669   2.620   3.063
 6250SOL     OW19648   5.381   6.721   5.316
 6250SOL    HW119649   5.302   6.703   5.258
 6250SOL    HW219650   5.465   6.703   5.265
 6251SOL     OW19651   2.492   1.004   3.934
 6251SOL    HW119652   2.584   0.966   3.940
 6251SOL    HW219653   2.455   1.015   4.027
 6252SOL     OW19654   2.891   4.983   0.329
 6252SOL    HW119655   2.850   4.936   0.408
 6252SOL    HW219656   2.959   4.923   0.286
 6253SOL     OW19657   5.010   6.069   3.111
 6253SOL    HW119658   4.974   6.162   3.120
 6253SOL    HW219659   5.056   6.044   3.196
 6254SOL     OW19660   6.929   6.837   2.037
 6254SOL    HW119661   6.928   6.816   2.135
 6254SOL    HW219662   7.015   6.883   2.014
 6255SOL     OW19663   2.085   0.982   0.819
 6255SOL    HW119664   2.132   0.914   0.874
 6255SOL    HW219665   1.991   0.953   0.802
 6256SOL     OW19666   6.963   4.519   2.330
 6256SOL    HW119667   0.008   4.523   2.255
 6256SOL    HW219668   6.904   4.599   2.326
 6257SOL     OW19669   4.055   3.857   0.647
 6257SOL    HW119670   4.132   3.793   0.656
 6257SOL    HW219671   4.090   3.947   0.618
 6258SOL     OW19672   3.951   4.852   4.191
 6258SOL    HW119673   3.855   4.872   4.209
 6258SOL    HW219674   4.004   4.868   4.275
 6259SOL     OW19675   4.861   0.395   4.575
 6259SOL    HW119676   4.823   0.487   4.590
 6259SOL    HW219677   4.820   0.356   4.492
 6260SOL     OW19678   3.701   2.097   0.028
 6260SOL    HW119679   3.604   2.095   0.005
 6260SOL    HW219680   3.746   2.017   7.009
 6261SOL     OW19681   4.463   6.406   1.369
 6261SOL    HW119682   4.413   6.359   1.441
 6261SOL    HW219683   4.473   6.503   1.392
 6262SOL     OW19684   6.040   1.253   3.410
 6262SOL    HW119685   6.126   1.295   3.438
 6262SOL    HW219686   6.005   1.300   3.329
 6263SOL     OW19687   6.382   6.212   6.068
 6263SOL    HW119688   6.417   6.303   6.049
 6263SOL    HW219689   6.443   6.144   6.028
 6264SOL     OW19690   1.245   6.515   1.339
 6264SOL    HW119691   1.169   6.467   1.295
 6264SOL    HW219692   1.246   6.611   1.309
 6265SOL     OW19693   4.048   6.556   6.947
 6265SOL    HW119694   4.144   6.585   6.950
 6265SOL    HW219695   4.040   6.476   6.888
 6266SOL     OW19696   2.793   5.474   3.436
 6266SOL    HW119697   2.748   5.478   3.347
 6266SOL    HW219698   2.872   5.535   3.437
 6267SOL     OW19699   0.800   6.381   4.145
 6267SOL    HW119700   0.791   6.414   4.051
 6267SOL    HW219701   0.720   6.325   4.168
 6268SOL     OW19702   3.050   1.310   1.466
 6268SOL    HW119703   3.018   1.236   1.525
 6268SOL    HW219704   3.102   1.375   1.520
 6269SOL     OW19705   7.018   6.078   0.532
 6269SOL    HW119706   0.012   6.090   0.434
 6269SOL    HW219707   6.996   6.166   0.574
 6270SOL     OW19708   1.878   6.132   1.050
 6270SOL    HW119709   1.946   6.152   0.979
 6270SOL    HW219710   1.789   6.114   1.007
 6271SOL     OW19711   6.921   3.468   6.000
 6271SOL    HW119712   6.958   3.484   5.909
 6271SOL    HW219713   6.964   3.531   6.065
 6272SOL     OW19714   0.076   1.138   0.468
 6272SOL    HW119715   0.096   1.043   0.491
 6272SOL    HW219716   0.142   1.198   0.514
 6273SOL     OW19717   0.647   6.039   3.108
 6273SOL    HW119718   0.605   6.079   3.189
 6273SOL    HW219719   0.576   6.004   3.047
 6274SOL     OW19720   3.346   5.956   4.127
 6274SOL    HW119721   3.307   5.894   4.059
 6274SOL    HW219722   3.381   5.903   4.204
 6275SOL     OW19723   2.996   5.428   1.445
 6275SOL    HW119724   3.063   5.414   1.517
 6275SOL    HW219725   2.904   5.419   1.483
 6276SOL     OW19726   1.423   4.535   2.089
 6276SOL    HW119727   1.406   4.633   2.080
 6276SOL    HW219728   1.509   4.520   2.138
 6277SOL     OW19729   5.482   2.436   1.347
 6277SOL    HW119730   5.392   2.407   1.316
 6277SOL    HW219731   5.472   2.512   1.411
 6278SOL     OW19732   3.753   2.846   0.167
 6278SOL    HW119733   3.683   2.894   0.114
 6278SOL    HW219734   3.743   2.747   0.155
 6279SOL     OW19735   1.163   6.702   2.273
 6279SOL    HW119736   1.158   6.609   2.236
 6279SOL    HW219737   1.180   6.766   2.198
 6280SOL     OW19738   4.926   0.976   6.808
 6280SOL    HW119739   4.837   1.021   6.795
 6280SOL    HW219740   4.913   0.893   6.863
 6281SOL     OW19741   5.737   3.681   6.161
 6281SOL    HW119742   5.677   3.760   6.170
 6281SOL    HW219743   5.821   3.708   6.113
 6282SOL     OW19744   0.538   4.016   5.813
 6282SOL    HW119745   0.475   3.993   5.739
 6282SOL    HW219746   0.560   3.933   5.864
 6283SOL     OW19747   2.382   0.149   4.477
 6283SOL    HW119748   2.288   0.155   4.511
 6283SOL    HW219749   2.432   0.232   4.501
 6284SOL     OW19750   1.668   3.882   6.377
 6284SOL    HW119751   1.572   3.876   6.405
 6284SOL    HW219752   1.727   3.856   6.453
 6285SOL     OW19753   1.832   4.440   3.713
 6285SOL    HW119754   1.765   4.380   3.670
 6285SOL    HW219755   1.823   4.533   3.675
 6286SOL     OW19756   0.945   3.215   6.822
 6286SOL    HW119757   0.895   3.141   6.776
 6286SOL    HW219758   0.999   3.265   6.755
 6287SOL     OW19759   4.105   5.336   5.223
 6287SOL    HW119760   4.083   5.262   5.287
 6287SOL    HW219761   4.196   5.371   5.242
 6288SOL     OW19762   3.456   4.148   5.688
 6288SOL    HW119763   3.394   4.075   5.659
 6288SOL    HW219764   3.550   4.121   5.668
 6289SOL     OW19765   2.322   4.818   5.455
 6289SOL    HW119766   2.380   4.898   5.441
 6289SOL    HW219767   2.370   4.736   5.425
 6290SOL     OW19768   6.396   0.290   2.760
 6290SOL    HW119769   6.377   0.341   2.844
 6290SOL    HW219770   6.359   0.197   2.769
 6291SOL     OW19771   3.064   3.094   2.528
 6291SOL    HW119772   3.058   3.038   2.446
 6291SOL    HW219773   3.150   3.076   2.576
 6292SOL     OW19774   1.143   4.148   5.062
 6292SOL    HW119775   1.157   4.231   5.007
 6292SOL    HW219776   1.223   4.088   5.052
 6293SOL     OW19777   2.523   1.128   0.315
 6293SOL    HW119778   2.451   1.061   0.330
 6293SOL    HW219779   2.599   1.085   0.267
 6294SOL     OW19780   1.824   0.371   2.108
 6294SOL    HW119781   1.802   0.456   2.061
 6294SOL    HW219782   1.815   0.384   2.207
 6295SOL     OW19783   4.417   2.378   5.595
 6295SOL    HW119784   4.359   2.414   5.522
 6295SOL    HW219785   4.389   2.417   5.683
 6296SOL     OW19786   6.952   1.983   0.034
 6296SOL    HW119787   6.924   1.934   6.973
 6296SOL    HW219788   6.875   1.988   0.097
 6297SOL     OW19789   0.242   1.478   4.332
 6297SOL    HW119790   0.266   1.437   4.244
 6297SOL    HW219791   0.318   1.534   4.365
 6298SOL     OW19792   6.558   0.676   6.631
 6298SOL    HW119793   6.622   0.599   6.636
 6298SOL    HW219794   6.528   0.701   6.723
 6299SOL     OW19795   3.132   1.529   3.683
 6299SOL    HW119796   3.173   1.438   3.693
 6299SOL    HW219797   3.171   1.574   3.602
 6300SOL     OW19798   2.869   1.990   1.497
 6300SOL    HW119799   2.906   2.072   1.541
 6300SOL    HW219800   2.815   2.017   1.417
 6301SOL     OW19801   3.871   6.850   1.050
 6301SOL    HW119802   3.913   6.860   0.961
 6301SOL    HW219803   3.776   6.821   1.039
 6302SOL     OW19804   1.507   3.643   0.213
 6302SOL    HW119805   1.466   3.669   0.300
 6302SOL    HW219806   1.438   3.649   0.141
 6303SOL     OW19807   6.455   4.671   5.008
 6303SOL    HW119808   6.446   4.750   4.948
 6303SOL    HW219809   6.454   4.701   5.103
 6304SOL     OW19810   2.083   2.290   4.326
 6304SOL    HW119811   2.037   2.217   4.276
 6304SOL    HW219812   2.166   2.316   4.277
 6305SOL     OW19813   1.217   5.720   4.949
 6305SOL    HW119814   1.311   5.702   4.977
 6305SOL    HW219815   1.185   5.645   4.891
 6306SOL     OW19816   1.092   4.352   3.904
 6306SOL    HW119817   1.111   4.262   3.943
 6306SOL    HW219818   1.019   4.345   3.836
 6307SOL     OW19819   3.389   3.520   3.083
 6307SOL    HW119820   3.400   3.591   3.013
 6307SOL    HW219821   3.384   3.430   3.038
 6308SOL     OW19822   1.076   0.906   1.270
 6308SOL    HW119823   1.142   0.849   1.221
 6308SOL    HW219824   1.123   0.962   1.338
 6309SOL     OW19825   1.741   5.905   5.191
 6309SOL    HW119826   1.686   5.915   5.274
 6309SOL    HW219827   1.697   5.840   5.129
 6310SOL     OW19828   1.038   6.763   3.258
 6310SOL    HW119829   1.086   6.683   3.293
 6310SOL    HW219830   1.047   6.838   3.324
 6311SOL     OW19831   6.028   1.501   6.396
 6311SOL    HW119832   6.035   1.600   6.402
 6311SOL    HW219833   6.118   1.460   6.409
 6312SOL     OW19834   3.922   5.484   1.525
 6312SOL    HW119835   3.962   5.575   1.539
 6312SOL    HW219836   3.952   5.448   1.437
 6313SOL     OW19837   5.374   4.910   2.639
 6313SOL    HW119838   5.372   5.006   2.612
 6313SOL    HW219839   5.467   4.886   2.668
 6314SOL     OW19840   1.966   6.542   3.207
 6314SOL    HW119841   1.955   6.640   3.220
 6314SOL    HW219842   2.050   6.524   3.155
 6315SOL     OW19843   2.209   2.576   3.028
 6315SOL    HW119844   2.200   2.587   3.127
 6315SOL    HW219845   2.118   2.580   2.986
 6316SOL     OW19846   4.738   0.642   4.614
 6316SOL    HW119847   4.757   0.658   4.517
 6316SOL    HW219848   4.750   0.728   4.664
 6317SOL     OW19849   4.947   3.811   3.357
 6317SOL    HW119850   4.909   3.799   3.266
 6317SOL    HW219851   4.900   3.887   3.403
 6318SOL     OW19852   5.477   0.086   0.202
 6318SOL    HW119853   5.450   0.031   0.122
 6318SOL    HW219854   5.509   0.026   0.274
 6319SOL     OW19855   4.552   2.626   4.268
 6319SOL    HW119856   4.510   2.568   4.198
 6319SOL    HW219857   4.521   2.597   4.358
 6320SOL     OW19858   5.829   2.295   6.428
 6320SOL    HW119859   5.791   2.203   6.417
 6320SOL    HW219860   5.913   2.303   6.373
 6321SOL     OW19861   0.953   4.191   0.450
 6321SOL    HW119862   0.892   4.186   0.530
 6321SOL    HW219863   0.950   4.283   0.412
 6322SOL     OW19864   2.261   1.431   2.843
 6322SOL    HW119865   2.232   1.353   2.788
 6322SOL    HW219866   2.339   1.405   2.899
 6323SOL     OW19867   2.134   5.936   0.827
 6323SOL    HW119868   2.228   5.931   0.862
 6323SOL    HW219869   2.076   5.874   0.880
 6324SOL     OW19870   5.134   3.976   1.441
 6324SOL    HW119871   5.067   3.986   1.368
 6324SOL    HW219872   5.167   3.881   1.444
 6325SOL     OW19873   1.182   3.235   4.138
 6325SOL    HW119874   1.253   3.282   4.190
 6325SOL    HW219875   1.136   3.169   4.196
 6326SOL     OW19876   5.020   5.337   4.994
 6326SOL    HW119877   5.039   5.293   5.082
 6326SOL    HW219878   4.934   5.388   5.001
 6327SOL     OW19879   0.710   0.965   2.820
 6327SOL    HW119880   0.694   0.884   2.763
 6327SOL    HW219881   0.797   1.007   2.795
 6328SOL     OW19882   4.169   3.436   4.861
 6328SOL    HW119883   4.119   3.356   4.825
 6328SOL    HW219884   4.266   3.415   4.865
 6329SOL     OW19885   0.368   3.206   4.673
 6329SOL    HW119886   0.442   3.140   4.678
 6329SOL    HW219887   0.389   3.276   4.605
 6330SOL     OW19888   4.267   2.077   3.273
 6330SOL    HW119889   4.330   2.102   3.199
 6330SOL    HW219890   4.311   2.095   3.361
 6331SOL     OW19891   1.779   3.296   3.495
 6331SOL    HW119892   1.732   3.211   3.473
 6331SOL    HW219893   1.825   3.332   3.414
 6332SOL     OW19894   4.615   2.345   0.307
 6332SOL    HW119895   4.663   2.432   0.302
 6332SOL    HW219896   4.682   2.270   0.301
 6333SOL     OW19897   5.965   1.364   0.167
 6333SOL    HW119898   6.057   1.345   0.201
 6333SOL    HW219899   5.910   1.404   0.240
 6334SOL     OW19900   2.181   1.001   1.562
 6334SOL    HW119901   2.264   1.042   1.599
 6334SOL    HW219902   2.106   1.066   1.566
 6335SOL     OW19903   5.728   2.748   5.233
 6335SOL    HW119904   5.794   2.776   5.303
 6335SOL    HW219905   5.654   2.815   5.229
 6336SOL     OW19906   0.773   5.556   5.998
 6336SOL    HW119907   0.708   5.620   5.956
 6336SOL    HW219908   0.819   5.504   5.926
 6337SOL     OW19909   6.202   0.461   5.610
 6337SOL    HW119910   6.158   0.395   5.671
 6337SOL    HW219911   6.134   0.498   5.546
 6338SOL     OW19912   0.760   0.754   2.628
 6338SOL    HW119913   0.757   0.662   2.667
 6338SOL    HW219914   0.819   0.755   2.547
 6339SOL     OW19915   6.891   3.738   3.428
 6339SOL    HW119916   6.902   3.816   3.488
 6339SOL    HW219917   6.926   3.760   3.337
 6340SOL     OW19918   2.322   5.440   6.407
 6340SOL    HW119919   2.254   5.366   6.415
 6340SOL    HW219920   2.358   5.461   6.498
 6341SOL     OW19921   0.951   4.362   2.789
 6341SOL    HW119922   0.989   4.283   2.740
 6341SOL    HW219923   0.864   4.389   2.747
 6342SOL     OW19924   2.497   6.945   1.354
 6342SOL    HW119925   2.565   6.914   1.288
 6342SOL    HW219926   2.542   6.984   1.434
 6343SOL     OW19927   1.526   4.885   6.829
 6343SOL    HW119928   1.597   4.908   6.763
 6343SOL    HW219929   1.456   4.829   6.784
 6344SOL     OW19930   1.342   1.210   4.221
 6344SOL    HW119931   1.329   1.284   4.287
 6344SOL    HW219932   1.365   1.248   4.132
 6345SOL     OW19933   0.497   3.231   3.323
 6345SOL    HW119934   0.463   3.227   3.416
 6345SOL    HW219935   0.586   3.186   3.318
 6346SOL     OW19936   0.664   4.294   3.839
 6346SOL    HW119937   0.593   4.316   3.772
 6346SOL    HW219938   0.666   4.195   3.853
 6347SOL     OW19939   2.171   1.682   2.788
 6347SOL    HW119940   2.214   1.716   2.705
 6347SOL    HW219941   2.199   1.587   2.805
 6348SOL     OW19942   1.487   2.720   0.198
 6348SOL    HW119943   1.462   2.737   0.102
 6348SOL    HW219944   1.442   2.788   0.256
 6349SOL     OW19945   6.324   1.355   0.756
 6349SOL    HW119946   6.357   1.396   0.842
 6349SOL    HW219947   6.238   1.398   0.729
 6350SOL     OW19948   0.278   6.954   1.415
 6350SOL    HW119949   0.273   6.933   1.513
 6350SOL    HW219950   0.191   6.993   1.385
 6351SOL     OW19951   6.221   2.576   2.400
 6351SOL    HW119952   6.181   2.624   2.322
 6351SOL    HW219953   6.262   2.642   2.463
 6352SOL     OW19954   4.087   0.619   5.288
 6352SOL    HW119955   4.123   0.554   5.221
 6352SOL    HW219956   4.161   0.675   5.324
 6353SOL     OW19957   3.854   5.945   5.927
 6353SOL    HW119958   3.794   5.987   5.859
 6353SOL    HW219959   3.918   6.014   5.963
 6354SOL     OW19960   5.738   4.927   2.462
 6354SOL    HW119961   5.715   5.012   2.510
 6354SOL    HW219962   5.665   4.861   2.475
 6355SOL     OW19963   4.859   6.173   6.813
 6355SOL    HW119964   4.885   6.134   6.901
 6355SOL    HW219965   4.938   6.218   6.771
 6356SOL     OW19966   0.613   6.787   6.063
 6356SOL    HW119967   0.633   6.858   5.995
 6356SOL    HW219968   0.679   6.793   6.138
 6357SOL     OW19969   4.662   1.632   2.886
 6357SOL    HW119970   4.646   1.676   2.798
 6357SOL    HW219971   4.588   1.569   2.906
 6358SOL     OW19972   1.426   1.399   4.873
 6358SOL    HW119973   1.410   1.305   4.844
 6358SOL    HW219974   1.400   1.409   4.969
 6359SOL     OW19975   6.609   4.508   0.780
 6359SOL    HW119976   6.570   4.425   0.820
 6359SOL    HW219977   6.550   4.586   0.802
 6360SOL     OW19978   2.972   3.144   0.906
 6360SOL    HW119979   2.874   3.122   0.899
 6360SOL    HW219980   3.000   3.138   1.001
 6361SOL     OW19981   0.186   2.705   2.790
 6361SOL    HW119982   0.185   2.804   2.803
 6361SOL    HW219983   0.094   2.669   2.807
 6362SOL     OW19984   2.190   5.615   0.569
 6362SOL    HW119985   2.228   5.684   0.509
 6362SOL    HW219986   2.163   5.534   0.516
 6363SOL     OW19987   1.065   2.325   1.409
 6363SOL    HW119988   1.091   2.241   1.457
 6363SOL    HW219989   1.088   2.317   1.312
 6364SOL     OW19990   2.612   2.077   4.219
 6364SOL    HW119991   2.688   2.067   4.283
 6364SOL    HW219992   2.582   2.172   4.217
 6365SOL     OW19993   6.297   6.666   2.084
 6365SOL    HW119994   6.358   6.597   2.044
 6365SOL    HW219995   6.209   6.665   2.037
 6366SOL     OW19996   5.954   1.189   5.223
 6366SOL    HW119997   6.040   1.234   5.197
 6366SOL    HW219998   5.894   1.184   5.143
 6367SOL     OW19999   1.711   3.051   4.559
 6367SOL    HW120000   1.663   3.017   4.640
 6367SOL    HW220001   1.807   3.067   4.582
 6368SOL     OW20002   5.305   3.304   5.035
 6368SOL    HW120003   5.264   3.395   5.033
 6368SOL    HW220004   5.234   3.235   5.043
 6369SOL     OW20005   3.595   4.641   0.353
 6369SOL    HW120006   3.525   4.630   0.425
 6369SOL    HW220007   3.622   4.551   0.319
 6370SOL     OW20008   6.303   3.638   4.864
 6370SOL    HW120009   6.284   3.660   4.768
 6370SOL    HW220010   6.349   3.716   4.907
 6371SOL     OW20011   6.210   4.630   1.040
 6371SOL    HW120012   6.195   4.637   1.139
 6371SOL    HW220013   6.285   4.690   1.013
 6372SOL     OW20014   6.195   1.489   1.343
 6372SOL    HW120015   6.220   1.397   1.374
 6372SOL    HW220016   6.266   1.553   1.371
 6373SOL     OW20017   5.807   1.608   1.185
 6373SOL    HW120018   5.837   1.700   1.208
 6373SOL    HW220019   5.774   1.562   1.268
 6374SOL     OW20020   3.469   3.165   6.586
 6374SOL    HW120021   3.485   3.116   6.500
 6374SOL    HW220022   3.536   3.239   6.595
 6375SOL     OW20023   5.493   1.033   1.703
 6375SOL    HW120024   5.481   1.033   1.802
 6375SOL    HW220025   5.534   0.946   1.675
 6376SOL     OW20026   2.826   6.906   0.097
 6376SOL    HW120027   2.794   6.827   0.044
 6376SOL    HW220028   2.924   6.898   0.112
 6377SOL     OW20029   6.916   1.236   0.298
 6377SOL    HW120030   6.974   1.272   0.225
 6377SOL    HW220031   6.974   1.198   0.371
 6378SOL     OW20032   5.637   4.143   3.245
 6378SOL    HW120033   5.570   4.076   3.277
 6378SOL    HW220034   5.694   4.172   3.322
 6379SOL     OW20035   2.416   4.974   6.594
 6379SOL    HW120036   2.382   4.883   6.618
 6379SOL    HW220037   2.471   4.969   6.511
 6380SOL     OW20038   1.950   2.520   4.394
 6380SOL    HW120039   1.896   2.549   4.315
 6380SOL    HW220040   1.997   2.434   4.373
 6381SOL     OW20041   3.384   4.293   1.007
 6381SOL    HW120042   3.374   4.386   0.973
 6381SOL    HW220043   3.309   4.273   1.071
 6382SOL     OW20044   1.469   1.143   0.894
 6382SOL    HW120045   1.395   1.122   0.958
 6382SOL    HW220046   1.547   1.083   0.912
 6383SOL     OW20047   2.747   1.794   2.406
 6383SOL    HW120048   2.750   1.824   2.501
 6383SOL    HW220049   2.833   1.820   2.361
 6384SOL     OW20050   0.414   1.581   2.055
 6384SOL    HW120051   0.343   1.512   2.072
 6384SOL    HW220052   0.480   1.581   2.130
 6385SOL     OW20053   0.071   3.942   1.473
 6385SOL    HW120054   0.100   3.939   1.377
 6385SOL    HW220055   0.151   3.932   1.532
 6386SOL     OW20056   2.811   4.433   0.501
 6386SOL    HW120057   2.746   4.508   0.518
 6386SOL    HW220058   2.761   4.352   0.471
 6387SOL     OW20059   6.378   1.183   5.539
 6387SOL    HW120060   6.358   1.263   5.594
 6387SOL    HW220061   6.403   1.107   5.598
 6388SOL     OW20062   6.217   4.919   2.023
 6388SOL    HW120063   6.254   4.829   2.045
 6388SOL    HW220064   6.291   4.986   2.020
 6389SOL     OW20065   6.683   6.324   0.913
 6389SOL    HW120066   6.626   6.399   0.943
 6389SOL    HW220067   6.779   6.352   0.914
 6390SOL     OW20068   4.808   6.085   0.391
 6390SOL    HW120069   4.789   6.184   0.387
 6390SOL    HW220070   4.740   6.036   0.336
 6391SOL     OW20071   1.201   1.890   5.114
 6391SOL    HW120072   1.102   1.895   5.100
 6391SOL    HW220073   1.221   1.855   5.206
 6392SOL     OW20074   4.627   6.383   3.435
 6392SOL    HW120075   4.599   6.464   3.384
 6392SOL    HW220076   4.567   6.306   3.412
 6393SOL     OW20077   2.397   4.743   6.853
 6393SOL    HW120078   2.318   4.719   6.909
 6393SOL    HW220079   2.428   4.835   6.876
 6394SOL     OW20080   1.651   5.493   2.014
 6394SOL    HW120081   1.627   5.590   2.024
 6394SOL    HW220082   1.721   5.483   1.943
 6395SOL     OW20083   1.087   4.012   5.385
 6395SOL    HW120084   1.139   3.958   5.319
 6395SOL    HW220085   1.091   4.109   5.360
 6396SOL     OW20086   0.913   3.233   4.449
 6396SOL    HW120087   0.963   3.280   4.521
 6396SOL    HW220088   0.975   3.172   4.398
 6397SOL     OW20089   0.425   3.500   4.498
 6397SOL    HW120090   0.514   3.535   4.529
 6397SOL    HW220091   0.358   3.575   4.498
 6398SOL     OW20092   0.764   0.166   2.758
 6398SOL    HW120093   0.789   0.200   2.667
 6398SOL    HW220094   0.821   0.211   2.827
 6399SOL     OW20095   2.684   6.851   6.836
 6399SOL    HW120096   2.607   6.913   6.850
 6399SOL    HW220097   2.678   6.810   6.745
 6400SOL     OW20098   0.906   6.022   3.009
 6400SOL    HW120099   0.808   6.037   3.020
 6400SOL    HW220100   0.956   6.101   3.045
 6401SOL     OW20101   4.034   4.885   1.635
 6401SOL    HW120102   4.016   4.843   1.546
 6401SOL    HW220103   3.961   4.861   1.699
 6402SOL     OW20104   3.279   3.410   6.149
 6402SOL    HW120105   3.245   3.379   6.060
 6402SOL    HW220106   3.203   3.447   6.202
 6403SOL     OW20107   3.840   5.325   5.337
 6403SOL    HW120108   3.817   5.414   5.298
 6403SOL    HW220109   3.887   5.337   5.424
 6404SOL     OW20110   5.330   6.009   5.961
 6404SOL    HW120111   5.275   5.964   5.891
 6404SOL    HW220112   5.419   6.034   5.923
 6405SOL     OW20113   4.551   0.839   3.198
 6405SOL    HW120114   4.617   0.798   3.262
 6405SOL    HW220115   4.582   0.931   3.173
 6406SOL     OW20116   0.368   3.335   2.089
 6406SOL    HW120117   0.311   3.329   2.170
 6406SOL    HW220118   0.350   3.421   2.041
 6407SOL     OW20119   0.381   0.065   2.526
 6407SOL    HW120120   0.299   0.100   2.482
 6407SOL    HW220121   0.362   6.997   2.567
 6408SOL     OW20122   6.709   1.401   2.002
 6408SOL    HW120123   6.747   1.449   2.081
 6408SOL    HW220124   6.783   1.373   1.941
 6409SOL     OW20125   6.567   4.310   4.135
 6409SOL    HW120126   6.634   4.302   4.209
 6409SOL    HW220127   6.510   4.228   4.132
 6410SOL     OW20128   1.446   0.746   6.843
 6410SOL    HW120129   1.360   0.705   6.875
 6410SOL    HW220130   1.433   0.784   6.752
 6411SOL     OW20131   1.226   2.407   4.295
 6411SOL    HW120132   1.195   2.402   4.390
 6411SOL    HW220133   1.161   2.460   4.241
 6412SOL     OW20134   4.200   0.368   0.163
 6412SOL    HW120135   4.287   0.416   0.166
 6412SOL    HW220136   4.206   0.289   0.102
 6413SOL     OW20137   4.555   5.916   3.243
 6413SOL    HW120138   4.499   5.908   3.161
 6413SOL    HW220139   4.556   5.828   3.291
 6414SOL     OW20140   3.483   0.399   0.407
 6414SOL    HW120141   3.403   0.423   0.351
 6414SOL    HW220142   3.562   0.451   0.375
 6415SOL     OW20143   0.060   2.006   3.210
 6415SOL    HW120144   0.088   2.067   3.285
 6415SOL    HW220145   0.129   1.934   3.199
 6416SOL     OW20146   2.870   4.458   0.164
 6416SOL    HW120147   2.803   4.390   0.194
 6416SOL    HW220148   2.905   4.508   0.243
 6417SOL     OW20149   4.565   3.561   6.201
 6417SOL    HW120150   4.489   3.560   6.135
 6417SOL    HW220151   4.651   3.547   6.153
 6418SOL     OW20152   5.115   5.291   0.510
 6418SOL    HW120153   5.065   5.204   0.509
 6418SOL    HW220154   5.119   5.328   0.418
 6419SOL     OW20155   1.386   0.024   6.398
 6419SOL    HW120156   1.458   0.005   6.465
 6419SOL    HW220157   1.426   0.068   6.317
 6420SOL     OW20158   1.963   4.961   3.449
 6420SOL    HW120159   1.957   5.051   3.493
 6420SOL    HW220160   2.058   4.929   3.451
 6421SOL     OW20161   4.937   6.680   1.808
 6421SOL    HW120162   4.950   6.592   1.853
 6421SOL    HW220163   4.988   6.750   1.857
 6422SOL     OW20164   1.058   0.897   5.144
 6422SOL    HW120165   1.149   0.914   5.109
 6422SOL    HW220166   0.990   0.919   5.074
 6423SOL     OW20167   1.349   3.810   4.178
 6423SOL    HW120168   1.345   3.713   4.201
 6423SOL    HW220169   1.371   3.863   4.260
 6424SOL     OW20170   6.266   4.230   5.499
 6424SOL    HW120171   6.332   4.298   5.468
 6424SOL    HW220172   6.304   4.138   5.486
 6425SOL     OW20173   0.857   6.978   5.045
 6425SOL    HW120174   0.771   6.947   5.004
 6425SOL    HW220175   0.847   6.979   5.145
 6426SOL     OW20176   3.466   5.107   3.500
 6426SOL    HW120177   3.546   5.053   3.472
 6426SOL    HW220178   3.406   5.050   3.557
 6427SOL     OW20179   3.183   3.443   3.299
 6427SOL    HW120180   3.211   3.483   3.211
 6427SOL    HW220181   3.091   3.405   3.290
 6428SOL     OW20182   6.354   2.967   6.939
 6428SOL    HW120183   6.443   2.938   6.974
 6428SOL    HW220184   6.361   3.060   6.904
 6429SOL     OW20185   2.873   1.783   4.629
 6429SOL    HW120186   2.841   1.700   4.674
 6429SOL    HW220187   2.796   1.829   4.585
 6430SOL     OW20188   6.633   1.487   4.591
 6430SOL    HW120189   6.647   1.423   4.667
 6430SOL    HW220190   6.535   1.509   4.583
 6431SOL     OW20191   3.186   4.927   3.047
 6431SOL    HW120192   3.210   4.856   3.114
 6431SOL    HW220193   3.152   5.008   3.095
 6432SOL     OW20194   4.539   3.504   6.795
 6432SOL    HW120195   4.459   3.535   6.744
 6432SOL    HW220196   4.602   3.457   6.733
 6433SOL     OW20197   3.984   4.952   6.310
 6433SOL    HW120198   3.944   5.039   6.339
 6433SOL    HW220199   3.913   4.897   6.266
 6434SOL     OW20200   6.620   4.651   6.361
 6434SOL    HW120201   6.659   4.651   6.269
 6434SOL    HW220202   6.526   4.684   6.358
 6435SOL     OW20203   4.706   1.129   0.957
 6435SOL    HW120204   4.651   1.127   0.873
 6435SOL    HW220205   4.718   1.224   0.987
 6436SOL     OW20206   1.052   1.936   4.064
 6436SOL    HW120207   1.111   1.879   4.007
 6436SOL    HW220208   1.104   2.013   4.100
 6437SOL     OW20209   1.228   2.868   6.717
 6437SOL    HW120210   1.294   2.908   6.653
 6437SOL    HW220211   1.153   2.825   6.665
 6438SOL     OW20212   0.688   5.879   1.156
 6438SOL    HW120213   0.685   5.831   1.244
 6438SOL    HW220214   0.600   5.868   1.109
 6439SOL     OW20215   4.364   6.431   3.157
 6439SOL    HW120216   4.273   6.465   3.135
 6439SOL    HW220217   4.380   6.345   3.107
 6440SOL     OW20218   2.365   2.443   5.662
 6440SOL    HW120219   2.289   2.508   5.674
 6440SOL    HW220220   2.355   2.395   5.575
 6441SOL     OW20221   1.455   1.743   1.063
 6441SOL    HW120222   1.424   1.752   0.968
 6441SOL    HW220223   1.485   1.649   1.078
 6442SOL     OW20224   3.110   1.650   4.498
 6442SOL    HW120225   3.073   1.709   4.426
 6442SOL    HW220226   3.195   1.690   4.533
 6443SOL     OW20227   2.820   2.333   5.846
 6443SOL    HW120228   2.796   2.271   5.771
 6443SOL    HW220229   2.888   2.398   5.814
 6444SOL     OW20230   7.015   3.926   5.560
 6444SOL    HW120231   6.956   3.872   5.500
 6444SOL    HW220232   0.089   3.900   5.546
 6445SOL     OW20233   3.298   3.125   3.766
 6445SOL    HW120234   3.378   3.074   3.733
 6445SOL    HW220235   3.305   3.220   3.736
 6446SOL     OW20236   1.141   0.475   2.053
 6446SOL    HW120237   1.086   0.538   2.108
 6446SOL    HW220238   1.109   0.382   2.067
 6447SOL     OW20239   6.578   3.785   1.525
 6447SOL    HW120240   6.497   3.734   1.497
 6447SOL    HW220241   6.652   3.721   1.546
 6448SOL     OW20242   3.981   4.252   1.664
 6448SOL    HW120243   3.996   4.153   1.672
 6448SOL    HW220244   3.887   4.273   1.689
 6449SOL     OW20245   4.525   5.653   0.306
 6449SOL    HW120246   4.597   5.597   0.346
 6449SOL    HW220247   4.448   5.659   0.369
 6450SOL     OW20248   4.448   3.307   0.858
 6450SOL    HW120249   4.503   3.228   0.883
 6450SOL    HW220250   4.360   3.277   0.820
 6451SOL     OW20251   4.597   3.139   1.363
 6451SOL    HW120252   4.687   3.136   1.321
 6451SOL    HW220253   4.564   3.046   1.380
 6452SOL     OW20254   4.365   1.737   4.630
 6452SOL    HW120255   4.431   1.783   4.570
 6452SOL    HW220256   4.350   1.791   4.712
 6453SOL     OW20257   3.390   1.037   3.215
 6453SOL    HW120258   3.408   1.035   3.313
 6453SOL    HW220259   3.397   1.132   3.182
 6454SOL     OW20260   4.789   3.479   5.604
 6454SOL    HW120261   4.750   3.391   5.575
 6454SOL    HW220262   4.798   3.539   5.525
 6455SOL     OW20263   0.276   3.101   5.315
 6455SOL    HW120264   0.242   3.011   5.287
 6455SOL    HW220265   0.367   3.091   5.355
 6456SOL     OW20266   6.410   1.924   3.051
 6456SOL    HW120267   6.377   1.948   2.960
 6456SOL    HW220268   6.337   1.935   3.118
 6457SOL     OW20269   1.362   6.254   3.424
 6457SOL    HW120270   1.363   6.169   3.477
 6457SOL    HW220271   1.441   6.310   3.449
 6458SOL     OW20272   1.207   0.224   5.277
 6458SOL    HW120273   1.292   0.180   5.306
 6458SOL    HW220274   1.130   0.183   5.327
 6459SOL     OW20275   0.501   3.527   3.318
 6459SOL    HW120276   0.593   3.489   3.314
 6459SOL    HW220277   0.444   3.469   3.377
 6460SOL     OW20278   1.445   5.373   5.715
 6460SOL    HW120279   1.473   5.442   5.783
 6460SOL    HW220280   1.388   5.304   5.760
 6461SOL     OW20281   0.355   6.822   2.286
 6461SOL    HW120282   0.352   6.912   2.330
 6461SOL    HW220283   0.283   6.765   2.323
 6462SOL     OW20284   2.421   4.340   5.377
 6462SOL    HW120285   2.474   4.284   5.441
 6462SOL    HW220286   2.384   4.282   5.305
 6463SOL     OW20287   4.803   3.159   1.723
 6463SOL    HW120288   4.769   3.108   1.802
 6463SOL    HW220289   4.902   3.168   1.730
 6464SOL     OW20290   1.034   3.307   3.713
 6464SOL    HW120291   0.954   3.344   3.666
 6464SOL    HW220292   1.110   3.300   3.648
 6465SOL     OW20293   2.612   1.425   2.846
 6465SOL    HW120294   2.629   1.516   2.884
 6465SOL    HW220295   2.530   1.386   2.888
 6466SOL     OW20296   6.456   5.532   6.566
 6466SOL    HW120297   6.372   5.573   6.602
 6466SOL    HW220298   6.533   5.593   6.586
 6467SOL     OW20299   2.840   3.271   5.849
 6467SOL    HW120300   2.902   3.205   5.892
 6467SOL    HW220301   2.860   3.276   5.751
 6468SOL     OW20302   0.860   0.983   0.459
 6468SOL    HW120303   0.937   0.928   0.427
 6468SOL    HW220304   0.894   1.069   0.497
 6469SOL     OW20305   2.421   1.042   0.829
 6469SOL    HW120306   2.470   0.999   0.753
 6469SOL    HW220307   2.381   0.971   0.886
 6470SOL     OW20308   5.837   0.944   6.721
 6470SOL    HW120309   5.884   0.857   6.729
 6470SOL    HW220310   5.831   0.988   6.811
 6471SOL     OW20311   1.166   6.500   5.456
 6471SOL    HW120312   1.146   6.441   5.535
 6471SOL    HW220313   1.121   6.588   5.468
 6472SOL     OW20314   0.797   6.349   1.518
 6472SOL    HW120315   0.818   6.380   1.611
 6472SOL    HW220316   0.863   6.390   1.454
 6473SOL     OW20317   2.707   1.881   3.965
 6473SOL    HW120318   2.661   1.969   3.973
 6473SOL    HW220319   2.738   1.852   4.056
 6474SOL     OW20320   3.770   0.325   4.206
 6474SOL    HW120321   3.829   0.349   4.284
 6474SOL    HW220322   3.827   0.296   4.129
 6475SOL     OW20323   5.303   5.965   3.573
 6475SOL    HW120324   5.376   5.932   3.514
 6475SOL    HW220325   5.260   5.888   3.619
 6476SOL     OW20326   5.435   4.004   5.175
 6476SOL    HW120327   5.408   4.042   5.086
 6476SOL    HW220328   5.532   4.022   5.191
 6477SOL     OW20329   1.340   6.808   0.809
 6477SOL    HW120330   1.258   6.764   0.774
 6477SOL    HW220331   1.317   6.898   0.847
 6478SOL     OW20332   1.980   6.076   6.824
 6478SOL    HW120333   2.007   6.025   6.742
 6478SOL    HW220334   1.949   6.012   6.894
 6479SOL     OW20335   4.606   5.565   4.265
 6479SOL    HW120336   4.518   5.580   4.310
 6479SOL    HW220337   4.591   5.521   4.177
 6480SOL     OW20338   3.038   1.136   5.185
 6480SOL    HW120339   3.019   1.233   5.201
 6480SOL    HW220340   3.010   1.083   5.265
 6481SOL     OW20341   3.859   3.511   1.849
 6481SOL    HW120342   3.851   3.562   1.934
 6481SOL    HW220343   3.860   3.575   1.772
 6482SOL     OW20344   5.284   3.194   3.724
 6482SOL    HW120345   5.305   3.292   3.716
 6482SOL    HW220346   5.286   3.151   3.634
 6483SOL     OW20347   2.096   6.348   5.753
 6483SOL    HW120348   2.171   6.292   5.719
 6483SOL    HW220349   2.053   6.397   5.677
 6484SOL     OW20350   4.045   0.468   3.279
 6484SOL    HW120351   4.007   0.425   3.361
 6484SOL    HW220352   3.983   0.540   3.248
 6485SOL     OW20353   1.832   4.991   4.862
 6485SOL    HW120354   1.932   4.985   4.863
 6485SOL    HW220355   1.799   5.017   4.953
 6486SOL     OW20356   6.900   4.017   2.229
 6486SOL    HW120357   6.939   4.100   2.270
 6486SOL    HW220358   6.803   4.011   2.251
 6487SOL     OW20359   6.285   5.403   4.097
 6487SOL    HW120360   6.310   5.491   4.137
 6487SOL    HW220361   6.285   5.332   4.168
 6488SOL     OW20362   3.131   5.160   3.171
 6488SOL    HW120363   3.161   5.166   3.266
 6488SOL    HW220364   3.060   5.228   3.154
 6489SOL     OW20365   5.823   3.541   5.468
 6489SOL    HW120366   5.839   3.586   5.380
 6489SOL    HW220367   5.769   3.458   5.454
 6490SOL     OW20368   1.761   3.697   6.835
 6490SOL    HW120369   1.742   3.600   6.822
 6490SOL    HW220370   1.718   3.728   6.921
 6491SOL     OW20371   1.260   0.436   2.381
 6491SOL    HW120372   1.327   0.393   2.441
 6491SOL    HW220373   1.288   0.424   2.285
 6492SOL     OW20374   3.794   2.976   3.222
 6492SOL    HW120375   3.710   2.991   3.275
 6492SOL    HW220376   3.872   3.012   3.273
 6493SOL     OW20377   1.514   5.162   4.261
 6493SOL    HW120378   1.417   5.151   4.282
 6493SOL    HW220379   1.558   5.215   4.333
 6494SOL     OW20380   6.736   1.045   1.567
 6494SOL    HW120381   6.729   1.127   1.511
 6494SOL    HW220382   6.653   0.990   1.557
 6495SOL     OW20383   5.916   6.491   2.641
 6495SOL    HW120384   5.891   6.398   2.615
 6495SOL    HW220385   5.907   6.551   2.561
 6496SOL     OW20386   2.807   2.903   1.394
 6496SOL    HW120387   2.723   2.926   1.345
 6496SOL    HW220388   2.789   2.904   1.493
 6497SOL     OW20389   0.100   2.911   0.859
 6497SOL    HW120390   0.028   2.858   0.814
 6497SOL    HW220391   0.185   2.858   0.859
 6498SOL     OW20392   2.639   4.993   4.613
 6498SOL    HW120393   2.651   4.894   4.611
 6498SOL    HW220394   2.720   5.035   4.655
 6499SOL     OW20395   5.434   2.364   2.747
 6499SOL    HW120396   5.533   2.363   2.739
 6499SOL    HW220397   5.393   2.381   2.657
 6500SOL     OW20398   1.897   4.030   2.557
 6500SOL    HW120399   1.892   3.969   2.478
 6500SOL    HW220400   1.820   4.093   2.555
 6501SOL     OW20401   6.738   1.407   2.547
 6501SOL    HW120402   6.651   1.439   2.586
 6501SOL    HW220403   6.720   1.336   2.480
 6502SOL     OW20404   1.020   2.882   2.580
 6502SOL    HW120405   1.003   2.796   2.532
 6502SOL    HW220406   0.945   2.945   2.563
 6503SOL     OW20407   0.549   2.340   5.397
 6503SOL    HW120408   0.612   2.282   5.447
 6503SOL    HW220409   0.592   2.370   5.311
 6504SOL     OW20410   3.866   5.956   6.335
 6504SOL    HW120411   3.852   5.982   6.430
 6504SOL    HW220412   3.802   5.882   6.311
 6505SOL     OW20413   0.410   6.878   0.099
 6505SOL    HW120414   0.390   6.965   0.145
 6505SOL    HW220415   0.499   6.885   0.054
 6506SOL     OW20416   0.109   4.600   1.845
 6506SOL    HW120417   0.131   4.665   1.773
 6506SOL    HW220418   0.177   4.527   1.847
 6507SOL     OW20419   5.577   5.543   0.832
 6507SOL    HW120420   5.502   5.562   0.896
 6507SOL    HW220421   5.605   5.448   0.841
 6508SOL     OW20422   6.946   0.810   4.064
 6508SOL    HW120423   6.993   0.729   4.100
 6508SOL    HW220424   7.014   0.880   4.041
 6509SOL     OW20425   2.300   1.651   6.925
 6509SOL    HW120426   2.299   1.551   6.932
 6509SOL    HW220427   2.234   1.689   6.990
 6510SOL     OW20428   3.703   4.962   3.994
 6510SOL    HW120429   3.622   4.926   3.947
 6510SOL    HW220430   3.695   4.944   4.092
 6511SOL     OW20431   3.549   2.979   0.002
 6511SOL    HW120432   3.540   2.980   6.924
 6511SOL    HW220433   3.535   3.072   0.038
 6512SOL     OW20434   5.197   1.348   1.939
 6512SOL    HW120435   5.118   1.394   1.897
 6512SOL    HW220436   5.206   1.377   2.034
 6513SOL     OW20437   3.479   5.016   2.015
 6513SOL    HW120438   3.539   4.937   2.012
 6513SOL    HW220439   3.532   5.099   1.994
 6514SOL     OW20440   5.047   5.653   5.730
 6514SOL    HW120441   5.010   5.681   5.641
 6514SOL    HW220442   5.045   5.731   5.792
 6515SOL     OW20443   0.828   5.150   2.270
 6515SOL    HW120444   0.842   5.056   2.239
 6515SOL    HW220445   0.811   5.210   2.192
 6516SOL     OW20446   5.738   1.003   3.612
 6516SOL    HW120447   5.761   0.907   3.629
 6516SOL    HW220448   5.671   1.033   3.680
 6517SOL     OW20449   6.594   4.443   0.501
 6517SOL    HW120450   6.608   4.470   0.596
 6517SOL    HW220451   6.530   4.366   0.497
 6518SOL     OW20452   0.984   1.719   1.938
 6518SOL    HW120453   0.938   1.668   1.865
 6518SOL    HW220454   1.082   1.701   1.934
 6519SOL     OW20455   1.491   2.016   3.651
 6519SOL    HW120456   1.490   2.030   3.750
 6519SOL    HW220457   1.404   1.978   3.622
 6520SOL     OW20458   5.947   6.463   6.816
 6520SOL    HW120459   6.031   6.408   6.813
 6520SOL    HW220460   5.947   6.527   6.739
 6521SOL     OW20461   1.555   4.515   4.477
 6521SOL    HW120462   1.594   4.601   4.444
 6521SOL    HW220463   1.613   4.477   4.549
 6522SOL     OW20464   2.217   2.882   5.229
 6522SOL    HW120465   2.149   2.953   5.249
 6522SOL    HW220466   2.290   2.920   5.174
 6523SOL     OW20467   5.195   6.707   0.620
 6523SOL    HW120468   5.136   6.629   0.602
 6523SOL    HW220469   5.269   6.678   0.682
 6524SOL     OW20470   3.548   2.437   0.987
 6524SOL    HW120471   3.644   2.450   1.014
 6524SOL    HW220472   3.541   2.438   0.887
 6525SOL     OW20473   2.950   4.780   3.265
 6525SOL    HW120474   2.897   4.824   3.192
 6525SOL    HW220475   2.888   4.726   3.322
 6526SOL     OW20476   6.510   6.633   0.715
 6526SOL    HW120477   6.595   6.616   0.667
 6526SOL    HW220478   6.515   6.594   0.807
 6527SOL     OW20479   5.503   2.313   0.296
 6527SOL    HW120480   5.410   2.347   0.281
 6527SOL    HW220481   5.567   2.364   0.240
 6528SOL     OW20482   4.719   0.056   0.073
 6528SOL    HW120483   4.644   0.122   0.064
 6528SOL    HW220484   4.730   0.008   7.008
 6529SOL     OW20485   3.981   6.595   1.638
 6529SOL    HW120486   3.926   6.614   1.720
 6529SOL    HW220487   4.061   6.654   1.636
 6530SOL     OW20488   6.951   2.463   4.070
 6530SOL    HW120489   0.028   2.448   4.085
 6530SOL    HW220490   6.904   2.375   4.071
 6531SOL     OW20491   2.939   3.855   4.094
 6531SOL    HW120492   2.988   3.898   4.017
 6531SOL    HW220493   2.841   3.860   4.077
 6532SOL     OW20494   1.058   6.061   6.970
 6532SOL    HW120495   0.976   6.118   6.976
 6532SOL    HW220496   1.140   6.120   6.969
 6533SOL     OW20497   5.286   4.598   1.307
 6533SOL    HW120498   5.262   4.613   1.211
 6533SOL    HW220499   5.234   4.521   1.343
 6534SOL     OW20500   6.610   3.533   4.688
 6534SOL    HW120501   6.558   3.447   4.682
 6534SOL    HW220502   6.546   3.610   4.693
 6535SOL     OW20503   5.445   3.530   0.007
 6535SOL    HW120504   5.528   3.499   6.981
 6535SOL    HW220505   5.369   3.534   6.963
 6536SOL     OW20506   6.969   5.260   5.264
 6536SOL    HW120507   0.036   5.247   5.220
 6536SOL    HW220508   6.929   5.346   5.235
 6537SOL     OW20509   6.582   5.518   4.411
 6537SOL    HW120510   6.552   5.555   4.323
 6537SOL    HW220511   6.682   5.507   4.411
 6538SOL     OW20512   1.395   3.691   3.417
 6538SOL    HW120513   1.460   3.763   3.392
 6538SOL    HW220514   1.354   3.653   3.334
 6539SOL     OW20515   5.634   6.688   5.201
 6539SOL    HW120516   5.686   6.773   5.188
 6539SOL    HW220517   5.648   6.628   5.122
 6540SOL     OW20518   0.997   2.283   5.269
 6540SOL    HW120519   1.022   2.372   5.308
 6540SOL    HW220520   1.079   2.227   5.258
 6541SOL     OW20521   3.675   1.601   5.081
 6541SOL    HW120522   3.638   1.518   5.123
 6541SOL    HW220523   3.698   1.666   5.153
 6542SOL     OW20524   1.921   4.871   2.064
 6542SOL    HW120525   1.976   4.802   2.110
 6542SOL    HW220526   1.981   4.929   2.007
 6543SOL     OW20527   3.720   1.746   4.322
 6543SOL    HW120528   3.659   1.800   4.379
 6543SOL    HW220529   3.677   1.731   4.232
 6544SOL     OW20530   1.269   0.638   1.643
 6544SOL    HW120531   1.208   0.716   1.658
 6544SOL    HW220532   1.229   0.578   1.573
 6545SOL     OW20533   5.818   5.101   0.967
 6545SOL    HW120534   5.839   5.198   0.967
 6545SOL    HW220535   5.886   5.051   0.913
 6546SOL     OW20536   4.064   5.335   3.995
 6546SOL    HW120537   4.060   5.257   4.057
 6546SOL    HW220538   3.997   5.322   3.921
 6547SOL     OW20539   0.725   6.678   5.162
 6547SOL    HW120540   0.822   6.671   5.187
 6547SOL    HW220541   0.677   6.596   5.193
 6548SOL     OW20542   1.058   1.471   5.772
 6548SOL    HW120543   1.100   1.385   5.743
 6548SOL    HW220544   1.125   1.545   5.765
 6549SOL     OW20545   2.950   1.531   2.562
 6549SOL    HW120546   2.922   1.444   2.601
 6549SOL    HW220547   3.035   1.518   2.510
 6550SOL     OW20548   5.724   6.878   1.972
 6550SOL    HW120549   5.737   6.830   1.885
 6550SOL    HW220550   5.670   6.820   2.033
 6551SOL     OW20551   2.517   5.339   1.243
 6551SOL    HW120552   2.533   5.310   1.337
 6551SOL    HW220553   2.528   5.438   1.236
 6552SOL     OW20554   2.414   3.600   6.974
 6552SOL    HW120555   2.479   3.638   0.019
 6552SOL    HW220556   2.381   3.674   6.914
 6553SOL     OW20557   0.182   1.755   3.160
 6553SOL    HW120558   0.158   1.682   3.224
 6553SOL    HW220559   0.262   1.728   3.107
 6554SOL     OW20560   2.019   1.924   3.932
 6554SOL    HW120561   2.028   2.023   3.919
 6554SOL    HW220562   2.045   1.877   3.848
 6555SOL     OW20563   2.160   3.776   1.963
 6555SOL    HW120564   2.161   3.682   1.996
 6555SOL    HW220565   2.182   3.838   2.039
 6556SOL     OW20566   4.950   3.102   3.559
 6556SOL    HW120567   4.915   3.132   3.470
 6556SOL    HW220568   4.954   3.181   3.621
 6557SOL     OW20569   1.881   6.747   2.495
 6557SOL    HW120570   1.961   6.803   2.473
 6557SOL    HW220571   1.910   6.654   2.517
 6558SOL     OW20572   5.370   5.072   1.200
 6558SOL    HW120573   5.405   5.154   1.155
 6558SOL    HW220574   5.306   5.099   1.272
 6559SOL     OW20575   0.042   1.700   6.074
 6559SOL    HW120576   6.965   1.691   6.086
 6559SOL    HW220577   0.073   1.788   6.109
 6560SOL     OW20578   6.788   4.629   6.139
 6560SOL    HW120579   6.818   4.630   6.043
 6560SOL    HW220580   6.863   4.598   6.197
 6561SOL     OW20581   2.854   5.262   7.004
 6561SOL    HW120582   2.910   5.180   6.994
 6561SOL    HW220583   2.843   5.283   0.079
 6562SOL     OW20584   4.794   2.421   1.032
 6562SOL    HW120585   4.768   2.373   1.116
 6562SOL    HW220586   4.879   2.382   0.996
 6563SOL     OW20587   5.925   4.686   5.680
 6563SOL    HW120588   5.938   4.753   5.753
 6563SOL    HW220589   5.959   4.597   5.710
 6564SOL     OW20590   5.835   3.950   1.759
 6564SOL    HW120591   5.924   3.923   1.722
 6564SOL    HW220592   5.774   3.870   1.760
 6565SOL     OW20593   5.493   5.750   2.074
 6565SOL    HW120594   5.492   5.650   2.074
 6565SOL    HW220595   5.477   5.783   1.981
 6566SOL     OW20596   5.506   5.320   3.991
 6566SOL    HW120597   5.567   5.289   4.063
 6566SOL    HW220598   5.509   5.255   3.915
 6567SOL     OW20599   2.865   0.691   2.701
 6567SOL    HW120600   2.956   0.728   2.722
 6567SOL    HW220601   2.797   0.736   2.759
 6568SOL     OW20602   5.238   1.716   0.421
 6568SOL    HW120603   5.160   1.674   0.468
 6568SOL    HW220604   5.318   1.713   0.481
 6569SOL     OW20605   1.620   4.061   3.041
 6569SOL    HW120606   1.656   4.142   2.993
 6569SOL    HW220607   1.695   3.997   3.058
 6570SOL     OW20608   4.094   0.230   2.724
 6570SOL    HW120609   4.077   0.183   2.811
 6570SOL    HW220610   4.107   0.162   2.652
 6571SOL     OW20611   2.578   6.634   3.024
 6571SOL    HW120612   2.583   6.562   3.093
 6571SOL    HW220613   2.547   6.719   3.067
 6572SOL     OW20614   1.234   6.788   3.628
 6572SOL    HW120615   1.311   6.727   3.614
 6572SOL    HW220616   1.197   6.775   3.720
 6573SOL     OW20617   0.955   2.545   3.708
 6573SOL    HW120618   0.879   2.607   3.691
 6573SOL    HW220619   0.926   2.473   3.770
 6574SOL     OW20620   0.864   5.070   1.456
 6574SOL    HW120621   0.949   5.027   1.426
 6574SOL    HW220622   0.789   5.005   1.445
 6575SOL     OW20623   6.564   1.193   4.106
 6575SOL    HW120624   6.656   1.189   4.068
 6575SOL    HW220625   6.558   1.267   4.173
 6576SOL     OW20626   3.926   0.600   2.325
 6576SOL    HW120627   3.874   0.643   2.398
 6576SOL    HW220628   3.925   0.501   2.337
 6577SOL     OW20629   3.347   0.847   5.267
 6577SOL    HW120630   3.266   0.867   5.212
 6577SOL    HW220631   3.344   0.752   5.298
 6578SOL     OW20632   0.890   5.746   0.216
 6578SOL    HW120633   0.814   5.689   0.183
 6578SOL    HW220634   0.952   5.690   0.271
 6579SOL     OW20635   2.115   1.779   3.156
 6579SOL    HW120636   2.174   1.815   3.082
 6579SOL    HW220637   2.137   1.826   3.241
 6580SOL     OW20638   3.637   2.491   0.014
 6580SOL    HW120639   3.692   2.507   6.954
 6580SOL    HW220640   3.569   2.564   0.023
 6581SOL     OW20641   0.627   2.577   1.849
 6581SOL    HW120642   0.571   2.637   1.792
 6581SOL    HW220643   0.587   2.572   1.940
 6582SOL     OW20644   3.878   6.528   3.043
 6582SOL    HW120645   3.811   6.581   2.991
 6582SOL    HW220646   3.836   6.444   3.078
 6583SOL     OW20647   2.552   4.100   1.243
 6583SOL    HW120648   2.610   4.121   1.321
 6583SOL    HW220649   2.592   4.025   1.190
 6584SOL     OW20650   4.486   3.271   5.881
 6584SOL    HW120651   4.539   3.187   5.892
 6584SOL    HW220652   4.421   3.260   5.806
 6585SOL     OW20653   5.088   6.881   1.900
 6585SOL    HW120654   5.102   6.972   1.859
 6585SOL    HW220655   5.140   6.875   1.984
 6586SOL     OW20656   6.805   1.763   6.882
 6586SOL    HW120657   6.748   1.770   6.963
 6586SOL    HW220658   6.836   1.668   6.871
 6587SOL     OW20659   2.405   4.563   5.548
 6587SOL    HW120660   2.398   4.481   5.491
 6587SOL    HW220661   2.368   4.544   5.639
 6588SOL     OW20662   0.875   2.379   0.579
 6588SOL    HW120663   0.894   2.287   0.545
 6588SOL    HW220664   0.952   2.412   0.633
 6589SOL     OW20665   5.826   0.155   0.984
 6589SOL    HW120666   5.742   0.209   0.979
 6589SOL    HW220667   5.843   0.129   1.078
 6590SOL     OW20668   1.282   6.698   4.522
 6590SOL    HW120669   1.271   6.666   4.428
 6590SOL    HW220670   1.378   6.720   4.540
 6591SOL     OW20671   6.504   3.422   3.404
 6591SOL    HW120672   6.429   3.390   3.345
 6591SOL    HW220673   6.573   3.468   3.348
 6592SOL     OW20674   0.125   0.667   4.265
 6592SOL    HW120675   0.161   0.760   4.256
 6592SOL    HW220676   0.187   0.613   4.323
 6593SOL     OW20677   1.064   0.747   3.157
 6593SOL    HW120678   1.050   0.774   3.252
 6593SOL    HW220679   1.026   0.656   3.142
 6594SOL     OW20680   5.242   0.139   6.464
 6594SOL    HW120681   5.207   0.223   6.422
 6594SOL    HW220682   5.173   0.102   6.527
 6595SOL     OW20683   0.751   0.476   5.265
 6595SOL    HW120684   0.784   0.504   5.174
 6595SOL    HW220685   0.828   0.475   5.329
 6596SOL     OW20686   5.159   0.657   2.966
 6596SOL    HW120687   5.119   0.650   3.058
 6596SOL    HW220688   5.097   0.617   2.899
 6597SOL     OW20689   1.254   5.495   1.272
 6597SOL    HW120690   1.243   5.438   1.353
 6597SOL    HW220691   1.165   5.521   1.236
 6598SOL     OW20692   1.414   5.162   1.692
 6598SOL    HW120693   1.470   5.156   1.774
 6598SOL    HW220694   1.376   5.071   1.670
 6599SOL     OW20695   0.505   6.330   6.350
 6599SOL    HW120696   0.435   6.260   6.335
 6599SOL    HW220697   0.507   6.356   6.446
 6600SOL     OW20698   4.749   0.059   4.432
 6600SOL    HW120699   4.738   0.156   4.413
 6600SOL    HW220700   4.822   0.022   4.374
 6601SOL     OW20701   0.663   2.581   2.983
 6601SOL    HW120702   0.751   2.594   3.029
 6601SOL    HW220703   0.599   2.538   3.046
 6602SOL     OW20704   5.943   6.378   0.550
 6602SOL    HW120705   5.906   6.290   0.580
 6602SOL    HW220706   6.013   6.409   0.615
 6603SOL     OW20707   0.073   4.554   2.593
 6603SOL    HW120708   0.047   4.552   2.496
 6603SOL    HW220709   0.071   4.648   2.626
 6604SOL     OW20710   2.034   5.151   2.203
 6604SOL    HW120711   2.041   5.231   2.262
 6604SOL    HW220712   2.001   5.178   2.112
 6605SOL     OW20713   6.771   5.722   1.193
 6605SOL    HW120714   6.729   5.811   1.209
 6605SOL    HW220715   6.805   5.717   1.099
 6606SOL     OW20716   1.335   4.920   2.792
 6606SOL    HW120717   1.337   4.929   2.892
 6606SOL    HW220718   1.408   4.859   2.763
 6607SOL     OW20719   6.845   3.316   4.593
 6607SOL    HW120720   6.799   3.405   4.584
 6607SOL    HW220721   6.899   3.316   4.677
 6608SOL     OW20722   1.581   0.795   5.336
 6608SOL    HW120723   1.503   0.856   5.321
 6608SOL    HW220724   1.567   0.710   5.285
 6609SOL     OW20725   2.640   1.921   0.283
 6609SOL    HW120726   2.596   1.982   0.350
 6609SOL    HW220727   2.628   1.959   0.191
 6610SOL     OW20728   3.396   5.761   0.975
 6610SOL    HW120729   3.348   5.677   1.000
 6610SOL    HW220730   3.393   5.825   1.051
 6611SOL     OW20731   3.316   1.490   4.718
 6611SOL    HW120732   3.317   1.583   4.680
 6611SOL    HW220733   3.224   1.467   4.749
 6612SOL     OW20734   6.369   0.612   0.201
 6612SOL    HW120735   6.445   0.558   0.165
 6612SOL    HW220736   6.310   0.554   0.257
 6613SOL     OW20737   4.771   0.158   1.042
 6613SOL    HW120738   4.692   0.101   1.021
 6613SOL    HW220739   4.853   0.120   0.998
 6614SOL     OW20740   4.607   4.757   0.937
 6614SOL    HW120741   4.545   4.745   1.015
 6614SOL    HW220742   4.692   4.706   0.954
 6615SOL     OW20743   3.438   5.694   6.165
 6615SOL    HW120744   3.425   5.596   6.154
 6615SOL    HW220745   3.480   5.732   6.082
 6616SOL     OW20746   4.064   2.088   6.272
 6616SOL    HW120747   4.135   2.039   6.323
 6616SOL    HW220748   4.105   2.133   6.193
 6617SOL     OW20749   3.393   1.615   4.339
 6617SOL    HW120750   3.411   1.627   4.242
 6617SOL    HW220751   3.336   1.691   4.372
 6618SOL     OW20752   6.694   2.709   3.546
 6618SOL    HW120753   6.740   2.636   3.495
 6618SOL    HW220754   6.763   2.769   3.588
 6619SOL     OW20755   4.224   4.729   3.904
 6619SOL    HW120756   4.258   4.696   3.992
 6619SOL    HW220757   4.261   4.672   3.831
 6620SOL     OW20758   1.125   2.744   3.840
 6620SOL    HW120759   1.087   2.673   3.780
 6620SOL    HW220760   1.101   2.834   3.804
 6621SOL     OW20761   3.465   3.714   3.270
 6621SOL    HW120762   3.425   3.628   3.239
 6621SOL    HW220763   3.478   3.775   3.192
 6622SOL     OW20764   6.822   4.778   2.381
 6622SOL    HW120765   6.911   4.825   2.389
 6622SOL    HW220766   6.755   4.841   2.341
 6623SOL     OW20767   3.586   3.071   4.004
 6623SOL    HW120768   3.656   3.133   3.966
 6623SOL    HW220769   3.628   3.012   4.073
 6624SOL     OW20770   2.287   2.428   2.517
 6624SOL    HW120771   2.375   2.461   2.480
 6624SOL    HW220772   2.255   2.491   2.588
 6625SOL     OW20773   0.785   4.884   5.442
 6625SOL    HW120774   0.881   4.914   5.438
 6625SOL    HW220775   0.761   4.863   5.537
 6626SOL     OW20776   3.532   5.772   5.573
 6626SOL    HW120777   3.533   5.872   5.582
 6626SOL    HW220778   3.624   5.736   5.586
 6627SOL     OW20779   2.874   6.942   4.729
 6627SOL    HW120780   2.913   6.971   4.817
 6627SOL    HW220781   2.796   7.001   4.708
 6628SOL     OW20782   3.962   6.332   3.589
 6628SOL    HW120783   3.987   6.424   3.558
 6628SOL    HW220784   3.929   6.337   3.684
 6629SOL     OW20785   4.792   5.975   5.456
 6629SOL    HW120786   4.748   5.949   5.541
 6629SOL    HW220787   4.857   6.049   5.473
 6630SOL     OW20788   2.123   0.022   0.661
 6630SOL    HW120789   2.202   0.037   0.602
 6630SOL    HW220790   2.041   0.056   0.616
 6631SOL     OW20791   1.659   1.695   6.367
 6631SOL    HW120792   1.671   1.626   6.440
 6631SOL    HW220793   1.561   1.709   6.351
 6632SOL     OW20794   1.303   0.490   6.053
 6632SOL    HW120795   1.275   0.471   5.959
 6632SOL    HW220796   1.319   0.405   6.102
 6633SOL     OW20797   4.732   6.697   6.004
 6633SOL    HW120798   4.665   6.626   6.026
 6633SOL    HW220799   4.805   6.697   6.072
 6634SOL     OW20800   2.912   2.273   4.264
 6634SOL    HW120801   2.902   2.269   4.165
 6634SOL    HW220802   2.856   2.347   4.300
 6635SOL     OW20803   4.644   5.443   6.086
 6635SOL    HW120804   4.667   5.539   6.069
 6635SOL    HW220805   4.665   5.420   6.181
 6636SOL     OW20806   4.313   1.597   1.317
 6636SOL    HW120807   4.333   1.515   1.371
 6636SOL    HW220808   4.240   1.577   1.252
 6637SOL     OW20809   0.426   3.159   6.881
 6637SOL    HW120810   0.394   3.251   6.903
 6637SOL    HW220811   0.385   3.094   6.945
 6638SOL     OW20812   2.951   3.671   4.373
 6638SOL    HW120813   2.965   3.722   4.458
 6638SOL    HW220814   2.948   3.734   4.296
 6639SOL     OW20815   5.070   3.161   1.741
 6639SOL    HW120816   5.142   3.225   1.714
 6639SOL    HW220817   5.065   3.086   1.675
 6640SOL     OW20818   0.864   3.801   4.283
 6640SOL    HW120819   0.916   3.723   4.246
 6640SOL    HW220820   0.842   3.864   4.209
 6641SOL     OW20821   5.192   2.388   6.745
 6641SOL    HW120822   5.205   2.288   6.745
 6641SOL    HW220823   5.098   2.409   6.770
 6642SOL     OW20824   0.914   5.162   6.108
 6642SOL    HW120825   0.940   5.231   6.040
 6642SOL    HW220826   0.814   5.153   6.109
 6643SOL     OW20827   4.676   5.716   5.995
 6643SOL    HW120828   4.757   5.747   6.045
 6643SOL    HW220829   4.607   5.788   5.996
 6644SOL     OW20830   1.660   6.697   3.290
 6644SOL    HW120831   1.605   6.742   3.360
 6644SOL    HW220832   1.601   6.639   3.234
 6645SOL     OW20833   4.985   2.649   5.140
 6645SOL    HW120834   5.065   2.644   5.200
 6645SOL    HW220835   4.911   2.697   5.188
 6646SOL     OW20836   4.583   0.228   6.040
 6646SOL    HW120837   4.496   0.278   6.031
 6646SOL    HW220838   4.572   0.135   6.003
 6647SOL     OW20839   3.680   4.913   0.451
 6647SOL    HW120840   3.604   4.977   0.442
 6647SOL    HW220841   3.668   4.839   0.385
 6648SOL     OW20842   3.373   5.851   5.200
 6648SOL    HW120843   3.423   5.770   5.232
 6648SOL    HW220844   3.432   5.906   5.141
 6649SOL     OW20845   5.506   2.918   5.199
 6649SOL    HW120846   5.520   3.011   5.166
 6649SOL    HW220847   5.446   2.868   5.136
 6650SOL     OW20848   2.751   0.932   4.965
 6650SOL    HW120849   2.695   0.906   5.044
 6650SOL    HW220850   2.847   0.918   4.987
 6651SOL     OW20851   6.464   0.899   3.590
 6651SOL    HW120852   6.469   0.987   3.637
 6651SOL    HW220853   6.385   0.848   3.624
 6652SOL     OW20854   6.951   5.424   6.564
 6652SOL    HW120855   6.946   5.331   6.527
 6652SOL    HW220856   6.954   5.419   6.664
 6653SOL     OW20857   5.562   3.765   0.127
 6653SOL    HW120858   5.505   3.692   0.089
 6653SOL    HW220859   5.658   3.743   0.112
 6654SOL     OW20860   6.906   1.680   3.099
 6654SOL    HW120861   6.855   1.765   3.085
 6654SOL    HW220862   6.983   1.698   3.160
 6655SOL     OW20863   6.949   5.779   1.481
 6655SOL    HW120864   6.911   5.697   1.439
 6655SOL    HW220865   6.955   5.851   1.411
 6656SOL     OW20866   5.243   0.713   2.106
 6656SOL    HW120867   5.231   0.744   2.012
 6656SOL    HW220868   5.315   0.767   2.151
 6657SOL     OW20869   4.625   1.805   4.313
 6657SOL    HW120870   4.648   1.895   4.350
 6657SOL    HW220871   4.528   1.804   4.286
 6658SOL     OW20872   6.284   5.989   4.311
 6658SOL    HW120873   6.284   6.079   4.267
 6658SOL    HW220874   6.190   5.957   4.322
 6659SOL     OW20875   0.977   6.701   1.187
 6659SOL    HW120876   0.941   6.733   1.099
 6659SOL    HW220877   1.057   6.756   1.212
 6660SOL     OW20878   1.166   0.641   4.082
 6660SOL    HW120879   1.160   0.543   4.101
 6660SOL    HW220880   1.081   0.673   4.041
 6661SOL     OW20881   3.607   6.606   3.872
 6661SOL    HW120882   3.692   6.566   3.907
 6661SOL    HW220883   3.529   6.558   3.912
 6662SOL     OW20884   3.719   6.875   1.724
 6662SOL    HW120885   3.803   6.923   1.745
 6662SOL    HW220886   3.641   6.927   1.759
 6663SOL     OW20887   1.697   3.976   5.299
 6663SOL    HW120888   1.624   4.042   5.277
 6663SOL    HW220889   1.781   4.026   5.321
 6664SOL     OW20890   3.288   0.049   1.982
 6664SOL    HW120891   3.222   6.995   1.975
 6664SOL    HW220892   3.270   0.101   2.065
 6665SOL     OW20893   2.581   0.359   6.816
 6665SOL    HW120894   2.644   0.329   6.744
 6665SOL    HW220895   2.628   0.422   6.877
 6666SOL     OW20896   2.813   6.696   5.708
 6666SOL    HW120897   2.788   6.786   5.743
 6666SOL    HW220898   2.877   6.652   5.771
 6667SOL     OW20899   1.915   5.887   0.009
 6667SOL    HW120900   1.999   5.883   0.063
 6667SOL    HW220901   1.842   5.926   0.065
 6668SOL     OW20902   0.493   3.748   5.852
 6668SOL    HW120903   0.451   3.663   5.820
 6668SOL    HW220904   0.545   3.731   5.936
 6669SOL     OW20905   0.773   3.195   3.921
 6669SOL    HW120906   0.683   3.239   3.912
 6669SOL    HW220907   0.845   3.261   3.898
 6670SOL     OW20908   2.373   4.237   0.744
 6670SOL    HW120909   2.350   4.163   0.808
 6670SOL    HW220910   2.307   4.312   0.755
 6671SOL     OW20911   5.016   5.040   0.505
 6671SOL    HW120912   5.075   4.961   0.489
 6671SOL    HW220913   4.945   5.015   0.571
 6672SOL     OW20914   2.196   2.447   1.137
 6672SOL    HW120915   2.125   2.412   1.076
 6672SOL    HW220916   2.219   2.377   1.205
 6673SOL     OW20917   5.895   3.775   4.608
 6673SOL    HW120918   5.957   3.713   4.658
 6673SOL    HW220919   5.801   3.743   4.618
 6674SOL     OW20920   6.482   1.235   0.347
 6674SOL    HW120921   6.423   1.196   0.277
 6674SOL    HW220922   6.466   1.188   0.434
 6675SOL     OW20923   4.980   1.561   0.444
 6675SOL    HW120924   4.910   1.541   0.513
 6675SOL    HW220925   4.944   1.626   0.377
 6676SOL     OW20926   1.142   3.344   5.411
 6676SOL    HW120927   1.231   3.324   5.452
 6676SOL    HW220928   1.096   3.416   5.463
 6677SOL     OW20929   0.373   2.234   6.811
 6677SOL    HW120930   0.314   2.180   6.871
 6677SOL    HW220931   0.341   2.328   6.808
 6678SOL     OW20932   3.374   4.016   6.486
 6678SOL    HW120933   3.313   3.949   6.444
 6678SOL    HW220934   3.431   3.970   6.555
 6679SOL     OW20935   1.612   0.556   3.936
 6679SOL    HW120936   1.618   0.635   3.875
 6679SOL    HW220937   1.560   0.581   4.018
 6680SOL     OW20938   6.450   5.955   1.883
 6680SOL    HW120939   6.455   5.900   1.967
 6680SOL    HW220940   6.354   5.976   1.863
 6681SOL     OW20941   3.707   5.781   0.933
 6681SOL    HW120942   3.612   5.787   0.965
 6681SOL    HW220943   3.736   5.869   0.896
 6682SOL     OW20944   2.220   4.826   6.371
 6682SOL    HW120945   2.129   4.791   6.349
 6682SOL    HW220946   2.239   4.810   6.468
 6683SOL     OW20947   6.991   6.501   6.612
 6683SOL    HW120948   0.036   6.482   6.540
 6683SOL    HW220949   6.899   6.504   6.573
 6684SOL     OW20950   2.954   6.984   6.031
 6684SOL    HW120951   2.865   0.007   6.029
 6684SOL    HW220952   2.987   6.978   6.126
 6685SOL     OW20953   3.613   2.939   1.081
 6685SOL    HW120954   3.629   2.999   1.160
 6685SOL    HW220955   3.516   2.914   1.078
 6686SOL     OW20956   4.575   4.249   5.404
 6686SOL    HW120957   4.497   4.310   5.396
 6686SOL    HW220958   4.623   4.266   5.490
 6687SOL     OW20959   6.910   2.608   0.792
 6687SOL    HW120960   6.918   2.562   0.881
 6687SOL    HW220961   6.897   2.540   0.720
 6688SOL     OW20962   5.603   5.213   0.266
 6688SOL    HW120963   5.509   5.241   0.285
 6688SOL    HW220964   5.660   5.231   0.346
 6689SOL     OW20965   3.299   4.832   6.076
 6689SOL    HW120966   3.346   4.919   6.060
 6689SOL    HW220967   3.202   4.842   6.054
 6690SOL     OW20968   1.144   0.288   0.031
 6690SOL    HW120969   1.175   0.340   0.111
 6690SOL    HW220970   1.218   0.228   0.001
 6691SOL     OW20971   2.183   1.844   1.974
 6691SOL    HW120972   2.155   1.891   1.890
 6691SOL    HW220973   2.209   1.912   2.043
 6692SOL     OW20974   3.938   6.463   1.982
 6692SOL    HW120975   3.870   6.391   1.991
 6692SOL    HW220976   3.894   6.546   1.947
 6693SOL     OW20977   2.748   1.237   5.681
 6693SOL    HW120978   2.818   1.267   5.746
 6693SOL    HW220979   2.658   1.265   5.714
 6694SOL     OW20980   4.314   4.031   1.670
 6694SOL    HW120981   4.370   4.080   1.738
 6694SOL    HW220982   4.315   4.082   1.584
 6695SOL     OW20983   3.277   2.473   0.064
 6695SOL    HW120984   3.238   2.460   6.994
 6695SOL    HW220985   3.275   2.386   0.114
 6696SOL     OW20986   3.489   3.060   5.144
 6696SOL    HW120987   3.541   3.059   5.059
 6696SOL    HW220988   3.394   3.035   5.126
 6697SOL     OW20989   5.195   1.461   2.728
 6697SOL    HW120990   5.147   1.424   2.808
 6697SOL    HW220991   5.253   1.390   2.689
 6698SOL     OW20992   3.034   3.865   1.465
 6698SOL    HW120993   2.985   3.804   1.527
 6698SOL    HW220994   3.029   3.959   1.500
 6699SOL     OW20995   1.660   3.441   6.798
 6699SOL    HW120996   1.699   3.349   6.804
 6699SOL    HW220997   1.572   3.437   6.752
 6700SOL     OW20998   5.112   0.276   1.380
 6700SOL    HW120999   5.072   0.281   1.288
 6700SOL    HW221000   5.049   0.314   1.446
 6701SOL     OW21001   6.098   6.878   1.576
 6701SOL    HW121002   6.059   6.881   1.484
 6701SOL    HW221003   6.197   6.888   1.571
 6702SOL     OW21004   5.224   2.601   0.757
 6702SOL    HW121005   5.136   2.554   0.758
 6702SOL    HW221006   5.210   2.699   0.753
 6703SOL     OW21007   0.349   1.661   0.451
 6703SOL    HW121008   0.387   1.600   0.521
 6703SOL    HW221009   0.254   1.637   0.434
 6704SOL     OW21010   2.779   6.338   6.196
 6704SOL    HW121011   2.834   6.256   6.184
 6704SOL    HW221012   2.711   6.323   6.268
 6705SOL     OW21013   0.805   4.240   2.380
 6705SOL    HW121014   0.747   4.296   2.320
 6705SOL    HW221015   0.883   4.295   2.411
 6706SOL     OW21016   0.456   6.120   0.914
 6706SOL    HW121017   0.422   6.144   0.823
 6706SOL    HW221018   0.466   6.021   0.920
 6707SOL     OW21019   5.267   0.904   2.929
 6707SOL    HW121020   5.228   0.815   2.953
 6707SOL    HW221021   5.296   0.902   2.833
 6708SOL     OW21022   1.004   3.509   0.961
 6708SOL    HW121023   1.006   3.471   0.869
 6708SOL    HW221024   0.936   3.460   1.016
 6709SOL     OW21025   1.994   4.222   1.870
 6709SOL    HW121026   1.933   4.299   1.888
 6709SOL    HW221027   1.943   4.151   1.820
 6710SOL     OW21028   4.493   2.001   1.777
 6710SOL    HW121029   4.394   2.011   1.776
 6710SOL    HW221030   4.536   2.089   1.756
 6711SOL     OW21031   4.599   5.430   6.367
 6711SOL    HW121032   4.635   5.523   6.368
 6711SOL    HW221033   4.522   5.423   6.430
 6712SOL     OW21034   5.624   3.692   0.992
 6712SOL    HW121035   5.622   3.780   0.944
 6712SOL    HW221036   5.657   3.621   0.931
 6713SOL     OW21037   2.258   4.728   4.223
 6713SOL    HW121038   2.228   4.675   4.303
 6713SOL    HW221039   2.178   4.760   4.172
 6714SOL     OW21040   6.067   1.314   2.360
 6714SOL    HW121041   5.974   1.342   2.382
 6714SOL    HW221042   6.084   1.223   2.397
 6715SOL     OW21043   1.175   6.754   5.771
 6715SOL    HW121044   1.106   6.737   5.842
 6715SOL    HW221045   1.266   6.756   5.812
 6716SOL     OW21046   1.381   4.267   2.119
 6716SOL    HW121047   1.449   4.283   2.047
 6716SOL    HW221048   1.360   4.354   2.165
 6717SOL     OW21049   6.114   2.309   5.257
 6717SOL    HW121050   6.185   2.295   5.188
 6717SOL    HW221051   6.074   2.221   5.282
 6718SOL     OW21052   4.382   2.129   0.940
 6718SOL    HW121053   4.390   2.228   0.953
 6718SOL    HW221054   4.473   2.090   0.925
 6719SOL     OW21055   1.287   0.842   0.551
 6719SOL    HW121056   1.209   0.796   0.509
 6719SOL    HW221057   1.297   0.934   0.514
 6720SOL     OW21058   1.410   1.646   4.243
 6720SOL    HW121059   1.466   1.666   4.324
 6720SOL    HW221060   1.328   1.595   4.272
 6721SOL     OW21061   6.063   6.789   0.514
 6721SOL    HW121062   5.985   6.838   0.474
 6721SOL    HW221063   6.097   6.722   0.449
 6722SOL     OW21064   6.192   4.311   1.285
 6722SOL    HW121065   6.186   4.411   1.287
 6722SOL    HW221066   6.143   4.273   1.364
 6723SOL     OW21067   1.785   3.408   4.312
 6723SOL    HW121068   1.791   3.483   4.245
 6723SOL    HW221069   1.702   3.356   4.296
 6724SOL     OW21070   2.037   3.083   5.307
 6724SOL    HW121071   1.979   3.150   5.353
 6724SOL    HW221072   2.090   3.129   5.235
 6725SOL     OW21073   4.640   2.698   3.542
 6725SOL    HW121074   4.601   2.635   3.609
 6725SOL    HW221075   4.706   2.757   3.587
 6726SOL     OW21076   6.777   1.564   0.330
 6726SOL    HW121077   6.754   1.493   0.263
 6726SOL    HW221078   6.769   1.526   0.422
 6727SOL     OW21079   1.142   5.479   5.769
 6727SOL    HW121080   1.224   5.530   5.743
 6727SOL    HW221081   1.169   5.391   5.808
 6728SOL     OW21082   3.746   1.909   4.983
 6728SOL    HW121083   3.793   1.951   5.061
 6728SOL    HW221084   3.688   1.977   4.938
 6729SOL     OW21085   4.558   1.187   2.724
 6729SOL    HW121086   4.519   1.238   2.648
 6729SOL    HW221087   4.554   1.089   2.705
 6730SOL     OW21088   0.591   1.966   1.497
 6730SOL    HW121089   0.589   1.867   1.481
 6730SOL    HW221090   0.518   1.990   1.562
 6731SOL     OW21091   3.988   0.105   6.130
 6731SOL    HW121092   4.033   0.172   6.070
 6731SOL    HW221093   3.897   0.140   6.154
 6732SOL     OW21094   6.121   5.089   5.923
 6732SOL    HW121095   6.196   5.092   5.857
 6732SOL    HW221096   6.052   5.157   5.900
 6733SOL     OW21097   5.231   4.799   5.529
 6733SOL    HW121098   5.154   4.863   5.529
 6733SOL    HW221099   5.266   4.789   5.622
 6734SOL     OW21100   5.654   2.084   5.406
 6734SOL    HW121101   5.609   2.014   5.351
 6734SOL    HW221102   5.735   2.044   5.449
 6735SOL     OW21103   5.887   3.105   4.484
 6735SOL    HW121104   5.835   3.110   4.399
 6735SOL    HW221105   5.903   3.009   4.508
 6736SOL     OW21106   3.848   3.378   0.725
 6736SOL    HW121107   3.778   3.337   0.782
 6736SOL    HW221108   3.863   3.473   0.754
 6737SOL     OW21109   6.047   3.166   1.003
 6737SOL    HW121110   6.086   3.234   0.941
 6737SOL    HW221111   6.023   3.210   1.089
 6738SOL     OW21112   2.324   0.033   4.127
 6738SOL    HW121113   2.333   6.994   4.048
 6738SOL    HW221114   2.342   7.002   4.211
 6739SOL     OW21115   0.384   0.215   5.888
 6739SOL    HW121116   0.306   0.222   5.825
 6739SOL    HW221117   0.437   0.300   5.884
 6740SOL     OW21118   1.092   0.005   1.888
 6740SOL    HW121119   1.121   6.933   1.909
 6740SOL    HW221120   0.992   0.009   1.881
 6741SOL     OW21121   3.104   2.316   0.383
 6741SOL    HW121122   3.053   2.320   0.469
 6741SOL    HW221123   3.042   2.293   0.308
 6742SOL     OW21124   6.588   4.891   2.317
 6742SOL    HW121125   6.515   4.827   2.292
 6742SOL    HW221126   6.549   4.982   2.333
 6743SOL     OW21127   3.738   3.965   6.644
 6743SOL    HW121128   3.732   4.006   6.554
 6743SOL    HW221129   3.664   3.898   6.655
 6744SOL     OW21130   6.822   6.209   5.790
 6744SOL    HW121131   6.886   6.265   5.843
 6744SOL    HW221132   6.839   6.221   5.693
 6745SOL     OW21133   5.358   3.227   5.401
 6745SOL    HW121134   5.316   3.178   5.324
 6745SOL    HW221135   5.310   3.312   5.417
 6746SOL     OW21136   1.316   2.073   2.906
 6746SOL    HW121137   1.258   2.084   2.986
 6746SOL    HW221138   1.352   2.162   2.878
 6747SOL     OW21139   1.254   6.108   5.456
 6747SOL    HW121140   1.171   6.138   5.503
 6747SOL    HW221141   1.247   6.010   5.436
 6748SOL     OW21142   1.544   2.307   4.303
 6748SOL    HW121143   1.592   2.231   4.261
 6748SOL    HW221144   1.512   2.281   4.394
 6749SOL     OW21145   3.929   4.898   2.399
 6749SOL    HW121146   3.998   4.841   2.355
 6749SOL    HW221147   3.849   4.906   2.338
 6750SOL     OW21148   4.316   0.345   5.688
 6750SOL    HW121149   4.360   0.285   5.620
 6750SOL    HW221150   4.380   0.415   5.718
 6751SOL     OW21151   3.753   1.072   4.324
 6751SOL    HW121152   3.710   1.143   4.379
 6751SOL    HW221153   3.851   1.070   4.344
 6752SOL     OW21154   2.219   4.908   3.413
 6752SOL    HW121155   2.309   4.950   3.403
 6752SOL    HW221156   2.223   4.813   3.384
 6753SOL     OW21157   3.535   4.304   0.257
 6753SOL    HW121158   3.569   4.229   0.201
 6753SOL    HW221159   3.492   4.267   0.339
 6754SOL     OW21160   5.950   0.755   0.566
 6754SOL    HW121161   5.974   0.691   0.639
 6754SOL    HW221162   6.030   0.769   0.507
 6755SOL     OW21163   4.094   5.657   5.462
 6755SOL    HW121164   4.135   5.647   5.372
 6755SOL    HW221165   4.004   5.700   5.454
 6756SOL     OW21166   4.111   3.391   5.770
 6756SOL    HW121167   4.132   3.480   5.810
 6756SOL    HW221168   4.024   3.358   5.806
 6757SOL     OW21169   4.076   6.832   1.990
 6757SOL    HW121170   4.146   6.853   2.058
 6757SOL    HW221171   4.107   6.862   1.900
 6758SOL     OW21172   4.794   2.837   3.022
 6758SOL    HW121173   4.733   2.759   3.008
 6758SOL    HW221174   4.784   2.871   3.115
 6759SOL     OW21175   1.479   2.601   2.241
 6759SOL    HW121176   1.484   2.700   2.256
 6759SOL    HW221177   1.569   2.560   2.260
 6760SOL     OW21178   5.241   1.951   5.909
 6760SOL    HW121179   5.167   1.929   5.972
 6760SOL    HW221180   5.309   2.008   5.955
 6761SOL     OW21181   2.731   0.534   4.640
 6761SOL    HW121182   2.775   0.571   4.723
 6761SOL    HW221183   2.801   0.505   4.575
 6762SOL     OW21184   5.636   4.828   4.549
 6762SOL    HW121185   5.646   4.753   4.483
 6762SOL    HW221186   5.545   4.869   4.540
 6763SOL     OW21187   5.594   5.598   3.547
 6763SOL    HW121188   5.524   5.543   3.591
 6763SOL    HW221189   5.645   5.649   3.616
 6764SOL     OW21190   0.900   4.644   1.877
 6764SOL    HW121191   0.971   4.641   1.806
 6764SOL    HW221192   0.942   4.627   1.966
 6765SOL     OW21193   6.761   4.074   3.329
 6765SOL    HW121194   6.713   4.158   3.302
 6765SOL    HW221195   6.852   4.073   3.287
 6766SOL     OW21196   6.304   0.124   1.464
 6766SOL    HW121197   6.367   0.081   1.399
 6766SOL    HW221198   6.218   0.072   1.467
 6767SOL     OW21199   3.300   0.262   1.427
 6767SOL    HW121200   3.309   0.350   1.474
 6767SOL    HW221201   3.242   0.273   1.346
 6768SOL     OW21202   1.612   7.011   6.611
 6768SOL    HW121203   1.535   6.985   6.670
 6768SOL    HW221204   1.669   6.931   6.594
 6769SOL     OW21205   5.239   2.924   1.163
 6769SOL    HW121206   5.199   2.865   1.094
 6769SOL    HW221207   5.166   2.972   1.212
 6770SOL     OW21208   0.331   1.579   1.577
 6770SOL    HW121209   0.379   1.569   1.490
 6770SOL    HW221210   0.235   1.555   1.565
 6771SOL     OW21211   4.516   1.468   3.588
 6771SOL    HW121212   4.580   1.422   3.649
 6771SOL    HW221213   4.521   1.567   3.602
 6772SOL     OW21214   3.561   1.085   4.838
 6772SOL    HW121215   3.474   1.121   4.804
 6772SOL    HW221216   3.587   1.004   4.786
 6773SOL     OW21217   0.201   3.785   1.846
 6773SOL    HW121218   0.193   3.871   1.797
 6773SOL    HW221219   0.250   3.800   1.932
 6774SOL     OW21220   1.540   2.081   6.169
 6774SOL    HW121221   1.583   2.040   6.250
 6774SOL    HW221222   1.552   2.180   6.172
 6775SOL     OW21223   0.658   3.638   0.787
 6775SOL    HW121224   0.595   3.711   0.816
 6775SOL    HW221225   0.644   3.558   0.844
 6776SOL     OW21226   5.943   6.006   6.818
 6776SOL    HW121227   5.963   5.908   6.809
 6776SOL    HW221228   6.029   6.058   6.813
 6777SOL     OW21229   4.403   4.714   0.282
 6777SOL    HW121230   4.329   4.763   0.236
 6777SOL    HW221231   4.490   4.741   0.242
 6778SOL     OW21232   6.118   5.659   3.247
 6778SOL    HW121233   6.122   5.564   3.218
 6778SOL    HW221234   6.099   5.718   3.168
 6779SOL     OW21235   5.552   3.302   6.540
 6779SOL    HW121236   5.519   3.309   6.446
 6779SOL    HW221237   5.600   3.215   6.553
 6780SOL     OW21238   1.024   3.282   1.191
 6780SOL    HW121239   1.019   3.194   1.144
 6780SOL    HW221240   1.115   3.294   1.231
 6781SOL     OW21241   5.272   4.456   5.611
 6781SOL    HW121242   5.272   4.498   5.702
 6781SOL    HW221243   5.201   4.385   5.608
 6782SOL     OW21244   6.140   1.544   3.484
 6782SOL    HW121245   6.107   1.625   3.533
 6782SOL    HW221246   6.240   1.546   3.479
 6783SOL     OW21247   1.244   5.759   6.515
 6783SOL    HW121248   1.147   5.779   6.526
 6783SOL    HW221249   1.275   5.788   6.425
 6784SOL     OW21250   4.357   3.301   0.151
 6784SOL    HW121251   4.264   3.333   0.169
 6784SOL    HW221252   4.421   3.377   0.159
 6785SOL     OW21253   5.760   5.851   2.072
 6785SOL    HW121254   5.663   5.829   2.064
 6785SOL    HW221255   5.808   5.826   1.988
 6786SOL     OW21256   1.521   3.602   5.302
 6786SOL    HW121257   1.608   3.645   5.328
 6786SOL    HW221258   1.503   3.619   5.205
 6787SOL     OW21259   1.107   4.093   1.546
 6787SOL    HW121260   1.204   4.111   1.529
 6787SOL    HW221261   1.098   4.029   1.623
 6788SOL     OW21262   2.693   3.854   1.175
 6788SOL    HW121263   2.695   3.782   1.244
 6788SOL    HW221264   2.780   3.904   1.176
 6789SOL     OW21265   1.726   4.452   2.902
 6789SOL    HW121266   1.756   4.534   2.852
 6789SOL    HW221267   1.775   4.372   2.867
 6790SOL     OW21268   1.121   3.048   0.427
 6790SOL    HW121269   1.199   3.042   0.490
 6790SOL    HW221270   1.154   3.072   0.336
 6791SOL     OW21271   3.857   3.927   6.114
 6791SOL    HW121272   3.920   3.851   6.128
 6791SOL    HW221273   3.780   3.919   6.178
 6792SOL     OW21274   0.239   5.101   0.667
 6792SOL    HW121275   0.274   5.031   0.730
 6792SOL    HW221276   0.284   5.091   0.578
 6793SOL     OW21277   5.400   1.162   0.857
 6793SOL    HW121278   5.364   1.188   0.767
 6793SOL    HW221279   5.392   1.239   0.920
 6794SOL     OW21280   3.612   1.533   4.710
 6794SOL    HW121281   3.661   1.597   4.768
 6794SOL    HW221282   3.514   1.552   4.715
 6795SOL     OW21283   3.473   5.739   6.746
 6795SOL    HW121284   3.401   5.699   6.690
 6795SOL    HW221285   3.478   5.838   6.729
 6796SOL     OW21286   4.356   2.033   2.344
 6796SOL    HW121287   4.373   1.939   2.372
 6796SOL    HW221288   4.263   2.041   2.308
 6797SOL     OW21289   6.554   2.425   2.512
 6797SOL    HW121290   6.580   2.494   2.445
 6797SOL    HW221291   6.501   2.353   2.468
 6798SOL     OW21292   6.316   0.023   2.701
 6798SOL    HW121293   6.407   0.026   2.661
 6798SOL    HW221294   6.308   6.964   2.760
 6799SOL     OW21295   5.289   6.081   2.217
 6799SOL    HW121296   5.307   6.168   2.171
 6799SOL    HW221297   5.210   6.091   2.277
 6800SOL     OW21298   3.369   4.172   6.189
 6800SOL    HW121299   3.325   4.261   6.179
 6800SOL    HW221300   3.326   4.122   6.265
 6801SOL     OW21301   0.778   3.390   3.298
 6801SOL    HW121302   0.830   3.440   3.229
 6801SOL    HW221303   0.779   3.293   3.277
 6802SOL     OW21304   2.950   4.901   2.593
 6802SOL    HW121305   3.002   4.927   2.511
 6802SOL    HW221306   2.892   4.823   2.572
 6803SOL     OW21307   4.114   2.110   0.605
 6803SOL    HW121308   4.202   2.070   0.632
 6803SOL    HW221309   4.048   2.099   0.679
 6804SOL     OW21310   1.251   6.250   3.703
 6804SOL    HW121311   1.195   6.329   3.681
 6804SOL    HW221312   1.335   6.280   3.749
 6805SOL     OW21313   5.748   1.229   5.792
 6805SOL    HW121314   5.731   1.188   5.703
 6805SOL    HW221315   5.670   1.212   5.852
 6806SOL     OW21316   5.026   6.427   4.962
 6806SOL    HW121317   5.019   6.329   4.978
 6806SOL    HW221318   4.976   6.451   4.878
 6807SOL     OW21319   4.091   3.370   0.164
 6807SOL    HW121320   4.058   3.424   0.086
 6807SOL    HW221321   4.013   3.332   0.213
 6808SOL     OW21322   2.285   4.122   4.404
 6808SOL    HW121323   2.351   4.068   4.353
 6808SOL    HW221324   2.232   4.178   4.340
 6809SOL     OW21325   1.329   3.648   0.014
 6809SOL    HW121326   1.370   3.607   6.954
 6809SOL    HW221327   1.264   3.719   7.008
 6810SOL     OW21328   5.865   1.223   3.858
 6810SOL    HW121329   5.831   1.238   3.951
 6810SOL    HW221330   5.952   1.174   3.862
 6811SOL     OW21331   5.217   6.248   1.915
 6811SOL    HW121332   5.307   6.272   1.879
 6811SOL    HW221333   5.211   6.149   1.925
 6812SOL     OW21334   3.420   2.982   2.943
 6812SOL    HW121335   3.520   2.968   2.944
 6812SOL    HW221336   3.380   2.934   3.021
 6813SOL     OW21337   5.252   3.782   1.054
 6813SOL    HW121338   5.290   3.803   1.144
 6813SOL    HW221339   5.204   3.862   1.018
 6814SOL     OW21340   2.170   2.554   0.697
 6814SOL    HW121341   2.210   2.463   0.711
 6814SOL    HW221342   2.214   2.618   0.760
 6815SOL     OW21343   1.460   0.377   0.548
 6815SOL    HW121344   1.516   0.316   0.604
 6815SOL    HW221345   1.434   0.457   0.602
 6816SOL     OW21346   4.851   4.716   1.776
 6816SOL    HW121347   4.846   4.619   1.800
 6816SOL    HW221348   4.946   4.743   1.762
 6817SOL     OW21349   1.090   2.989   5.963
 6817SOL    HW121350   1.087   3.080   6.005
 6817SOL    HW221351   0.996   2.954   5.955
 6818SOL     OW21352   3.727   5.125   1.219
 6818SOL    HW121353   3.701   5.159   1.309
 6818SOL    HW221354   3.811   5.071   1.226
 6819SOL     OW21355   2.335   1.802   3.705
 6819SOL    HW121356   2.429   1.782   3.731
 6819SOL    HW221357   2.274   1.734   3.746
 6820SOL     OW21358   1.932   5.253   4.769
 6820SOL    HW121359   1.975   5.258   4.679
 6820SOL    HW221360   1.905   5.158   4.787
 6821SOL     OW21361   2.218   3.026   3.889
 6821SOL    HW121362   2.256   2.986   3.972
 6821SOL    HW221363   2.211   3.125   3.900
 6822SOL     OW21364   5.128   1.596   5.746
 6822SOL    HW121365   5.203   1.662   5.742
 6822SOL    HW221366   5.042   1.644   5.762
 6823SOL     OW21367   4.058   3.487   2.173
 6823SOL    HW121368   4.101   3.414   2.120
 6823SOL    HW221369   4.124   3.526   2.237
 6824SOL     OW21370   0.471   5.506   4.981
 6824SOL    HW121371   0.412   5.446   4.926
 6824SOL    HW221372   0.429   5.521   5.071
 6825SOL     OW21373   5.444   0.278   4.298
 6825SOL    HW121374   5.475   0.323   4.214
 6825SOL    HW221375   5.345   0.286   4.306
 6826SOL     OW21376   1.161   3.023   3.337
 6826SOL    HW121377   1.140   3.097   3.401
 6826SOL    HW221378   1.233   2.965   3.376
 6827SOL     OW21379   4.344   5.399   5.281
 6827SOL    HW121380   4.412   5.472   5.290
 6827SOL    HW221381   4.390   5.310   5.292
 6828SOL     OW21382   2.427   1.885   1.150
 6828SOL    HW121383   2.454   1.974   1.112
 6828SOL    HW221384   2.391   1.898   1.242
 6829SOL     OW21385   5.670   4.951   3.657
 6829SOL    HW121386   5.694   4.942   3.754
 6829SOL    HW221387   5.669   4.861   3.614
 6830SOL     OW21388   5.020   1.884   3.719
 6830SOL    HW121389   5.046   1.853   3.811
 6830SOL    HW221390   5.095   1.865   3.655
 6831SOL     OW21391   0.279   1.931   5.711
 6831SOL    HW121392   0.228   1.938   5.625
 6831SOL    HW221393   0.319   1.839   5.718
 6832SOL     OW21394   3.299   4.596   1.081
 6832SOL    HW121395   3.398   4.604   1.094
 6832SOL    HW221396   3.251   4.627   1.164
 6833SOL     OW21397   4.021   6.169   0.526
 6833SOL    HW121398   3.954   6.097   0.544
 6833SOL    HW221399   4.017   6.196   0.430
 6834SOL     OW21400   2.562   5.269   2.581
 6834SOL    HW121401   2.585   5.336   2.652
 6834SOL    HW221402   2.611   5.184   2.600
 6835SOL     OW21403   3.799   0.102   4.435
 6835SOL    HW121404   3.776   0.053   4.351
 6835SOL    HW221405   3.731   0.173   4.453
 6836SOL     OW21406   4.026   5.822   0.057
 6836SOL    HW121407   4.029   5.883   6.999
 6836SOL    HW221408   3.934   5.784   0.066
 6837SOL     OW21409   0.557   3.211   2.869
 6837SOL    HW121410   0.626   3.140   2.885
 6837SOL    HW221411   0.528   3.208   2.773
 6838SOL     OW21412   2.677   1.715   0.988
 6838SOL    HW121413   2.601   1.671   1.035
 6838SOL    HW221414   2.706   1.795   1.040
 6839SOL     OW21415   3.527   0.967   1.821
 6839SOL    HW121416   3.559   0.888   1.874
 6839SOL    HW221417   3.498   1.039   1.884
 6840SOL     OW21418   1.071   1.069   5.969
 6840SOL    HW121419   1.003   1.076   5.896
 6840SOL    HW221420   1.025   1.053   6.057
 6841SOL     OW21421   0.258   3.197   5.685
 6841SOL    HW121422   0.190   3.157   5.747
 6841SOL    HW221423   0.349   3.165   5.711
 6842SOL     OW21424   2.723   4.744   2.485
 6842SOL    HW121425   2.639   4.746   2.539
 6842SOL    HW221426   2.703   4.772   2.392
 6843SOL     OW21427   4.378   0.141   1.236
 6843SOL    HW121428   4.432   0.221   1.209
 6843SOL    HW221429   4.288   0.171   1.267
 6844SOL     OW21430   5.685   0.503   5.198
 6844SOL    HW121431   5.742   0.565   5.144
 6844SOL    HW221432   5.696   0.524   5.295
 6845SOL     OW21433   5.599   1.841   2.640
 6845SOL    HW121434   5.695   1.825   2.619
 6845SOL    HW221435   5.556   1.754   2.666
 6846SOL     OW21436   2.039   3.537   0.141
 6846SOL    HW121437   2.078   3.464   0.084
 6846SOL    HW221438   1.948   3.510   0.173
 6847SOL     OW21439   6.984   2.176   3.804
 6847SOL    HW121440   6.888   2.198   3.823
 6847SOL    HW221441   6.988   2.103   3.737
 6848SOL     OW21442   6.849   4.814   4.252
 6848SOL    HW121443   6.774   4.840   4.192
 6848SOL    HW221444   6.896   4.734   4.215
 6849SOL     OW21445   2.687   4.200   5.428
 6849SOL    HW121446   2.695   4.115   5.376
 6849SOL    HW221447   2.769   4.256   5.412
 6850SOL     OW21448   5.111   0.232   4.303
 6850SOL    HW121449   5.166   0.216   4.386
 6850SOL    HW221450   5.051   0.154   4.288
 6851SOL     OW21451   1.812   4.199   2.812
 6851SOL    HW121452   1.910   4.216   2.795
 6851SOL    HW221453   1.790   4.105   2.789
 6852SOL     OW21454   4.549   3.332   0.466
 6852SOL    HW121455   4.550   3.430   0.444
 6852SOL    HW221456   4.459   3.307   0.501
 6853SOL     OW21457   4.122   4.915   6.089
 6853SOL    HW121458   4.072   4.920   6.175
 6853SOL    HW221459   4.072   4.857   6.025
 6854SOL     OW21460   5.190   6.277   5.397
 6854SOL    HW121461   5.251   6.219   5.344
 6854SOL    HW221462   5.245   6.334   5.459
 6855SOL     OW21463   3.426   5.248   3.023
 6855SOL    HW121464   3.464   5.336   2.994
 6855SOL    HW221465   3.467   5.222   3.111
 6856SOL     OW21466   6.589   2.262   0.741
 6856SOL    HW121467   6.556   2.304   0.657
 6856SOL    HW221468   6.545   2.172   0.753
 6857SOL     OW21469   1.686   4.718   5.813
 6857SOL    HW121470   1.758   4.710   5.883
 6857SOL    HW221471   1.710   4.661   5.734
 6858SOL     OW21472   1.194   3.647   1.530
 6858SOL    HW121473   1.279   3.600   1.554
 6858SOL    HW221474   1.144   3.592   1.464
 6859SOL     OW21475   2.465   2.184   1.081
 6859SOL    HW121476   2.388   2.153   1.026
 6859SOL    HW221477   2.433   2.211   1.171
 6860SOL     OW21478   0.362   6.602   0.087
 6860SOL    HW121479   0.375   6.700   0.071
 6860SOL    HW221480   0.366   6.554   0.000
 6861SOL     OW21481   6.663   3.050   6.952
 6861SOL    HW121482   6.642   3.106   6.872
 6861SOL    HW221483   6.752   3.076   6.989
 6862SOL     OW21484   0.510   4.175   3.366
 6862SOL    HW121485   0.497   4.232   3.285
 6862SOL    HW221486   0.608   4.158   3.378
 6863SOL     OW21487   5.163   0.933   5.507
 6863SOL    HW121488   5.102   0.881   5.448
 6863SOL    HW221489   5.118   1.018   5.535
 6864SOL     OW21490   1.887   3.540   6.384
 6864SOL    HW121491   1.878   3.596   6.466
 6864SOL    HW221492   1.799   3.498   6.363
 6865SOL     OW21493   1.860   0.546   3.777
 6865SOL    HW121494   1.795   0.538   3.853
 6865SOL    HW221495   1.811   0.578   3.696
 6866SOL     OW21496   1.990   4.820   0.127
 6866SOL    HW121497   1.901   4.817   0.083
 6866SOL    HW221498   2.049   4.885   0.078
 6867SOL     OW21499   2.271   2.767   6.271
 6867SOL    HW121500   2.190   2.797   6.322
 6867SOL    HW221501   2.269   2.808   6.180
 6868SOL     OW21502   3.572   4.900   2.949
 6868SOL    HW121503   3.510   4.882   3.026
 6868SOL    HW221504   3.528   4.965   2.886
 6869SOL     OW21505   1.363   0.681   5.594
 6869SOL    HW121506   1.385   0.761   5.650
 6869SOL    HW221507   1.407   0.688   5.505
 6870SOL     OW21508   5.185   2.925   6.693
 6870SOL    HW121509   5.244   2.858   6.649
 6870SOL    HW221510   5.203   2.926   6.792
 6871SOL     OW21511   6.164   2.248   2.824
 6871SOL    HW121512   6.149   2.285   2.915
 6871SOL    HW221513   6.231   2.306   2.776
 6872SOL     OW21514   1.580   4.588   0.919
 6872SOL    HW121515   1.498   4.646   0.917
 6872SOL    HW221516   1.638   4.617   0.995
 6873SOL     OW21517   0.461   3.972   2.715
 6873SOL    HW121518   0.369   4.004   2.694
 6873SOL    HW221519   0.456   3.881   2.757
 6874SOL     OW21520   4.039   5.743   1.530
 6874SOL    HW121521   4.106   5.782   1.466
 6874SOL    HW221522   3.965   5.809   1.544
 6875SOL     OW21523   2.520   1.332   6.531
 6875SOL    HW121524   2.458   1.409   6.542
 6875SOL    HW221525   2.578   1.324   6.612
 6876SOL     OW21526   5.735   5.123   3.299
 6876SOL    HW121527   5.636   5.124   3.310
 6876SOL    HW221528   5.768   5.029   3.301
 6877SOL     OW21529   0.623   4.439   1.418
 6877SOL    HW121530   0.702   4.483   1.462
 6877SOL    HW221531   0.574   4.506   1.363
 6878SOL     OW21532   2.028   0.788   4.152
 6878SOL    HW121533   2.050   0.709   4.096
 6878SOL    HW221534   1.929   0.789   4.170
 6879SOL     OW21535   0.996   1.429   1.551
 6879SOL    HW121536   1.087   1.416   1.589
 6879SOL    HW221537   0.947   1.341   1.550
 6880SOL     OW21538   2.023   6.311   0.649
 6880SOL    HW121539   2.010   6.212   0.646
 6880SOL    HW221540   1.961   6.355   0.585
 6881SOL     OW21541   6.962   3.708   0.632
 6881SOL    HW121542   7.000   3.696   0.724
 6881SOL    HW221543   6.991   3.796   0.595
 6882SOL     OW21544   2.801   6.798   0.378
 6882SOL    HW121545   2.896   6.770   0.396
 6882SOL    HW221546   2.748   6.719   0.349
 6883SOL     OW21547   4.585   6.737   0.982
 6883SOL    HW121548   4.679   6.773   0.987
 6883SOL    HW221549   4.583   6.645   1.021
 6884SOL     OW21550   1.386   4.959   3.064
 6884SOL    HW121551   1.312   5.019   3.095
 6884SOL    HW221552   1.474   4.994   3.098
 6885SOL     OW21553   5.665   4.771   4.843
 6885SOL    HW121554   5.679   4.770   4.744
 6885SOL    HW221555   5.568   4.783   4.863
 6886SOL     OW21556   5.237   3.962   0.734
 6886SOL    HW121557   5.184   3.977   0.818
 6886SOL    HW221558   5.310   4.030   0.728
 6887SOL     OW21559   5.385   6.786   5.908
 6887SOL    HW121560   5.310   6.843   5.874
 6887SOL    HW221561   5.445   6.761   5.833
 6888SOL     OW21562   6.311   4.421   0.199
 6888SOL    HW121563   6.343   4.362   0.273
 6888SOL    HW221564   6.266   4.501   0.237
 6889SOL     OW21565   0.263   2.707   5.468
 6889SOL    HW121566   0.284   2.732   5.373
 6889SOL    HW221567   0.348   2.683   5.515
 6890SOL     OW21568   4.926   4.600   4.184
 6890SOL    HW121569   4.951   4.686   4.139
 6890SOL    HW221570   4.835   4.609   4.225
 6891SOL     OW21571   1.988   2.058   0.823
 6891SOL    HW121572   2.051   2.045   0.746
 6891SOL    HW221573   1.904   2.100   0.790
 6892SOL     OW21574   1.743   1.044   4.956
 6892SOL    HW121575   1.707   1.074   5.044
 6892SOL    HW221576   1.835   1.080   4.943
 6893SOL     OW21577   5.971   3.205   0.364
 6893SOL    HW121578   5.884   3.240   0.399
 6893SOL    HW221579   6.001   3.261   0.286
 6894SOL     OW21580   5.432   5.362   0.030
 6894SOL    HW121581   5.504   5.336   6.987
 6894SOL    HW221582   5.408   5.283   0.087
 6895SOL     OW21583   1.460   5.603   2.322
 6895SOL    HW121584   1.503   5.583   2.410
 6895SOL    HW221585   1.368   5.639   2.336
 6896SOL     OW21586   5.391   0.876   6.440
 6896SOL    HW121587   5.382   0.961   6.491
 6896SOL    HW221588   5.318   0.813   6.467
 6897SOL     OW21589   4.352   2.315   4.817
 6897SOL    HW121590   4.425   2.377   4.788
 6897SOL    HW221591   4.292   2.362   4.882
 6898SOL     OW21592   2.067   6.894   1.384
 6898SOL    HW121593   1.994   6.902   1.316
 6898SOL    HW221594   2.031   6.918   1.474
 6899SOL     OW21595   5.344   5.277   2.344
 6899SOL    HW121596   5.286   5.338   2.289
 6899SOL    HW221597   5.365   5.195   2.291
 6900SOL     OW21598   0.133   4.113   4.468
 6900SOL    HW121599   0.091   4.133   4.557
 6900SOL    HW221600   0.220   4.162   4.461
 6901SOL     OW21601   5.004   4.418   6.399
 6901SOL    HW121602   4.926   4.383   6.451
 6901SOL    HW221603   4.996   4.517   6.389
 6902SOL     OW21604   0.282   6.051   5.887
 6902SOL    HW121605   0.183   6.051   5.874
 6902SOL    HW221606   0.327   6.041   5.799
 6903SOL     OW21607   1.588   6.380   5.272
 6903SOL    HW121608   1.527   6.430   5.210
 6903SOL    HW221609   1.656   6.330   5.218
 6904SOL     OW21610   0.829   0.588   6.377
 6904SOL    HW121611   0.757   0.645   6.336
 6904SOL    HW221612   0.898   0.566   6.308
 6905SOL     OW21613   4.394   6.039   5.748
 6905SOL    HW121614   4.415   6.134   5.727
 6905SOL    HW221615   4.321   6.007   5.687
 6906SOL     OW21616   3.037   1.723   3.289
 6906SOL    HW121617   2.937   1.719   3.289
 6906SOL    HW221618   3.074   1.631   3.307
 6907SOL     OW21619   6.051   2.925   0.198
 6907SOL    HW121620   6.079   3.004   0.143
 6907SOL    HW221621   5.951   2.925   0.207
 6908SOL     OW21622   3.712   6.171   0.438
 6908SOL    HW121623   3.753   6.085   0.408
 6908SOL    HW221624   3.676   6.220   0.358
 6909SOL     OW21625   5.715   4.315   2.348
 6909SOL    HW121626   5.741   4.385   2.414
 6909SOL    HW221627   5.750   4.339   2.258
 6910SOL     OW21628   1.798   2.428   1.856
 6910SOL    HW121629   1.878   2.368   1.846
 6910SOL    HW221630   1.768   2.427   1.952
 6911SOL     OW21631   2.710   6.806   5.018
 6911SOL    HW121632   2.658   6.744   4.960
 6911SOL    HW221633   2.679   6.900   5.003
 6912SOL     OW21634   3.038   4.134   6.205
 6912SOL    HW121635   3.080   4.048   6.233
 6912SOL    HW221636   2.957   4.151   6.262
 6913SOL     OW21637   4.184   5.609   6.137
 6913SOL    HW121638   4.172   5.685   6.073
 6913SOL    HW221639   4.137   5.630   6.223
 6914SOL     OW21640   0.508   2.198   2.498
 6914SOL    HW121641   0.514   2.296   2.479
 6914SOL    HW221642   0.521   2.147   2.413
 6915SOL     OW21643   0.046   3.248   4.401
 6915SOL    HW121644   6.981   3.282   4.437
 6915SOL    HW221645   0.066   3.293   4.314
 6916SOL     OW21646   4.727   6.266   5.820
 6916SOL    HW121647   4.700   6.344   5.763
 6916SOL    HW221648   4.808   6.223   5.781
 6917SOL     OW21649   3.971   6.047   2.293
 6917SOL    HW121650   3.942   6.132   2.338
 6917SOL    HW221651   3.897   5.980   2.297
 6918SOL     OW21652   2.039   3.814   0.128
 6918SOL    HW121653   2.048   3.721   0.163
 6918SOL    HW221654   1.948   3.828   0.090
 6919SOL     OW21655   6.272   6.071   3.225
 6919SOL    HW121656   6.179   6.039   3.205
 6919SOL    HW221657   6.267   6.162   3.266
 6920SOL     OW21658   0.311   2.778   5.207
 6920SOL    HW121659   0.259   2.713   5.152
 6920SOL    HW221660   0.363   2.839   5.147
 6921SOL     OW21661   3.511   0.446   4.841
 6921SOL    HW121662   3.477   0.485   4.926
 6921SOL    HW221663   3.439   0.390   4.799
 6922SOL     OW21664   3.130   4.847   6.518
 6922SOL    HW121665   3.112   4.943   6.541
 6922SOL    HW221666   3.044   4.796   6.517
 6923SOL     OW21667   5.203   6.904   3.199
 6923SOL    HW121668   5.175   6.832   3.263
 6923SOL    HW221669   5.270   6.964   3.243
 6924SOL     OW21670   2.873   5.013   1.928
 6924SOL    HW121671   2.856   4.960   1.845
 6924SOL    HW221672   2.835   4.964   2.007
 6925SOL     OW21673   6.904   6.322   4.579
 6925SOL    HW121674   6.881   6.341   4.674
 6925SOL    HW221675   6.947   6.402   4.538
 6926SOL     OW21676   2.979   2.801   0.372
 6926SOL    HW121677   3.040   2.780   0.449
 6926SOL    HW221678   2.951   2.716   0.328
 6927SOL     OW21679   3.260   0.191   5.744
 6927SOL    HW121680   3.326   0.117   5.731
 6927SOL    HW221681   3.245   0.238   5.657
 6928SOL     OW21682   4.325   5.917   0.657
 6928SOL    HW121683   4.246   5.956   0.706
 6928SOL    HW221684   4.390   5.990   0.637
 6929SOL     OW21685   4.459   5.360   2.946
 6929SOL    HW121686   4.424   5.332   2.856
 6929SOL    HW221687   4.393   5.334   3.017
 6930SOL     OW21688   1.158   6.098   2.059
 6930SOL    HW121689   1.235   6.103   2.122
 6930SOL    HW221690   1.165   6.014   2.005
 6931SOL     OW21691   3.365   3.162   0.841
 6931SOL    HW121692   3.346   3.105   0.921
 6931SOL    HW221693   3.335   3.114   0.759
 6932SOL     OW21694   3.920   0.856   6.834
 6932SOL    HW121695   3.919   0.772   6.781
 6932SOL    HW221696   3.870   0.842   6.920
 6933SOL     OW21697   3.700   6.138   5.799
 6933SOL    HW121698   3.666   6.100   5.713
 6933SOL    HW221699   3.635   6.117   5.872
 6934SOL     OW21700   4.883   5.112   0.255
 6934SOL    HW121701   4.934   5.105   0.341
 6934SOL    HW221702   4.816   5.186   0.263
 6935SOL     OW21703   4.192   5.658   2.569
 6935SOL    HW121704   4.095   5.650   2.593
 6935SOL    HW221705   4.202   5.704   2.481
 6936SOL     OW21706   0.854   1.689   6.897
 6936SOL    HW121707   0.801   1.773   6.884
 6936SOL    HW221708   0.872   1.648   6.808
 6937SOL     OW21709   5.648   4.663   0.660
 6937SOL    HW121710   5.723   4.603   0.685
 6937SOL    HW221711   5.640   4.667   0.560
 6938SOL     OW21712   3.020   0.210   5.225
 6938SOL    HW121713   3.052   0.118   5.245
 6938SOL    HW221714   2.978   0.250   5.307
 6939SOL     OW21715   5.858   2.778   3.443
 6939SOL    HW121716   5.814   2.838   3.376
 6939SOL    HW221717   5.853   2.819   3.534
 6940SOL     OW21718   1.680   6.466   1.816
 6940SOL    HW121719   1.743   6.438   1.743
 6940SOL    HW221720   1.588   6.434   1.794
 6941SOL     OW21721   3.500   3.026   2.498
 6941SOL    HW121722   3.577   2.971   2.530
 6941SOL    HW221723   3.514   3.122   2.525
 6942SOL     OW21724   6.842   4.857   2.895
 6942SOL    HW121725   6.832   4.778   2.955
 6942SOL    HW221726   6.768   4.857   2.827
 6943SOL     OW21727   3.268   5.353   5.179
 6943SOL    HW121728   3.312   5.359   5.268
 6943SOL    HW221729   3.190   5.416   5.176
 6944SOL     OW21730   0.672   4.881   4.983
 6944SOL    HW121731   0.726   4.830   5.050
 6944SOL    HW221732   0.704   4.859   4.891
 6945SOL     OW21733   4.348   1.586   0.939
 6945SOL    HW121734   4.262   1.610   0.895
 6945SOL    HW221735   4.409   1.542   0.873
 6946SOL     OW21736   5.213   5.632   2.866
 6946SOL    HW121737   5.287   5.565   2.868
 6946SOL    HW221738   5.228   5.701   2.937
 6947SOL     OW21739   6.423   4.074   5.222
 6947SOL    HW121740   6.376   4.003   5.275
 6947SOL    HW221741   6.356   4.134   5.179
 6948SOL     OW21742   0.187   4.719   6.667
 6948SOL    HW121743   0.239   4.633   6.671
 6948SOL    HW221744   0.250   4.796   6.660
 6949SOL     OW21745   2.472   1.377   3.275
 6949SOL    HW121746   2.568   1.352   3.289
 6949SOL    HW221747   2.454   1.465   3.319
 6950SOL     OW21748   1.899   1.418   4.420
 6950SOL    HW121749   1.910   1.386   4.326
 6950SOL    HW221750   1.981   1.396   4.473
 6951SOL     OW21751   1.182   3.963   6.945
 6951SOL    HW121752   1.100   4.012   6.917
 6951SOL    HW221753   1.216   4.001   0.010
 6952SOL     OW21754   4.194   4.883   3.226
 6952SOL    HW121755   4.148   4.862   3.139
 6952SOL    HW221756   4.220   4.797   3.270
 6953SOL     OW21757   0.584   0.764   1.951
 6953SOL    HW121758   0.502   0.770   1.895
 6953SOL    HW221759   0.574   0.823   2.031
 6954SOL     OW21760   6.516   4.969   6.149
 6954SOL    HW121761   6.471   4.998   6.233
 6954SOL    HW221762   6.468   4.891   6.110
 6955SOL     OW21763   4.111   6.017   2.579
 6955SOL    HW121764   4.175   6.019   2.655
 6955SOL    HW221765   4.156   6.049   2.496
 6956SOL     OW21766   5.922   5.055   2.135
 6956SOL    HW121767   6.004   4.998   2.145
 6956SOL    HW221768   5.871   5.027   2.053
 6957SOL     OW21769   5.926   4.147   5.222
 6957SOL    HW121770   5.924   4.210   5.299
 6957SOL    HW221771   5.899   4.194   5.139
 6958SOL     OW21772   3.353   3.635   2.018
 6958SOL    HW121773   3.351   3.584   2.105
 6958SOL    HW221774   3.391   3.577   1.947
 6959SOL     OW21775   1.026   3.367   2.733
 6959SOL    HW121776   0.978   3.291   2.690
 6959SOL    HW221777   1.123   3.363   2.712
 6960SOL     OW21778   5.490   4.681   1.666
 6960SOL    HW121779   5.567   4.653   1.608
 6960SOL    HW221780   5.431   4.602   1.684
 6961SOL     OW21781   5.350   2.309   4.859
 6961SOL    HW121782   5.333   2.402   4.826
 6961SOL    HW221783   5.338   2.306   4.958
 6962SOL     OW21784   2.201   6.461   0.772
 6962SOL    HW121785   2.130   6.415   0.719
 6962SOL    HW221786   2.230   6.544   0.724
 6963SOL     OW21787   0.668   6.778   7.018
 6963SOL    HW121788   0.720   6.791   0.081
 6963SOL    HW221789   0.725   6.801   6.939
 6964SOL     OW21790   2.356   1.411   5.174
 6964SOL    HW121791   2.449   1.411   5.210
 6964SOL    HW221792   2.338   1.498   5.129
 6965SOL     OW21793   1.740   1.254   6.773
 6965SOL    HW121794   1.647   1.252   6.810
 6965SOL    HW221795   1.756   1.171   6.719
 6966SOL     OW21796   1.713   6.529   1.039
 6966SOL    HW121797   1.787   6.547   1.104
 6966SOL    HW221798   1.637   6.591   1.057
 6967SOL     OW21799   3.752   0.091   6.542
 6967SOL    HW121800   3.669   0.133   6.505
 6967SOL    HW221801   3.826   0.098   6.476
 6968SOL     OW21802   3.847   0.602   2.002
 6968SOL    HW121803   3.777   0.552   2.054
 6968SOL    HW221804   3.937   0.564   2.022
 6969SOL     OW21805   1.575   3.432   2.829
 6969SOL    HW121806   1.658   3.378   2.846
 6969SOL    HW221807   1.556   3.489   2.909
 6970SOL     OW21808   3.562   5.810   5.964
 6970SOL    HW121809   3.481   5.844   5.915
 6970SOL    HW221810   3.624   5.886   5.983
 6971SOL     OW21811   6.867   3.689   6.933
 6971SOL    HW121812   6.962   3.720   6.922
 6971SOL    HW221813   6.831   3.720   7.021
 6972SOL     OW21814   5.577   3.845   1.903
 6972SOL    HW121815   5.498   3.829   1.962
 6972SOL    HW221816   5.568   3.790   1.820
 6973SOL     OW21817   1.250   1.371   3.087
 6973SOL    HW121818   1.300   1.447   3.128
 6973SOL    HW221819   1.260   1.289   3.144
 6974SOL     OW21820   4.140   3.519   3.056
 6974SOL    HW121821   4.234   3.522   3.089
 6974SOL    HW221822   4.079   3.498   3.133
 6975SOL     OW21823   3.316   5.201   4.739
 6975SOL    HW121824   3.292   5.121   4.794
 6975SOL    HW221825   3.339   5.277   4.799
 6976SOL     OW21826   4.715   5.112   6.108
 6976SOL    HW121827   4.700   5.115   6.207
 6976SOL    HW221828   4.798   5.163   6.086
 6977SOL     OW21829   4.138   4.749   2.286
 6977SOL    HW121830   4.137   4.713   2.193
 6977SOL    HW221831   4.194   4.690   2.344
 6978SOL     OW21832   1.342   3.825   1.331
 6978SOL    HW121833   1.269   3.881   1.369
 6978SOL    HW221834   1.343   3.736   1.376
 6979SOL     OW21835   1.328   4.106   2.737
 6979SOL    HW121836   1.316   4.089   2.834
 6979SOL    HW221837   1.397   4.177   2.724
 6980SOL     OW21838   2.175   4.593   3.445
 6980SOL    HW121839   2.230   4.536   3.383
 6980SOL    HW221840   2.223   4.603   3.532
 6981SOL     OW21841   4.008   2.247   6.707
 6981SOL    HW121842   4.034   2.250   6.804
 6981SOL    HW221843   4.082   2.285   6.652
 6982SOL     OW21844   6.370   6.887   1.831
 6982SOL    HW121845   6.355   6.986   1.821
 6982SOL    HW221846   6.461   6.871   1.869
 6983SOL     OW21847   6.759   0.611   4.037
 6983SOL    HW121848   6.828   0.683   4.033
 6983SOL    HW221849   6.801   0.522   4.018
 6984SOL     OW21850   2.037   4.218   3.366
 6984SOL    HW121851   2.134   4.213   3.341
 6984SOL    HW221852   1.981   4.189   3.289
 6985SOL     OW21853   5.333   3.429   0.993
 6985SOL    HW121854   5.319   3.338   1.031
 6985SOL    HW221855   5.256   3.454   0.934
 6986SOL     OW21856   3.697   5.893   5.030
 6986SOL    HW121857   3.669   5.958   4.959
 6986SOL    HW221858   3.796   5.895   5.040
 6987SOL     OW21859   6.885   1.218   6.893
 6987SOL    HW121860   6.805   1.159   6.887
 6987SOL    HW221861   6.859   1.312   6.873
 6988SOL     OW21862   1.917   0.251   5.908
 6988SOL    HW121863   1.964   0.287   5.827
 6988SOL    HW221864   1.961   0.287   5.990
 6989SOL     OW21865   0.679   3.474   2.053
 6989SOL    HW121866   0.598   3.462   1.996
 6989SOL    HW221867   0.760   3.485   1.995
 6990SOL     OW21868   3.860   4.776   6.844
 6990SOL    HW121869   3.960   4.781   6.850
 6990SOL    HW221870   3.826   4.713   6.914
 6991SOL     OW21871   5.068   4.168   3.286
 6991SOL    HW121872   5.011   4.220   3.349
 6991SOL    HW221873   5.105   4.230   3.216
 6992SOL     OW21874   1.957   5.314   5.828
 6992SOL    HW121875   1.906   5.315   5.914
 6992SOL    HW221876   1.916   5.380   5.764
 6993SOL     OW21877   4.383   2.235   1.418
 6993SOL    HW121878   4.397   2.213   1.321
 6993SOL    HW221879   4.316   2.309   1.425
 6994SOL     OW21880   2.796   1.002   2.944
 6994SOL    HW121881   2.778   1.092   2.984
 6994SOL    HW221882   2.848   1.013   2.860
 6995SOL     OW21883   6.835   5.140   0.821
 6995SOL    HW121884   6.867   5.081   0.896
 6995SOL    HW221885   6.742   5.113   0.795
 6996SOL     OW21886   0.505   1.621   6.366
 6996SOL    HW121887   0.419   1.598   6.321
 6996SOL    HW221888   0.581   1.609   6.302
 6997SOL     OW21889   6.092   5.847   6.079
 6997SOL    HW121890   6.191   5.858   6.065
 6997SOL    HW221891   6.046   5.934   6.067
 6998SOL     OW21892   0.545   1.043   0.038
 6998SOL    HW121893   0.492   1.127   0.025
 6998SOL    HW221894   0.607   1.030   6.982
 6999SOL     OW21895   0.333   2.683   0.221
 6999SOL    HW121896   0.258   2.708   0.281
 6999SOL    HW221897   0.297   2.636   0.140
 7000SOL     OW21898   0.532   4.766   3.250
 7000SOL    HW121899   0.475   4.687   3.271
 7000SOL    HW221900   0.513   4.839   3.316
 7001SOL     OW21901   0.769   1.287   4.668
 7001SOL    HW121902   0.799   1.332   4.583
 7001SOL    HW221903   0.767   1.188   4.653
 7002SOL     OW21904   1.392   4.542   2.846
 7002SOL    HW121905   1.296   4.570   2.838
 7002SOL    HW221906   1.413   4.522   2.941
 7003SOL     OW21907   0.552   5.428   6.109
 7003SOL    HW121908   0.640   5.455   6.071
 7003SOL    HW221909   0.557   5.427   6.209
 7004SOL     OW21910   1.141   0.991   6.754
 7004SOL    HW121911   1.144   1.091   6.755
 7004SOL    HW221912   1.114   0.957   6.845
 7005SOL     OW21913   1.792   5.270   6.992
 7005SOL    HW121914   1.746   5.239   6.910
 7005SOL    HW221915   1.832   5.192   0.019
 7006SOL     OW21916   0.529   0.458   3.840
 7006SOL    HW121917   0.459   0.491   3.776
 7006SOL    HW221918   0.484   0.426   3.924
 7007SOL     OW21919   2.105   0.115   6.700
 7007SOL    HW121920   2.006   0.122   6.712
 7007SOL    HW221921   2.152   0.150   6.781
 7008SOL     OW21922   5.447   3.141   2.333
 7008SOL    HW121923   5.419   3.128   2.238
 7008SOL    HW221924   5.495   3.059   2.365
 7009SOL     OW21925   5.351   5.508   2.548
 7009SOL    HW121926   5.291   5.588   2.559
 7009SOL    HW221927   5.314   5.448   2.478
 7010SOL     OW21928   5.187   3.092   2.530
 7010SOL    HW121929   5.187   3.108   2.431
 7010SOL    HW221930   5.094   3.076   2.561
 7011SOL     OW21931   2.113   6.070   6.402
 7011SOL    HW121932   2.153   6.154   6.366
 7011SOL    HW221933   2.042   6.038   6.339
 7012SOL     OW21934   6.945   4.202   0.570
 7012SOL    HW121935   6.964   4.279   0.631
 7012SOL    HW221936   7.002   4.209   0.488
 7013SOL     OW21937   2.880   2.532   6.998
 7013SOL    HW121938   2.905   2.533   0.073
 7013SOL    HW221939   2.915   2.448   6.956
 7014SOL     OW21940   6.682   3.289   0.505
 7014SOL    HW121941   6.732   3.219   0.556
 7014SOL    HW221942   6.593   3.254   0.478
 7015SOL     OW21943   5.732   6.272   1.439
 7015SOL    HW121944   5.829   6.276   1.462
 7015SOL    HW221945   5.722   6.260   1.340
 7016SOL     OW21946   3.419   5.279   0.872
 7016SOL    HW121947   3.356   5.223   0.925
 7016SOL    HW221948   3.506   5.287   0.920
 7017SOL     OW21949   6.135   4.490   6.434
 7017SOL    HW121950   6.105   4.460   6.525
 7017SOL    HW221951   6.190   4.418   6.392
 7018SOL     OW21952   6.118   3.246   4.402
 7018SOL    HW121953   6.036   3.189   4.410
 7018SOL    HW221954   6.098   3.337   4.438
 7019SOL     OW21955   3.372   5.784   2.448
 7019SOL    HW121956   3.370   5.782   2.348
 7019SOL    HW221957   3.451   5.836   2.479
 7020SOL     OW21958   7.001   1.460   0.843
 7020SOL    HW121959   6.915   1.493   0.803
 7020SOL    HW221960   6.982   1.414   0.930
 7021SOL     OW21961   0.679   2.551   4.741
 7021SOL    HW121962   0.766   2.503   4.734
 7021SOL    HW221963   0.606   2.485   4.756
 7022SOL     OW21964   1.980   3.983   0.773
 7022SOL    HW121965   2.023   4.046   0.709
 7022SOL    HW221966   1.926   4.035   0.840
 7023SOL     OW21967   6.908   1.992   1.390
 7023SOL    HW121968   6.831   2.025   1.444
 7023SOL    HW221969   6.947   2.068   1.338
 7024SOL     OW21970   3.855   4.048   5.830
 7024SOL    HW121971   3.833   4.023   5.924
 7024SOL    HW221972   3.835   4.145   5.816
 7025SOL     OW21973   2.905   0.943   0.958
 7025SOL    HW121974   2.828   0.984   0.909
 7025SOL    HW221975   2.927   0.855   0.916
 7026SOL     OW21976   2.671   2.233   1.549
 7026SOL    HW121977   2.763   2.233   1.589
 7026SOL    HW221978   2.676   2.201   1.454
 7027SOL     OW21979   2.835   4.577   0.933
 7027SOL    HW121980   2.875   4.522   0.859
 7027SOL    HW221981   2.736   4.572   0.929
 7028SOL     OW21982   3.382   0.453   2.817
 7028SOL    HW121983   3.433   0.535   2.842
 7028SOL    HW221984   3.439   0.372   2.833
 7029SOL     OW21985   3.603   3.952   3.851
 7029SOL    HW121986   3.699   3.975   3.867
 7029SOL    HW221987   3.573   3.881   3.915
 7030SOL     OW21988   6.274   6.486   4.863
 7030SOL    HW121989   6.301   6.441   4.778
 7030SOL    HW221990   6.220   6.422   4.919
 7031SOL     OW21991   5.727   5.257   0.517
 7031SOL    HW121992   5.673   5.337   0.543
 7031SOL    HW221993   5.811   5.254   0.572
 7032SOL     OW21994   3.935   4.807   3.888
 7032SOL    HW121995   4.030   4.776   3.887
 7032SOL    HW221996   3.897   4.798   3.980
 7033SOL     OW21997   2.142   1.879   5.431
 7033SOL    HW121998   2.046   1.864   5.455
 7033SOL    HW221999   2.197   1.888   5.514
 7034SOL     OW22000   6.732   2.253   2.162
 7034SOL    HW122001   6.748   2.339   2.115
 7034SOL    HW222002   6.651   2.208   2.123
 7035SOL     OW22003   3.091   2.265   1.316
 7035SOL    HW122004   3.157   2.331   1.281
 7035SOL    HW222005   3.006   2.313   1.338
 7036SOL     OW22006   6.614   1.807   1.902
 7036SOL    HW122007   6.692   1.852   1.860
 7036SOL    HW222008   6.641   1.770   1.991
 7037SOL     OW22009   0.826   0.747   6.144
 7037SOL    HW122010   0.879   0.820   6.188
 7037SOL    HW222011   0.732   0.748   6.179
 7038SOL     OW22012   0.497   4.452   0.196
 7038SOL    HW122013   0.422   4.468   0.133
 7038SOL    HW222014   0.486   4.509   0.277
 7039SOL     OW22015   6.960   0.150   1.486
 7039SOL    HW122016   6.924   0.243   1.490
 7039SOL    HW222017   6.947   0.105   1.574
 7040SOL     OW22018   4.942   3.099   4.694
 7040SOL    HW122019   4.851   3.058   4.686
 7040SOL    HW222020   4.938   3.176   4.756
 7041SOL     OW22021   0.753   0.041   3.235
 7041SOL    HW122022   0.852   0.025   3.229
 7041SOL    HW222023   0.708   7.021   3.156
 7042SOL     OW22024   5.590   5.633   5.476
 7042SOL    HW122025   5.575   5.708   5.540
 7042SOL    HW222026   5.686   5.630   5.450
 7043SOL     OW22027   2.083   5.791   0.205
 7043SOL    HW122028   2.087   5.864   0.273
 7043SOL    HW222029   2.175   5.767   0.176
 7044SOL     OW22030   4.165   6.307   4.864
 7044SOL    HW122031   4.068   6.286   4.865
 7044SOL    HW222032   4.216   6.237   4.914
 7045SOL     OW22033   5.228   6.549   1.805
 7045SOL    HW122034   5.157   6.558   1.875
 7045SOL    HW222035   5.262   6.640   1.779
 7046SOL     OW22036   2.890   1.054   2.675
 7046SOL    HW122037   2.838   0.993   2.614
 7046SOL    HW222038   2.860   1.148   2.661
 7047SOL     OW22039   1.671   0.192   0.717
 7047SOL    HW122040   1.636   0.098   0.718
 7047SOL    HW222041   1.763   0.194   0.680
 7048SOL     OW22042   0.568   5.707   4.159
 7048SOL    HW122043   0.542   5.649   4.081
 7048SOL    HW222044   0.542   5.802   4.141
 7049SOL     OW22045   3.065   1.355   4.830
 7049SOL    HW122046   3.053   1.343   4.731
 7049SOL    HW222047   2.976   1.349   4.875
 7050SOL     OW22048   4.342   4.536   0.746
 7050SOL    HW122049   4.264   4.489   0.706
 7050SOL    HW222050   4.319   4.570   0.837
 7051SOL     OW22051   1.907   1.054   1.919
 7051SOL    HW122052   1.974   1.125   1.900
 7051SOL    HW222053   1.848   1.040   1.839
 7052SOL     OW22054   4.882   2.198   2.951
 7052SOL    HW122055   4.802   2.257   2.940
 7052SOL    HW222056   4.945   2.212   2.875
 7053SOL     OW22057   0.907   4.378   3.671
 7053SOL    HW122058   0.819   4.348   3.706
 7053SOL    HW222059   0.952   4.302   3.624
 7054SOL     OW22060   5.313   0.134   0.562
 7054SOL    HW122061   5.302   0.036   0.546
 7054SOL    HW222062   5.291   0.184   0.478
 7055SOL     OW22063   2.035   0.347   6.894
 7055SOL    HW122064   2.037   0.407   6.814
 7055SOL    HW222065   1.943   0.308   6.904
 7056SOL     OW22066   6.805   5.344   1.016
 7056SOL    HW122067   6.871   5.324   1.089
 7056SOL    HW222068   6.853   5.345   0.928
 7057SOL     OW22069   3.211   5.560   4.703
 7057SOL    HW122070   3.245   5.488   4.763
 7057SOL    HW222071   3.111   5.561   4.705
 7058SOL     OW22072   5.842   2.299   5.965
 7058SOL    HW122073   5.815   2.315   5.870
 7058SOL    HW222074   5.832   2.384   6.017
 7059SOL     OW22075   1.318   1.085   4.826
 7059SOL    HW122076   1.257   1.072   4.748
 7059SOL    HW222077   1.413   1.087   4.795
 7060SOL     OW22078   2.899   2.249   1.712
 7060SOL    HW122079   2.978   2.204   1.754
 7060SOL    HW222080   2.872   2.327   1.768
 7061SOL     OW22081   1.939   0.663   1.266
 7061SOL    HW122082   1.946   0.752   1.222
 7061SOL    HW222083   2.012   0.603   1.233
 7062SOL     OW22084   3.609   0.859   5.217
 7062SOL    HW122085   3.510   0.861   5.226
 7062SOL    HW222086   3.646   0.950   5.237
 7063SOL     OW22087   0.260   1.109   1.569
 7063SOL    HW122088   0.200   1.053   1.511
 7063SOL    HW222089   0.230   1.102   1.664
 7064SOL     OW22090   2.806   1.538   5.151
 7064SOL    HW122091   2.888   1.573   5.198
 7064SOL    HW222092   2.758   1.615   5.108
 7065SOL     OW22093   3.185   6.854   4.189
 7065SOL    HW122094   3.115   6.811   4.247
 7065SOL    HW222095   3.274   6.849   4.236
 7066SOL     OW22096   3.786   0.673   1.030
 7066SOL    HW122097   3.805   0.745   1.097
 7066SOL    HW222098   3.842   0.686   0.949
 7067SOL     OW22099   2.703   4.023   6.154
 7067SOL    HW122100   2.772   4.089   6.125
 7067SOL    HW222101   2.685   3.959   6.080
 7068SOL     OW22102   4.656   4.715   2.712
 7068SOL    HW122103   4.671   4.712   2.811
 7068SOL    HW222104   4.609   4.800   2.689
 7069SOL     OW22105   4.265   1.190   5.042
 7069SOL    HW122106   4.229   1.243   4.966
 7069SOL    HW222107   4.252   1.092   5.023
 7070SOL     OW22108   6.740   1.035   5.669
 7070SOL    HW122109   6.642   1.015   5.664
 7070SOL    HW222110   6.772   1.067   5.580
 7071SOL     OW22111   4.515   5.503   6.658
 7071SOL    HW122112   4.434   5.462   6.699
 7071SOL    HW222113   4.521   5.599   6.685
 7072SOL     OW22114   0.943   3.677   6.402
 7072SOL    HW122115   1.020   3.613   6.398
 7072SOL    HW222116   0.956   3.739   6.479
 7073SOL     OW22117   4.062   1.309   4.239
 7073SOL    HW122118   4.106   1.338   4.154
 7073SOL    HW222119   3.968   1.344   4.241
 7074SOL     OW22120   5.942   3.490   2.310
 7074SOL    HW122121   5.882   3.416   2.339
 7074SOL    HW222122   5.916   3.574   2.358
 7075SOL     OW22123   2.144   5.003   2.601
 7075SOL    HW122124   2.197   4.919   2.611
 7075SOL    HW222125   2.187   5.061   2.531
 7076SOL     OW22126   6.380   2.545   0.746
 7076SOL    HW122127   6.409   2.449   0.746
 7076SOL    HW222128   6.320   2.562   0.668
 7077SOL     OW22129   3.771   5.864   1.578
 7077SOL    HW122130   3.746   5.782   1.629
 7077SOL    HW222131   3.723   5.865   1.490
 7078SOL     OW22132   0.082   2.016   6.786
 7078SOL    HW122133   0.176   1.992   6.760
 7078SOL    HW222134   0.084   2.067   6.873
 7079SOL     OW22135   2.909   5.462   5.773
 7079SOL    HW122136   2.878   5.376   5.734
 7079SOL    HW222137   2.844   5.494   5.842
 7080SOL     OW22138   4.049   1.800   6.429
 7080SOL    HW122139   4.075   1.705   6.413
 7080SOL    HW222140   3.957   1.815   6.392
 7081SOL     OW22141   2.693   6.164   0.103
 7081SOL    HW122142   2.754   6.182   0.180
 7081SOL    HW222143   2.619   6.232   0.103
 7082SOL     OW22144   1.477   5.085   2.316
 7082SOL    HW122145   1.416   5.011   2.287
 7082SOL    HW222146   1.524   5.058   2.400
 7083SOL     OW22147   5.723   3.112   2.769
 7083SOL    HW122148   5.805   3.056   2.758
 7083SOL    HW222149   5.693   3.144   2.679
 7084SOL     OW22150   1.311   5.334   0.176
 7084SOL    HW122151   1.272   5.243   0.192
 7084SOL    HW222152   1.238   5.397   0.149
 7085SOL     OW22153   0.080   3.501   2.085
 7085SOL    HW122154   0.058   3.588   2.130
 7085SOL    HW222155   0.095   3.517   1.988
 7086SOL     OW22156   4.450   1.163   3.780
 7086SOL    HW122157   4.430   1.085   3.839
 7086SOL    HW222158   4.390   1.161   3.700
 7087SOL     OW22159   5.786   2.934   3.213
 7087SOL    HW122160   5.704   2.877   3.219
 7087SOL    HW222161   5.778   2.996   3.135
 7088SOL     OW22162   6.062   2.013   5.256
 7088SOL    HW122163   6.097   2.048   5.168
 7088SOL    HW222164   5.981   1.957   5.240
 7089SOL     OW22165   2.952   6.009   1.033
 7089SOL    HW122166   2.934   5.935   1.097
 7089SOL    HW222167   2.950   6.097   1.082
 7090SOL     OW22168   5.201   3.720   1.443
 7090SOL    HW122169   5.212   3.653   1.369
 7090SOL    HW222170   5.266   3.699   1.516
 7091SOL     OW22171   5.940   0.302   6.969
 7091SOL    HW122172   5.850   0.344   6.978
 7091SOL    HW222173   5.983   0.295   0.038
 7092SOL     OW22174   4.164   6.597   6.367
 7092SOL    HW122175   4.147   6.605   6.268
 7092SOL    HW222176   4.247   6.646   6.390
 7093SOL     OW22177   4.184   3.080   0.701
 7093SOL    HW122178   4.119   3.026   0.754
 7093SOL    HW222179   4.155   3.084   0.606
 7094SOL     OW22180   4.342   0.720   4.940
 7094SOL    HW122181   4.441   0.724   4.931
 7094SOL    HW222182   4.303   0.810   4.920
 7095SOL     OW22183   2.488   4.671   3.833
 7095SOL    HW122184   2.573   4.638   3.874
 7095SOL    HW222185   2.492   4.771   3.824
 7096SOL     OW22186   6.773   5.575   0.207
 7096SOL    HW122187   6.771   5.478   0.234
 7096SOL    HW222188   6.868   5.604   0.195
 7097SOL     OW22189   4.658   2.068   3.197
 7097SOL    HW122190   4.753   2.036   3.197
 7097SOL    HW222191   4.609   2.024   3.122
 7098SOL     OW22192   0.868   1.273   2.715
 7098SOL    HW122193   0.802   1.325   2.769
 7098SOL    HW222194   0.820   1.222   2.643
 7099SOL     OW22195   3.234   1.846   4.995
 7099SOL    HW122196   3.330   1.829   4.976
 7099SOL    HW222197   3.177   1.792   4.933
 7100SOL     OW22198   0.410   4.414   1.612
 7100SOL    HW122199   0.494   4.399   1.559
 7100SOL    HW222200   0.331   4.385   1.558
 7101SOL     OW22201   3.286   5.927   4.438
 7101SOL    HW122202   3.345   5.851   4.465
 7101SOL    HW222203   3.221   5.946   4.511
 7102SOL     OW22204   5.473   1.292   2.724
 7102SOL    HW122205   5.410   1.282   2.801
 7102SOL    HW222206   5.550   1.230   2.736
 7103SOL     OW22207   6.757   3.591   4.461
 7103SOL    HW122208   6.839   3.623   4.508
 7103SOL    HW222209   6.690   3.557   4.528
 7104SOL     OW22210   4.399   2.389   4.191
 7104SOL    HW122211   4.389   2.404   4.289
 7104SOL    HW222212   4.321   2.336   4.157
 7105SOL     OW22213   3.001   3.848   2.302
 7105SOL    HW122214   3.062   3.906   2.249
 7105SOL    HW222215   2.992   3.886   2.395
 7106SOL     OW22216   2.396   2.176   2.764
 7106SOL    HW122217   2.348   2.131   2.840
 7106SOL    HW222218   2.343   2.165   2.680
 7107SOL     OW22219   4.127   0.559   0.673
 7107SOL    HW122220   4.194   0.485   0.670
 7107SOL    HW222221   4.051   0.536   0.612
 7108SOL     OW22222   3.190   6.808   1.848
 7108SOL    HW122223   3.132   6.728   1.834
 7108SOL    HW222224   3.169   6.850   1.936
 7109SOL     OW22225   2.275   5.028   5.880
 7109SOL    HW122226   2.346   4.977   5.832
 7109SOL    HW222227   2.282   5.011   5.978
 7110SOL     OW22228   2.858   5.670   5.395
 7110SOL    HW122229   2.796   5.609   5.445
 7110SOL    HW222230   2.826   5.679   5.300
 7111SOL     OW22231   6.245   1.464   4.771
 7111SOL    HW122232   6.196   1.403   4.708
 7111SOL    HW222233   6.288   1.538   4.719
 7112SOL     OW22234   6.484   5.135   4.742
 7112SOL    HW122235   6.562   5.080   4.712
 7112SOL    HW222236   6.454   5.193   4.667
 7113SOL     OW22237   3.391   0.010   4.874
 7113SOL    HW122238   3.353   6.985   4.793
 7113SOL    HW222239   3.454   6.970   4.921
 7114SOL     OW22240   5.412   4.137   0.148
 7114SOL    HW122241   5.374   4.195   0.220
 7114SOL    HW222242   5.342   4.074   0.115
 7115SOL     OW22243   5.129   2.743   5.847
 7115SOL    HW122244   5.185   2.765   5.927
 7115SOL    HW222245   5.181   2.762   5.764
 7116SOL     OW22246   6.086   5.199   4.592
 7116SOL    HW122247   6.027   5.202   4.673
 7116SOL    HW222248   6.145   5.279   4.591
 7117SOL     OW22249   3.611   0.275   2.822
 7117SOL    HW122250   3.654   0.197   2.777
 7117SOL    HW222251   3.677   0.320   2.881
 7118SOL     OW22252   4.604   4.417   5.633
 7118SOL    HW122253   4.593   4.383   5.726
 7118SOL    HW222254   4.514   4.436   5.594
 7119SOL     OW22255   2.557   6.534   4.418
 7119SOL    HW122256   2.639   6.585   4.392
 7119SOL    HW222257   2.487   6.546   4.348
 7120SOL     OW22258   4.465   1.577   2.081
 7120SOL    HW122259   4.529   1.603   2.009
 7120SOL    HW222260   4.422   1.659   2.119
 7121SOL     OW22261   1.346   6.071   2.275
 7121SOL    HW122262   1.372   6.105   2.366
 7121SOL    HW222263   1.426   6.070   2.216
 7122SOL     OW22264   3.101   2.256   6.563
 7122SOL    HW122265   3.177   2.219   6.617
 7122SOL    HW222266   3.019   2.260   6.620
 7123SOL     OW22267   5.309   4.434   6.837
 7123SOL    HW122268   5.222   4.389   6.815
 7123SOL    HW222269   5.311   4.455   6.934
 7124SOL     OW22270   2.953   2.887   6.368
 7124SOL    HW122271   3.035   2.897   6.425
 7124SOL    HW222272   2.977   2.839   6.283
 7125SOL     OW22273   1.337   6.327   1.576
 7125SOL    HW122274   1.329   6.369   1.486
 7125SOL    HW222275   1.430   6.293   1.589
 7126SOL     OW22276   3.930   4.739   0.580
 7126SOL    HW122277   3.915   4.680   0.659
 7126SOL    HW222278   3.846   4.787   0.557
 7127SOL     OW22279   3.037   0.008   4.985
 7127SOL    HW122280   3.107   0.058   4.934
 7127SOL    HW222281   3.078   6.992   5.069
 7128SOL     OW22282   3.928   4.141   0.325
 7128SOL    HW122283   3.952   4.121   0.231
 7128SOL    HW222284   3.878   4.064   0.364
 7129SOL     OW22285   0.165   1.893   0.147
 7129SOL    HW122286   0.171   1.811   0.204
 7129SOL    HW222287   0.070   1.909   0.122
 7130SOL     OW22288   3.533   0.222   4.140
 7130SOL    HW122289   3.465   0.202   4.211
 7130SOL    HW222290   3.612   0.268   4.181
 7131SOL     OW22291   2.196   2.101   2.947
 7131SOL    HW122292   2.117   2.121   3.004
 7131SOL    HW222293   2.223   2.005   2.960
 7132SOL     OW22294   5.521   4.736   2.375
 7132SOL    HW122295   5.594   4.700   2.316
 7132SOL    HW222296   5.432   4.713   2.335
 7133SOL     OW22297   3.162   6.062   2.556
 7133SOL    HW122298   3.067   6.061   2.587
 7133SOL    HW222299   3.223   6.060   2.635
 7134SOL     OW22300   5.441   5.132   6.362
 7134SOL    HW122301   5.389   5.163   6.442
 7134SOL    HW222302   5.515   5.196   6.343
 7135SOL     OW22303   2.206   4.688   0.827
 7135SOL    HW122304   2.293   4.691   0.778
 7135SOL    HW222305   2.166   4.780   0.830
 7136SOL     OW22306   1.483   2.782   2.601
 7136SOL    HW122307   1.471   2.847   2.526
 7136SOL    HW222308   1.563   2.809   2.655
 7137SOL     OW22309   1.700   0.016   2.269
 7137SOL    HW122310   1.653   6.965   2.220
 7137SOL    HW222311   1.696   7.019   2.367
 7138SOL     OW22312   6.583   4.015   0.497
 7138SOL    HW122313   6.607   3.955   0.573
 7138SOL    HW222314   6.645   3.998   0.420
 7139SOL     OW22315   5.535   6.102   0.853
 7139SOL    HW122316   5.485   6.128   0.771
 7139SOL    HW222317   5.478   6.117   0.934
 7140SOL     OW22318   6.928   4.652   0.287
 7140SOL    HW122319   7.002   4.685   0.345
 7140SOL    HW222320   6.928   4.552   0.285
 7141SOL     OW22321   2.852   1.950   0.606
 7141SOL    HW122322   2.887   1.983   0.518
 7141SOL    HW222323   2.883   1.856   0.621
 7142SOL     OW22324   4.622   6.716   5.568
 7142SOL    HW122325   4.678   6.729   5.650
 7142SOL    HW222326   4.638   6.791   5.504
 7143SOL     OW22327   3.354   3.019   5.668
 7143SOL    HW122328   3.409   3.037   5.587
 7143SOL    HW222329   3.308   2.931   5.658
 7144SOL     OW22330   6.085   1.584   5.750
 7144SOL    HW122331   6.052   1.596   5.656
 7144SOL    HW222332   6.019   1.529   5.801
 7145SOL     OW22333   0.207   3.101   0.124
 7145SOL    HW122334   0.147   3.176   0.152
 7145SOL    HW222335   0.157   3.014   0.132
 7146SOL     OW22336   7.018   1.588   4.361
 7146SOL    HW122337   6.968   1.582   4.274
 7146SOL    HW222338   0.076   1.528   4.358
 7147SOL     OW22339   6.708   6.902   0.324
 7147SOL    HW122340   6.763   6.867   0.400
 7147SOL    HW222341   6.768   6.943   0.255
 7148SOL     OW22342   5.455   6.381   0.988
 7148SOL    HW122343   5.445   6.476   0.959
 7148SOL    HW222344   5.422   6.371   1.082
 7149SOL     OW22345   6.856   3.743   6.659
 7149SOL    HW122346   6.859   3.700   6.750
 7149SOL    HW222347   6.854   3.842   6.669
 7150SOL     OW22348   2.829   2.221   0.158
 7150SOL    HW122349   2.887   2.241   0.079
 7150SOL    HW222350   2.745   2.177   0.127
 7151SOL     OW22351   5.482   2.419   6.704
 7151SOL    HW122352   5.385   2.399   6.692
 7151SOL    HW222353   5.519   2.455   6.618
 7152SOL     OW22354   5.555   0.282   5.112
 7152SOL    HW122355   5.610   0.356   5.153
 7152SOL    HW222356   5.610   0.199   5.107
 7153SOL     OW22357   5.416   5.618   0.436
 7153SOL    HW122358   5.403   5.715   0.454
 7153SOL    HW222359   5.411   5.601   0.338
 7154SOL     OW22360   4.869   0.202   1.901
 7154SOL    HW122361   4.926   0.158   1.832
 7154SOL    HW222362   4.876   0.152   1.987
 7155SOL     OW22363   1.978   0.289   1.570
 7155SOL    HW122364   1.996   0.352   1.646
 7155SOL    HW222365   2.062   0.274   1.519
 7156SOL     OW22366   6.392   2.909   5.558
 7156SOL    HW122367   6.299   2.944   5.568
 7156SOL    HW222368   6.415   2.851   5.636
 7157SOL     OW22369   6.753   3.459   5.472
 7157SOL    HW122370   6.778   3.405   5.391
 7157SOL    HW222371   6.758   3.556   5.450
 7158SOL     OW22372   4.977   7.013   4.290
 7158SOL    HW122373   4.966   6.950   4.214
 7158SOL    HW222374   5.064   6.995   4.337
 7159SOL     OW22375   0.450   6.582   3.278
 7159SOL    HW122376   0.507   6.553   3.201
 7159SOL    HW222377   0.388   6.507   3.304
 7160SOL     OW22378   5.638   6.502   2.635
 7160SOL    HW122379   5.736   6.490   2.622
 7160SOL    HW222380   5.599   6.545   2.553
 7161SOL     OW22381   3.852   3.082   1.919
 7161SOL    HW122382   3.859   3.158   1.984
 7161SOL    HW222383   3.818   3.001   1.965
 7162SOL     OW22384   0.838   6.260   0.738
 7162SOL    HW122385   0.774   6.305   0.799
 7162SOL    HW222386   0.883   6.329   0.681
 7163SOL     OW22387   6.980   6.203   0.250
 7163SOL    HW122388   6.998   6.300   0.266
 7163SOL    HW222389   0.013   6.171   0.172
 7164SOL     OW22390   0.975   6.387   6.951
 7164SOL    HW122391   1.055   6.381   6.893
 7164SOL    HW222392   0.896   6.348   6.904
 7165SOL     OW22393   4.013   2.472   6.067
 7165SOL    HW122394   4.112   2.460   6.071
 7165SOL    HW222395   3.981   2.518   6.151
 7166SOL     OW22396   6.865   6.392   4.861
 7166SOL    HW122397   6.898   6.323   4.925
 7166SOL    HW222398   6.771   6.417   4.884
 7167SOL     OW22399   0.754   3.634   5.149
 7167SOL    HW122400   0.700   3.550   5.163
 7167SOL    HW222401   0.757   3.656   5.052
 7168SOL     OW22402   0.873   6.915   2.626
 7168SOL    HW122403   0.833   6.865   2.703
 7168SOL    HW222404   0.899   6.851   2.554
 7169SOL     OW22405   1.588   5.105   5.694
 7169SOL    HW122406   1.565   5.085   5.789
 7169SOL    HW222407   1.627   5.024   5.651
 7170SOL     OW22408   4.209   2.028   1.751
 7170SOL    HW122409   4.205   2.077   1.664
 7170SOL    HW222410   4.118   1.994   1.774
 7171SOL     OW22411   0.625   5.425   1.686
 7171SOL    HW122412   0.716   5.384   1.684
 7171SOL    HW222413   0.596   5.447   1.593
 7172SOL     OW22414   1.417   2.730   3.832
 7172SOL    HW122415   1.467   2.753   3.916
 7172SOL    HW222416   1.319   2.736   3.849
 7173SOL     OW22417   3.292   5.606   4.255
 7173SOL    HW122418   3.250   5.515   4.257
 7173SOL    HW222419   3.329   5.627   4.345
 7174SOL     OW22420   6.812   3.423   2.115
 7174SOL    HW122421   6.784   3.467   2.201
 7174SOL    HW222422   6.910   3.434   2.102
 7175SOL     OW22423   6.059   2.940   6.408
 7175SOL    HW122424   6.108   2.895   6.333
 7175SOL    HW222425   6.055   3.039   6.391
 7176SOL     OW22426   6.324   1.958   6.506
 7176SOL    HW122427   6.328   1.881   6.442
 7176SOL    HW222428   6.379   1.938   6.586
 7177SOL     OW22429   1.182   5.993   3.816
 7177SOL    HW122430   1.235   5.960   3.894
 7177SOL    HW222431   1.207   6.088   3.796
 7178SOL     OW22432   1.375   6.302   5.711
 7178SOL    HW122433   1.401   6.355   5.630
 7178SOL    HW222434   1.277   6.311   5.728
 7179SOL     OW22435   4.863   4.226   5.929
 7179SOL    HW122436   4.778   4.176   5.908
 7179SOL    HW222437   4.935   4.196   5.867
 7180SOL     OW22438   0.215   2.691   2.115
 7180SOL    HW122439   0.194   2.674   2.211
 7180SOL    HW222440   0.290   2.756   2.108
 7181SOL     OW22441   3.294   0.233   0.090
 7181SOL    HW122442   3.346   0.156   0.125
 7181SOL    HW222443   3.318   0.316   0.141
 7182SOL     OW22444   2.210   1.135   2.658
 7182SOL    HW122445   2.305   1.118   2.686
 7182SOL    HW222446   2.198   1.106   2.563
 7183SOL     OW22447   1.961   0.253   1.015
 7183SOL    HW122448   1.884   0.281   0.958
 7183SOL    HW222449   1.927   0.215   1.101
 7184SOL     OW22450   0.011   1.448   3.036
 7184SOL    HW122451   6.993   1.540   3.033
 7184SOL    HW222452   6.984   1.394   3.104
 7185SOL     OW22453   3.890   0.057   3.720
 7185SOL    HW122454   3.802   0.064   3.766
 7185SOL    HW222455   3.942   0.141   3.734
 7186SOL     OW22456   6.323   2.177   6.343
 7186SOL    HW122457   6.355   2.100   6.399
 7186SOL    HW222458   6.397   2.208   6.284
 7187SOL     OW22459   3.559   3.494   4.211
 7187SOL    HW122460   3.527   3.476   4.304
 7187SOL    HW222461   3.508   3.438   4.146
 7188SOL     OW22462   4.991   4.897   0.114
 7188SOL    HW122463   4.948   4.973   0.164
 7188SOL    HW222464   4.930   4.818   0.116
 7189SOL     OW22465   6.891   2.279   5.883
 7189SOL    HW122466   6.909   2.345   5.810
 7189SOL    HW222467   6.845   2.199   5.846
 7190SOL     OW22468   5.790   5.841   0.614
 7190SOL    HW122469   5.797   5.742   0.602
 7190SOL    HW222470   5.698   5.871   0.591
 7191SOL     OW22471   0.347   5.087   2.959
 7191SOL    HW122472   0.248   5.079   2.973
 7191SOL    HW222473   0.385   4.997   2.939
 7192SOL     OW22474   3.773   3.721   5.888
 7192SOL    HW122475   3.836   3.785   5.931
 7192SOL    HW222476   3.824   3.659   5.828
 7193SOL     OW22477   3.800   1.256   3.692
 7193SOL    HW122478   3.872   1.194   3.723
 7193SOL    HW222479   3.711   1.210   3.696
 7194SOL     OW22480   3.428   2.466   5.491
 7194SOL    HW122481   3.488   2.388   5.477
 7194SOL    HW222482   3.339   2.448   5.451
 7195SOL     OW22483   0.221   4.299   5.258
 7195SOL    HW122484   0.138   4.270   5.305
 7195SOL    HW222485   0.202   4.378   5.201
 7196SOL     OW22486   3.135   4.201   1.790
 7196SOL    HW122487   3.224   4.228   1.753
 7196SOL    HW222488   3.127   4.231   1.885
 7197SOL     OW22489   3.418   4.465   6.244
 7197SOL    HW122490   3.433   4.433   6.337
 7197SOL    HW222491   3.319   4.470   6.226
 7198SOL     OW22492   1.080   0.079   2.321
 7198SOL    HW122493   1.036   0.003   2.273
 7198SOL    HW222494   1.179   0.068   2.317
 7199SOL     OW22495   6.061   0.992   3.363
 7199SOL    HW122496   6.083   0.991   3.266
 7199SOL    HW222497   6.048   1.086   3.394
 7200SOL     OW22498   0.929   4.020   6.373
 7200SOL    HW122499   0.919   4.001   6.471
 7200SOL    HW222500   0.860   3.969   6.322
 7201SOL     OW22501   5.620   5.905   4.444
 7201SOL    HW122502   5.547   5.861   4.393
 7201SOL    HW222503   5.605   5.893   4.542
 7202SOL     OW22504   4.713   0.567   5.807
 7202SOL    HW122505   4.792   0.519   5.844
 7202SOL    HW222506   4.737   0.663   5.791
 7203SOL     OW22507   0.818   1.351   0.768
 7203SOL    HW122508   0.802   1.396   0.680
 7203SOL    HW222509   0.850   1.418   0.835
 7204SOL     OW22510   5.525   0.979   3.070
 7204SOL    HW122511   5.536   1.078   3.081
 7204SOL    HW222512   5.555   0.952   2.979
 7205SOL     OW22513   2.920   1.511   4.234
 7205SOL    HW122514   2.883   1.471   4.150
 7205SOL    HW222515   3.008   1.469   4.255
 7206SOL     OW22516   2.426   2.704   6.676
 7206SOL    HW122517   2.443   2.776   6.608
 7206SOL    HW222518   2.330   2.706   6.702
 7207SOL     OW22519   1.955   2.238   3.066
 7207SOL    HW122520   1.949   2.183   3.149
 7207SOL    HW222521   1.864   2.273   3.042
 7208SOL     OW22522   3.224   0.098   3.648
 7208SOL    HW122523   3.172   0.140   3.721
 7208SOL    HW222524   3.322   0.111   3.664
 7209SOL     OW22525   4.606   1.251   1.990
 7209SOL    HW122526   4.535   1.182   1.978
 7209SOL    HW222527   4.601   1.289   2.082
 7210SOL     OW22528   3.290   1.212   4.847
 7210SOL    HW122529   3.256   1.122   4.820
 7210SOL    HW222530   3.216   1.279   4.840
 7211SOL     OW22531   4.819   5.941   6.142
 7211SOL    HW122532   4.832   5.933   6.241
 7211SOL    HW222533   4.753   6.013   6.122
 7212SOL     OW22534   0.527   5.960   4.098
 7212SOL    HW122535   0.527   6.051   4.139
 7212SOL    HW222536   0.495   5.967   4.003
 7213SOL     OW22537   4.822   2.799   6.909
 7213SOL    HW122538   4.749   2.789   6.976
 7213SOL    HW222539   4.797   2.751   6.825
 7214SOL     OW22540   6.787   1.237   5.892
 7214SOL    HW122541   6.816   1.181   5.814
 7214SOL    HW222542   6.716   1.189   5.943
 7215SOL     OW22543   6.374   1.356   2.477
 7215SOL    HW122544   6.281   1.340   2.443
 7215SOL    HW222545   6.370   1.391   2.570
 7216SOL     OW22546   5.639   6.309   4.062
 7216SOL    HW122547   5.625   6.236   4.129
 7216SOL    HW222548   5.735   6.313   4.036
 7217SOL     OW22549   1.213   3.269   3.488
 7217SOL    HW122550   1.286   3.244   3.424
 7217SOL    HW222551   1.198   3.368   3.484
 7218SOL     OW22552   6.645   2.836   5.293
 7218SOL    HW122553   6.741   2.820   5.269
 7218SOL    HW222554   6.628   2.806   5.386
 7219SOL     OW22555   3.482   5.458   1.236
 7219SOL    HW122556   3.515   5.505   1.318
 7219SOL    HW222557   3.407   5.397   1.260
 7220SOL     OW22558   0.059   3.421   3.851
 7220SOL    HW122559   0.011   3.398   3.935
 7220SOL    HW222560   0.038   3.353   3.781
 7221SOL     OW22561   4.553   4.777   3.774
 7221SOL    HW122562   4.558   4.853   3.839
 7221SOL    HW222563   4.613   4.795   3.696
 7222SOL     OW22564   6.393   5.954   3.821
 7222SOL    HW122565   6.385   5.889   3.745
 7222SOL    HW222566   6.369   5.908   3.907
 7223SOL     OW22567   6.602   5.729   1.713
 7223SOL    HW122568   6.665   5.768   1.780
 7223SOL    HW222569   6.607   5.781   1.628
 7224SOL     OW22570   5.405   2.700   2.340
 7224SOL    HW122571   5.414   2.619   2.399
 7224SOL    HW222572   5.438   2.678   2.249
 7225SOL     OW22573   1.082   5.572   0.391
 7225SOL    HW122574   1.000   5.520   0.366
 7225SOL    HW222575   1.082   5.588   0.489
 7226SOL     OW22576   6.347   6.385   0.295
 7226SOL    HW122577   6.293   6.338   0.365
 7226SOL    HW222578   6.443   6.358   0.303
 7227SOL     OW22579   1.845   0.858   2.097
 7227SOL    HW122580   1.849   0.879   2.195
 7227SOL    HW222581   1.894   0.929   2.046
 7228SOL     OW22582   6.129   3.375   2.962
 7228SOL    HW122583   6.104   3.429   3.042
 7228SOL    HW222584   6.046   3.333   2.924
 7229SOL     OW22585   6.440   0.317   4.995
 7229SOL    HW122586   6.408   0.355   5.081
 7229SOL    HW222587   6.538   0.334   4.986
 7230SOL     OW22588   2.230   4.842   5.101
 7230SOL    HW122589   2.284   4.759   5.117
 7230SOL    HW222590   2.138   4.829   5.137
 7231SOL     OW22591   3.667   3.362   6.571
 7231SOL    HW122592   3.651   3.426   6.646
 7231SOL    HW222593   3.764   3.340   6.565
 7232SOL     OW22594   4.502   6.134   3.429
 7232SOL    HW122595   4.541   6.047   3.399
 7232SOL    HW222596   4.517   6.145   3.527
 7233SOL     OW22597   0.228   1.907   6.151
 7233SOL    HW122598   0.178   1.994   6.145
 7233SOL    HW222599   0.273   1.889   6.064
 7234SOL     OW22600   5.746   4.833   3.294
 7234SOL    HW122601   5.845   4.842   3.300
 7234SOL    HW222602   5.715   4.762   3.358
 7235SOL     OW22603   6.846   0.382   1.055
 7235SOL    HW122604   6.838   0.477   1.085
 7235SOL    HW222605   6.762   0.355   1.007
 7236SOL     OW22606   0.410   3.713   2.836
 7236SOL    HW122607   0.403   3.668   2.925
 7236SOL    HW222608   0.489   3.677   2.787
 7237SOL     OW22609   5.176   1.122   0.224
 7237SOL    HW122610   5.147   1.174   0.304
 7237SOL    HW222611   5.248   1.058   0.249
 7238SOL     OW22612   4.536   3.060   0.204
 7238SOL    HW122613   4.532   3.029   0.299
 7238SOL    HW222614   4.487   3.147   0.196
 7239SOL     OW22615   5.727   2.998   1.713
 7239SOL    HW122616   5.740   3.077   1.654
 7239SOL    HW222617   5.801   2.993   1.779
 7240SOL     OW22618   0.305   1.949   0.455
 7240SOL    HW122619   0.324   1.852   0.438
 7240SOL    HW222620   0.361   2.005   0.393
 7241SOL     OW22621   2.078   0.400   2.724
 7241SOL    HW122622   2.066   0.312   2.770
 7241SOL    HW222623   1.988   0.438   2.702
 7242SOL     OW22624   6.204   3.724   5.774
 7242SOL    HW122625   6.121   3.671   5.756
 7242SOL    HW222626   6.276   3.695   5.711
 7243SOL     OW22627   5.943   4.647   6.044
 7243SOL    HW122628   5.863   4.688   6.000
 7243SOL    HW222629   5.950   4.551   6.016
 7244SOL     OW22630   6.769   6.232   6.741
 7244SOL    HW122631   6.793   6.298   6.812
 7244SOL    HW222632   6.675   6.250   6.710
 7245SOL     OW22633   1.567   2.237   6.882
 7245SOL    HW122634   1.605   2.293   6.809
 7245SOL    HW222635   1.489   2.184   6.847
 7246SOL     OW22636   4.659   6.707   4.362
 7246SOL    HW122637   4.631   6.620   4.402
 7246SOL    HW222638   4.695   6.766   4.434
 7247SOL     OW22639   3.271   4.170   4.832
 7247SOL    HW122640   3.339   4.243   4.830
 7247SOL    HW222641   3.214   4.179   4.914
 7248SOL     OW22642   2.344   1.648   5.055
 7248SOL    HW122643   2.263   1.686   5.011
 7248SOL    HW222644   2.367   1.702   5.136
 7249SOL     OW22645   3.060   5.741   2.624
 7249SOL    HW122646   3.138   5.696   2.580
 7249SOL    HW222647   3.091   5.826   2.666
 7250SOL     OW22648   4.898   5.724   5.460
 7250SOL    HW122649   4.851   5.812   5.460
 7250SOL    HW222650   4.942   5.710   5.371
 7251SOL     OW22651   0.931   6.161   3.928
 7251SOL    HW122652   1.014   6.215   3.929
 7251SOL    HW222653   0.951   6.069   3.893
 7252SOL     OW22654   3.798   3.623   2.093
 7252SOL    HW122655   3.867   3.604   2.162
 7252SOL    HW222656   3.722   3.674   2.135
 7253SOL     OW22657   1.715   5.257   5.320
 7253SOL    HW122658   1.694   5.353   5.300
 7253SOL    HW222659   1.772   5.252   5.402
 7254SOL     OW22660   6.932   3.351   4.056
 7254SOL    HW122661   6.887   3.432   4.093
 7254SOL    HW222662   6.871   3.272   4.066
 7255SOL     OW22663   4.606   3.766   0.630
 7255SOL    HW122664   4.514   3.729   0.641
 7255SOL    HW222665   4.602   3.852   0.578
 7256SOL     OW22666   2.976   6.822   4.397
 7256SOL    HW122667   3.051   6.774   4.442
 7256SOL    HW222668   2.891   6.803   4.446
 7257SOL     OW22669   0.471   1.448   5.342
 7257SOL    HW122670   0.565   1.430   5.313
 7257SOL    HW222671   0.447   1.386   5.417
 7258SOL     OW22672   6.348   2.459   2.729
 7258SOL    HW122673   6.391   2.495   2.812
 7258SOL    HW222674   6.408   2.477   2.651
 7259SOL     OW22675   1.054   3.993   2.447
 7259SOL    HW122676   1.115   4.050   2.392
 7259SOL    HW222677   1.107   3.920   2.490
 7260SOL     OW22678   6.184   2.937   1.067
 7260SOL    HW122679   6.168   3.034   1.044
 7260SOL    HW222680   6.255   2.931   1.137
 7261SOL     OW22681   0.138   4.071   0.089
 7261SOL    HW122682   0.208   3.999   0.099
 7261SOL    HW222683   0.057   4.032   0.046
 7262SOL     OW22684   3.683   0.396   5.210
 7262SOL    HW122685   3.601   0.366   5.162
 7262SOL    HW222686   3.676   0.494   5.231
 7263SOL     OW22687   6.072   5.714   5.013
 7263SOL    HW122688   6.098   5.775   4.938
 7263SOL    HW222689   6.047   5.624   4.976
 7264SOL     OW22690   5.394   1.187   1.318
 7264SOL    HW122691   5.343   1.153   1.396
 7264SOL    HW222692   5.450   1.265   1.346
 7265SOL     OW22693   3.840   0.223   5.765
 7265SOL    HW122694   3.856   0.273   5.850
 7265SOL    HW222695   3.884   0.133   5.770
 7266SOL     OW22696   6.682   0.795   3.212
 7266SOL    HW122697   6.781   0.809   3.217
 7266SOL    HW222698   6.651   0.744   3.293
 7267SOL     OW22699   0.060   3.801   5.061
 7267SOL    HW122700   6.992   3.831   5.094
 7267SOL    HW222701   0.130   3.865   5.093
 7268SOL     OW22702   5.575   5.849   3.916
 7268SOL    HW122703   5.640   5.881   3.985
 7268SOL    HW222704   5.483   5.847   3.955
 7269SOL     OW22705   2.957   5.208   3.923
 7269SOL    HW122706   2.960   5.308   3.924
 7269SOL    HW222707   2.863   5.178   3.903
 7270SOL     OW22708   0.154   0.647   4.641
 7270SOL    HW122709   0.209   0.631   4.560
 7270SOL    HW222710   0.112   0.561   4.671
 7271SOL     OW22711   0.685   4.580   3.041
 7271SOL    HW122712   0.675   4.642   3.119
 7271SOL    HW222713   0.646   4.623   2.960
 7272SOL     OW22714   5.955   3.966   1.437
 7272SOL    HW122715   5.871   4.015   1.460
 7272SOL    HW222716   6.034   4.026   1.453
 7273SOL     OW22717   0.195   1.158   4.891
 7273SOL    HW122718   0.226   1.171   4.985
 7273SOL    HW222719   0.260   1.099   4.842
 7274SOL     OW22720   0.403   5.716   6.138
 7274SOL    HW122721   0.429   5.796   6.193
 7274SOL    HW222722   0.479   5.651   6.138
 7275SOL     OW22723   0.743   4.954   3.181
 7275SOL    HW122724   0.661   4.903   3.207
 7275SOL    HW222725   0.726   5.052   3.191
 7276SOL     OW22726   5.094   6.286   3.481
 7276SOL    HW122727   5.160   6.327   3.545
 7276SOL    HW222728   5.003   6.289   3.521
 7277SOL     OW22729   5.172   0.744   0.633
 7277SOL    HW122730   5.240   0.770   0.701
 7277SOL    HW222731   5.166   0.645   0.627
 7278SOL     OW22732   3.788   2.946   2.465
 7278SOL    HW122733   3.873   2.998   2.456
 7278SOL    HW222734   3.761   2.911   2.375
 7279SOL     OW22735   3.617   6.492   5.992
 7279SOL    HW122736   3.663   6.432   6.057
 7279SOL    HW222737   3.621   6.452   5.901
 7280SOL     OW22738   4.616   1.152   6.168
 7280SOL    HW122739   4.671   1.143   6.085
 7280SOL    HW222740   4.529   1.196   6.145
 7281SOL     OW22741   5.591   0.943   6.268
 7281SOL    HW122742   5.514   0.932   6.330
 7281SOL    HW222743   5.559   0.934   6.173
 7282SOL     OW22744   5.986   5.854   2.695
 7282SOL    HW122745   5.965   5.939   2.744
 7282SOL    HW222746   6.073   5.864   2.647
 7283SOL     OW22747   2.122   1.625   3.756
 7283SOL    HW122748   2.152   1.535   3.724
 7283SOL    HW222749   2.050   1.659   3.696
 7284SOL     OW22750   1.412   1.591   4.667
 7284SOL    HW122751   1.419   1.522   4.740
 7284SOL    HW222752   1.340   1.564   4.603
 7285SOL     OW22753   6.073   5.766   1.915
 7285SOL    HW122754   6.164   5.753   1.876
 7285SOL    HW222755   6.034   5.677   1.938
 7286SOL     OW22756   1.652   4.043   0.725
 7286SOL    HW122757   1.627   4.133   0.690
 7286SOL    HW222758   1.695   4.052   0.815
 7287SOL     OW22759   6.314   1.572   5.900
 7287SOL    HW122760   6.238   1.578   5.835
 7287SOL    HW222761   6.315   1.654   5.957
 7288SOL     OW22762   2.603   0.528   0.031
 7288SOL    HW122763   2.615   0.624   0.057
 7288SOL    HW222764   2.506   0.511   0.016
 7289SOL     OW22765   4.309   2.169   3.875
 7289SOL    HW122766   4.236   2.193   3.939
 7289SOL    HW222767   4.317   2.240   3.805
 7290SOL     OW22768   2.821   5.631   4.319
 7290SOL    HW122769   2.906   5.682   4.304
 7290SOL    HW222770   2.766   5.632   4.235
 7291SOL     OW22771   3.550   4.961   1.105
 7291SOL    HW122772   3.621   5.006   1.158
 7291SOL    HW222773   3.484   5.029   1.074
 7292SOL     OW22774   3.618   0.269   4.584
 7292SOL    HW122775   3.686   0.264   4.657
 7292SOL    HW222776   3.591   0.364   4.571
 7293SOL     OW22777   2.347   1.263   6.327
 7293SOL    HW122778   2.276   1.194   6.345
 7293SOL    HW222779   2.410   1.266   6.405
 7294SOL     OW22780   5.710   5.406   6.825
 7294SOL    HW122781   5.706   5.501   6.854
 7294SOL    HW222782   5.719   5.347   6.906
 7295SOL     OW22783   4.786   0.138   1.326
 7295SOL    HW122784   4.730   0.211   1.365
 7295SOL    HW222785   4.774   0.138   1.226
 7296SOL     OW22786   4.189   4.821   0.960
 7296SOL    HW122787   4.259   4.749   0.950
 7296SOL    HW222788   4.113   4.785   1.014
 7297SOL     OW22789   4.746   6.706   2.180
 7297SOL    HW122790   4.730   6.673   2.273
 7297SOL    HW222791   4.677   6.775   2.157
 7298SOL     OW22792   6.520   3.301   4.349
 7298SOL    HW122793   6.589   3.228   4.352
 7298SOL    HW222794   6.563   3.387   4.322
 7299SOL     OW22795   5.889   3.297   6.827
 7299SOL    HW122796   5.925   3.205   6.814
 7299SOL    HW222797   5.924   3.358   6.756
 7300SOL     OW22798   4.682   5.565   1.547
 7300SOL    HW122799   4.700   5.475   1.506
 7300SOL    HW222800   4.767   5.600   1.588
 7301SOL     OW22801   6.885   1.332   6.478
 7301SOL    HW122802   6.856   1.316   6.384
 7301SOL    HW222803   6.957   1.402   6.480
 7302SOL     OW22804   6.102   0.671   6.322
 7302SOL    HW122805   6.150   0.639   6.404
 7302SOL    HW222806   6.093   0.770   6.325
 7303SOL     OW22807   4.411   0.681   0.835
 7303SOL    HW122808   4.443   0.756   0.894
 7303SOL    HW222809   4.388   0.602   0.892
 7304SOL     OW22810   3.988   3.221   4.816
 7304SOL    HW122811   3.949   3.189   4.730
 7304SOL    HW222812   3.984   3.148   4.884
 7305SOL     OW22813   5.640   2.212   6.853
 7305SOL    HW122814   5.565   2.277   6.841
 7305SOL    HW222815   5.726   2.255   6.825
 7306SOL     OW22816   4.976   5.051   2.065
 7306SOL    HW122817   4.917   5.038   1.986
 7306SOL    HW222818   5.019   4.963   2.089
 7307SOL     OW22819   4.221   6.399   1.983
 7307SOL    HW122820   4.254   6.365   2.071
 7307SOL    HW222821   4.128   6.433   1.994
 7308SOL     OW22822   5.606   0.762   4.172
 7308SOL    HW122823   5.637   0.737   4.264
 7308SOL    HW222824   5.507   0.753   4.167
 7309SOL     OW22825   4.536   4.945   1.486
 7309SOL    HW122826   4.521   4.938   1.387
 7309SOL    HW222827   4.598   4.873   1.515
 7310SOL     OW22828   2.368   5.892   1.730
 7310SOL    HW122829   2.370   5.977   1.676
 7310SOL    HW222830   2.460   5.854   1.735
 7311SOL     OW22831   2.903   1.785   2.089
 7311SOL    HW122832   2.968   1.786   2.164
 7311SOL    HW222833   2.931   1.852   2.020
 7312SOL     OW22834   6.936   2.355   6.278
 7312SOL    HW122835   0.009   2.361   6.309
 7312SOL    HW222836   6.920   2.424   6.207
 7313SOL     OW22837   3.424   2.296   6.289
 7313SOL    HW122838   3.454   2.384   6.253
 7313SOL    HW222839   3.423   2.299   6.389
 7314SOL     OW22840   1.190   2.336   4.557
 7314SOL    HW122841   1.207   2.393   4.637
 7314SOL    HW222842   1.116   2.272   4.576
 7315SOL     OW22843   0.162   0.868   5.935
 7315SOL    HW122844   0.144   0.852   6.032
 7315SOL    HW222845   0.075   0.885   5.887
 7316SOL     OW22846   4.104   3.256   4.425
 7316SOL    HW122847   4.070   3.331   4.482
 7316SOL    HW222848   4.084   3.169   4.470
 7317SOL     OW22849   2.969   0.795   4.057
 7317SOL    HW122850   2.895   0.796   3.990
 7317SOL    HW222851   2.958   0.870   4.121
 7318SOL     OW22852   1.242   1.436   1.369
 7318SOL    HW122853   1.247   1.489   1.454
 7318SOL    HW222854   1.297   1.353   1.377
 7319SOL     OW22855   0.215   4.211   6.201
 7319SOL    HW122856   0.159   4.144   6.249
 7319SOL    HW222857   0.239   4.286   6.263
 7320SOL     OW22858   0.699   1.874   2.291
 7320SOL    HW122859   0.688   1.882   2.390
 7320SOL    HW222860   0.667   1.958   2.246
 7321SOL     OW22861   2.919   1.369   4.008
 7321SOL    HW122862   2.986   1.440   3.986
 7321SOL    HW222863   2.922   1.299   3.937
 7322SOL     OW22864   1.093   3.481   1.731
 7322SOL    HW122865   1.056   3.542   1.661
 7322SOL    HW222866   1.133   3.401   1.687
 7323SOL     OW22867   2.292   4.119   2.940
 7323SOL    HW122868   2.252   4.028   2.933
 7323SOL    HW222869   2.312   4.153   2.848
 7324SOL     OW22870   5.047   4.927   3.673
 7324SOL    HW122871   4.982   4.852   3.673
 7324SOL    HW222872   5.139   4.892   3.691
 7325SOL     OW22873   2.902   5.942   0.590
 7325SOL    HW122874   2.996   5.912   0.574
 7325SOL    HW222875   2.898   5.992   0.677
 7326SOL     OW22876   2.259   0.754   4.299
 7326SOL    HW122877   2.292   0.663   4.273
 7326SOL    HW222878   2.176   0.775   4.248
 7327SOL     OW22879   1.493   3.127   5.699
 7327SOL    HW122880   1.450   3.138   5.788
 7327SOL    HW222881   1.426   3.092   5.634
 7328SOL     OW22882   2.101   6.840   6.779
 7328SOL    HW122883   2.069   6.927   6.743
 7328SOL    HW222884   2.186   6.813   6.732
 7329SOL     OW22885   4.614   3.579   1.690
 7329SOL    HW122886   4.600   3.677   1.703
 7329SOL    HW222887   4.527   3.537   1.663
 7330SOL     OW22888   4.042   2.185   0.956
 7330SOL    HW122889   4.071   2.280   0.969
 7330SOL    HW222890   4.041   2.139   1.045
 7331SOL     OW22891   5.080   1.673   1.689
 7331SOL    HW122892   5.078   1.577   1.660
 7331SOL    HW222893   5.170   1.711   1.668
 7332SOL     OW22894   3.372   6.345   0.273
 7332SOL    HW122895   3.342   6.287   0.198
 7332SOL    HW222896   3.339   6.439   0.259
 7333SOL     OW22897   0.456   5.018   2.598
 7333SOL    HW122898   0.552   5.028   2.623
 7333SOL    HW222899   0.446   5.033   2.499
 7334SOL     OW22900   2.975   0.474   4.449
 7334SOL    HW122901   3.030   0.549   4.413
 7334SOL    HW222902   2.993   0.391   4.395
 7335SOL     OW22903   2.206   3.156   2.830
 7335SOL    HW122904   2.260   3.072   2.833
 7335SOL    HW222905   2.205   3.191   2.736
 7336SOL     OW22906   1.975   6.431   4.188
 7336SOL    HW122907   1.998   6.336   4.207
 7336SOL    HW222908   1.964   6.444   4.090
 7337SOL     OW22909   4.921   2.361   1.728
 7337SOL    HW122910   4.961   2.409   1.650
 7337SOL    HW222911   4.981   2.287   1.756
 7338SOL     OW22912   0.118   3.558   0.454
 7338SOL    HW122913   0.171   3.589   0.533
 7338SOL    HW222914   0.055   3.630   0.425
 7339SOL     OW22915   1.493   6.112   4.567
 7339SOL    HW122916   1.521   6.023   4.604
 7339SOL    HW222917   1.396   6.110   4.544
 7340SOL     OW22918   2.791   6.511   6.846
 7340SOL    HW122919   2.781   6.599   6.799
 7340SOL    HW222920   2.789   6.526   6.945
 7341SOL     OW22921   6.439   2.036   0.823
 7341SOL    HW122922   6.435   2.048   0.922
 7341SOL    HW222923   6.411   1.942   0.800
 7342SOL     OW22924   0.471   6.396   2.063
 7342SOL    HW122925   0.499   6.424   2.155
 7342SOL    HW222926   0.391   6.449   2.035
 7343SOL     OW22927   6.587   2.728   0.302
 7343SOL    HW122928   6.643   2.668   0.359
 7343SOL    HW222929   6.559   2.808   0.355
 7344SOL     OW22930   2.682   6.773   6.000
 7344SOL    HW122931   2.628   6.795   6.081
 7344SOL    HW222932   2.694   6.855   5.944
 7345SOL     OW22933   3.717   5.569   5.919
 7345SOL    HW122934   3.811   5.602   5.908
 7345SOL    HW222935   3.656   5.648   5.931
 7346SOL     OW22936   4.061   5.226   2.114
 7346SOL    HW122937   3.969   5.252   2.084
 7346SOL    HW222938   4.063   5.216   2.213
 7347SOL     OW22939   5.971   1.491   6.937
 7347SOL    HW122940   5.993   1.419   7.003
 7347SOL    HW222941   6.027   1.572   6.956
 7348SOL     OW22942   0.038   5.097   0.247
 7348SOL    HW122943   7.018   5.185   0.271
 7348SOL    HW222944   0.032   5.035   0.326
 7349SOL     OW22945   4.161   1.601   1.597
 7349SOL    HW122946   4.200   1.580   1.507
 7349SOL    HW222947   4.233   1.635   1.657
 7350SOL     OW22948   4.019   1.089   4.924
 7350SOL    HW122949   3.976   1.051   5.005
 7350SOL    HW222950   3.981   1.179   4.904
 7351SOL     OW22951   2.192   4.603   4.453
 7351SOL    HW122952   2.098   4.618   4.483
 7351SOL    HW222953   2.248   4.578   4.532
 7352SOL     OW22954   6.312   3.214   4.201
 7352SOL    HW122955   6.222   3.208   4.245
 7352SOL    HW222956   6.372   3.270   4.258
 7353SOL     OW22957   6.494   1.360   5.269
 7353SOL    HW122958   6.561   1.359   5.195
 7353SOL    HW222959   6.471   1.265   5.294
 7354SOL     OW22960   1.044   1.803   2.634
 7354SOL    HW122961   1.137   1.839   2.629
 7354SOL    HW222962   1.036   1.723   2.574
 7355SOL     OW22963   3.149   1.879   0.540
 7355SOL    HW122964   3.085   1.938   0.492
 7355SOL    HW222965   3.103   1.793   0.563
 7356SOL     OW22966   3.948   4.148   6.476
 7356SOL    HW122967   3.993   4.208   6.410
 7356SOL    HW222968   3.863   4.112   6.437
 7357SOL     OW22969   4.249   6.448   1.686
 7357SOL    HW122970   4.171   6.405   1.640
 7357SOL    HW222971   4.223   6.472   1.779
 7358SOL     OW22972   4.291   6.868   3.388
 7358SOL    HW122973   4.266   6.891   3.293
 7358SOL    HW222974   4.237   6.924   3.451
 7359SOL     OW22975   3.744   0.134   2.160
 7359SOL    HW122976   3.824   0.161   2.214
 7359SOL    HW222977   3.757   0.040   2.126
 7360SOL     OW22978   2.730   3.651   5.816
 7360SOL    HW122979   2.704   3.743   5.846
 7360SOL    HW222980   2.725   3.645   5.717
 7361SOL     OW22981   6.478   0.497   3.265
 7361SOL    HW122982   6.491   0.401   3.288
 7361SOL    HW222983   6.406   0.537   3.322
 7362SOL     OW22984   3.586   5.765   0.271
 7362SOL    HW122985   3.635   5.789   0.355
 7362SOL    HW222986   3.508   5.706   0.293
 7363SOL     OW22987   4.419   0.771   1.198
 7363SOL    HW122988   4.481   0.730   1.132
 7363SOL    HW222989   4.361   0.839   1.152
 7364SOL     OW22990   5.835   6.156   1.896
 7364SOL    HW122991   5.823   6.246   1.854
 7364SOL    HW222992   5.910   6.160   1.962
 7365SOL     OW22993   4.867   3.026   2.523
 7365SOL    HW122994   4.823   2.982   2.445
 7365SOL    HW222995   4.820   2.999   2.607
 7366SOL     OW22996   2.430   0.154   3.557
 7366SOL    HW122997   2.391   0.062   3.566
 7366SOL    HW222998   2.526   0.153   3.583
 7367SOL     OW22999   4.693   1.124   6.794
 7367SOL    HW123000   4.669   1.095   6.887
 7367SOL    HW223001   4.680   1.222   6.785
 7368SOL     OW23002   3.071   3.826   3.369
 7368SOL    HW123003   2.995   3.830   3.433
 7368SOL    HW223004   3.157   3.833   3.420
 7369SOL     OW23005   5.878   3.594   0.013
 7369SOL    HW123006   5.972   3.601   7.002
 7369SOL    HW223007   5.822   3.548   6.965
 7370SOL     OW23008   1.760   1.101   4.271
 7370SOL    HW123009   1.696   1.053   4.211
 7370SOL    HW223010   1.719   1.187   4.302
 7371SOL     OW23011   4.257   0.765   3.638
 7371SOL    HW123012   4.246   0.842   3.700
 7371SOL    HW223013   4.223   0.790   3.547
 7372SOL     OW23014   4.962   1.135   5.547
 7372SOL    HW123015   4.918   1.153   5.635
 7372SOL    HW223016   4.902   1.165   5.473
 7373SOL     OW23017   6.416   3.180   3.966
 7373SOL    HW123018   6.380   3.205   4.056
 7373SOL    HW223019   6.346   3.197   3.897
 7374SOL     OW23020   0.574   2.656   6.327
 7374SOL    HW123021   0.482   2.696   6.321
 7374SOL    HW223022   0.639   2.715   6.280
 7375SOL     OW23023   2.230   2.936   0.678
 7375SOL    HW123024   2.308   2.971   0.627
 7375SOL    HW223025   2.157   2.908   0.615
 7376SOL     OW23026   6.571   4.993   0.774
 7376SOL    HW123027   6.607   4.927   0.708
 7376SOL    HW223028   6.471   4.988   0.775
 7377SOL     OW23029   2.464   5.850   0.713
 7377SOL    HW123030   2.441   5.919   0.782
 7377SOL    HW223031   2.466   5.760   0.757
 7378SOL     OW23032   1.885   5.229   5.529
 7378SOL    HW123033   1.828   5.276   5.597
 7378SOL    HW223034   1.933   5.153   5.573
 7379SOL     OW23035   5.381   2.209   2.288
 7379SOL    HW123036   5.284   2.188   2.303
 7379SOL    HW223037   5.437   2.132   2.320
 7380SOL     OW23038   5.175   3.583   1.789
 7380SOL    HW123039   5.208   3.548   1.877
 7380SOL    HW223040   5.088   3.630   1.802
 7381SOL     OW23041   3.662   6.820   1.463
 7381SOL    HW123042   3.681   6.838   1.560
 7381SOL    HW223043   3.702   6.733   1.437
 7382SOL     OW23044   0.337   2.546   6.547
 7382SOL    HW123045   0.323   2.447   6.541
 7382SOL    HW223046   0.258   2.593   6.506
 7383SOL     OW23047   2.312   6.747   0.956
 7383SOL    HW123048   2.371   6.690   1.013
 7383SOL    HW223049   2.367   6.809   0.901
 7384SOL     OW23050   6.532   6.648   0.141
 7384SOL    HW123051   6.532   6.564   0.195
 7384SOL    HW223052   6.558   6.725   0.199
 7385SOL     OW23053   6.213   4.659   3.069
 7385SOL    HW123054   6.122   4.697   3.054
 7385SOL    HW223055   6.217   4.566   3.032
 7386SOL     OW23056   6.134   4.329   0.014
 7386SOL    HW123057   6.174   4.305   6.946
 7386SOL    HW223058   6.208   4.340   0.081
 7387SOL     OW23059   6.619   5.672   4.133
 7387SOL    HW123060   6.696   5.620   4.171
 7387SOL    HW223061   6.604   5.643   4.038
 7388SOL     OW23062   2.469   4.722   2.603
 7388SOL    HW123063   2.409   4.757   2.531
 7388SOL    HW223064   2.425   4.644   2.648
 7389SOL     OW23065   6.581   2.708   0.816
 7389SOL    HW123066   6.659   2.646   0.831
 7389SOL    HW223067   6.498   2.655   0.800
 7390SOL     OW23068   3.427   2.058   3.940
 7390SOL    HW123069   3.360   2.085   4.009
 7390SOL    HW223070   3.512   2.029   3.985
 7391SOL     OW23071   3.668   4.061   3.007
 7391SOL    HW123072   3.720   4.053   2.923
 7391SOL    HW223073   3.730   4.058   3.085
 7392SOL     OW23074   3.418   6.294   1.145
 7392SOL    HW123075   3.348   6.251   1.202
 7392SOL    HW223076   3.412   6.260   1.051
 7393SOL     OW23077   5.019   5.578   3.058
 7393SOL    HW123078   5.070   5.606   2.976
 7393SOL    HW223079   4.988   5.484   3.048
 7394SOL     OW23080   1.831   2.173   6.090
 7394SOL    HW123081   1.738   2.150   6.117
 7394SOL    HW223082   1.895   2.141   6.159
 7395SOL     OW23083   2.748   6.149   1.412
 7395SOL    HW123084   2.740   6.050   1.408
 7395SOL    HW223085   2.836   6.174   1.452
 7396SOL     OW23086   1.387   5.310   2.174
 7396SOL    HW123087   1.412   5.405   2.195
 7396SOL    HW223088   1.420   5.250   2.246
 7397SOL     OW23089   6.021   4.368   4.021
 7397SOL    HW123090   6.038   4.412   3.933
 7397SOL    HW223091   5.926   4.337   4.025
 7398SOL     OW23092   2.930   5.160   2.306
 7398SOL    HW123093   2.982   5.075   2.298
 7398SOL    HW223094   2.884   5.163   2.394
 7399SOL     OW23095   6.057   1.641   5.198
 7399SOL    HW123096   6.084   1.735   5.178
 7399SOL    HW223097   6.062   1.586   5.114
 7400SOL     OW23098   3.881   3.531   5.406
 7400SOL    HW123099   3.803   3.496   5.354
 7400SOL    HW223100   3.963   3.479   5.382
 7401SOL     OW23101   1.758   2.510   3.702
 7401SOL    HW123102   1.696   2.447   3.656
 7401SOL    HW223103   1.804   2.567   3.634
 7402SOL     OW23104   3.610   5.402   4.136
 7402SOL    HW123105   3.623   5.350   4.220
 7402SOL    HW223106   3.682   5.471   4.127
 7403SOL     OW23107   1.713   4.736   4.426
 7403SOL    HW123108   1.747   4.818   4.381
 7403SOL    HW223109   1.752   4.731   4.518
 7404SOL     OW23110   2.137   3.771   0.897
 7404SOL    HW123111   2.198   3.739   0.825
 7404SOL    HW223112   2.086   3.851   0.864
 7405SOL     OW23113   3.829   6.626   5.800
 7405SOL    HW123114   3.746   6.682   5.804
 7405SOL    HW223115   3.889   6.660   5.727
 7406SOL     OW23116   0.455   2.658   4.309
 7406SOL    HW123117   0.532   2.647   4.372
 7406SOL    HW223118   0.466   2.744   4.258
 7407SOL     OW23119   0.951   6.345   4.973
 7407SOL    HW123120   0.996   6.276   4.916
 7407SOL    HW223121   0.887   6.300   5.036
 7408SOL     OW23122   4.189   5.579   5.741
 7408SOL    HW123123   4.221   5.658   5.793
 7408SOL    HW223124   4.186   5.603   5.644
 7409SOL     OW23125   6.394   5.085   1.916
 7409SOL    HW123126   6.476   5.132   1.884
 7409SOL    HW223127   6.349   5.041   1.838
 7410SOL     OW23128   6.458   0.766   1.135
 7410SOL    HW123129   6.495   0.765   1.228
 7410SOL    HW223130   6.457   0.860   1.100
 7411SOL     OW23131   3.862   1.986   5.473
 7411SOL    HW123132   3.896   1.897   5.505
 7411SOL    HW223133   3.938   2.049   5.461
 7412SOL     OW23134   4.308   6.878   6.997
 7412SOL    HW123135   4.379   6.817   0.011
 7412SOL    HW223136   4.281   6.848   6.905
 7413SOL     OW23137   5.360   0.907   3.897
 7413SOL    HW123138   5.357   0.961   3.813
 7413SOL    HW223139   5.348   0.967   3.976
 7414SOL     OW23140   2.826   1.076   3.940
 7414SOL    HW123141   2.804   0.980   3.958
 7414SOL    HW223142   2.833   1.126   4.026
 7415SOL     OW23143   3.874   0.761   6.440
 7415SOL    HW123144   3.875   0.858   6.464
 7415SOL    HW223145   3.804   0.745   6.371
 7416SOL     OW23146   1.140   0.199   2.087
 7416SOL    HW123147   1.108   0.176   2.179
 7416SOL    HW223148   1.099   0.136   2.020
 7417SOL     OW23149   0.713   0.664   2.226
 7417SOL    HW123150   0.656   0.603   2.169
 7417SOL    HW223151   0.654   0.718   2.286
 7418SOL     OW23152   1.511   3.601   6.027
 7418SOL    HW123153   1.581   3.649   6.080
 7418SOL    HW223154   1.448   3.667   5.987
 7419SOL     OW23155   6.606   2.897   4.692
 7419SOL    HW123156   6.692   2.919   4.646
 7419SOL    HW223157   6.533   2.885   4.624
 7420SOL     OW23158   0.014   6.738   0.931
 7420SOL    HW123159   7.010   6.654   0.980
 7420SOL    HW223160   0.063   6.799   0.994
 7421SOL     OW23161   6.315   3.713   1.460
 7421SOL    HW123162   6.269   3.654   1.526
 7421SOL    HW223163   6.248   3.751   1.397
 7422SOL     OW23164   5.432   3.284   1.362
 7422SOL    HW123165   5.343   3.295   1.406
 7422SOL    HW223166   5.478   3.203   1.398
 7423SOL     OW23167   4.459   2.255   5.897
 7423SOL    HW123168   4.424   2.347   5.877
 7423SOL    HW223169   4.417   2.190   5.835
 7424SOL     OW23170   0.152   2.067   3.964
 7424SOL    HW123171   0.228   2.122   3.999
 7424SOL    HW223172   0.097   2.123   3.901
 7425SOL     OW23173   5.621   0.293   1.370
 7425SOL    HW123174   5.559   0.334   1.438
 7425SOL    HW223175   5.698   0.251   1.418
 7426SOL     OW23176   3.406   3.372   5.174
 7426SOL    HW123177   3.452   3.396   5.089
 7426SOL    HW223178   3.312   3.344   5.156
 7427SOL     OW23179   2.636   0.383   2.188
 7427SOL    HW123180   2.589   0.436   2.257
 7427SOL    HW223181   2.718   0.341   2.227
 7428SOL     OW23182   2.360   6.907   5.203
 7428SOL    HW123183   2.347   6.980   5.135
 7428SOL    HW223184   2.316   6.934   5.289
 7429SOL     OW23185   1.063   1.139   2.365
 7429SOL    HW123186   0.988   1.074   2.375
 7429SOL    HW223187   1.037   1.211   2.302
 7430SOL     OW23188   6.897   4.209   2.879
 7430SOL    HW123189   6.957   4.276   2.922
 7430SOL    HW223190   6.941   4.119   2.882
 7431SOL     OW23191   0.865   2.360   4.661
 7431SOL    HW123192   0.919   2.301   4.600
 7431SOL    HW223193   0.848   2.312   4.747
 7432SOL     OW23194   1.654   1.049   2.813
 7432SOL    HW123195   1.731   1.075   2.756
 7432SOL    HW223196   1.569   1.079   2.769
 7433SOL     OW23197   3.480   0.015   6.597
 7433SOL    HW123198   3.553   0.059   6.650
 7433SOL    HW223199   3.414   6.996   6.660
 7434SOL     OW23200   4.078   0.268   3.676
 7434SOL    HW123201   4.130   0.236   3.756
 7434SOL    HW223202   4.083   0.368   3.672
 7435SOL     OW23203   5.076   4.538   2.907
 7435SOL    HW123204   5.123   4.606   2.850
 7435SOL    HW223205   5.060   4.455   2.853
 7436SOL     OW23206   4.705   2.808   5.698
 7436SOL    HW123207   4.739   2.891   5.654
 7436SOL    HW223208   4.774   2.736   5.689
 7437SOL     OW23209   3.183   0.741   1.502
 7437SOL    HW123210   3.252   0.798   1.547
 7437SOL    HW223211   3.226   0.689   1.428
 7438SOL     OW23212   1.751   0.351   6.807
 7438SOL    HW123213   1.763   0.437   6.758
 7438SOL    HW223214   1.653   0.331   6.816
 7439SOL     OW23215   1.701   4.630   6.240
 7439SOL    HW123216   1.670   4.712   6.288
 7439SOL    HW223217   1.666   4.548   6.286
 7440SOL     OW23218   5.674   3.180   3.961
 7440SOL    HW123219   5.673   3.240   3.881
 7440SOL    HW223220   5.615   3.219   4.032
 7441SOL     OW23221   4.208   6.527   0.445
 7441SOL    HW123222   4.299   6.563   0.465
 7441SOL    HW223223   4.178   6.467   0.519
 7442SOL     OW23224   6.106   0.913   5.868
 7442SOL    HW123225   6.074   0.920   5.963
 7442SOL    HW223226   6.097   1.002   5.823
 7443SOL     OW23227   0.488   6.868   1.105
 7443SOL    HW123228   0.400   6.903   1.138
 7443SOL    HW223229   0.527   6.805   1.172
 7444SOL     OW23230   1.412   5.977   6.559
 7444SOL    HW123231   1.356   5.894   6.559
 7444SOL    HW223232   1.483   5.969   6.489
 7445SOL     OW23233   3.210   5.941   2.254
 7445SOL    HW123234   3.212   5.948   2.354
 7445SOL    HW223235   3.289   5.890   2.222
 7446SOL     OW23236   6.538   5.084   0.420
 7446SOL    HW123237   6.507   5.016   0.353
 7446SOL    HW223238   6.476   5.163   0.417
 7447SOL     OW23239   0.782   5.630   0.631
 7447SOL    HW123240   0.798   5.532   0.643
 7447SOL    HW223241   0.869   5.679   0.637
 7448SOL     OW23242   4.636   4.699   6.718
 7448SOL    HW123243   4.717   4.756   6.705
 7448SOL    HW223244   4.660   4.618   6.770
 7449SOL     OW23245   6.870   4.008   6.738
 7449SOL    HW123246   6.872   4.028   6.836
 7449SOL    HW223247   6.911   4.084   6.688
 7450SOL     OW23248   5.680   2.899   0.547
 7450SOL    HW123249   5.757   2.848   0.586
 7450SOL    HW223250   5.694   2.997   0.561
 7451SOL     OW23251   4.565   4.936   2.876
 7451SOL    HW123252   4.473   4.959   2.843
 7451SOL    HW223253   4.565   4.937   2.976
 7452SOL     OW23254   6.609   5.941   6.300
 7452SOL    HW123255   6.637   6.033   6.327
 7452SOL    HW223256   6.637   5.924   6.206
 7453SOL     OW23257   4.003   5.628   6.475
 7453SOL    HW123258   3.911   5.595   6.497
 7453SOL    HW223259   4.071   5.566   6.513
 7454SOL     OW23260   3.903   2.020   0.801
 7454SOL    HW123261   3.827   2.084   0.813
 7454SOL    HW223262   3.982   2.051   0.854
 7455SOL     OW23263   6.273   0.079   3.330
 7455SOL    HW123264   6.353   0.136   3.351
 7455SOL    HW223265   6.257   0.080   3.232
 7456SOL     OW23266   3.008   1.288   5.839
 7456SOL    HW123267   3.097   1.301   5.796
 7456SOL    HW223268   2.985   1.370   5.892
 7457SOL     OW23269   1.286   1.504   2.471
 7457SOL    HW123270   1.325   1.579   2.524
 7457SOL    HW223271   1.224   1.450   2.529
 7458SOL     OW23272   0.324   5.622   5.206
 7458SOL    HW123273   0.235   5.653   5.173
 7458SOL    HW223274   0.313   5.539   5.260
 7459SOL     OW23275   5.531   6.849   3.151
 7459SOL    HW123276   5.575   6.892   3.230
 7459SOL    HW223277   5.556   6.753   3.146
 7460SOL     OW23278   0.660   0.399   1.382
 7460SOL    HW123279   0.722   0.406   1.305
 7460SOL    HW223280   0.662   0.305   1.418
 7461SOL     OW23281   1.938   4.319   4.713
 7461SOL    HW123282   1.998   4.396   4.732
 7461SOL    HW223283   1.992   4.240   4.684
 7462SOL     OW23284   1.674   4.833   0.062
 7462SOL    HW123285   1.621   4.839   6.999
 7462SOL    HW223286   1.692   4.926   0.096
 7463SOL     OW23287   4.950   5.208   1.487
 7463SOL    HW123288   4.951   5.140   1.414
 7463SOL    HW223289   5.002   5.173   1.565
 7464SOL     OW23290   5.328   5.002   5.206
 7464SOL    HW123291   5.386   4.931   5.245
 7464SOL    HW223292   5.333   5.084   5.263
 7465SOL     OW23293   1.577   4.048   6.784
 7465SOL    HW123294   1.519   3.967   6.789
 7465SOL    HW223295   1.524   4.129   6.810
 7466SOL     OW23296   0.306   0.256   5.159
 7466SOL    HW123297   0.348   0.295   5.077
 7466SOL    HW223298   0.329   0.159   5.165
 7467SOL     OW23299   1.060   3.543   4.191
 7467SOL    HW123300   1.153   3.535   4.226
 7467SOL    HW223301   1.052   3.490   4.106
 7468SOL     OW23302   5.450   2.885   4.813
 7468SOL    HW123303   5.543   2.916   4.798
 7468SOL    HW223304   5.426   2.815   4.745
 7469SOL     OW23305   0.034   2.437   0.317
 7469SOL    HW123306   0.058   2.347   0.352
 7469SOL    HW223307   7.012   2.428   0.227
 7470SOL     OW23308   5.064   2.523   4.010
 7470SOL    HW123309   5.019   2.463   3.943
 7470SOL    HW223310   5.062   2.617   3.976
 7471SOL     OW23311   3.382   6.553   6.392
 7471SOL    HW123312   3.457   6.614   6.366
 7471SOL    HW223313   3.316   6.548   6.318
 7472SOL     OW23314   0.194   0.510   5.726
 7472SOL    HW123315   0.108   0.559   5.712
 7472SOL    HW223316   0.222   0.467   5.640
 7473SOL     OW23317   4.220   6.229   3.602
 7473SOL    HW123318   4.151   6.297   3.628
 7473SOL    HW223319   4.177   6.157   3.547
 7474SOL     OW23320   6.166   2.390   0.302
 7474SOL    HW123321   6.212   2.459   0.358
 7474SOL    HW223322   6.102   2.338   0.359
 7475SOL     OW23323   4.942   2.553   0.715
 7475SOL    HW123324   4.890   2.604   0.783
 7475SOL    HW223325   4.944   2.604   0.629
 7476SOL     OW23326   2.748   1.292   2.637
 7476SOL    HW123327   2.707   1.320   2.550
 7476SOL    HW223328   2.715   1.351   2.710
 7477SOL     OW23329   2.425   3.624   5.853
 7477SOL    HW123330   2.518   3.597   5.831
 7477SOL    HW223331   2.397   3.701   5.795
 7478SOL     OW23332   0.457   2.326   6.281
 7478SOL    HW123333   0.410   2.377   6.209
 7478SOL    HW223334   0.390   2.296   6.350
 7479SOL     OW23335   5.089   3.075   1.323
 7479SOL    HW123336   4.995   3.106   1.313
 7479SOL    HW223337   5.099   3.025   1.409
 7480SOL     OW23338   3.439   6.231   2.606
 7480SOL    HW123339   3.411   6.224   2.510
 7480SOL    HW223340   3.521   6.288   2.612
 7481SOL     OW23341   0.279   3.592   6.730
 7481SOL    HW123342   0.265   3.674   6.674
 7481SOL    HW223343   0.323   3.617   6.816
 7482SOL     OW23344   4.513   1.977   4.609
 7482SOL    HW123345   4.586   1.980   4.677
 7482SOL    HW223346   4.545   2.017   4.523
 7483SOL     OW23347   5.280   1.619   6.085
 7483SOL    HW123348   5.275   1.532   6.037
 7483SOL    HW223349   5.364   1.667   6.059
 7484SOL     OW23350   2.262   0.851   4.556
 7484SOL    HW123351   2.355   0.875   4.586
 7484SOL    HW223352   2.262   0.833   4.458
 7485SOL     OW23353   4.205   0.222   6.751
 7485SOL    HW123354   4.223   0.168   6.669
 7485SOL    HW223355   4.128   0.183   6.801
 7486SOL     OW23356   4.259   6.646   1.161
 7486SOL    HW123357   4.254   6.565   1.103
 7486SOL    HW223358   4.258   6.728   1.104
 7487SOL     OW23359   3.080   6.362   4.482
 7487SOL    HW123360   3.111   6.397   4.394
 7487SOL    HW223361   3.056   6.439   4.542
 7488SOL     OW23362   1.672   6.261   4.074
 7488SOL    HW123363   1.720   6.310   4.147
 7488SOL    HW223364   1.589   6.219   4.111
 7489SOL     OW23365   5.016   3.333   6.404
 7489SOL    HW123366   5.075   3.266   6.449
 7489SOL    HW223367   4.998   3.304   6.310
 7490SOL     OW23368   1.893   2.585   1.353
 7490SOL    HW123369   1.822   2.654   1.337
 7490SOL    HW223370   1.980   2.616   1.314
 7491SOL     OW23371   4.702   3.873   6.470
 7491SOL    HW123372   4.681   3.849   6.565
 7491SOL    HW223373   4.729   3.969   6.466
 7492SOL     OW23374   1.578   0.795   3.765
 7492SOL    HW123375   1.507   0.746   3.714
 7492SOL    HW223376   1.535   0.861   3.826
 7493SOL     OW23377   6.328   4.887   4.493
 7493SOL    HW123378   6.263   4.887   4.417
 7493SOL    HW223379   6.421   4.895   4.458
 7494SOL     OW23380   6.199   1.094   2.165
 7494SOL    HW123381   6.206   1.193   2.173
 7494SOL    HW223382   6.163   1.070   2.075
 7495SOL     OW23383   1.505   3.161   4.416
 7495SOL    HW123384   1.430   3.117   4.465
 7495SOL    HW223385   1.591   3.114   4.438
 7496SOL     OW23386   6.027   3.150   3.267
 7496SOL    HW123387   6.027   3.083   3.193
 7496SOL    HW223388   5.942   3.203   3.265
 7497SOL     OW23389   6.690   6.914   1.646
 7497SOL    HW123390   6.680   7.006   1.610
 7497SOL    HW223391   6.719   6.852   1.573
 7498SOL     OW23392   2.370   6.474   3.833
 7498SOL    HW123393   2.439   6.514   3.893
 7498SOL    HW223394   2.393   6.493   3.737
 7499SOL     OW23395   2.861   1.563   3.616
 7499SOL    HW123396   2.785   1.564   3.682
 7499SOL    HW223397   2.945   1.588   3.663
 7500SOL     OW23398   3.815   1.380   4.619
 7500SOL    HW123399   3.733   1.420   4.660
 7500SOL    HW223400   3.824   1.411   4.524
 7501SOL     OW23401   6.101   2.052   3.756
 7501SOL    HW123402   6.032   2.067   3.684
 7501SOL    HW223403   6.066   2.084   3.843
 7502SOL     OW23404   4.029   1.097   3.743
 7502SOL    HW123405   4.103   1.103   3.676
 7502SOL    HW223406   4.016   1.001   3.769
 7503SOL     OW23407   1.457   5.924   1.079
 7503SOL    HW123408   1.505   5.849   1.124
 7503SOL    HW223409   1.372   5.890   1.039
 7504SOL     OW23410   5.309   6.229   4.341
 7504SOL    HW123411   5.313   6.143   4.391
 7504SOL    HW223412   5.252   6.294   4.391
 7505SOL     OW23413   0.744   6.517   6.044
 7505SOL    HW123414   0.838   6.534   6.075
 7505SOL    HW223415   0.688   6.598   6.060
 7506SOL     OW23416   3.389   2.113   4.257
 7506SOL    HW123417   3.373   2.121   4.355
 7506SOL    HW223418   3.487   2.117   4.238
 7507SOL     OW23419   6.950   3.816   6.248
 7507SOL    HW123420   6.879   3.846   6.184
 7507SOL    HW223421   7.010   3.750   6.202
 7508SOL     OW23422   3.069   6.323   0.411
 7508SOL    HW123423   3.089   6.319   0.509
 7508SOL    HW223424   3.100   6.238   0.367
 7509SOL     OW23425   5.859   4.558   2.493
 7509SOL    HW123426   5.956   4.535   2.487
 7509SOL    HW223427   5.848   4.637   2.554
 7510SOL     OW23428   3.173   4.327   1.420
 7510SOL    HW123429   3.174   4.345   1.322
 7510SOL    HW223430   3.177   4.414   1.470
 7511SOL     OW23431   4.726   5.967   3.865
 7511SOL    HW123432   4.661   5.968   3.941
 7511SOL    HW223433   4.692   5.906   3.793
 7512SOL     OW23434   4.262   6.871   1.026
 7512SOL    HW123435   4.206   6.877   0.943
 7512SOL    HW223436   4.221   6.927   1.098
 7513SOL     OW23437   0.764   0.336   2.530
 7513SOL    HW123438   0.854   0.336   2.487
 7513SOL    HW223439   0.700   0.283   2.474
 7514SOL     OW23440   0.182   0.308   0.606
 7514SOL    HW123441   0.154   0.359   0.688
 7514SOL    HW223442   0.184   0.370   0.528
 7515SOL     OW23443   0.049   4.910   5.037
 7515SOL    HW123444   0.010   4.856   4.963
 7515SOL    HW223445   6.997   4.955   5.088
 7516SOL     OW23446   2.023   6.064   5.179
 7516SOL    HW123447   2.056   6.068   5.273
 7516SOL    HW223448   1.930   6.029   5.178
 7517SOL     OW23449   0.556   2.484   6.775
 7517SOL    HW123450   0.628   2.427   6.734
 7517SOL    HW223451   0.480   2.493   6.712
 7518SOL     OW23452   3.928   2.090   4.301
 7518SOL    HW123453   3.925   2.153   4.223
 7518SOL    HW223454   4.021   2.088   4.338
 7519SOL     OW23455   3.488   6.727   5.272
 7519SOL    HW123456   3.582   6.760   5.277
 7519SOL    HW223457   3.488   6.627   5.279
 7520SOL     OW23458   1.751   1.070   0.898
 7520SOL    HW123459   1.795   1.014   0.828
 7520SOL    HW223460   1.816   1.137   0.933
 7521SOL     OW23461   4.105   1.559   5.679
 7521SOL    HW123462   4.138   1.605   5.597
 7521SOL    HW223463   4.144   1.468   5.685
 7522SOL     OW23464   2.016   6.891   4.244
 7522SOL    HW123465   1.974   6.908   4.155
 7522SOL    HW223466   2.075   6.968   4.268
 7523SOL     OW23467   5.718   1.803   0.074
 7523SOL    HW123468   5.634   1.857   0.076
 7523SOL    HW223469   5.769   1.823   7.012
 7524SOL     OW23470   0.374   4.025   4.998
 7524SOL    HW123471   0.460   4.034   5.048
 7524SOL    HW223472   0.380   3.948   4.934
 7525SOL     OW23473   1.805   4.595   5.597
 7525SOL    HW123474   1.899   4.584   5.567
 7525SOL    HW223475   1.752   4.514   5.571
 7526SOL     OW23476   1.576   4.294   0.695
 7526SOL    HW123477   1.495   4.351   0.678
 7526SOL    HW223478   1.620   4.324   0.780
 7527SOL     OW23479   2.660   5.340   2.338
 7527SOL    HW123480   2.739   5.399   2.353
 7527SOL    HW223481   2.623   5.310   2.426
 7528SOL     OW23482   6.243   2.581   6.684
 7528SOL    HW123483   6.311   2.649   6.710
 7528SOL    HW223484   6.157   2.627   6.659
 7529SOL     OW23485   5.847   3.473   4.758
 7529SOL    HW123486   5.857   3.480   4.857
 7529SOL    HW223487   5.807   3.384   4.735
 7530SOL     OW23488   1.064   2.729   3.311
 7530SOL    HW123489   1.079   2.689   3.402
 7530SOL    HW223490   1.148   2.774   3.280
 7531SOL     OW23491   4.003   1.889   4.087
 7531SOL    HW123492   3.995   1.956   4.161
 7531SOL    HW223493   4.008   1.797   4.125
 7532SOL     OW23494   4.628   5.163   6.362
 7532SOL    HW123495   4.612   5.262   6.359
 7532SOL    HW223496   4.696   5.143   6.433
 7533SOL     OW23497   4.210   4.660   1.785
 7533SOL    HW123498   4.228   4.562   1.778
 7533SOL    HW223499   4.208   4.700   1.694
 7534SOL     OW23500   4.391   5.891   5.313
 7534SOL    HW123501   4.422   5.819   5.375
 7534SOL    HW223502   4.468   5.925   5.259
 7535SOL     OW23503   0.474   6.817   4.090
 7535SOL    HW123504   0.555   6.869   4.060
 7535SOL    HW223505   0.427   6.869   4.162
 7536SOL     OW23506   6.414   6.656   2.860
 7536SOL    HW123507   6.428   6.629   2.955
 7536SOL    HW223508   6.331   6.712   2.854
 7537SOL     OW23509   1.930   0.127   2.370
 7537SOL    HW123510   1.976   0.188   2.305
 7537SOL    HW223511   1.863   0.071   2.323
 7538SOL     OW23512   0.250   4.877   0.165
 7538SOL    HW123513   0.257   4.862   0.067
 7538SOL    HW223514   0.155   4.900   0.188
 7539SOL     OW23515   6.591   0.425   4.445
 7539SOL    HW123516   6.538   0.416   4.529
 7539SOL    HW223517   6.666   0.489   4.459
 7540SOL     OW23518   4.744   4.150   3.205
 7540SOL    HW123519   4.817   4.128   3.270
 7540SOL    HW223520   4.685   4.221   3.244
 7541SOL     OW23521   2.299   4.352   0.020
 7541SOL    HW123522   2.381   4.312   0.061
 7541SOL    HW223523   2.308   4.353   6.942
 7542SOL     OW23524   5.915   5.783   4.617
 7542SOL    HW123525   5.845   5.723   4.655
 7542SOL    HW223526   5.883   5.878   4.621
 7543SOL     OW23527   2.142   1.447   0.880
 7543SOL    HW123528   2.103   1.532   0.916
 7543SOL    HW223529   2.242   1.453   0.884
 7544SOL     OW23530   5.913   1.181   4.755
 7544SOL    HW123531   5.972   1.256   4.725
 7544SOL    HW223532   5.961   1.127   4.824
 7545SOL     OW23533   1.652   5.733   4.957
 7545SOL    HW123534   1.596   5.650   4.953
 7545SOL    HW223535   1.748   5.708   4.962
 7546SOL     OW23536   2.470   2.629   1.884
 7546SOL    HW123537   2.406   2.621   1.808
 7546SOL    HW223538   2.548   2.569   1.868
 7547SOL     OW23539   4.303   0.342   2.425
 7547SOL    HW123540   4.239   0.271   2.395
 7547SOL    HW223541   4.293   0.423   2.366
 7548SOL     OW23542   2.680   2.341   6.459
 7548SOL    HW123543   2.594   2.390   6.446
 7548SOL    HW223544   2.715   2.310   6.370
 7549SOL     OW23545   5.337   0.752   4.231
 7549SOL    HW123546   5.291   0.712   4.311
 7549SOL    HW223547   5.312   0.701   4.149
 7550SOL     OW23548   2.127   5.987   4.931
 7550SOL    HW123549   2.085   6.023   5.014
 7550SOL    HW223550   2.170   5.898   4.951
 7551SOL     OW23551   6.128   3.315   6.444
 7551SOL    HW123552   6.063   3.269   6.385
 7551SOL    HW223553   6.161   3.398   6.399
 7552SOL     OW23554   2.700   6.270   4.820
 7552SOL    HW123555   2.783   6.224   4.852
 7552SOL    HW223556   2.665   6.329   4.893
 7553SOL     OW23557   5.991   6.812   5.807
 7553SOL    HW123558   5.948   6.900   5.787
 7553SOL    HW223559   6.048   6.783   5.730
 7554SOL     OW23560   5.238   1.632   1.311
 7554SOL    HW123561   5.267   1.557   1.251
 7554SOL    HW223562   5.143   1.618   1.337
 7555SOL     OW23563   4.484   5.335   4.144
 7555SOL    HW123564   4.510   5.249   4.187
 7555SOL    HW223565   4.406   5.375   4.192
 7556SOL     OW23566   1.246   6.114   0.796
 7556SOL    HW123567   1.151   6.081   0.796
 7556SOL    HW223568   1.305   6.046   0.754
 7557SOL     OW23569   4.558   6.487   1.078
 7557SOL    HW123570   4.520   6.469   1.168
 7557SOL    HW223571   4.488   6.468   1.008
 7558SOL     OW23572   0.908   1.646   3.679
 7558SOL    HW123573   0.819   1.601   3.679
 7558SOL    HW223574   0.947   1.643   3.772
 7559SOL     OW23575   2.314   0.113   5.007
 7559SOL    HW123576   2.387   0.150   5.064
 7559SOL    HW223577   2.246   0.185   4.989
 7560SOL     OW23578   1.118   0.985   5.679
 7560SOL    HW123579   1.067   0.951   5.600
 7560SOL    HW223580   1.132   0.910   5.744
 7561SOL     OW23581   5.120   1.211   4.973
 7561SOL    HW123582   5.095   1.123   5.014
 7561SOL    HW223583   5.219   1.215   4.962
 7562SOL     OW23584   2.070   5.510   3.513
 7562SOL    HW123585   2.029   5.424   3.482
 7562SOL    HW223586   1.998   5.579   3.525
 7563SOL     OW23587   2.524   6.454   3.243
 7563SOL    HW123588   2.475   6.539   3.223
 7563SOL    HW223589   2.515   6.432   3.340
 7564SOL     OW23590   4.917   2.609   5.722
 7564SOL    HW123591   4.942   2.615   5.625
 7564SOL    HW223592   4.990   2.648   5.778
 7565SOL     OW23593   6.621   3.046   5.533
 7565SOL    HW123594   6.529   3.011   5.512
 7565SOL    HW223595   6.673   3.056   5.448
 7566SOL     OW23596   4.605   4.319   1.451
 7566SOL    HW123597   4.584   4.408   1.492
 7566SOL    HW223598   4.564   4.315   1.359
 7567SOL     OW23599   1.674   0.540   3.557
 7567SOL    HW123600   1.599   0.606   3.564
 7567SOL    HW223601   1.639   0.448   3.571
 7568SOL     OW23602   6.647   4.064   0.958
 7568SOL    HW123603   6.575   4.134   0.957
 7568SOL    HW223604   6.615   3.984   1.008
 7569SOL     OW23605   4.362   3.513   1.376
 7569SOL    HW123606   4.353   3.503   1.475
 7569SOL    HW223607   4.428   3.586   1.356
 7570SOL     OW23608   0.930   2.886   2.061
 7570SOL    HW123609   1.006   2.880   2.125
 7570SOL    HW223610   0.963   2.866   1.968
 7571SOL     OW23611   4.884   1.624   3.059
 7571SOL    HW123612   4.970   1.647   3.015
 7571SOL    HW223613   4.808   1.642   2.996
 7572SOL     OW23614   4.537   6.773   3.469
 7572SOL    HW123615   4.568   6.726   3.387
 7572SOL    HW223616   4.451   6.820   3.450
 7573SOL     OW23617   4.046   6.611   6.626
 7573SOL    HW123618   4.068   6.618   6.528
 7573SOL    HW223619   4.041   6.515   6.652
 7574SOL     OW23620   0.747   3.002   4.088
 7574SOL    HW123621   0.653   2.974   4.110
 7574SOL    HW223622   0.744   3.088   4.036
 7575SOL     OW23623   0.226   6.739   0.719
 7575SOL    HW123624   0.180   6.795   0.787
 7575SOL    HW223625   0.269   6.798   0.650
 7576SOL     OW23626   4.328   2.748   0.363
 7576SOL    HW123627   4.257   2.686   0.329
 7576SOL    HW223628   4.334   2.828   0.303
 7577SOL     OW23629   0.048   0.443   6.662
 7577SOL    HW123630   6.976   0.453   6.627
 7577SOL    HW223631   0.100   0.526   6.643
 7578SOL     OW23632   6.097   5.511   2.844
 7578SOL    HW123633   6.069   5.485   2.752
 7578SOL    HW223634   6.194   5.535   2.845
 7579SOL     OW23635   1.290   1.711   6.759
 7579SOL    HW123636   1.299   1.730   6.661
 7579SOL    HW223637   1.378   1.679   6.795
 7580SOL     OW23638   1.861   4.864   2.974
 7580SOL    HW123639   1.881   4.914   2.890
 7580SOL    HW223640   1.899   4.772   2.968
 7581SOL     OW23641   0.401   6.980   0.626
 7581SOL    HW123642   0.349   0.005   0.554
 7581SOL    HW223643   0.489   0.005   0.639
 7582SOL     OW23644   2.137   1.048   6.335
 7582SOL    HW123645   2.052   1.030   6.384
 7582SOL    HW223646   2.119   1.052   6.237
 7583SOL     OW23647   5.408   3.872   2.366
 7583SOL    HW123648   5.318   3.890   2.405
 7583SOL    HW223649   5.457   3.807   2.425
 7584SOL     OW23650   0.008   0.922   3.208
 7584SOL    HW123651   0.080   0.989   3.222
 7584SOL    HW223652   7.003   0.920   3.111
 7585SOL     OW23653   1.182   1.249   5.684
 7585SOL    HW123654   1.275   1.264   5.717
 7585SOL    HW223655   1.164   1.151   5.679
 7586SOL     OW23656   1.745   6.870   3.766
 7586SOL    HW123657   1.652   6.898   3.743
 7586SOL    HW223658   1.778   6.805   3.697
 7587SOL     OW23659   4.952   0.031   2.133
 7587SOL    HW123660   4.965   6.953   2.125
 7587SOL    HW223661   4.891   0.050   2.210
 7588SOL     OW23662   1.992   3.272   4.896
 7588SOL    HW123663   1.925   3.296   4.966
 7588SOL    HW223664   1.946   3.256   4.809
 7589SOL     OW23665   6.572   0.047   2.357
 7589SOL    HW123666   6.527   7.020   2.282
 7589SOL    HW223667   6.555   7.021   2.443
 7590SOL     OW23668   6.044   1.234   0.536
 7590SOL    HW123669   6.066   1.157   0.595
 7590SOL    HW223670   5.956   1.272   0.563
 7591SOL     OW23671   2.948   3.933   4.847
 7591SOL    HW123672   2.868   3.959   4.901
 7591SOL    HW223673   3.030   3.970   4.889
 7592SOL     OW23674   0.888   6.623   3.564
 7592SOL    HW123675   0.871   6.714   3.527
 7592SOL    HW223676   0.806   6.590   3.611
 7593SOL     OW23677   6.758   1.266   6.197
 7593SOL    HW123678   6.776   1.305   6.106
 7593SOL    HW223679   6.659   1.266   6.213
 7594SOL     OW23680   6.550   3.677   5.904
 7594SOL    HW123681   6.520   3.765   5.869
 7594SOL    HW223682   6.588   3.689   5.996
 7595SOL     OW23683   0.450   3.206   0.155
 7595SOL    HW123684   0.423   3.299   0.184
 7595SOL    HW223685   0.368   3.153   0.135
 7596SOL     OW23686   3.077   1.664   0.229
 7596SOL    HW123687   2.979   1.672   0.248
 7596SOL    HW223688   3.091   1.589   0.164
 7597SOL     OW23689   2.431   4.745   0.661
 7597SOL    HW123690   2.422   4.832   0.611
 7597SOL    HW223691   2.525   4.713   0.654
 7598SOL     OW23692   5.104   0.509   2.306
 7598SOL    HW123693   5.102   0.423   2.255
 7598SOL    HW223694   5.162   0.574   2.259
 7599SOL     OW23695   3.210   3.599   0.064
 7599SOL    HW123696   3.218   3.693   0.097
 7599SOL    HW223697   3.154   3.546   0.127
 7600SOL     OW23698   0.927   0.161   3.551
 7600SOL    HW123699   0.861   0.184   3.479
 7600SOL    HW223700   0.937   0.239   3.612
 7601SOL     OW23701   2.935   6.302   1.110
 7601SOL    HW123702   2.873   6.335   1.181
 7601SOL    HW223703   2.939   6.368   1.036
 7602SOL     OW23704   0.714   1.552   1.029
 7602SOL    HW123705   0.720   1.503   1.116
 7602SOL    HW223706   0.793   1.612   1.019
 7603SOL     OW23707   4.422   0.962   6.410
 7603SOL    HW123708   4.486   0.976   6.485
 7603SOL    HW223709   4.336   0.926   6.447
 7604SOL     OW23710   2.298   2.561   5.328
 7604SOL    HW123711   2.324   2.573   5.232
 7604SOL    HW223712   2.310   2.465   5.354
 7605SOL     OW23713   2.905   5.634   0.323
 7605SOL    HW123714   2.816   5.660   0.283
 7605SOL    HW223715   2.976   5.642   0.253
 7606SOL     OW23716   6.418   0.438   2.987
 7606SOL    HW123717   6.319   0.429   2.979
 7606SOL    HW223718   6.445   0.433   3.083
 7607SOL     OW23719   1.938   5.703   5.619
 7607SOL    HW123720   1.942   5.730   5.523
 7607SOL    HW223721   2.018   5.647   5.641
 7608SOL     OW23722   0.217   2.579   6.147
 7608SOL    HW123723   0.180   2.534   6.066
 7608SOL    HW223724   0.147   2.583   6.219
 7609SOL     OW23725   3.332   0.364   5.089
 7609SOL    HW123726   3.371   0.301   5.156
 7609SOL    HW223727   3.376   0.453   5.097
 7610SOL     OW23728   4.083   4.945   4.498
 7610SOL    HW123729   4.119   4.893   4.575
 7610SOL    HW223730   4.151   4.948   4.424
 7611SOL     OW23731   4.409   2.028   0.164
 7611SOL    HW123732   4.414   1.958   0.236
 7611SOL    HW223733   4.356   1.993   0.087
 7612SOL     OW23734   4.755   1.860   2.338
 7612SOL    HW123735   4.826   1.801   2.300
 7612SOL    HW223736   4.796   1.927   2.400
 7613SOL     OW23737   0.204   0.705   6.637
 7613SOL    HW123738   0.276   0.722   6.569
 7613SOL    HW223739   0.246   0.688   6.726
 7614SOL     OW23740   5.881   4.924   6.662
 7614SOL    HW123741   5.967   4.912   6.711
 7614SOL    HW223742   5.876   4.857   6.588
 7615SOL     OW23743   5.031   2.731   6.265
 7615SOL    HW123744   5.055   2.780   6.349
 7615SOL    HW223745   4.975   2.652   6.288
 7616SOL     OW23746   6.695   6.635   2.263
 7616SOL    HW123747   6.622   6.583   2.307
 7616SOL    HW223748   6.684   6.630   2.164
 7617SOL     OW23749   5.904   4.469   2.897
 7617SOL    HW123750   5.809   4.457   2.869
 7617SOL    HW223751   5.953   4.522   2.829
 7618SOL     OW23752   2.728   1.996   6.822
 7618SOL    HW123753   2.740   1.963   6.916
 7618SOL    HW223754   2.720   2.095   6.822
 7619SOL     OW23755   0.709   0.791   5.232
 7619SOL    HW123756   0.699   0.850   5.312
 7619SOL    HW223757   0.700   0.695   5.259
 7620SOL     OW23758   3.075   3.831   0.214
 7620SOL    HW123759   3.058   3.896   0.289
 7620SOL    HW223760   3.167   3.793   0.224
 7621SOL     OW23761   6.181   5.070   0.577
 7621SOL    HW123762   6.121   5.128   0.522
 7621SOL    HW223763   6.184   4.978   0.537
 7622SOL     OW23764   3.344   4.088   1.429
 7622SOL    HW123765   3.284   4.168   1.423
 7622SOL    HW223766   3.334   4.045   1.519
 7623SOL     OW23767   5.273   4.622   2.288
 7623SOL    HW123768   5.306   4.581   2.203
 7623SOL    HW223769   5.202   4.564   2.328
 7624SOL     OW23770   0.382   2.903   3.127
 7624SOL    HW123771   0.381   3.003   3.131
 7624SOL    HW223772   0.438   2.874   3.049
 7625SOL     OW23773   5.157   0.372   1.746
 7625SOL    HW123774   5.253   0.373   1.719
 7625SOL    HW223775   5.123   0.466   1.753
 7626SOL     OW23776   4.904   6.614   0.266
 7626SOL    HW123777   4.881   6.550   0.193
 7626SOL    HW223778   4.985   6.667   0.239
 7627SOL     OW23779   4.370   2.512   5.828
 7627SOL    HW123780   4.283   2.556   5.807
 7627SOL    HW223781   4.387   2.517   5.926
 7628SOL     OW23782   3.180   2.798   0.566
 7628SOL    HW123783   3.153   2.886   0.607
 7628SOL    HW223784   3.257   2.812   0.504
 7629SOL     OW23785   5.424   2.835   3.614
 7629SOL    HW123786   5.429   2.735   3.618
 7629SOL    HW223787   5.471   2.873   3.693
 7630SOL     OW23788   1.610   6.572   3.853
 7630SOL    HW123789   1.699   6.608   3.882
 7630SOL    HW223790   1.540   6.599   3.920
 7631SOL     OW23791   1.563   1.166   5.979
 7631SOL    HW123792   1.639   1.104   5.961
 7631SOL    HW223793   1.596   1.245   6.031
 7632SOL     OW23794   4.161   5.652   0.823
 7632SOL    HW123795   4.248   5.702   0.831
 7632SOL    HW223796   4.092   5.712   0.783
 7633SOL     OW23797   5.040   0.865   1.670
 7633SOL    HW123798   5.078   0.779   1.636
 7633SOL    HW223799   4.942   0.867   1.652
 7634SOL     OW23800   0.351   2.282   6.535
 7634SOL    HW123801   0.332   2.189   6.502
 7634SOL    HW223802   0.388   2.278   6.627
 7635SOL     OW23803   1.365   3.512   5.688
 7635SOL    HW123804   1.449   3.532   5.739
 7635SOL    HW223805   1.312   3.596   5.678
 7636SOL     OW23806   6.749   3.272   3.537
 7636SOL    HW123807   6.751   3.357   3.484
 7636SOL    HW223808   6.683   3.209   3.497
 7637SOL     OW23809   1.212   4.098   5.622
 7637SOL    HW123810   1.189   4.196   5.620
 7637SOL    HW223811   1.159   4.050   5.553
 7638SOL     OW23812   0.591   6.404   1.204
 7638SOL    HW123813   0.659   6.412   1.276
 7638SOL    HW223814   0.582   6.308   1.176
 7639SOL     OW23815   2.531   6.307   0.400
 7639SOL    HW123816   2.499   6.330   0.492
 7639SOL    HW223817   2.530   6.208   0.388
 7640SOL     OW23818   2.961   0.683   0.838
 7640SOL    HW123819   3.026   0.693   0.913
 7640SOL    HW223820   2.943   0.586   0.822
 7641SOL     OW23821   6.785   5.133   4.744
 7641SOL    HW123822   6.792   5.160   4.841
 7641SOL    HW223823   6.857   5.065   4.724
 7642SOL     OW23824   5.838   0.908   4.175
 7642SOL    HW123825   5.894   0.880   4.097
 7642SOL    HW223826   5.754   0.854   4.177
 7643SOL     OW23827   5.228   2.436   4.448
 7643SOL    HW123828   5.234   2.524   4.402
 7643SOL    HW223829   5.319   2.405   4.474
 7644SOL     OW23830   5.336   3.863   0.388
 7644SOL    HW123831   5.396   3.784   0.400
 7644SOL    HW223832   5.374   3.941   0.437
 7645SOL     OW23833   4.786   5.111   6.567
 7645SOL    HW123834   4.874   5.128   6.524
 7645SOL    HW223835   4.752   5.195   6.609
 7646SOL     OW23836   6.965   2.004   1.887
 7646SOL    HW123837   0.005   1.961   1.953
 7646SOL    HW223838   7.017   2.035   1.808
 7647SOL     OW23839   6.739   1.939   4.016
 7647SOL    HW123840   6.830   1.923   4.056
 7647SOL    HW223841   6.747   2.006   3.943
 7648SOL     OW23842   1.747   2.447   1.125
 7648SOL    HW123843   1.671   2.391   1.093
 7648SOL    HW223844   1.781   2.411   1.212
 7649SOL     OW23845   3.997   0.605   7.005
 7649SOL    HW123846   3.960   0.686   0.028
 7649SOL    HW223847   4.084   0.628   6.962
 7650SOL     OW23848   3.382   2.411   0.661
 7650SOL    HW123849   3.294   2.450   0.688
 7650SOL    HW223850   3.445   2.485   0.638
 7651SOL     OW23851   3.580   5.307   6.424
 7651SOL    HW123852   3.546   5.381   6.365
 7651SOL    HW223853   3.505   5.271   6.479
 7652SOL     OW23854   6.730   0.822   5.312
 7652SOL    HW123855   6.800   0.859   5.374
 7652SOL    HW223856   6.764   0.823   5.218
 7653SOL     OW23857   1.633   6.587   6.691
 7653SOL    HW123858   1.696   6.649   6.643
 7653SOL    HW223859   1.640   6.603   6.789
 7654SOL     OW23860   6.654   2.320   5.478
 7654SOL    HW123861   6.692   2.411   5.457
 7654SOL    HW223862   6.665   2.261   5.398
 7655SOL     OW23863   3.105   1.646   5.195
 7655SOL    HW123864   3.191   1.619   5.237
 7655SOL    HW223865   3.104   1.617   5.099
 7656SOL     OW23866   6.154   3.658   6.970
 7656SOL    HW123867   6.120   3.707   6.890
 7656SOL    HW223868   6.254   3.653   6.966
 7657SOL     OW23869   1.232   3.798   4.712
 7657SOL    HW123870   1.237   3.735   4.635
 7657SOL    HW223871   1.186   3.882   4.685
 7658SOL     OW23872   2.710   0.435   1.105
 7658SOL    HW123873   2.744   0.344   1.083
 7658SOL    HW223874   2.618   0.428   1.143
 7659SOL     OW23875   5.242   4.290   5.306
 7659SOL    HW123876   5.335   4.285   5.342
 7659SOL    HW223877   5.238   4.246   5.217
 7660SOL     OW23878   0.228   6.489   5.412
 7660SOL    HW123879   0.223   6.589   5.404
 7660SOL    HW223880   0.267   6.451   5.328
 7661SOL     OW23881   1.771   0.506   5.261
 7661SOL    HW123882   1.859   0.467   5.233
 7661SOL    HW223883   1.771   0.522   5.359
 7662SOL     OW23884   0.162   6.494   1.430
 7662SOL    HW123885   0.199   6.436   1.502
 7662SOL    HW223886   0.207   6.583   1.433
 7663SOL     OW23887   1.707   6.279   4.619
 7663SOL    HW123888   1.653   6.216   4.565
 7663SOL    HW223889   1.755   6.230   4.692
 7664SOL     OW23890   5.763   2.308   2.702
 7664SOL    HW123891   5.858   2.280   2.699
 7664SOL    HW223892   5.752   2.396   2.654
 7665SOL     OW23893   2.674   0.700   5.348
 7665SOL    HW123894   2.627   0.636   5.288
 7665SOL    HW223895   2.759   0.732   5.304
 7666SOL     OW23896   5.965   5.379   4.102
 7666SOL    HW123897   5.941   5.378   4.200
 7666SOL    HW223898   6.065   5.379   4.093
 7667SOL     OW23899   4.291   5.410   1.384
 7667SOL    HW123900   4.333   5.374   1.467
 7667SOL    HW223901   4.213   5.467   1.408
 7668SOL     OW23902   1.900   5.577   0.164
 7668SOL    HW123903   1.886   5.568   0.263
 7668SOL    HW223904   1.941   5.667   0.145
 7669SOL     OW23905   3.102   1.957   6.849
 7669SOL    HW123906   3.042   1.880   6.868
 7669SOL    HW223907   3.193   1.924   6.826
 7670SOL     OW23908   0.691   0.326   0.782
 7670SOL    HW123909   0.679   0.344   0.880
 7670SOL    HW223910   0.605   0.294   0.743
 7671SOL     OW23911   3.717   0.321   1.613
 7671SOL    HW123912   3.651   0.279   1.551
 7671SOL    HW223913   3.717   0.421   1.601
 7672SOL     OW23914   5.335   3.398   2.308
 7672SOL    HW123915   5.358   3.301   2.313
 7672SOL    HW223916   5.419   3.451   2.295
 7673SOL     OW23917   2.076   6.341   5.444
 7673SOL    HW123918   2.103   6.246   5.457
 7673SOL    HW223919   2.157   6.399   5.436
 7674SOL     OW23920   3.420   5.668   3.722
 7674SOL    HW123921   3.512   5.647   3.753
 7674SOL    HW223922   3.424   5.734   3.647
 7675SOL     OW23923   3.714   6.291   3.440
 7675SOL    HW123924   3.640   6.240   3.482
 7675SOL    HW223925   3.785   6.310   3.507
 7676SOL     OW23926   2.955   3.319   4.823
 7676SOL    HW123927   2.957   3.267   4.738
 7676SOL    HW223928   2.861   3.324   4.858
 7677SOL     OW23929   0.427   6.164   6.970
 7677SOL    HW123930   0.386   6.127   6.887
 7677SOL    HW223931   0.377   6.130   0.028
 7678SOL     OW23932   3.653   1.401   5.374
 7678SOL    HW123933   3.711   1.373   5.451
 7678SOL    HW223934   3.558   1.405   5.404
 7679SOL     OW23935   2.547   5.088   4.162
 7679SOL    HW123936   2.619   5.058   4.225
 7679SOL    HW223937   2.462   5.039   4.182
 7680SOL     OW23938   1.871   6.608   3.983
 7680SOL    HW123939   1.946   6.641   3.926
 7680SOL    HW223940   1.871   6.659   4.070
 7681SOL     OW23941   2.061   2.071   5.764
 7681SOL    HW123942   1.986   2.087   5.699
 7681SOL    HW223943   2.146   2.057   5.713
 7682SOL     OW23944   3.519   0.614   1.863
 7682SOL    HW123945   3.608   0.650   1.893
 7682SOL    HW223946   3.446   0.675   1.893
 7683SOL     OW23947   0.768   4.486   4.585
 7683SOL    HW123948   0.748   4.520   4.676
 7683SOL    HW223949   0.733   4.549   4.516
 7684SOL     OW23950   4.836   3.441   1.798
 7684SOL    HW123951   4.756   3.478   1.751
 7684SOL    HW223952   4.833   3.341   1.796
 7685SOL     OW23953   2.333   7.020   0.039
 7685SOL    HW123954   2.411   6.972   0.079
 7685SOL    HW223955   2.263   6.954   0.013
 7686SOL     OW23956   6.249   0.441   4.173
 7686SOL    HW123957   6.315   0.515   4.157
 7686SOL    HW223958   6.296   0.353   4.172
 7687SOL     OW23959   5.456   3.191   5.778
 7687SOL    HW123960   5.369   3.142   5.780
 7687SOL    HW223961   5.440   3.288   5.763
 7688SOL     OW23962   6.523   2.956   0.428
 7688SOL    HW123963   6.539   2.948   0.527
 7688SOL    HW223964   6.493   3.049   0.407
 7689SOL     OW23965   5.710   0.275   2.653
 7689SOL    HW123966   5.717   0.177   2.633
 7689SOL    HW223967   5.629   0.312   2.607
 7690SOL     OW23968   6.154   4.671   2.426
 7690SOL    HW123969   6.074   4.727   2.405
 7690SOL    HW223970   6.192   4.699   2.514
 7691SOL     OW23971   5.180   2.977   3.888
 7691SOL    HW123972   5.209   3.053   3.831
 7691SOL    HW223973   5.080   2.972   3.888
 7692SOL     OW23974   1.977   6.631   2.105
 7692SOL    HW123975   1.978   6.728   2.128
 7692SOL    HW223976   2.045   6.582   2.161
 7693SOL     OW23977   2.673   2.071   1.315
 7693SOL    HW123978   2.720   2.006   1.255
 7693SOL    HW223979   2.603   2.119   1.263
 7694SOL     OW23980   4.406   2.385   1.065
 7694SOL    HW123981   4.457   2.413   0.983
 7694SOL    HW223982   4.412   2.456   1.134
 7695SOL     OW23983   5.242   6.426   4.153
 7695SOL    HW123984   5.227   6.502   4.216
 7695SOL    HW223985   5.290   6.352   4.202
 7696SOL     OW23986   2.973   1.591   5.654
 7696SOL    HW123987   2.993   1.686   5.630
 7696SOL    HW223988   2.953   1.585   5.752
 7697SOL     OW23989   5.640   6.593   3.138
 7697SOL    HW123990   5.736   6.577   3.159
 7697SOL    HW223991   5.622   6.568   3.043
 7698SOL     OW23992   6.111   2.583   1.462
 7698SOL    HW123993   6.066   2.504   1.418
 7698SOL    HW223994   6.054   2.615   1.538
 7699SOL     OW23995   3.710   5.734   6.268
 7699SOL    HW123996   3.668   5.690   6.190
 7699SOL    HW223997   3.674   5.694   6.353
 7700SOL     OW23998   6.618   5.254   1.886
 7700SOL    HW123999   6.617   5.311   1.804
 7700SOL    HW224000   6.709   5.215   1.898
 7701SOL     OW24001   3.320   1.342   6.605
 7701SOL    HW124002   3.315   1.399   6.687
 7701SOL    HW224003   3.267   1.384   6.532
 7702SOL     OW24004   6.503   6.039   5.666
 7702SOL    HW124005   6.425   5.977   5.675
 7702SOL    HW224006   6.585   5.994   5.702
 7703SOL     OW24007   0.057   6.551   6.313
 7703SOL    HW124008   0.033   6.648   6.308
 7703SOL    HW224009   0.156   6.541   6.312
 7704SOL     OW24010   2.027   2.000   4.737
 7704SOL    HW124011   2.030   2.076   4.672
 7704SOL    HW224012   1.954   1.936   4.712
 7705SOL     OW24013   0.832   4.470   0.509
 7705SOL    HW124014   0.898   4.465   0.584
 7705SOL    HW224015   0.879   4.498   0.425
 7706SOL     OW24016   3.019   3.923   2.551
 7706SOL    HW124017   3.105   3.930   2.601
 7706SOL    HW224018   2.976   3.835   2.570
 7707SOL     OW24019   0.349   5.255   6.178
 7707SOL    HW124020   0.259   5.297   6.190
 7707SOL    HW224021   0.416   5.325   6.154
 7708SOL     OW24022   0.347   0.304   4.364
 7708SOL    HW124023   0.346   0.279   4.461
 7708SOL    HW224024   0.424   0.365   4.346
 7709SOL     OW24025   6.451   4.764   1.062
 7709SOL    HW124026   6.541   4.807   1.070
 7709SOL    HW224027   6.384   4.818   1.111
 7710SOL     OW24028   6.618   3.116   2.601
 7710SOL    HW124029   6.656   3.174   2.673
 7710SOL    HW224030   6.691   3.062   2.559
 7711SOL     OW24031   0.981   3.897   3.315
 7711SOL    HW124032   0.970   3.838   3.395
 7711SOL    HW224033   1.069   3.944   3.320
 7712SOL     OW24034   1.075   4.553   4.441
 7712SOL    HW124035   1.162   4.507   4.459
 7712SOL    HW224036   1.024   4.503   4.371
 7713SOL     OW24037   1.044   5.700   0.660
 7713SOL    HW124038   1.083   5.791   0.671
 7713SOL    HW224039   1.110   5.631   0.690
 7714SOL     OW24040   5.488   1.475   5.224
 7714SOL    HW124041   5.454   1.385   5.254
 7714SOL    HW224042   5.441   1.502   5.141
 7715SOL     OW24043   4.080   3.611   6.685
 7715SOL    HW124044   4.058   3.703   6.653
 7715SOL    HW224045   4.175   3.589   6.664
 7716SOL     OW24046   1.245   1.229   6.540
 7716SOL    HW124047   1.312   1.247   6.467
 7716SOL    HW224048   1.293   1.196   6.621
 7717SOL     OW24049   0.928   1.283   6.238
 7717SOL    HW124050   0.971   1.285   6.329
 7717SOL    HW224051   0.952   1.366   6.188
 7718SOL     OW24052   0.352   3.679   3.678
 7718SOL    HW124053   0.266   3.723   3.705
 7718SOL    HW224054   0.416   3.748   3.646
 7719SOL     OW24055   2.007   6.447   4.903
 7719SOL    HW124056   1.914   6.427   4.936
 7719SOL    HW224057   2.071   6.444   4.980
 7720SOL     OW24058   4.826   1.590   6.849
 7720SOL    HW124059   4.826   1.556   6.755
 7720SOL    HW224060   4.884   1.671   6.855
 7721SOL     OW24061   6.016   5.452   2.607
 7721SOL    HW124062   5.919   5.470   2.625
 7721SOL    HW224063   6.025   5.362   2.564
 7722SOL     OW24064   0.230   5.937   4.674
 7722SOL    HW124065   0.144   5.982   4.696
 7722SOL    HW224066   0.287   5.932   4.756
 7723SOL     OW24067   4.252   4.389   0.005
 7723SOL    HW124068   4.202   4.420   0.085
 7723SOL    HW224069   4.335   4.341   0.034
 7724SOL     OW24070   1.138   4.739   0.515
 7724SOL    HW124071   1.228   4.709   0.547
 7724SOL    HW224072   1.092   4.662   0.469
 7725SOL     OW24073   5.257   3.285   4.706
 7725SOL    HW124074   5.253   3.189   4.677
 7725SOL    HW224075   5.350   3.308   4.733
 7726SOL     OW24076   2.111   3.153   0.351
 7726SOL    HW124077   2.156   3.204   0.424
 7726SOL    HW224078   2.012   3.150   0.367
 7727SOL     OW24079   5.737   0.446   2.990
 7727SOL    HW124080   5.656   0.412   2.942
 7727SOL    HW224081   5.734   0.545   2.993
 7728SOL     OW24082   2.306   3.281   5.326
 7728SOL    HW124083   2.338   3.210   5.390
 7728SOL    HW224084   2.283   3.239   5.239
 7729SOL     OW24085   6.895   1.032   2.607
 7729SOL    HW124086   6.807   1.035   2.656
 7729SOL    HW224087   6.966   1.073   2.664
 7730SOL     OW24088   5.974   3.773   6.063
 7730SOL    HW124089   6.057   3.719   6.050
 7730SOL    HW224090   5.974   3.850   6.000
 7731SOL     OW24091   6.598   0.836   6.405
 7731SOL    HW124092   6.593   0.774   6.483
 7731SOL    HW224093   6.694   0.861   6.389
 7732SOL     OW24094   4.271   1.071   7.017
 7732SOL    HW124095   4.271   1.168   6.992
 7732SOL    HW224096   4.267   1.062   0.095
 7733SOL     OW24097   6.278   6.280   1.304
 7733SOL    HW124098   6.262   6.193   1.256
 7733SOL    HW224099   6.217   6.350   1.268
 7734SOL     OW24100   4.143   3.472   3.536
 7734SOL    HW124101   4.211   3.544   3.524
 7734SOL    HW224102   4.056   3.513   3.564
 7735SOL     OW24103   0.975   6.024   0.769
 7735SOL    HW124104   0.912   5.958   0.811
 7735SOL    HW224105   0.925   6.107   0.745
 7736SOL     OW24106   1.604   1.346   1.052
 7736SOL    HW124107   1.594   1.271   0.987
 7736SOL    HW224108   1.515   1.390   1.066
 7737SOL     OW24109   4.680   4.659   6.376
 7737SOL    HW124110   4.692   4.561   6.387
 7737SOL    HW224111   4.635   4.697   6.457
 7738SOL     OW24112   1.432   1.327   5.761
 7738SOL    HW124113   1.479   1.298   5.844
 7738SOL    HW224114   1.497   1.336   5.686
 7739SOL     OW24115   0.849   3.036   6.650
 7739SOL    HW124116   0.762   3.076   6.676
 7739SOL    HW224117   0.833   2.953   6.597
 7740SOL     OW24118   2.135   1.176   4.276
 7740SOL    HW124119   2.126   1.077   4.286
 7740SOL    HW224120   2.139   1.219   4.366
 7741SOL     OW24121   6.760   4.090   6.216
 7741SOL    HW124122   6.734   4.179   6.180
 7741SOL    HW224123   6.756   4.092   6.316
 7742SOL     OW24124   4.579   2.084   3.875
 7742SOL    HW124125   4.491   2.127   3.897
 7742SOL    HW224126   4.570   1.985   3.883
 7743SOL     OW24127   3.421   0.882   6.425
 7743SOL    HW124128   3.445   0.879   6.328
 7743SOL    HW224129   3.443   0.973   6.462
 7744SOL     OW24130   0.427   6.622   4.843
 7744SOL    HW124131   0.354   6.686   4.819
 7744SOL    HW224132   0.483   6.604   4.762
 7745SOL     OW24133   2.781   0.074   0.336
 7745SOL    HW124134   2.818   7.002   0.339
 7745SOL    HW224135   2.716   0.086   0.410
 7746SOL     OW24136   7.011   6.336   0.629
 7746SOL    HW124137   6.915   6.360   0.612
 7746SOL    HW224138   0.049   6.409   0.596
 7747SOL     OW24139   0.078   5.980   1.659
 7747SOL    HW124140   0.016   5.905   1.683
 7747SOL    HW224141   0.065   6.004   1.563
 7748SOL     OW24142   4.323   1.066   6.150
 7748SOL    HW124143   4.347   1.007   6.228
 7748SOL    HW224144   4.315   1.160   6.181
 7749SOL     OW24145   3.007   3.936   2.880
 7749SOL    HW124146   3.044   4.001   2.815
 7749SOL    HW224147   3.032   3.964   2.973
 7750SOL     OW24148   5.523   4.590   6.059
 7750SOL    HW124149   5.475   4.589   6.147
 7750SOL    HW224150   5.521   4.499   6.018
 7751SOL     OW24151   0.293   1.553   5.170
 7751SOL    HW124152   0.210   1.503   5.148
 7751SOL    HW224153   0.341   1.506   5.245
 7752SOL     OW24154   5.990   3.974   5.860
 7752SOL    HW124155   5.920   4.020   5.805
 7752SOL    HW224156   6.081   4.000   5.828
 7753SOL     OW24157   3.083   0.921   5.019
 7753SOL    HW124158   3.095   0.940   4.922
 7753SOL    HW224159   3.071   1.007   5.068
 7754SOL     OW24160   6.597   1.014   0.844
 7754SOL    HW124161   6.504   1.011   0.808
 7754SOL    HW224162   6.639   0.924   0.838
 7755SOL     OW24163   1.563   5.939   5.422
 7755SOL    HW124164   1.470   5.976   5.419
 7755SOL    HW224165   1.606   5.968   5.507
 7756SOL     OW24166   3.651   6.031   3.040
 7756SOL    HW124167   3.691   5.980   2.964
 7756SOL    HW224168   3.724   6.082   3.087
 7757SOL     OW24169   3.508   0.608   5.756
 7757SOL    HW124170   3.491   0.593   5.854
 7757SOL    HW224171   3.593   0.658   5.745
 7758SOL     OW24172   2.402   2.152   6.330
 7758SOL    HW124173   2.312   2.176   6.369
 7758SOL    HW224174   2.430   2.223   6.266
 7759SOL     OW24175   2.076   0.686   4.927
 7759SOL    HW124176   2.060   0.638   4.841
 7759SOL    HW224177   2.045   0.781   4.918
 7760SOL     OW24178   5.436   2.319   3.203
 7760SOL    HW124179   5.506   2.248   3.197
 7760SOL    HW224180   5.377   2.315   3.122
 7761SOL     OW24181   4.617   1.384   6.817
 7761SOL    HW124182   4.538   1.421   6.866
 7761SOL    HW224183   4.699   1.436   6.841
 7762SOL     OW24184   1.361   2.403   0.662
 7762SOL    HW124185   1.305   2.449   0.593
 7762SOL    HW224186   1.458   2.424   0.646
 7763SOL     OW24187   2.675   2.625   0.874
 7763SOL    HW124188   2.775   2.629   0.877
 7763SOL    HW224189   2.644   2.549   0.931
 7764SOL     OW24190   3.310   3.098   1.997
 7764SOL    HW124191   3.225   3.046   1.989
 7764SOL    HW224192   3.373   3.051   2.060
 7765SOL     OW24193   6.878   1.590   2.158
 7765SOL    HW124194   6.914   1.564   2.248
 7765SOL    HW224195   6.793   1.641   2.170
 7766SOL     OW24196   0.157   2.857   6.520
 7766SOL    HW124197   0.124   2.763   6.513
 7766SOL    HW224198   0.246   2.858   6.566
 7767SOL     OW24199   5.704   4.013   5.158
 7767SOL    HW124200   5.786   4.060   5.193
 7767SOL    HW224201   5.718   3.990   5.062
 7768SOL     OW24202   3.440   4.901   1.452
 7768SOL    HW124203   3.410   4.956   1.530
 7768SOL    HW224204   3.531   4.864   1.470
 7769SOL     OW24205   5.657   2.063   2.858
 7769SOL    HW124206   5.701   2.127   2.795
 7769SOL    HW224207   5.599   2.000   2.806
 7770SOL     OW24208   3.581   6.510   1.202
 7770SOL    HW124209   3.517   6.435   1.184
 7770SOL    HW224210   3.675   6.476   1.192
 7771SOL     OW24211   1.712   1.307   4.637
 7771SOL    HW124212   1.727   1.374   4.710
 7771SOL    HW224213   1.754   1.340   4.553
 7772SOL     OW24214   5.399   0.530   5.291
 7772SOL    HW124215   5.429   0.593   5.363
 7772SOL    HW224216   5.477   0.474   5.261
 7773SOL     OW24217   4.002   4.737   5.883
 7773SOL    HW124218   4.000   4.828   5.842
 7773SOL    HW224219   3.911   4.695   5.875
 7774SOL     OW24220   5.005   1.804   6.835
 7774SOL    HW124221   5.059   1.850   6.905
 7774SOL    HW224222   5.061   1.789   6.754
 7775SOL     OW24223   1.646   6.908   2.511
 7775SOL    HW124224   1.550   6.882   2.500
 7775SOL    HW224225   1.704   6.829   2.493
 7776SOL     OW24226   3.455   4.682   0.602
 7776SOL    HW124227   3.392   4.616   0.644
 7776SOL    HW224228   3.437   4.773   0.638
 7777SOL     OW24229   0.425   0.610   6.491
 7777SOL    HW124230   0.338   0.569   6.463
 7777SOL    HW224231   0.481   0.542   6.538
 7778SOL     OW24232   4.704   1.933   2.078
 7778SOL    HW124233   4.717   1.903   2.172
 7778SOL    HW224234   4.636   2.007   2.076
 7779SOL     OW24235   4.053   3.045   0.435
 7779SOL    HW124236   4.003   3.131   0.421
 7779SOL    HW224237   4.118   3.032   0.360
 7780SOL     OW24238   0.843   0.371   4.380
 7780SOL    HW124239   0.854   0.318   4.296
 7780SOL    HW224240   0.859   0.312   4.459
 7781SOL     OW24241   1.848   4.022   5.835
 7781SOL    HW124242   1.792   4.006   5.916
 7781SOL    HW224243   1.792   4.015   5.753
 7782SOL     OW24244   4.668   4.705   0.485
 7782SOL    HW124245   4.628   4.774   0.425
 7782SOL    HW224246   4.622   4.707   0.573
 7783SOL     OW24247   3.174   5.970   6.828
 7783SOL    HW124248   3.216   5.906   6.892
 7783SOL    HW224249   3.244   6.008   6.767
 7784SOL     OW24250   6.224   3.675   0.507
 7784SOL    HW124251   6.313   3.634   0.486
 7784SOL    HW224252   6.184   3.712   0.423
 7785SOL     OW24253   1.272   6.426   6.178
 7785SOL    HW124254   1.340   6.440   6.250
 7785SOL    HW224255   1.245   6.514   6.139
 7786SOL     OW24256   3.784   4.178   5.217
 7786SOL    HW124257   3.883   4.183   5.227
 7786SOL    HW224258   3.761   4.136   5.129
 7787SOL     OW24259   3.256   2.139   5.676
 7787SOL    HW124260   3.209   2.181   5.598
 7787SOL    HW224261   3.351   2.171   5.678
 7788SOL     OW24262   6.924   2.464   1.043
 7788SOL    HW124263   6.868   2.526   1.097
 7788SOL    HW224264   6.866   2.397   0.998
 7789SOL     OW24265   1.762   0.100   1.771
 7789SOL    HW124266   1.745   0.121   1.867
 7789SOL    HW224267   1.724   0.172   1.714
 7790SOL     OW24268   0.101   3.578   2.646
 7790SOL    HW124269   0.157   3.536   2.575
 7790SOL    HW224270   0.028   3.632   2.604
 7791SOL     OW24271   0.162   5.377   5.443
 7791SOL    HW124272   0.081   5.329   5.408
 7791SOL    HW224273   0.240   5.359   5.382
 7792SOL     OW24274   1.882   5.998   6.267
 7792SOL    HW124275   1.888   5.943   6.183
 7792SOL    HW224276   1.848   6.089   6.245
 7793SOL     OW24277   2.283   0.773   6.419
 7793SOL    HW124278   2.236   0.857   6.391
 7793SOL    HW224279   2.275   0.763   6.518
 7794SOL     OW24280   5.420   5.193   2.624
 7794SOL    HW124281   5.479   5.263   2.666
 7794SOL    HW224282   5.363   5.236   2.554
 7795SOL     OW24283   1.241   4.394   6.315
 7795SOL    HW124284   1.156   4.434   6.283
 7795SOL    HW224285   1.301   4.375   6.237
 7796SOL     OW24286   3.928   3.308   5.147
 7796SOL    HW124287   3.858   3.351   5.089
 7796SOL    HW224288   4.015   3.356   5.135
 7797SOL     OW24289   1.442   6.611   3.651
 7797SOL    HW124290   1.506   6.586   3.725
 7797SOL    HW224291   1.490   6.669   3.585
 7798SOL     OW24292   4.007   5.397   6.139
 7798SOL    HW124293   4.064   5.478   6.151
 7798SOL    HW224294   3.975   5.365   6.228
 7799SOL     OW24295   6.031   6.033   2.065
 7799SOL    HW124296   6.036   5.960   1.997
 7799SOL    HW224297   5.979   6.001   2.144
 7800SOL     OW24298   0.815   6.068   1.783
 7800SOL    HW124299   0.909   6.061   1.816
 7800SOL    HW224300   0.783   6.162   1.792
 7801SOL     OW24301   4.527   2.285   5.359
 7801SOL    HW124302   4.475   2.317   5.438
 7801SOL    HW224303   4.553   2.190   5.372
 7802SOL     OW24304   5.590   2.857   6.572
 7802SOL    HW124305   5.497   2.822   6.578
 7802SOL    HW224306   5.652   2.782   6.547
 7803SOL     OW24307   3.517   3.610   6.141
 7803SOL    HW124308   3.552   3.583   6.052
 7803SOL    HW224309   3.468   3.534   6.183
 7804SOL     OW24310   5.197   0.986   6.228
 7804SOL    HW124311   5.258   1.041   6.286
 7804SOL    HW224312   5.130   0.938   6.284
 7805SOL     OW24313   5.547   3.029   1.445
 7805SOL    HW124314   5.556   3.007   1.543
 7805SOL    HW224315   5.547   2.945   1.392
 7806SOL     OW24316   4.975   2.698   0.504
 7806SOL    HW124317   5.055   2.696   0.444
 7806SOL    HW224318   4.971   2.787   0.550
 7807SOL     OW24319   0.436   3.973   0.047
 7807SOL    HW124320   0.493   3.971   0.129
 7807SOL    HW224321   0.477   4.035   7.001
 7808SOL     OW24322   0.055   1.380   5.178
 7808SOL    HW124323   7.020   1.396   5.259
 7808SOL    HW224324   0.085   1.285   5.177
 7809SOL     OW24325   1.299   5.683   5.345
 7809SOL    HW124326   1.276   5.724   5.433
 7809SOL    HW224327   1.343   5.594   5.361
 7810SOL     OW24328   2.940   1.548   6.864
 7810SOL    HW124329   2.855   1.502   6.890
 7810SOL    HW224330   2.940   1.566   6.766
 7811SOL     OW24331   6.447   4.959   5.119
 7811SOL    HW124332   6.413   4.962   5.025
 7811SOL    HW224333   6.386   4.904   5.175
 7812SOL     OW24334   0.425   2.006   3.408
 7812SOL    HW124335   0.511   2.044   3.376
 7812SOL    HW224336   0.435   1.907   3.423
 7813SOL     OW24337   6.187   1.710   0.940
 7813SOL    HW124338   6.214   1.738   0.848
 7813SOL    HW224339   6.092   1.679   0.939
 7814SOL     OW24340   2.087   2.938   4.311
 7814SOL    HW124341   2.058   3.032   4.326
 7814SOL    HW224342   2.044   2.902   4.228
 7815SOL     OW24343   6.963   1.966   5.582
 7815SOL    HW124344   6.910   2.028   5.641
 7815SOL    HW224345   6.905   1.889   5.555
 7816SOL     OW24346   0.424   4.796   4.962
 7816SOL    HW124347   0.509   4.847   4.976
 7816SOL    HW224348   0.389   4.763   5.050
 7817SOL     OW24349   5.584   3.085   5.495
 7817SOL    HW124350   5.488   3.113   5.494
 7817SOL    HW224351   5.618   3.080   5.401
 7818SOL     OW24352   5.581   3.409   3.750
 7818SOL    HW124353   5.509   3.473   3.721
 7818SOL    HW224354   5.657   3.460   3.789
 7819SOL     OW24355   0.865   1.089   1.191
 7819SOL    HW124356   0.948   1.050   1.233
 7819SOL    HW224357   0.891   1.157   1.122
 7820SOL     OW24358   2.906   6.832   6.380
 7820SOL    HW124359   2.839   6.775   6.333
 7820SOL    HW224360   2.995   6.786   6.380
 7821SOL     OW24361   2.880   6.157   0.797
 7821SOL    HW124362   2.924   6.124   0.881
 7821SOL    HW224363   2.845   6.249   0.812
 7822SOL     OW24364   1.447   6.592   5.154
 7822SOL    HW124365   1.538   6.619   5.182
 7822SOL    HW224366   1.381   6.662   5.181
 7823SOL     OW24367   1.826   3.292   5.391
 7823SOL    HW124368   1.863   3.384   5.374
 7823SOL    HW224369   1.779   3.291   5.479
 7824SOL     OW24370   1.119   3.120   5.247
 7824SOL    HW124371   1.090   3.190   5.313
 7824SOL    HW224372   1.205   3.079   5.278
 7825SOL     OW24373   2.251   0.822   0.047
 7825SOL    HW124374   2.164   0.775   0.033
 7825SOL    HW224375   2.294   0.839   6.979
 7826SOL     OW24376   0.797   4.097   5.870
 7826SOL    HW124377   0.704   4.063   5.885
 7826SOL    HW224378   0.849   4.092   5.956
 7827SOL     OW24379   6.165   4.988   3.988
 7827SOL    HW124380   6.234   5.030   3.929
 7827SOL    HW224381   6.077   5.031   3.972
 7828SOL     OW24382   1.257   6.023   5.964
 7828SOL    HW124383   1.347   6.059   5.985
 7828SOL    HW224384   1.187   6.090   5.990
 7829SOL     OW24385   4.825   4.960   0.699
 7829SOL    HW124386   4.732   4.972   0.665
 7829SOL    HW224387   4.849   4.863   0.700
 7830SOL     OW24388   1.866   5.435   4.446
 7830SOL    HW124389   1.899   5.512   4.499
 7830SOL    HW224390   1.850   5.464   4.351
 7831SOL     OW24391   1.868   0.333   6.396
 7831SOL    HW124392   1.773   0.301   6.392
 7831SOL    HW224393   1.891   0.358   6.490
 7832SOL     OW24394   6.768   1.206   5.252
 7832SOL    HW124395   6.788   1.190   5.155
 7832SOL    HW224396   6.680   1.163   5.275
 7833SOL     OW24397   0.884   0.321   2.948
 7833SOL    HW124398   0.963   0.381   2.962
 7833SOL    HW224399   0.851   0.289   3.037
 7834SOL     OW24400   6.919   3.538   5.100
 7834SOL    HW124401   6.855   3.579   5.035
 7834SOL    HW224402   6.990   3.604   5.123
 7835SOL     OW24403   3.245   2.507   5.691
 7835SOL    HW124404   3.263   2.513   5.789
 7835SOL    HW224405   3.332   2.502   5.642
 7836SOL     OW24406   2.902   3.613   4.911
 7836SOL    HW124407   2.888   3.702   4.867
 7836SOL    HW224408   2.957   3.555   4.852
 7837SOL     OW24409   1.127   5.612   6.834
 7837SOL    HW124410   1.046   5.579   6.784
 7837SOL    HW224411   1.101   5.691   6.890
 7838SOL     OW24412   4.267   5.007   1.605
 7838SOL    HW124413   4.191   4.956   1.646
 7838SOL    HW224414   4.334   4.943   1.569
 7839SOL     OW24415   6.473   3.870   4.964
 7839SOL    HW124416   6.516   3.851   4.875
 7839SOL    HW224417   6.463   3.968   4.977
 7840SOL     OW24418   2.221   2.634   3.285
 7840SOL    HW124419   2.268   2.707   3.335
 7840SOL    HW224420   2.155   2.590   3.346
 7841SOL     OW24421   4.794   1.670   5.577
 7841SOL    HW124422   4.784   1.765   5.547
 7841SOL    HW224423   4.833   1.668   5.669
 7842SOL     OW24424   0.894   0.381   1.210
 7842SOL    HW124425   0.977   0.432   1.187
 7842SOL    HW224426   0.888   0.300   1.152
 7843SOL     OW24427   6.421   6.441   1.967
 7843SOL    HW124428   6.414   6.459   1.869
 7843SOL    HW224429   6.429   6.343   1.983
 7844SOL     OW24430   4.104   0.153   2.395
 7844SOL    HW124431   4.043   0.087   2.351
 7844SOL    HW224432   4.168   0.105   2.455
 7845SOL     OW24433   6.575   3.086   1.487
 7845SOL    HW124434   6.647   3.105   1.420
 7845SOL    HW224435   6.486   3.111   1.449
 7846SOL     OW24436   0.538   1.511   0.279
 7846SOL    HW124437   0.610   1.562   0.232
 7846SOL    HW224438   0.488   1.572   0.340
 7847SOL     OW24439   5.586   3.952   5.999
 7847SOL    HW124440   5.640   4.031   5.969
 7847SOL    HW224441   5.489   3.975   5.994
 7848SOL     OW24442   4.534   4.954   0.548
 7848SOL    HW124443   4.456   5.016   0.562
 7848SOL    HW224444   4.537   4.888   0.623
 7849SOL     OW24445   4.428   4.813   6.855
 7849SOL    HW124446   4.332   4.804   6.829
 7849SOL    HW224447   4.486   4.778   6.782
 7850SOL     OW24448   6.629   0.711   3.453
 7850SOL    HW124449   6.666   0.630   3.500
 7850SOL    HW224450   6.548   0.743   3.502
 7851SOL     OW24451   0.345   4.800   0.609
 7851SOL    HW124452   0.373   4.807   0.705
 7851SOL    HW224453   0.378   4.880   0.559
 7852SOL     OW24454   1.171   3.511   6.080
 7852SOL    HW124455   1.243   3.443   6.096
 7852SOL    HW224456   1.140   3.503   5.985
 7853SOL     OW24457   4.427   2.977   1.722
 7853SOL    HW124458   4.501   2.957   1.786
 7853SOL    HW224459   4.438   3.070   1.686
 7854SOL     OW24460   4.196   1.131   1.099
 7854SOL    HW124461   4.179   1.230   1.100
 7854SOL    HW224462   4.125   1.086   1.045
 7855SOL     OW24463   5.061   6.246   3.940
 7855SOL    HW124464   5.132   6.202   3.885
 7855SOL    HW224465   5.088   6.340   3.961
 7856SOL     OW24466   2.217   6.325   6.374
 7856SOL    HW124467   2.217   6.385   6.454
 7856SOL    HW224468   2.266   6.369   6.299
 7857SOL     OW24469   6.815   5.172   0.474
 7857SOL    HW124470   6.727   5.125   0.475
 7857SOL    HW224471   6.889   5.105   0.466
 7858SOL     OW24472   0.722   3.960   6.208
 7858SOL    HW124473   0.683   3.869   6.193
 7858SOL    HW224474   0.651   4.029   6.199
 7859SOL     OW24475   4.737   2.108   1.390
 7859SOL    HW124476   4.687   2.047   1.451
 7859SOL    HW224477   4.683   2.125   1.307
 7860SOL     OW24478   2.604   1.849   3.314
 7860SOL    HW124479   2.581   1.902   3.233
 7860SOL    HW224480   2.621   1.910   3.391
 7861SOL     OW24481   1.770   5.764   0.877
 7861SOL    HW124482   1.849   5.703   0.870
 7861SOL    HW224483   1.740   5.769   0.972
 7862SOL     OW24484   1.269   6.598   0.222
 7862SOL    HW124485   1.234   6.505   0.235
 7862SOL    HW224486   1.215   6.645   0.152
 7863SOL     OW24487   0.090   3.835   3.696
 7863SOL    HW124488   0.025   3.885   3.639
 7863SOL    HW224489   0.040   3.777   3.761
 7864SOL     OW24490   3.368   5.403   4.916
 7864SOL    HW124491   3.422   5.487   4.912
 7864SOL    HW224492   3.327   5.395   5.007
 7865SOL     OW24493   6.124   5.225   3.659
 7865SOL    HW124494   6.060   5.277   3.716
 7865SOL    HW224495   6.205   5.202   3.712
 7866SOL     OW24496   0.667   0.956   5.461
 7866SOL    HW124497   0.678   1.055   5.469
 7866SOL    HW224498   0.688   0.913   5.549
 7867SOL     OW24499   3.951   5.234   2.733
 7867SOL    HW124500   4.030   5.232   2.794
 7867SOL    HW224501   3.911   5.142   2.727
 7868SOL     OW24502   3.776   6.092   1.287
 7868SOL    HW124503   3.736   6.002   1.302
 7868SOL    HW224504   3.758   6.150   1.366
 7869SOL     OW24505   5.677   4.994   6.828
 7869SOL    HW124506   5.742   4.973   6.756
 7869SOL    HW224507   5.685   4.926   6.902
 7870SOL     OW24508   6.745   0.135   3.503
 7870SOL    HW124509   6.800   0.218   3.491
 7870SOL    HW224510   6.784   0.081   3.577
 7871SOL     OW24511   4.565   1.065   0.711
 7871SOL    HW124512   4.471   1.063   0.677
 7871SOL    HW224513   4.608   0.976   0.697
 7872SOL     OW24514   6.926   4.600   4.106
 7872SOL    HW124515   6.870   4.565   4.031
 7872SOL    HW224516   6.991   4.531   4.136
 7873SOL     OW24517   4.382   2.482   0.042
 7873SOL    HW124518   4.296   2.433   0.055
 7873SOL    HW224519   4.453   2.418   0.010
 7874SOL     OW24520   6.586   2.441   0.040
 7874SOL    HW124521   6.552   2.531   0.068
 7874SOL    HW224522   6.508   2.381   0.020
 7875SOL     OW24523   6.864   4.782   0.020
 7875SOL    HW124524   6.869   4.740   0.111
 7875SOL    HW224525   6.931   4.739   6.981
 7876SOL     OW24526   0.999   6.254   3.162
 7876SOL    HW124527   0.997   6.353   3.153
 7876SOL    HW224528   1.094   6.222   3.161
 7877SOL     OW24529   0.822   2.857   1.562
 7877SOL    HW124530   0.883   2.922   1.607
 7877SOL    HW224531   0.776   2.901   1.486
 7878SOL     OW24532   3.735   0.739   2.498
 7878SOL    HW124533   3.744   0.820   2.440
 7878SOL    HW224534   3.658   0.684   2.466
 7879SOL     OW24535   2.618   5.595   1.847
 7879SOL    HW124536   2.596   5.540   1.766
 7879SOL    HW224537   2.572   5.557   1.927
 7880SOL     OW24538   1.082   4.485   2.111
 7880SOL    HW124539   1.181   4.481   2.103
 7880SOL    HW224540   1.042   4.403   2.069
 7881SOL     OW24541   5.018   2.774   3.305
 7881SOL    HW124542   5.065   2.806   3.222
 7881SOL    HW224543   5.073   2.800   3.385
 7882SOL     OW24544   0.163   2.437   6.797
 7882SOL    HW124545   0.118   2.400   6.878
 7882SOL    HW224546   0.108   2.418   6.716
 7883SOL     OW24547   0.420   6.587   4.538
 7883SOL    HW124548   0.344   6.638   4.578
 7883SOL    HW224549   0.486   6.651   4.498
 7884SOL     OW24550   1.558   2.823   4.048
 7884SOL    HW124551   1.505   2.907   4.033
 7884SOL    HW224552   1.580   2.814   4.145
 7885SOL     OW24553   6.908   5.819   0.071
 7885SOL    HW124554   6.978   5.824   0.000
 7885SOL    HW224555   6.836   5.884   0.052
 7886SOL     OW24556   4.911   3.919   0.308
 7886SOL    HW124557   4.969   3.977   0.251
 7886SOL    HW224558   4.830   3.970   0.337
 7887SOL     OW24559   4.550   1.842   6.504
 7887SOL    HW124560   4.621   1.864   6.570
 7887SOL    HW224561   4.478   1.912   6.509
 7888SOL     OW24562   4.183   5.737   4.230
 7888SOL    HW124563   4.104   5.768   4.177
 7888SOL    HW224564   4.204   5.642   4.206
 7889SOL     OW24565   6.385   4.854   3.590
 7889SOL    HW124566   6.368   4.849   3.492
 7889SOL    HW224567   6.331   4.785   3.638
 7890SOL     OW24568   2.094   3.825   2.595
 7890SOL    HW124569   2.017   3.889   2.601
 7890SOL    HW224570   2.131   3.827   2.502
 7891SOL     OW24571   0.277   4.198   3.073
 7891SOL    HW124572   0.331   4.121   3.106
 7891SOL    HW224573   0.333   4.280   3.071
 7892SOL     OW24574   2.297   2.288   4.992
 7892SOL    HW124575   2.394   2.288   5.019
 7892SOL    HW224576   2.287   2.335   4.904
 7893SOL     OW24577   5.219   6.570   1.188
 7893SOL    HW124578   5.268   6.498   1.236
 7893SOL    HW224579   5.161   6.620   1.253
 7894SOL     OW24580   2.975   0.231   1.188
 7894SOL    HW124581   3.040   0.301   1.159
 7894SOL    HW224582   3.009   0.141   1.160
 7895SOL     OW24583   0.493   1.546   4.268
 7895SOL    HW124584   0.587   1.572   4.250
 7895SOL    HW224585   0.460   1.487   4.193
 7896SOL     OW24586   3.921   2.550   6.319
 7896SOL    HW124587   3.953   2.472   6.373
 7896SOL    HW224588   3.904   2.627   6.380
 7897SOL     OW24589   2.883   3.626   0.184
 7897SOL    HW124590   2.933   3.713   0.176
 7897SOL    HW224591   2.949   3.551   0.190
 7898SOL     OW24592   5.108   1.460   4.166
 7898SOL    HW124593   5.084   1.368   4.133
 7898SOL    HW224594   5.041   1.488   4.235
 7899SOL     OW24595   4.553   0.821   1.443
 7899SOL    HW124596   4.560   0.805   1.345
 7899SOL    HW224597   4.459   0.843   1.467
 7900SOL     OW24598   0.428   6.064   1.532
 7900SOL    HW124599   0.370   5.987   1.560
 7900SOL    HW224600   0.521   6.031   1.517
 7901SOL     OW24601   5.991   4.977   1.190
 7901SOL    HW124602   5.957   4.905   1.251
 7901SOL    HW224603   5.914   5.034   1.160
 7902SOL     OW24604   4.915   4.800   6.247
 7902SOL    HW124605   4.959   4.769   6.332
 7902SOL    HW224606   4.818   4.775   6.250
 7903SOL     OW24607   0.570   2.874   1.759
 7903SOL    HW124608   0.600   2.921   1.676
 7903SOL    HW224609   0.501   2.806   1.736
 7904SOL     OW24610   5.950   2.512   3.425
 7904SOL    HW124611   5.857   2.489   3.454
 7904SOL    HW224612   5.955   2.609   3.403
 7905SOL     OW24613   2.076   1.603   1.921
 7905SOL    HW124614   1.998   1.589   1.982
 7905SOL    HW224615   2.123   1.688   1.946
 7906SOL     OW24616   1.336   4.803   0.023
 7906SOL    HW124617   1.247   4.806   7.000
 7906SOL    HW224618   1.405   4.843   6.984
 7907SOL     OW24619   0.546   2.657   2.471
 7907SOL    HW124620   0.609   2.579   2.481
 7907SOL    HW224621   0.538   2.705   2.559
 7908SOL     OW24622   0.687   1.390   2.903
 7908SOL    HW124623   0.716   1.486   2.894
 7908SOL    HW224624   0.623   1.383   2.979
 7909SOL     OW24625   4.448   6.304   5.208
 7909SOL    HW124626   4.417   6.391   5.245
 7909SOL    HW224627   4.437   6.232   5.277
 7910SOL     OW24628   6.111   2.996   6.154
 7910SOL    HW124629   6.145   2.952   6.071
 7910SOL    HW224630   6.121   3.095   6.146
 7911SOL     OW24631   7.013   5.883   6.132
 7911SOL    HW124632   6.920   5.848   6.138
 7911SOL    HW224633   0.019   5.888   6.036
 7912SOL     OW24634   0.093   5.575   4.767
 7912SOL    HW124635   0.180   5.563   4.718
 7912SOL    HW224636   0.030   5.502   4.741
 7913SOL     OW24637   1.716   6.374   6.546
 7913SOL    HW124638   1.700   6.456   6.599
 7913SOL    HW224639   1.809   6.375   6.509
 7914SOL     OW24640   5.989   4.761   0.620
 7914SOL    HW124641   6.005   4.751   0.521
 7914SOL    HW224642   5.981   4.670   0.661
 7915SOL     OW24643   3.230   1.158   3.001
 7915SOL    HW124644   3.156   1.211   3.042
 7915SOL    HW224645   3.255   1.083   3.061
 7916SOL     OW24646   4.349   3.675   5.263
 7916SOL    HW124647   4.425   3.617   5.292
 7916SOL    HW224648   4.360   3.767   5.301
 7917SOL     OW24649   3.758   4.112   4.101
 7917SOL    HW124650   3.687   4.046   4.128
 7917SOL    HW224651   3.715   4.192   4.061
 7918SOL     OW24652   5.540   1.969   1.988
 7918SOL    HW124653   5.522   1.967   2.086
 7918SOL    HW224654   5.528   2.062   1.953
 7919SOL     OW24655   5.345   4.250   2.633
 7919SOL    HW124656   5.348   4.349   2.619
 7919SOL    HW224657   5.390   4.204   2.557
 7920SOL     OW24658   6.950   6.502   1.074
 7920SOL    HW124659   6.982   6.429   1.013
 7920SOL    HW224660   6.980   6.483   1.167
 7921SOL     OW24661   3.451   5.048   2.337
 7921SOL    HW124662   3.374   4.998   2.377
 7921SOL    HW224663   3.435   5.060   2.239
 7922SOL     OW24664   0.994   4.388   4.730
 7922SOL    HW124665   1.016   4.481   4.759
 7922SOL    HW224666   0.913   4.390   4.671
 7923SOL     OW24667   1.158   2.570   3.508
 7923SOL    HW124668   1.143   2.499   3.440
 7923SOL    HW224669   1.095   2.556   3.585
 7924SOL     OW24670   2.818   1.116   3.677
 7924SOL    HW124671   2.808   1.100   3.775
 7924SOL    HW224672   2.727   1.115   3.634
 7925SOL     OW24673   1.131   1.025   0.186
 7925SOL    HW124674   1.126   1.079   0.271
 7925SOL    HW224675   1.066   1.063   0.120
 7926SOL     OW24676   3.098   0.647   1.741
 7926SOL    HW124677   3.119   0.702   1.660
 7926SOL    HW224678   3.071   0.708   1.816
 7927SOL     OW24679   4.325   5.253   4.776
 7927SOL    HW124680   4.248   5.305   4.737
 7927SOL    HW224681   4.297   5.211   4.862
 7928SOL     OW24682   0.360   4.128   0.480
 7928SOL    HW124683   0.426   4.170   0.418
 7928SOL    HW224684   0.379   4.031   0.488
 7929SOL     OW24685   3.500   4.215   5.053
 7929SOL    HW124686   3.574   4.267   5.097
 7929SOL    HW224687   3.434   4.186   5.122
 7930SOL     OW24688   3.957   6.978   2.264
 7930SOL    HW124689   3.972   6.912   2.337
 7930SOL    HW224690   3.964   6.933   2.175
 7931SOL     OW24691   3.172   3.205   5.645
 7931SOL    HW124692   3.161   3.221   5.547
 7931SOL    HW224693   3.236   3.129   5.660
 7932SOL     OW24694   3.093   1.111   0.694
 7932SOL    HW124695   3.049   1.023   0.712
 7932SOL    HW224696   3.069   1.175   0.767
 7933SOL     OW24697   2.246   1.474   6.046
 7933SOL    HW124698   2.298   1.391   6.065
 7933SOL    HW224699   2.153   1.450   6.021
 7934SOL     OW24700   4.190   1.978   5.981
 7934SOL    HW124701   4.273   1.954   6.032
 7934SOL    HW224702   4.173   2.076   5.990
 7935SOL     OW24703   4.784   5.806   1.920
 7935SOL    HW124704   4.799   5.731   1.856
 7935SOL    HW224705   4.730   5.878   1.876
 7936SOL     OW24706   3.849   6.207   1.784
 7936SOL    HW124707   3.801   6.267   1.848
 7936SOL    HW224708   3.886   6.128   1.833
 7937SOL     OW24709   5.991   1.816   6.362
 7937SOL    HW124710   6.073   1.857   6.323
 7937SOL    HW224711   5.910   1.856   6.318
 7938SOL     OW24712   6.460   4.711   4.166
 7938SOL    HW124713   6.558   4.725   4.174
 7938SOL    HW224714   6.434   4.626   4.212
 7939SOL     OW24715   6.848   6.283   3.348
 7939SOL    HW124716   6.764   6.229   3.343
 7939SOL    HW224717   6.826   6.376   3.380
 7940SOL     OW24718   1.977   6.034   0.621
 7940SOL    HW124719   1.880   6.012   0.635
 7940SOL    HW224720   2.033   5.980   0.683
 7941SOL     OW24721   0.822   0.745   0.726
 7941SOL    HW124722   0.910   0.791   0.712
 7941SOL    HW224723   0.765   0.800   0.786
 7942SOL     OW24724   1.121   0.107   1.614
 7942SOL    HW124725   1.167   0.196   1.616
 7942SOL    HW224726   1.121   0.067   1.705
 7943SOL     OW24727   5.886   1.884   6.884
 7943SOL    HW124728   5.974   1.903   6.927
 7943SOL    HW224729   5.901   1.830   6.801
 7944SOL     OW24730   6.864   4.326   2.081
 7944SOL    HW124731   6.792   4.258   2.096
 7944SOL    HW224732   6.884   4.372   2.167
 7945SOL     OW24733   5.312   0.107   1.013
 7945SOL    HW124734   5.274   0.032   1.067
 7945SOL    HW224735   5.399   0.136   1.053
 7946SOL     OW24736   2.294   1.502   5.577
 7946SOL    HW124737   2.358   1.548   5.515
 7946SOL    HW224738   2.212   1.475   5.526
 7947SOL     OW24739   4.295   5.336   6.452
 7947SOL    HW124740   4.365   5.315   6.519
 7947SOL    HW224741   4.273   5.253   6.400
 7948SOL     OW24742   1.039   5.148   5.114
 7948SOL    HW124743   1.019   5.064   5.164
 7948SOL    HW224744   0.980   5.222   5.148
 7949SOL     OW24745   6.848   3.011   4.584
 7949SOL    HW124746   6.813   3.103   4.565
 7949SOL    HW224747   6.927   3.018   4.645
 7950SOL     OW24748   2.917   5.508   3.874
 7950SOL    HW124749   2.956   5.599   3.863
 7950SOL    HW224750   2.935   5.454   3.791
 7951SOL     OW24751   2.214   3.557   0.370
 7951SOL    HW124752   2.159   3.550   0.287
 7951SOL    HW224753   2.309   3.574   0.346
 7952SOL     OW24754   5.879   4.263   0.658
 7952SOL    HW124755   5.830   4.296   0.578
 7952SOL    HW224756   5.888   4.163   0.653
 7953SOL     OW24757   1.881   4.264   1.425
 7953SOL    HW124758   1.797   4.317   1.437
 7953SOL    HW224759   1.949   4.293   1.493
 7954SOL     OW24760   5.937   4.726   3.732
 7954SOL    HW124761   5.929   4.815   3.688
 7954SOL    HW224762   5.863   4.714   3.798
 7955SOL     OW24763   1.720   6.783   6.462
 7955SOL    HW124764   1.717   6.871   6.416
 7955SOL    HW224765   1.660   6.718   6.414
 7956SOL     OW24766   5.509   5.490   3.108
 7956SOL    HW124767   5.465   5.573   3.142
 7956SOL    HW224768   5.525   5.500   3.009
 7957SOL     OW24769   1.896   2.654   0.678
 7957SOL    HW124770   1.977   2.643   0.735
 7957SOL    HW224771   1.890   2.749   0.647
 7958SOL     OW24772   2.246   5.401   3.695
 7958SOL    HW124773   2.193   5.481   3.669
 7958SOL    HW224774   2.310   5.425   3.768
 7959SOL     OW24775   4.673   5.508   1.965
 7959SOL    HW124776   4.712   5.552   2.046
 7959SOL    HW224777   4.688   5.409   1.970
 7960SOL     OW24778   1.617   2.266   1.451
 7960SOL    HW124779   1.564   2.345   1.420
 7960SOL    HW224780   1.712   2.275   1.419
 7961SOL     OW24781   0.989   6.192   0.448
 7961SOL    HW124782   1.055   6.136   0.499
 7961SOL    HW224783   0.934   6.133   0.389
 7962SOL     OW24784   1.777   0.093   2.676
 7962SOL    HW124785   1.837   0.128   2.605
 7962SOL    HW224786   1.720   0.019   2.639
 7963SOL     OW24787   0.063   6.177   6.139
 7963SOL    HW124788   0.050   6.078   6.139
 7963SOL    HW224789   0.032   6.215   6.052
 7964SOL     OW24790   6.042   5.405   3.099
 7964SOL    HW124791   6.053   5.454   3.013
 7964SOL    HW224792   5.945   5.398   3.121
 7965SOL     OW24793   4.078   1.604   0.819
 7965SOL    HW124794   4.113   1.675   0.758
 7965SOL    HW224795   4.020   1.541   0.767
 7966SOL     OW24796   0.213   1.205   4.468
 7966SOL    HW124797   0.218   1.285   4.408
 7966SOL    HW224798   0.117   1.182   4.486
 7967SOL     OW24799   2.670   0.762   3.691
 7967SOL    HW124800   2.591   0.704   3.672
 7967SOL    HW224801   2.648   0.857   3.669
 7968SOL     OW24802   2.230   1.258   0.561
 7968SOL    HW124803   2.312   1.276   0.614
 7968SOL    HW224804   2.203   1.162   0.572
 7969SOL     OW24805   3.521   1.743   3.651
 7969SOL    HW124806   3.596   1.809   3.645
 7969SOL    HW224807   3.448   1.779   3.709
 7970SOL     OW24808   0.451   4.413   3.169
 7970SOL    HW124809   0.386   4.487   3.187
 7970SOL    HW224810   0.524   4.447   3.110
 7971SOL     OW24811   3.218   1.910   2.502
 7971SOL    HW124812   3.227   1.994   2.449
 7971SOL    HW224813   3.249   1.926   2.596
 7972SOL     OW24814   5.389   6.138   1.686
 7972SOL    HW124815   5.442   6.206   1.636
 7972SOL    HW224816   5.446   6.097   1.757
 7973SOL     OW24817   5.464   1.832   3.028
 7973SOL    HW124818   5.398   1.849   2.955
 7973SOL    HW224819   5.482   1.918   3.077
 7974SOL     OW24820   4.896   6.178   4.817
 7974SOL    HW124821   4.843   6.149   4.738
 7974SOL    HW224822   4.839   6.170   4.899
 7975SOL     OW24823   1.888   1.561   2.106
 7975SOL    HW124824   1.920   1.504   2.181
 7975SOL    HW224825   1.841   1.642   2.143
 7976SOL     OW24826   0.678   0.238   6.405
 7976SOL    HW124827   0.744   0.166   6.426
 7976SOL    HW224828   0.695   0.272   6.312
 7977SOL     OW24829   5.043   6.049   1.350
 7977SOL    HW124830   4.975   6.024   1.281
 7977SOL    HW224831   5.115   6.103   1.307
 7978SOL     OW24832   3.088   1.704   6.234
 7978SOL    HW124833   3.035   1.676   6.314
 7978SOL    HW224834   3.168   1.755   6.264
 7979SOL     OW24835   4.859   5.575   4.319
 7979SOL    HW124836   4.760   5.582   4.305
 7979SOL    HW224837   4.877   5.540   4.410
 7980SOL     OW24838   2.805   0.556   2.058
 7980SOL    HW124839   2.816   0.649   2.094
 7980SOL    HW224840   2.718   0.519   2.090
 7981SOL     OW24841   0.649   6.426   2.290
 7981SOL    HW124842   0.569   6.394   2.341
 7981SOL    HW224843   0.724   6.443   2.354
 7982SOL     OW24844   0.287   3.135   1.172
 7982SOL    HW124845   0.321   3.122   1.265
 7982SOL    HW224846   0.264   3.046   1.132
 7983SOL     OW24847   5.636   2.281   0.732
 7983SOL    HW124848   5.704   2.267   0.660
 7983SOL    HW224849   5.544   2.269   0.693
 7984SOL     OW24850   6.246   0.396   0.694
 7984SOL    HW124851   6.256   0.494   0.707
 7984SOL    HW224852   6.172   0.378   0.629
 7985SOL     OW24853   0.926   1.089   0.752
 7985SOL    HW124854   0.871   1.018   0.795
 7985SOL    HW224855   0.897   1.178   0.786
 7986SOL     OW24856   4.825   3.638   0.815
 7986SOL    HW124857   4.820   3.566   0.746
 7986SOL    HW224858   4.789   3.723   0.777
 7987SOL     OW24859   0.633   3.671   4.887
 7987SOL    HW124860   0.643   3.573   4.871
 7987SOL    HW224861   0.545   3.688   4.932
 7988SOL     OW24862   2.618   1.174   5.326
 7988SOL    HW124863   2.643   1.129   5.412
 7988SOL    HW224864   2.616   1.107   5.253
 7989SOL     OW24865   3.641   3.535   6.777
 7989SOL    HW124866   3.556   3.524   6.829
 7989SOL    HW224867   3.639   3.622   6.728
 7990SOL     OW24868   2.336   2.820   4.545
 7990SOL    HW124869   2.260   2.884   4.538
 7990SOL    HW224870   2.365   2.813   4.640
 7991SOL     OW24871   2.242   3.103   5.732
 7991SOL    HW124872   2.178   3.177   5.749
 7991SOL    HW224873   2.318   3.136   5.675
 7992SOL     OW24874   2.934   1.478   0.430
 7992SOL    HW124875   2.964   1.547   0.364
 7992SOL    HW224876   2.852   1.432   0.395
 7993SOL     OW24877   2.676   5.630   6.409
 7993SOL    HW124878   2.744   5.651   6.480
 7993SOL    HW224879   2.600   5.580   6.450
 7994SOL     OW24880   5.729   0.108   4.933
 7994SOL    HW124881   5.782   0.072   4.856
 7994SOL    HW224882   5.754   0.203   4.948
 7995SOL     OW24883   4.280   5.279   2.480
 7995SOL    HW124884   4.354   5.222   2.444
 7995SOL    HW224885   4.192   5.244   2.446
 7996SOL     OW24886   4.225   1.630   5.443
 7996SOL    HW124887   4.264   1.713   5.404
 7996SOL    HW224888   4.196   1.568   5.370
 7997SOL     OW24889   5.272   3.091   0.841
 7997SOL    HW124890   5.371   3.082   0.834
 7997SOL    HW224891   5.248   3.133   0.929
 7998SOL     OW24892   6.624   5.206   6.267
 7998SOL    HW124893   6.611   5.207   6.366
 7998SOL    HW224894   6.590   5.120   6.229
 7999SOL     OW24895   2.573   2.609   5.550
 7999SOL    HW124896   2.538   2.664   5.475
 7999SOL    HW224897   2.497   2.563   5.596
 8000SOL     OW24898   4.693   0.290   5.791
 8000SOL    HW124899   4.668   0.268   5.885
 8000SOL    HW224900   4.682   0.388   5.775
 8001SOL     OW24901   2.560   4.809   0.347
 8001SOL    HW124902   2.582   4.851   0.259
 8001SOL    HW224903   2.490   4.864   0.393
 8002SOL     OW24904   4.585   1.850   5.771
 8002SOL    HW124905   4.581   1.752   5.791
 8002SOL    HW224906   4.502   1.895   5.804
 8003SOL     OW24907   4.733   5.184   3.347
 8003SOL    HW124908   4.808   5.220   3.402
 8003SOL    HW224909   4.756   5.092   3.314
 8004SOL     OW24910   1.212   4.051   3.274
 8004SOL    HW124911   1.310   4.050   3.293
 8004SOL    HW224912   1.169   4.123   3.328
 8005SOL     OW24913   1.905   0.968   2.626
 8005SOL    HW124914   1.938   0.942   2.717
 8005SOL    HW224915   1.923   1.065   2.611
 8006SOL     OW24916   4.194   5.779   2.317
 8006SOL    HW124917   4.121   5.801   2.253
 8006SOL    HW224918   4.281   5.815   2.284
 8007SOL     OW24919   0.228   1.185   4.134
 8007SOL    HW124920   0.214   1.089   4.160
 8007SOL    HW224921   0.158   1.211   4.068
 8008SOL     OW24922   5.615   5.191   1.517
 8008SOL    HW124923   5.588   5.171   1.611
 8008SOL    HW224924   5.625   5.106   1.465
 8009SOL     OW24925   6.639   6.501   2.933
 8009SOL    HW124926   6.705   6.437   2.894
 8009SOL    HW224927   6.573   6.529   2.864
 8010SOL     OW24928   2.065   2.215   6.890
 8010SOL    HW124929   2.094   2.163   6.970
 8010SOL    HW224930   2.051   2.311   6.915
 8011SOL     OW24931   2.375   2.972   6.983
 8011SOL    HW124932   2.387   3.008   0.055
 8011SOL    HW224933   2.455   2.918   6.958
 8012SOL     OW24934   2.126   6.325   3.419
 8012SOL    HW124935   2.141   6.421   3.441
 8012SOL    HW224936   2.065   6.284   3.486
 8013SOL     OW24937   6.427   5.447   4.964
 8013SOL    HW124938   6.451   5.361   5.010
 8013SOL    HW224939   6.488   5.461   4.887
 8014SOL     OW24940   2.751   0.253   6.644
 8014SOL    HW124941   2.819   0.281   6.577
 8014SOL    HW224942   2.772   0.161   6.677
 8015SOL     OW24943   0.969   1.936   0.268
 8015SOL    HW124944   0.919   1.994   0.203
 8015SOL    HW224945   0.935   1.952   0.360
 8016SOL     OW24946   3.899   6.016   1.984
 8016SOL    HW124947   3.802   5.993   1.984
 8016SOL    HW224948   3.922   6.063   2.069
 8017SOL     OW24949   6.621   3.819   5.556
 8017SOL    HW124950   6.536   3.776   5.586
 8017SOL    HW224951   6.673   3.850   5.636
 8018SOL     OW24952   4.826   3.009   3.866
 8018SOL    HW124953   4.785   2.968   3.785
 8018SOL    HW224954   4.847   3.105   3.848
 8019SOL     OW24955   3.265   5.175   1.065
 8019SOL    HW124956   3.222   5.235   1.133
 8019SOL    HW224957   3.261   5.080   1.097
 8020SOL     OW24958   5.542   0.135   6.539
 8020SOL    HW124959   5.577   0.056   6.488
 8020SOL    HW224960   5.443   0.141   6.527
 8021SOL     OW24961   6.460   1.277   1.278
 8021SOL    HW124962   6.415   1.269   1.367
 8021SOL    HW224963   6.534   1.210   1.271
 8022SOL     OW24964   5.303   4.929   3.799
 8022SOL    HW124965   5.325   5.026   3.788
 8022SOL    HW224966   5.238   4.917   3.874
 8023SOL     OW24967   0.334   5.555   3.496
 8023SOL    HW124968   0.323   5.583   3.592
 8023SOL    HW224969   0.284   5.469   3.481
 8024SOL     OW24970   4.242   5.464   4.212
 8024SOL    HW124971   4.177   5.421   4.148
 8024SOL    HW224972   4.258   5.402   4.289
 8025SOL     OW24973   3.196   6.007   0.513
 8025SOL    HW124974   3.211   5.940   0.585
 8025SOL    HW224975   3.280   6.058   0.496
 8026SOL     OW24976   2.142   1.992   6.509
 8026SOL    HW124977   2.174   2.085   6.489
 8026SOL    HW224978   2.215   1.941   6.555
 8027SOL     OW24979   4.554   2.972   5.352
 8027SOL    HW124980   4.456   2.993   5.350
 8027SOL    HW224981   4.602   3.043   5.405
 8028SOL     OW24982   6.177   5.282   0.798
 8028SOL    HW124983   6.179   5.231   0.712
 8028SOL    HW224984   6.253   5.253   0.856
 8029SOL     OW24985   3.177   4.194   5.870
 8029SOL    HW124986   3.263   4.144   5.879
 8029SOL    HW224987   3.183   4.281   5.919
 8030SOL     OW24988   6.956   3.477   1.014
 8030SOL    HW124989   7.007   3.451   1.097
 8030SOL    HW224990   6.870   3.520   1.040
 8031SOL     OW24991   4.165   6.351   0.657
 8031SOL    HW124992   4.089   6.393   0.706
 8031SOL    HW224993   4.129   6.282   0.594
 8032SOL     OW24994   4.720   3.815   5.745
 8032SOL    HW124995   4.641   3.775   5.791
 8032SOL    HW224996   4.709   3.806   5.646
 8033SOL     OW24997   6.201   1.382   1.743
 8033SOL    HW124998   6.101   1.386   1.737
 8033SOL    HW224999   6.233   1.453   1.807
 8034SOL     OW25000   6.608   1.744   5.693
 8034SOL    HW125001   6.650   1.800   5.764
 8034SOL    HW225002   6.513   1.724   5.718
 8035SOL     OW25003   5.609   6.056   5.874
 8035SOL    HW125004   5.633   6.149   5.848
 8035SOL    HW225005   5.647   6.035   5.964
 8036SOL     OW25006   1.731   4.616   1.394
 8036SOL    HW125007   1.720   4.677   1.472
 8036SOL    HW225008   1.665   4.541   1.401
 8037SOL     OW25009   2.410   2.892   1.673
 8037SOL    HW125010   2.333   2.855   1.724
 8037SOL    HW225011   2.379   2.967   1.615
 8038SOL     OW25012   5.719   1.254   4.092
 8038SOL    HW125013   5.638   1.291   4.046
 8038SOL    HW225014   5.690   1.194   4.167
 8039SOL     OW25015   2.213   5.881   3.353
 8039SOL    HW125016   2.305   5.901   3.388
 8039SOL    HW225017   2.221   5.831   3.266
 8040SOL     OW25018   5.998   6.230   6.607
 8040SOL    HW125019   5.915   6.196   6.563
 8040SOL    HW225020   5.976   6.262   6.700
 8041SOL     OW25021   3.230   2.514   1.275
 8041SOL    HW125022   3.330   2.509   1.274
 8041SOL    HW225023   3.199   2.547   1.364
 8042SOL     OW25024   1.983   5.068   6.574
 8042SOL    HW125025   1.998   5.013   6.657
 8042SOL    HW225026   2.027   5.157   6.586
 8043SOL     OW25027   3.115   0.690   1.073
 8043SOL    HW125028   3.165   0.763   1.118
 8043SOL    HW225029   3.067   0.635   1.142
 8044SOL     OW25030   3.032   3.023   2.010
 8044SOL    HW125031   3.058   2.993   2.101
 8044SOL    HW225032   2.966   3.098   2.017
 8045SOL     OW25033   6.363   2.657   3.708
 8045SOL    HW125034   6.442   2.691   3.757
 8045SOL    HW225035   6.371   2.680   3.611
 8046SOL     OW25036   6.618   5.630   5.140
 8046SOL    HW125037   6.570   5.553   5.099
 8046SOL    HW225038   6.571   5.715   5.117
 8047SOL     OW25039   2.683   0.221   4.375
 8047SOL    HW125040   2.620   0.298   4.384
 8047SOL    HW225041   2.661   0.169   4.292
 8048SOL     OW25042   5.418   0.275   5.513
 8048SOL    HW125043   5.380   0.262   5.422
 8048SOL    HW225044   5.384   0.203   5.574
 8049SOL     OW25045   1.877   0.155   0.170
 8049SOL    HW125046   1.834   0.179   0.083
 8049SOL    HW225047   1.900   0.057   0.170
 8050SOL     OW25048   0.311   3.118   1.906
 8050SOL    HW125049   0.399   3.120   1.860
 8050SOL    HW225050   0.306   3.192   1.973
 8051SOL     OW25051   2.455   1.862   4.149
 8051SOL    HW125052   2.518   1.936   4.172
 8051SOL    HW225053   2.395   1.892   4.075
 8052SOL     OW25054   4.062   1.713   2.936
 8052SOL    HW125055   4.075   1.767   2.853
 8052SOL    HW225056   4.120   1.749   3.008
 8053SOL     OW25057   4.378   3.442   1.650
 8053SOL    HW125058   4.437   3.362   1.655
 8053SOL    HW225059   4.290   3.421   1.693
 8054SOL     OW25060   5.021   5.950   4.595
 8054SOL    HW125061   4.929   5.988   4.596
 8054SOL    HW225062   5.031   5.889   4.516
 8055SOL     OW25063   1.653   0.085   5.354
 8055SOL    HW125064   1.658   0.009   5.289
 8055SOL    HW225065   1.649   0.171   5.304
 8056SOL     OW25066   4.443   1.082   2.425
 8056SOL    HW125067   4.417   1.026   2.504
 8056SOL    HW225068   4.362   1.129   2.390
 8057SOL     OW25069   3.555   6.878   3.865
 8057SOL    HW125070   3.577   6.780   3.865
 8057SOL    HW225071   3.464   6.892   3.904
 8058SOL     OW25072   1.845   0.225   3.057
 8058SOL    HW125073   1.812   0.175   3.137
 8058SOL    HW225074   1.825   0.322   3.068
 8059SOL     OW25075   1.347   1.316   3.964
 8059SOL    HW125076   1.371   1.412   3.977
 8059SOL    HW225077   1.322   1.300   3.868
 8060SOL     OW25078   0.663   2.538   5.193
 8060SOL    HW125079   0.689   2.584   5.278
 8060SOL    HW225080   0.628   2.606   5.129
 8061SOL     OW25081   5.849   6.583   3.448
 8061SOL    HW125082   5.850   6.561   3.546
 8061SOL    HW225083   5.801   6.511   3.398
 8062SOL     OW25084   1.194   2.658   1.577
 8062SOL    HW125085   1.125   2.675   1.507
 8062SOL    HW225086   1.258   2.588   1.545
 8063SOL     OW25087   2.366   2.868   5.781
 8063SOL    HW125088   2.348   2.820   5.695
 8063SOL    HW225089   2.314   2.953   5.783
 8064SOL     OW25090   5.946   2.494   5.361
 8064SOL    HW125091   6.021   2.432   5.336
 8064SOL    HW225092   5.859   2.447   5.349
 8065SOL     OW25093   4.383   0.198   6.431
 8065SOL    HW125094   4.327   0.132   6.480
 8065SOL    HW225095   4.470   0.210   6.479
 8066SOL     OW25096   1.733   0.505   1.604
 8066SOL    HW125097   1.759   0.543   1.693
 8066SOL    HW225098   1.786   0.422   1.587
 8067SOL     OW25099   4.832   2.255   2.606
 8067SOL    HW125100   4.888   2.314   2.548
 8067SOL    HW225101   4.736   2.279   2.596
 8068SOL     OW25102   6.932   4.333   4.287
 8068SOL    HW125103   6.952   4.262   4.220
 8068SOL    HW225104   7.017   4.366   4.329
 8069SOL     OW25105   0.712   6.603   2.051
 8069SOL    HW125106   0.679   6.535   2.117
 8069SOL    HW225107   0.650   6.681   2.050
 8070SOL     OW25108   3.420   0.571   2.413
 8070SOL    HW125109   3.348   0.601   2.476
 8070SOL    HW225110   3.467   0.492   2.451
 8071SOL     OW25111   5.387   4.498   0.085
 8071SOL    HW125112   5.471   4.445   0.091
 8071SOL    HW225113   5.405   4.587   0.045
 8072SOL     OW25114   4.058   0.541   3.669
 8072SOL    HW125115   4.113   0.615   3.707
 8072SOL    HW225116   3.968   0.577   3.643
 8073SOL     OW25117   4.801   6.956   6.097
 8073SOL    HW125118   4.730   6.926   6.160
 8073SOL    HW225119   4.872   6.885   6.090
 8074SOL     OW25120   3.239   4.150   0.150
 8074SOL    HW125121   3.311   4.160   0.081
 8074SOL    HW225122   3.153   4.185   0.113
 8075SOL     OW25123   6.349   1.590   4.186
 8075SOL    HW125124   6.380   1.499   4.215
 8075SOL    HW225125   6.263   1.581   4.136
 8076SOL     OW25126   4.872   3.166   6.712
 8076SOL    HW125127   4.893   3.133   6.804
 8076SOL    HW225128   4.942   3.133   6.648
 8077SOL     OW25129   0.808   0.782   6.933
 8077SOL    HW125130   0.886   0.813   6.988
 8077SOL    HW225131   0.822   0.686   6.908
 8078SOL     OW25132   5.800   3.377   1.148
 8078SOL    HW125133   5.711   3.413   1.175
 8078SOL    HW225134   5.800   3.359   1.049
 8079SOL     OW25135   1.655   2.502   0.631
 8079SOL    HW125136   1.707   2.433   0.682
 8079SOL    HW225137   1.700   2.591   0.641
 8080SOL     OW25138   4.197   4.844   0.059
 8080SOL    HW125139   4.236   4.922   0.106
 8080SOL    HW225140   4.256   4.817   7.004
 8081SOL     OW25141   5.689   2.490   4.395
 8081SOL    HW125142   5.705   2.586   4.374
 8081SOL    HW225143   5.609   2.481   4.454
 8082SOL     OW25144   6.709   3.662   4.911
 8082SOL    HW125145   6.729   3.585   4.850
 8082SOL    HW225146   6.629   3.711   4.877
 8083SOL     OW25147   5.495   1.832   4.902
 8083SOL    HW125148   5.595   1.827   4.907
 8083SOL    HW225149   5.469   1.918   4.856
 8084SOL     OW25150   6.007   0.301   0.220
 8084SOL    HW125151   5.921   0.253   0.235
 8084SOL    HW225152   6.083   0.245   0.253
 8085SOL     OW25153   4.991   2.230   1.031
 8085SOL    HW125154   5.041   2.149   1.060
 8085SOL    HW225155   5.002   2.243   0.933
 8086SOL     OW25156   2.695   5.183   5.955
 8086SOL    HW125157   2.608   5.231   5.943
 8086SOL    HW225158   2.709   5.165   6.052
 8087SOL     OW25159   2.530   3.537   0.693
 8087SOL    HW125160   2.431   3.532   0.689
 8087SOL    HW225161   2.570   3.485   0.618
 8088SOL     OW25162   4.606   0.286   3.365
 8088SOL    HW125163   4.562   0.369   3.397
 8088SOL    HW225164   4.541   0.210   3.370
 8089SOL     OW25165   6.961   2.809   0.598
 8089SOL    HW125166   6.931   2.730   0.651
 8089SOL    HW225167   6.908   2.815   0.513
 8090SOL     OW25168   4.841   1.485   5.119
 8090SOL    HW125169   4.895   1.527   5.191
 8090SOL    HW225170   4.758   1.444   5.158
 8091SOL     OW25171   1.715   3.748   5.416
 8091SOL    HW125172   1.701   3.847   5.403
 8091SOL    HW225173   1.720   3.728   5.514
 8092SOL     OW25174   6.417   2.058   3.977
 8092SOL    HW125175   6.388   1.967   4.006
 8092SOL    HW225176   6.487   2.092   4.040
 8093SOL     OW25177   5.911   5.301   0.711
 8093SOL    HW125178   5.859   5.317   0.795
 8093SOL    HW225179   6.007   5.322   0.727
 8094SOL     OW25180   0.389   3.076   3.891
 8094SOL    HW125181   0.432   3.164   3.912
 8094SOL    HW225182   0.428   3.038   3.808
 8095SOL     OW25183   6.447   3.258   5.180
 8095SOL    HW125184   6.437   3.291   5.086
 8095SOL    HW225185   6.427   3.161   5.184
 8096SOL     OW25186   4.530   0.466   0.446
 8096SOL    HW125187   4.600   0.452   0.516
 8096SOL    HW225188   4.459   0.527   0.482
 8097SOL     OW25189   4.567   1.833   3.995
 8097SOL    HW125190   4.547   1.749   3.943
 8097SOL    HW225191   4.638   1.814   4.063
 8098SOL     OW25192   2.077   2.181   3.919
 8098SOL    HW125193   2.028   2.230   3.991
 8098SOL    HW225194   2.173   2.209   3.919
 8099SOL     OW25195   3.824   6.901   4.205
 8099SOL    HW125196   3.869   6.871   4.289
 8099SOL    HW225197   3.893   6.921   4.135
 8100SOL     OW25198   6.598   6.245   1.581
 8100SOL    HW125199   6.648   6.280   1.502
 8100SOL    HW225200   6.655   6.180   1.631
 8101SOL     OW25201   0.666   4.770   2.027
 8101SOL    HW125202   0.734   4.743   1.958
 8101SOL    HW225203   0.713   4.810   2.105
 8102SOL     OW25204   6.833   6.902   5.471
 8102SOL    HW125205   6.916   6.926   5.521
 8102SOL    HW225206   6.785   6.829   5.519
 8103SOL     OW25207   2.554   2.452   2.435
 8103SOL    HW125208   2.606   2.404   2.505
 8103SOL    HW225209   2.590   2.430   2.345
 8104SOL     OW25210   2.720   6.953   5.761
 8104SOL    HW125211   2.650   7.019   5.787
 8104SOL    HW225212   2.791   7.000   5.707
 8105SOL     OW25213   2.332   2.336   3.029
 8105SOL    HW125214   2.285   2.421   3.006
 8105SOL    HW225215   2.286   2.259   2.984
 8106SOL     OW25216   0.587   3.699   5.537
 8106SOL    HW125217   0.657   3.629   5.526
 8106SOL    HW225218   0.530   3.678   5.616
 8107SOL     OW25219   1.095   5.414   0.016
 8107SOL    HW125220   1.121   5.489   6.977
 8107SOL    HW225221   1.146   5.332   7.012
 8108SOL     OW25222   2.492   2.864   6.448
 8108SOL    HW125223   2.577   2.865   6.395
 8108SOL    HW225224   2.423   2.811   6.398
 8109SOL     OW25225   0.603   5.735   5.164
 8109SOL    HW125226   0.513   5.695   5.148
 8109SOL    HW225227   0.674   5.667   5.147
 8110SOL     OW25228   1.348   5.201   0.492
 8110SOL    HW125229   1.304   5.284   0.458
 8110SOL    HW225230   1.288   5.122   0.476
 8111SOL     OW25231   3.140   6.143   4.168
 8111SOL    HW125232   3.194   6.058   4.158
 8111SOL    HW225233   3.202   6.219   4.186
 8112SOL     OW25234   3.781   1.300   4.045
 8112SOL    HW125235   3.706   1.238   4.023
 8112SOL    HW225236   3.765   1.342   4.134
 8113SOL     OW25237   2.986   2.485   5.648
 8113SOL    HW125238   2.971   2.470   5.550
 8113SOL    HW225239   3.083   2.479   5.669
 8114SOL     OW25240   3.286   3.868   1.221
 8114SOL    HW125241   3.306   3.945   1.283
 8114SOL    HW225242   3.292   3.783   1.273
 8115SOL     OW25243   4.134   2.920   1.310
 8115SOL    HW125244   4.074   2.842   1.291
 8115SOL    HW225245   4.195   2.934   1.232
 8116SOL     OW25246   5.446   1.640   5.737
 8116SOL    HW125247   5.423   1.650   5.640
 8116SOL    HW225248   5.412   1.552   5.771
 8117SOL     OW25249   2.823   2.748   5.627
 8117SOL    HW125250   2.736   2.701   5.617
 8117SOL    HW225251   2.889   2.686   5.671
 8118SOL     OW25252   0.738   1.605   4.223
 8118SOL    HW125253   0.816   1.664   4.242
 8118SOL    HW225254   0.739   1.577   4.126
 8119SOL     OW25255   1.384   6.987   2.584
 8119SOL    HW125256   1.296   7.003   2.629
 8119SOL    HW225257   1.376   7.006   2.486
 8120SOL     OW25258   4.681   4.219   2.406
 8120SOL    HW125259   4.661   4.154   2.479
 8120SOL    HW225260   4.617   4.295   2.409
 8121SOL     OW25261   6.820   5.697   3.495
 8121SOL    HW125262   6.744   5.676   3.434
 8121SOL    HW225263   6.907   5.685   3.446
 8122SOL     OW25264   6.989   5.164   1.946
 8122SOL    HW125265   0.059   5.144   1.981
 8122SOL    HW225266   6.985   5.257   1.911
 8123SOL     OW25267   1.338   5.494   6.392
 8123SOL    HW125268   1.334   5.586   6.429
 8123SOL    HW225269   1.332   5.427   6.466
 8124SOL     OW25270   1.697   5.891   2.540
 8124SOL    HW125271   1.608   5.916   2.578
 8124SOL    HW225272   1.733   5.811   2.588
 8125SOL     OW25273   4.986   5.203   3.471
 8125SOL    HW125274   5.041   5.121   3.453
 8125SOL    HW225275   5.014   5.276   3.408
 8126SOL     OW25276   0.317   4.805   1.647
 8126SOL    HW125277   0.360   4.819   1.558
 8126SOL    HW225278   0.218   4.803   1.637
 8127SOL     OW25279   4.326   5.054   0.888
 8127SOL    HW125280   4.304   4.957   0.896
 8127SOL    HW225281   4.336   5.078   0.791
 8128SOL     OW25282   3.848   2.115   5.153
 8128SOL    HW125283   3.850   2.068   5.241
 8128SOL    HW225284   3.760   2.162   5.143
 8129SOL     OW25285   4.574   5.752   6.766
 8129SOL    HW125286   4.671   5.730   6.768
 8129SOL    HW225287   4.554   5.811   6.688
 8130SOL     OW25288   0.354   0.414   6.181
 8130SOL    HW125289   0.282   0.426   6.249
 8130SOL    HW225290   0.419   0.345   6.214
 8131SOL     OW25291   2.437   1.738   1.960
 8131SOL    HW125292   2.446   1.678   1.881
 8131SOL    HW225293   2.340   1.757   1.977
 8132SOL     OW25294   5.621   4.424   3.493
 8132SOL    HW125295   5.698   4.383   3.445
 8132SOL    HW225296   5.538   4.411   3.438
 8133SOL     OW25297   0.415   5.737   2.417
 8133SOL    HW125298   0.478   5.701   2.348
 8133SOL    HW225299   0.447   5.711   2.508
 8134SOL     OW25300   2.997   3.452   1.508
 8134SOL    HW125301   2.909   3.437   1.463
 8134SOL    HW225302   3.011   3.382   1.578
 8135SOL     OW25303   4.087   6.511   2.373
 8135SOL    HW125304   4.162   6.467   2.324
 8135SOL    HW225305   4.020   6.443   2.400
 8136SOL     OW25306   2.796   5.744   1.657
 8136SOL    HW125307   2.755   5.787   1.737
 8136SOL    HW225308   2.767   5.649   1.651
 8137SOL     OW25309   3.224   3.798   5.567
 8137SOL    HW125310   3.266   3.725   5.620
 8137SOL    HW225311   3.127   3.805   5.589
 8138SOL     OW25312   4.258   1.139   3.588
 8138SOL    HW125313   4.245   1.058   3.530
 8138SOL    HW225314   4.232   1.221   3.536
 8139SOL     OW25315   1.862   3.162   5.742
 8139SOL    HW125316   1.805   3.242   5.720
 8139SOL    HW225317   1.817   3.079   5.709
 8140SOL     OW25318   5.464   1.804   1.273
 8140SOL    HW125319   5.534   1.764   1.333
 8140SOL    HW225320   5.381   1.749   1.279
 8141SOL     OW25321   5.867   0.916   5.391
 8141SOL    HW125322   5.965   0.915   5.415
 8141SOL    HW225323   5.857   0.929   5.293
 8142SOL     OW25324   3.885   5.929   0.481
 8142SOL    HW125325   3.811   5.864   0.495
 8142SOL    HW225326   3.968   5.880   0.454
 8143SOL     OW25327   5.702   5.212   0.020
 8143SOL    HW125328   5.657   5.197   0.108
 8143SOL    HW225329   5.687   5.132   6.983
 8144SOL     OW25330   1.751   5.633   6.296
 8144SOL    HW125331   1.676   5.659   6.356
 8144SOL    HW225332   1.822   5.588   6.349
 8145SOL     OW25333   5.036   5.650   5.232
 8145SOL    HW125334   5.120   5.651   5.287
 8145SOL    HW225335   4.994   5.559   5.237
 8146SOL     OW25336   6.981   6.154   5.026
 8146SOL    HW125337   6.974   6.170   5.125
 8146SOL    HW225338   0.054   6.172   4.997
 8147SOL     OW25339   2.353   6.703   4.540
 8147SOL    HW125340   2.395   6.615   4.518
 8147SOL    HW225341   2.286   6.690   4.613
 8148SOL     OW25342   5.456   4.428   0.553
 8148SOL    HW125343   5.421   4.492   0.621
 8148SOL    HW225344   5.556   4.433   0.550
 8149SOL     OW25345   1.663   6.836   5.109
 8149SOL    HW125346   1.711   6.819   5.023
 8149SOL    HW225347   1.705   6.782   5.182
 8150SOL     OW25348   0.207   4.377   0.951
 8150SOL    HW125349   0.113   4.358   0.981
 8150SOL    HW225350   0.215   4.359   0.853
 8151SOL     OW25351   6.045   3.992   1.971
 8151SOL    HW125352   6.125   4.051   1.965
 8151SOL    HW225353   6.057   3.912   1.912
 8152SOL     OW25354   5.164   2.132   3.971
 8152SOL    HW125355   5.088   2.096   4.025
 8152SOL    HW225356   5.203   2.059   3.914
 8153SOL     OW25357   0.397   1.846   0.966
 8153SOL    HW125358   0.444   1.784   0.904
 8153SOL    HW225359   0.323   1.892   0.918
 8154SOL     OW25360   0.121   0.694   3.748
 8154SOL    HW125361   0.122   0.764   3.820
 8154SOL    HW225362   0.030   0.651   3.746
 8155SOL     OW25363   1.040   5.226   4.471
 8155SOL    HW125364   0.973   5.156   4.447
 8155SOL    HW225365   1.103   5.190   4.540
 8156SOL     OW25366   1.199   4.125   0.425
 8156SOL    HW125367   1.228   4.115   0.520
 8156SOL    HW225368   1.105   4.159   0.422
 8157SOL     OW25369   6.178   4.424   5.058
 8157SOL    HW125370   6.147   4.437   4.964
 8157SOL    HW225371   6.277   4.439   5.064
 8158SOL     OW25372   6.155   5.099   6.177
 8158SOL    HW125373   6.152   5.102   6.078
 8158SOL    HW225374   6.089   5.033   6.211
 8159SOL     OW25375   1.917   6.562   5.376
 8159SOL    HW125376   1.928   6.587   5.280
 8159SOL    HW225377   1.958   6.472   5.393
 8160SOL     OW25378   5.109   2.858   3.084
 8160SOL    HW125379   5.017   2.853   3.047
 8160SOL    HW225380   5.168   2.792   3.039
 8161SOL     OW25381   0.585   2.380   1.098
 8161SOL    HW125382   0.666   2.402   1.152
 8161SOL    HW225383   0.613   2.345   1.008
 8162SOL     OW25384   0.195   5.918   5.078
 8162SOL    HW125385   0.112   5.897   5.026
 8162SOL    HW225386   0.269   5.939   5.015
 8163SOL     OW25387   3.102   4.819   5.724
 8163SOL    HW125388   3.089   4.917   5.741
 8163SOL    HW225389   3.199   4.802   5.703
 8164SOL     OW25390   5.264   2.115   0.149
 8164SOL    HW125391   5.269   2.063   0.234
 8164SOL    HW225392   5.215   2.201   0.164
 8165SOL     OW25393   0.814   2.893   6.002
 8165SOL    HW125394   0.810   2.794   5.989
 8165SOL    HW225395   0.771   2.916   6.090
 8166SOL     OW25396   3.070   2.143   4.472
 8166SOL    HW125397   3.034   2.166   4.562
 8166SOL    HW225398   3.033   2.206   4.404
 8167SOL     OW25399   1.812   2.580   2.676
 8167SOL    HW125400   1.777   2.651   2.738
 8167SOL    HW225401   1.881   2.526   2.723
 8168SOL     OW25402   1.241   6.177   2.886
 8168SOL    HW125403   1.161   6.121   2.906
 8168SOL    HW225404   1.318   6.117   2.862
 8169SOL     OW25405   5.287   4.857   6.753
 8169SOL    HW125406   5.254   4.886   6.842
 8169SOL    HW225407   5.361   4.790   6.764
 8170SOL     OW25408   6.977   4.424   3.338
 8170SOL    HW125409   7.016   4.338   3.371
 8170SOL    HW225410   6.895   4.405   3.285
 8171SOL     OW25411   1.960   1.611   1.669
 8171SOL    HW125412   2.006   1.592   1.755
 8171SOL    HW225413   1.969   1.708   1.647
 8172SOL     OW25414   1.640   5.142   0.356
 8172SOL    HW125415   1.719   5.139   0.417
 8172SOL    HW225416   1.556   5.135   0.409
 8173SOL     OW25417   5.592   6.654   1.800
 8173SOL    HW125418   5.542   6.570   1.820
 8173SOL    HW225419   5.627   6.651   1.706
 8174SOL     OW25420   2.554   6.662   3.960
 8174SOL    HW125421   2.646   6.650   3.923
 8174SOL    HW225422   2.559   6.716   4.044
 8175SOL     OW25423   0.706   2.292   5.981
 8175SOL    HW125424   0.665   2.379   6.009
 8175SOL    HW225425   0.675   2.219   6.042
 8176SOL     OW25426   2.882   4.651   6.749
 8176SOL    HW125427   2.951   4.640   6.821
 8176SOL    HW225428   2.869   4.748   6.729
 8177SOL     OW25429   3.646   1.020   2.438
 8177SOL    HW125430   3.582   0.975   2.376
 8177SOL    HW225431   3.596   1.085   2.495
 8178SOL     OW25432   2.319   6.189   1.144
 8178SOL    HW125433   2.226   6.188   1.182
 8178SOL    HW225434   2.383   6.157   1.214
 8179SOL     OW25435   6.341   0.138   3.716
 8179SOL    HW125436   6.344   0.058   3.656
 8179SOL    HW225437   6.311   0.218   3.664
 8180SOL     OW25438   5.021   5.281   0.969
 8180SOL    HW125439   4.995   5.185   0.956
 8180SOL    HW225440   4.990   5.312   1.059
 8181SOL     OW25441   6.300   0.635   6.533
 8181SOL    HW125442   6.390   0.671   6.560
 8181SOL    HW225443   6.259   0.586   6.610
 8182SOL     OW25444   3.672   3.725   2.741
 8182SOL    HW125445   3.685   3.816   2.701
 8182SOL    HW225446   3.621   3.733   2.827
 8183SOL     OW25447   0.525   0.025   5.116
 8183SOL    HW125448   0.602   0.078   5.152
 8183SOL    HW225449   0.560   6.970   5.061
 8184SOL     OW25450   0.034   5.687   4.418
 8184SOL    HW125451   0.089   5.762   4.380
 8184SOL    HW225452   0.027   5.698   4.518
 8185SOL     OW25453   0.163   6.238   4.815
 8185SOL    HW125454   0.089   6.177   4.789
 8185SOL    HW225455   0.190   6.294   4.737
 8186SOL     OW25456   1.471   5.970   0.190
 8186SOL    HW125457   1.416   5.944   0.269
 8186SOL    HW225458   1.429   5.933   0.107
 8187SOL     OW25459   1.434   6.413   4.677
 8187SOL    HW125460   1.522   6.371   4.654
 8187SOL    HW225461   1.430   6.428   4.776
 8188SOL     OW25462   1.698   2.788   2.862
 8188SOL    HW125463   1.718   2.880   2.828
 8188SOL    HW225464   1.712   2.785   2.960
 8189SOL     OW25465   6.906   5.493   3.993
 8189SOL    HW125466   6.926   5.436   4.072
 8189SOL    HW225467   6.964   5.574   3.994
 8190SOL     OW25468   5.763   4.117   2.936
 8190SOL    HW125469   5.757   4.187   3.007
 8190SOL    HW225470   5.676   4.111   2.888
 8191SOL     OW25471   5.207   4.893   0.968
 8191SOL    HW125472   5.108   4.878   0.970
 8191SOL    HW225473   5.228   4.980   1.011
 8192SOL     OW25474   0.124   5.543   2.999
 8192SOL    HW125475   0.050   5.607   3.019
 8192SOL    HW225476   0.103   5.454   3.040
 8193SOL     OW25477   0.874   5.029   4.407
 8193SOL    HW125478   0.935   4.961   4.365
 8193SOL    HW225479   0.793   5.041   4.349
 8194SOL     OW25480   5.278   0.163   2.406
 8194SOL    HW125481   5.355   0.112   2.447
 8194SOL    HW225482   5.239   0.225   2.474
 8195SOL     OW25483   6.752   6.702   3.110
 8195SOL    HW125484   6.716   6.796   3.110
 8195SOL    HW225485   6.712   6.652   3.033
 8196SOL     OW25486   4.803   6.856   2.929
 8196SOL    HW125487   4.853   6.937   2.960
 8196SOL    HW225488   4.869   6.787   2.897
 8197SOL     OW25489   4.077   1.148   3.222
 8197SOL    HW125490   4.140   1.100   3.161
 8197SOL    HW225491   3.984   1.116   3.206
 8198SOL     OW25492   2.095   5.132   0.271
 8198SOL    HW125493   2.074   5.223   0.237
 8198SOL    HW225494   2.169   5.092   0.217
 8199SOL     OW25495   6.464   2.380   0.524
 8199SOL    HW125496   6.538   2.442   0.496
 8199SOL    HW225497   6.377   2.418   0.494
 8200SOL     OW25498   5.760   4.797   0.004
 8200SOL    HW125499   5.781   4.714   6.974
 8200SOL    HW225500   5.842   4.854   0.011
 8201SOL     OW25501   5.252   0.978   5.186
 8201SOL    HW125502   5.184   0.957   5.115
 8201SOL    HW225503   5.223   1.059   5.236
 8202SOL     OW25504   0.348   5.653   1.859
 8202SOL    HW125505   0.285   5.711   1.807
 8202SOL    HW225506   0.442   5.678   1.836
 8203SOL     OW25507   1.381   2.942   0.320
 8203SOL    HW125508   1.344   3.018   0.266
 8203SOL    HW225509   1.413   2.976   0.408
 8204SOL     OW25510   1.636   3.590   0.487
 8204SOL    HW125511   1.730   3.609   0.516
 8204SOL    HW225512   1.572   3.628   0.553
 8205SOL     OW25513   0.020   4.059   6.312
 8205SOL    HW125514   6.958   4.115   6.307
 8205SOL    HW225515   7.017   3.962   6.312
 8206SOL     OW25516   3.339   0.705   1.284
 8206SOL    HW125517   3.435   0.728   1.302
 8206SOL    HW225518   3.294   0.783   1.240
 8207SOL     OW25519   4.127   3.686   4.358
 8207SOL    HW125520   4.179   3.645   4.432
 8207SOL    HW225521   4.036   3.711   4.391
 8208SOL     OW25522   3.123   0.233   6.200
 8208SOL    HW125523   3.114   0.325   6.238
 8208SOL    HW225524   3.096   0.166   6.268
 8209SOL     OW25525   5.937   2.443   3.872
 8209SOL    HW125526   5.966   2.505   3.799
 8209SOL    HW225527   6.012   2.430   3.936
 8210SOL     OW25528   1.984   2.439   6.313
 8210SOL    HW125529   1.924   2.474   6.242
 8210SOL    HW225530   1.953   2.473   6.402
 8211SOL     OW25531   3.951   4.713   1.081
 8211SOL    HW125532   3.880   4.764   1.128
 8211SOL    HW225533   3.913   4.627   1.046
 8212SOL     OW25534   1.824   3.301   2.870
 8212SOL    HW125535   1.856   3.240   2.797
 8212SOL    HW225536   1.903   3.344   2.915
 8213SOL     OW25537   6.405   4.678   0.781
 8213SOL    HW125538   6.382   4.764   0.825
 8213SOL    HW225539   6.328   4.614   0.788
 8214SOL     OW25540   4.924   3.262   3.808
 8214SOL    HW125541   4.916   3.361   3.793
 8214SOL    HW225542   4.998   3.245   3.873
 8215SOL     OW25543   3.784   5.010   1.548
 8215SOL    HW125544   3.786   4.960   1.635
 8215SOL    HW225545   3.806   4.947   1.473
 8216SOL     OW25546   5.575   3.521   4.077
 8216SOL    HW125547   5.645   3.560   4.017
 8216SOL    HW225548   5.487   3.518   4.029
 8217SOL     OW25549   2.296   5.687   6.954
 8217SOL    HW125550   2.225   5.727   6.896
 8217SOL    HW225551   2.316   5.749   0.008
 8218SOL     OW25552   4.707   2.251   6.762
 8218SOL    HW125553   4.646   2.261   6.841
 8218SOL    HW225554   4.798   2.284   6.786
 8219SOL     OW25555   5.248   2.652   0.089
 8219SOL    HW125556   5.284   2.594   0.162
 8219SOL    HW225557   5.165   2.610   0.052
 8220SOL     OW25558   3.838   3.575   1.560
 8220SOL    HW125559   3.818   3.524   1.476
 8220SOL    HW225560   3.754   3.590   1.611
 8221SOL     OW25561   5.668   4.095   3.542
 8221SOL    HW125562   5.725   4.015   3.528
 8221SOL    HW225563   5.722   4.169   3.582
 8222SOL     OW25564   5.787   0.850   3.042
 8222SOL    HW125565   5.760   0.811   2.954
 8222SOL    HW225566   5.750   0.794   3.116
 8223SOL     OW25567   0.629   4.685   0.069
 8223SOL    HW125568   0.722   4.680   0.031
 8223SOL    HW225569   0.578   4.604   0.042
 8224SOL     OW25570   0.696   3.774   2.467
 8224SOL    HW125571   0.768   3.812   2.410
 8224SOL    HW225572   0.699   3.818   2.557
 8225SOL     OW25573   4.810   0.585   1.257
 8225SOL    HW125574   4.746   0.573   1.181
 8225SOL    HW225575   4.836   0.681   1.264
 8226SOL     OW25576   3.688   0.603   6.824
 8226SOL    HW125577   3.637   0.610   6.738
 8226SOL    HW225578   3.771   0.549   6.810
 8227SOL     OW25579   5.971   4.295   3.124
 8227SOL    HW125580   5.930   4.305   3.033
 8227SOL    HW225581   6.047   4.230   3.119
 8228SOL     OW25582   0.180   1.416   3.579
 8228SOL    HW125583   0.159   1.481   3.652
 8228SOL    HW225584   0.098   1.362   3.558
 8229SOL     OW25585   5.396   5.627   0.042
 8229SOL    HW125586   5.416   5.529   0.049
 8229SOL    HW225587   5.480   5.677   0.022
 8230SOL     OW25588   5.133   0.206   3.018
 8230SOL    HW125589   5.115   0.279   3.083
 8230SOL    HW225590   5.212   0.152   3.049
 8231SOL     OW25591   4.163   5.690   1.175
 8231SOL    HW125592   4.080   5.746   1.180
 8231SOL    HW225593   4.137   5.593   1.167
 8232SOL     OW25594   2.454   1.556   0.179
 8232SOL    HW125595   2.426   1.547   0.083
 8232SOL    HW225596   2.372   1.554   0.237
 8233SOL     OW25597   0.917   5.923   5.973
 8233SOL    HW125598   0.874   5.941   6.062
 8233SOL    HW225599   1.006   5.880   5.988
 8234SOL     OW25600   2.111   3.585   6.661
 8234SOL    HW125601   2.161   3.628   6.586
 8234SOL    HW225602   2.014   3.608   6.653
 8235SOL     OW25603   4.461   2.338   6.674
 8235SOL    HW125604   4.466   2.438   6.667
 8235SOL    HW225605   4.554   2.301   6.675
 8236SOL     OW25606   6.164   2.348   1.821
 8236SOL    HW125607   6.146   2.434   1.774
 8236SOL    HW225608   6.207   2.366   1.909
 8237SOL     OW25609   3.579   6.036   5.568
 8237SOL    HW125610   3.591   6.021   5.470
 8237SOL    HW225611   3.509   6.106   5.583
 8238SOL     OW25612   0.977   1.006   6.224
 8238SOL    HW125613   0.999   0.968   6.314
 8238SOL    HW225614   0.950   1.102   6.234
 8239SOL     OW25615   5.642   1.382   6.814
 8239SOL    HW125616   5.599   1.291   6.816
 8239SOL    HW225617   5.650   1.416   6.907
 8240SOL     OW25618   3.766   3.256   2.975
 8240SOL    HW125619   3.861   3.228   2.991
 8240SOL    HW225620   3.707   3.176   2.980
 8241SOL     OW25621   4.741   6.133   1.198
 8241SOL    HW125622   4.642   6.138   1.216
 8241SOL    HW225623   4.756   6.138   1.100
 8242SOL     OW25624   1.493   4.209   5.256
 8242SOL    HW125625   1.523   4.264   5.178
 8242SOL    HW225626   1.459   4.269   5.328
 8243SOL     OW25627   0.529   3.187   4.982
 8243SOL    HW125628   0.567   3.139   5.061
 8243SOL    HW225629   0.432   3.164   4.972
 8244SOL     OW25630   3.004   5.372   4.874
 8244SOL    HW125631   2.963   5.453   4.833
 8244SOL    HW225632   2.934   5.320   4.922
 8245SOL     OW25633   4.413   3.792   1.172
 8245SOL    HW125634   4.341   3.839   1.222
 8245SOL    HW225635   4.478   3.752   1.236
 8246SOL     OW25636   5.508   3.390   4.750
 8246SOL    HW125637   5.574   3.316   4.744
 8246SOL    HW225638   5.528   3.447   4.830
 8247SOL     OW25639   1.201   6.384   6.788
 8247SOL    HW125640   1.233   6.467   6.742
 8247SOL    HW225641   1.191   6.311   6.720
 8248SOL     OW25642   0.348   3.985   3.482
 8248SOL    HW125643   0.297   4.039   3.549
 8248SOL    HW225644   0.400   4.046   3.423
 8249SOL     OW25645   0.957   5.190   2.887
 8249SOL    HW125646   0.887   5.148   2.945
 8249SOL    HW225647   0.920   5.272   2.843
 8250SOL     OW25648   2.930   3.243   2.740
 8250SOL    HW125649   2.859   3.301   2.700
 8250SOL    HW225650   2.976   3.192   2.667
 8251SOL     OW25651   5.473   0.734   4.717
 8251SOL    HW125652   5.561   0.763   4.681
 8251SOL    HW225653   5.418   0.814   4.742
 8252SOL     OW25654   1.130   3.809   3.981
 8252SOL    HW125655   1.079   3.895   3.969
 8252SOL    HW225656   1.192   3.818   4.059
 8253SOL     OW25657   3.201   3.328   5.908
 8253SOL    HW125658   3.217   3.410   5.853
 8253SOL    HW225659   3.183   3.251   5.846
 8254SOL     OW25660   4.843   5.514   2.790
 8254SOL    HW125661   4.892   5.601   2.788
 8254SOL    HW225662   4.745   5.531   2.777
 8255SOL     OW25663   3.683   4.964   3.353
 8255SOL    HW125664   3.612   4.937   3.288
 8255SOL    HW225665   3.753   5.017   3.306
 8256SOL     OW25666   5.359   2.602   3.184
 8256SOL    HW125667   5.415   2.519   3.175
 8256SOL    HW225668   5.295   2.607   3.107
 8257SOL     OW25669   6.341   4.304   4.524
 8257SOL    HW125670   6.430   4.299   4.478
 8257SOL    HW225671   6.355   4.330   4.619
 8258SOL     OW25672   5.185   2.098   6.738
 8258SOL    HW125673   5.254   2.027   6.753
 8258SOL    HW225674   5.169   2.108   6.639
 8259SOL     OW25675   4.730   0.426   0.978
 8259SOL    HW125676   4.822   0.465   0.980
 8259SOL    HW225677   4.728   0.347   0.917
 8260SOL     OW25678   3.283   5.742   6.521
 8260SOL    HW125679   3.196   5.787   6.502
 8260SOL    HW225680   3.353   5.781   6.461
 8261SOL     OW25681   5.138   1.403   1.643
 8261SOL    HW125682   5.091   1.327   1.600
 8261SOL    HW225683   5.221   1.370   1.688
 8262SOL     OW25684   6.547   2.640   1.660
 8262SOL    HW125685   6.547   2.638   1.760
 8262SOL    HW225686   6.486   2.569   1.625
 8263SOL     OW25687   5.686   1.654   0.566
 8263SOL    HW125688   5.743   1.724   0.609
 8263SOL    HW225689   5.678   1.672   0.468
 8264SOL     OW25690   1.523   4.442   1.431
 8264SOL    HW125691   1.436   4.446   1.382
 8264SOL    HW225692   1.513   4.386   1.513
 8265SOL     OW25693   1.833   0.514   2.726
 8265SOL    HW125694   1.739   0.481   2.713
 8265SOL    HW225695   1.830   0.611   2.749
 8266SOL     OW25696   3.111   0.775   2.847
 8266SOL    HW125697   3.187   0.758   2.911
 8266SOL    HW225698   3.114   0.869   2.815
 8267SOL     OW25699   0.114   3.955   0.913
 8267SOL    HW125700   0.097   3.857   0.905
 8267SOL    HW225701   0.028   4.005   0.900
 8268SOL     OW25702   2.782   4.947   6.717
 8268SOL    HW125703   2.747   4.938   6.623
 8268SOL    HW225704   2.861   5.007   6.717
 8269SOL     OW25705   6.004   1.990   0.203
 8269SOL    HW125706   5.953   2.064   0.159
 8269SOL    HW225707   6.095   1.984   0.162
 8270SOL     OW25708   2.564   6.145   4.545
 8270SOL    HW125709   2.554   6.074   4.615
 8270SOL    HW225710   2.633   6.117   4.479
 8271SOL     OW25711   0.468   2.245   2.822
 8271SOL    HW125712   0.535   2.318   2.809
 8271SOL    HW225713   0.376   2.279   2.802
 8272SOL     OW25714   3.359   1.313   3.914
 8272SOL    HW125715   3.270   1.269   3.901
 8272SOL    HW225716   3.385   1.361   3.830
 8273SOL     OW25717   1.700   6.306   2.331
 8273SOL    HW125718   1.709   6.379   2.263
 8273SOL    HW225719   1.652   6.342   2.412
 8274SOL     OW25720   5.161   3.969   3.722
 8274SOL    HW125721   5.098   4.037   3.760
 8274SOL    HW225722   5.161   3.975   3.622
 8275SOL     OW25723   5.893   2.440   6.961
 8275SOL    HW125724   5.920   2.535   6.971
 8275SOL    HW225725   5.939   2.401   6.881
 8276SOL     OW25726   0.641   1.806   2.541
 8276SOL    HW125727   0.643   1.865   2.622
 8276SOL    HW225728   0.704   1.729   2.554
 8277SOL     OW25729   0.065   1.583   0.132
 8277SOL    HW125730   0.081   1.605   0.036
 8277SOL    HW225731   0.066   1.484   0.145
 8278SOL     OW25732   1.392   2.671   0.490
 8278SOL    HW125733   1.466   2.606   0.508
 8278SOL    HW225734   1.325   2.629   0.429
 8279SOL     OW25735   0.091   6.007   3.612
 8279SOL    HW125736   0.013   6.069   3.604
 8279SOL    HW225737   0.166   6.052   3.660
 8280SOL     OW25738   3.353   2.650   6.109
 8280SOL    HW125739   3.416   2.678   6.037
 8280SOL    HW225740   3.286   2.585   6.072
 8281SOL     OW25741   4.256   5.479   2.250
 8281SOL    HW125742   4.263   5.423   2.332
 8281SOL    HW225743   4.289   5.571   2.268
 8282SOL     OW25744   6.334   2.789   6.040
 8282SOL    HW125745   6.345   2.765   6.136
 8282SOL    HW225746   6.421   2.825   6.005
 8283SOL     OW25747   2.227   2.900   6.016
 8283SOL    HW125748   2.272   2.859   5.937
 8283SOL    HW225749   2.128   2.893   6.005
 8284SOL     OW25750   6.164   4.472   1.841
 8284SOL    HW125751   6.256   4.471   1.801
 8284SOL    HW225752   6.119   4.384   1.825
 8285SOL     OW25753   3.996   3.205   3.587
 8285SOL    HW125754   4.074   3.267   3.582
 8285SOL    HW225755   3.917   3.254   3.624
 8286SOL     OW25756   0.649   2.746   0.095
 8286SOL    HW125757   0.659   2.842   0.119
 8286SOL    HW225758   0.738   2.701   0.100
 8287SOL     OW25759   1.513   0.174   4.084
 8287SOL    HW125760   1.540   0.227   4.003
 8287SOL    HW225761   1.513   0.076   4.061
 8288SOL     OW25762   3.087   1.339   3.169
 8288SOL    HW125763   3.000   1.291   3.163
 8288SOL    HW225764   3.083   1.405   3.244
 8289SOL     OW25765   0.372   6.447   6.869
 8289SOL    HW125766   0.384   6.350   6.889
 8289SOL    HW225767   0.454   6.481   6.821
 8290SOL     OW25768   6.384   2.033   1.116
 8290SOL    HW125769   6.323   2.111   1.103
 8290SOL    HW225770   6.435   2.044   1.201
 8291SOL     OW25771   4.059   0.748   0.882
 8291SOL    HW125772   4.051   0.847   0.871
 8291SOL    HW225773   4.143   0.716   0.839
 8292SOL     OW25774   3.049   0.501   5.991
 8292SOL    HW125775   3.092   0.578   5.945
 8292SOL    HW225776   3.090   0.415   5.958
 8293SOL     OW25777   6.274   5.440   5.323
 8293SOL    HW125778   6.283   5.396   5.234
 8293SOL    HW225779   6.177   5.448   5.346
 8294SOL     OW25780   6.392   2.637   0.054
 8294SOL    HW125781   6.293   2.628   0.061
 8294SOL    HW225782   6.430   2.653   0.146
 8295SOL     OW25783   4.975   2.859   6.530
 8295SOL    HW125784   4.926   2.787   6.579
 8295SOL    HW225785   5.057   2.884   6.582
 8296SOL     OW25786   0.582   5.114   5.347
 8296SOL    HW125787   0.681   5.119   5.353
 8296SOL    HW225788   0.547   5.051   5.416
 8297SOL     OW25789   1.335   2.978   4.049
 8297SOL    HW125790   1.347   3.034   3.967
 8297SOL    HW225791   1.238   2.974   4.073
 8298SOL     OW25792   4.764   1.874   1.822
 8298SOL    HW125793   4.762   1.902   1.918
 8298SOL    HW225794   4.833   1.928   1.773
 8299SOL     OW25795   5.866   2.144   1.873
 8299SOL    HW125796   5.964   2.156   1.855
 8299SOL    HW225797   5.843   2.047   1.867
 8300SOL     OW25798   1.818   5.280   3.128
 8300SOL    HW125799   1.777   5.248   3.043
 8300SOL    HW225800   1.878   5.209   3.165
 8301SOL     OW25801   2.638   1.407   6.004
 8301SOL    HW125802   2.628   1.460   6.088
 8301SOL    HW225803   2.682   1.320   6.024
 8302SOL     OW25804   6.086   5.800   5.808
 8302SOL    HW125805   6.003   5.846   5.775
 8302SOL    HW225806   6.087   5.802   5.908
 8303SOL     OW25807   0.007   0.136   6.714
 8303SOL    HW125808   0.101   0.129   6.681
 8303SOL    HW225809   6.998   0.046   6.746
 8304SOL     OW25810   0.085   3.245   0.644
 8304SOL    HW125811   0.155   3.313   0.622
 8304SOL    HW225812   0.099   3.212   0.737
 8305SOL     OW25813   2.994   5.237   2.858
 8305SOL    HW125814   3.043   5.154   2.830
 8305SOL    HW225815   2.941   5.218   2.940
 8306SOL     OW25816   1.934   2.863   3.835
 8306SOL    HW125817   1.927   2.766   3.861
 8306SOL    HW225818   2.002   2.908   3.893
 8307SOL     OW25819   3.952   6.080   1.023
 8307SOL    HW125820   3.879   6.074   0.955
 8307SOL    HW225821   3.914   6.075   1.115
 8308SOL     OW25822   2.811   0.634   2.403
 8308SOL    HW125823   2.817   0.627   2.502
 8308SOL    HW225824   2.885   0.693   2.370
 8309SOL     OW25825   5.876   6.431   2.075
 8309SOL    HW125826   5.782   6.460   2.088
 8309SOL    HW225827   5.929   6.506   2.036
 8310SOL     OW25828   6.250   4.948   6.678
 8310SOL    HW125829   6.206   4.994   6.601
 8310SOL    HW225830   6.345   4.926   6.654
 8311SOL     OW25831   6.356   0.066   6.048
 8311SOL    HW125832   6.284   7.019   6.042
 8311SOL    HW225833   6.358   0.105   6.141
 8312SOL     OW25834   4.786   6.268   1.450
 8312SOL    HW125835   4.775   6.258   1.351
 8312SOL    HW225836   4.747   6.356   1.479
 8313SOL     OW25837   4.129   1.455   2.825
 8313SOL    HW125838   4.092   1.398   2.899
 8313SOL    HW225839   4.102   1.550   2.840
 8314SOL     OW25840   0.228   6.911   3.200
 8314SOL    HW125841   0.198   6.836   3.259
 8314SOL    HW225842   0.288   6.972   3.251
 8315SOL     OW25843   4.959   4.428   6.673
 8315SOL    HW125844   4.990   4.520   6.698
 8315SOL    HW225845   5.006   4.361   6.730
 8316SOL     OW25846   2.700   5.304   6.741
 8316SOL    HW125847   2.728   5.290   6.836
 8316SOL    HW225848   2.608   5.343   6.739
 8317SOL     OW25849   2.525   4.680   1.290
 8317SOL    HW125850   2.480   4.730   1.364
 8317SOL    HW225851   2.505   4.583   1.298
 8318SOL     OW25852   3.110   1.174   5.510
 8318SOL    HW125853   3.080   1.269   5.499
 8318SOL    HW225854   3.036   1.112   5.484
 8319SOL     OW25855   2.560   0.588   5.606
 8319SOL    HW125856   2.621   0.643   5.548
 8319SOL    HW225857   2.558   0.628   5.698
 8320SOL     OW25858   4.000   5.005   1.186
 8320SOL    HW125859   4.068   5.073   1.214
 8320SOL    HW225860   3.988   5.010   1.087
 8321SOL     OW25861   6.842   0.659   1.049
 8321SOL    HW125862   6.938   0.635   1.034
 8321SOL    HW225863   6.832   0.699   1.140
 8322SOL     OW25864   5.316   6.887   0.467
 8322SOL    HW125865   5.343   6.862   0.374
 8322SOL    HW225866   5.281   6.806   0.515
 8323SOL     OW25867   1.788   0.598   1.967
 8323SOL    HW125868   1.835   0.675   2.011
 8323SOL    HW225869   1.691   0.600   1.991
 8324SOL     OW25870   6.863   0.965   2.242
 8324SOL    HW125871   6.959   0.938   2.246
 8324SOL    HW225872   6.806   0.884   2.229
 8325SOL     OW25873   3.993   3.807   4.639
 8325SOL    HW125874   3.945   3.810   4.727
 8325SOL    HW225875   4.042   3.720   4.632
 8326SOL     OW25876   4.195   2.929   6.375
 8326SOL    HW125877   4.145   3.007   6.336
 8326SOL    HW225878   4.251   2.960   6.451
 8327SOL     OW25879   5.318   2.295   6.044
 8327SOL    HW125880   5.243   2.327   5.986
 8327SOL    HW225881   5.366   2.375   6.082
 8328SOL     OW25882   2.278   2.857   3.679
 8328SOL    HW125883   2.351   2.805   3.724
 8328SOL    HW225884   2.236   2.919   3.745
 8329SOL     OW25885   0.513   2.965   4.741
 8329SOL    HW125886   0.456   2.917   4.675
 8329SOL    HW225887   0.606   2.928   4.738
 8330SOL     OW25888   2.415   6.790   0.394
 8330SOL    HW125889   2.400   6.880   0.434
 8330SOL    HW225890   2.394   6.793   0.296
 8331SOL     OW25891   2.700   6.893   1.111
 8331SOL    HW125892   2.770   6.886   1.183
 8331SOL    HW225893   2.729   6.839   1.031
 8332SOL     OW25894   4.463   6.154   3.721
 8332SOL    HW125895   4.512   6.227   3.767
 8332SOL    HW225896   4.369   6.183   3.701
 8333SOL     OW25897   1.710   5.408   5.647
 8333SOL    HW125898   1.699   5.507   5.660
 8333SOL    HW225899   1.632   5.360   5.686
 8334SOL     OW25900   6.587   6.803   3.867
 8334SOL    HW125901   6.522   6.831   3.796
 8334SOL    HW225902   6.611   6.707   3.854
 8335SOL     OW25903   6.465   6.457   5.293
 8335SOL    HW125904   6.542   6.466   5.357
 8335SOL    HW225905   6.439   6.361   5.286
 8336SOL     OW25906   1.426   1.987   2.685
 8336SOL    HW125907   1.507   2.043   2.668
 8336SOL    HW225908   1.371   2.030   2.756
 8337SOL     OW25909   0.094   6.415   2.296
 8337SOL    HW125910   0.003   6.421   2.336
 8337SOL    HW225911   0.116   6.319   2.277
 8338SOL     OW25912   2.237   5.152   0.656
 8338SOL    HW125913   2.273   5.171   0.747
 8338SOL    HW225914   2.181   5.068   0.659
 8339SOL     OW25915   5.422   0.893   3.301
 8339SOL    HW125916   5.381   0.971   3.348
 8339SOL    HW225917   5.452   0.921   3.210
 8340SOL     OW25918   4.540   3.833   1.685
 8340SOL    HW125919   4.441   3.847   1.674
 8340SOL    HW225920   4.589   3.909   1.644
 8341SOL     OW25921   2.361   0.043   0.510
 8341SOL    HW125922   2.343   0.112   0.440
 8341SOL    HW225923   2.454   0.053   0.545
 8342SOL     OW25924   5.130   6.790   1.376
 8342SOL    HW125925   5.069   6.865   1.402
 8342SOL    HW225926   5.206   6.785   1.441
 8343SOL     OW25927   0.332   4.678   5.239
 8343SOL    HW125928   0.425   4.679   5.275
 8343SOL    HW225929   0.268   4.703   5.311
 8344SOL     OW25930   3.936   6.991   4.763
 8344SOL    HW125931   4.010   0.009   4.707
 8344SOL    HW225932   3.895   0.042   4.818
 8345SOL     OW25933   6.288   1.387   3.115
 8345SOL    HW125934   6.333   1.475   3.129
 8345SOL    HW225935   6.292   1.333   3.199
 8346SOL     OW25936   4.020   5.156   2.404
 8346SOL    HW125937   4.006   5.179   2.501
 8346SOL    HW225938   4.004   5.059   2.391
 8347SOL     OW25939   3.354   5.196   4.471
 8347SOL    HW125940   3.335   5.183   4.568
 8347SOL    HW225941   3.346   5.108   4.424
 8348SOL     OW25942   2.002   0.530   0.776
 8348SOL    HW125943   2.016   0.459   0.707
 8348SOL    HW225944   1.907   0.528   0.807
 8349SOL     OW25945   6.045   5.326   1.849
 8349SOL    HW125946   5.983   5.398   1.878
 8349SOL    HW225947   6.062   5.335   1.751
 8350SOL     OW25948   6.328   0.897   4.976
 8350SOL    HW125949   6.398   0.947   4.925
 8350SOL    HW225950   6.370   0.821   5.025
 8351SOL     OW25951   3.083   6.160   2.123
 8351SOL    HW125952   3.127   6.109   2.050
 8351SOL    HW225953   3.128   6.141   2.210
 8352SOL     OW25954   6.673   6.000   1.713
 8352SOL    HW125955   6.636   5.978   1.622
 8352SOL    HW225956   6.598   6.004   1.779
 8353SOL     OW25957   1.734   3.511   1.989
 8353SOL    HW125958   1.698   3.457   1.913
 8353SOL    HW225959   1.829   3.486   2.005
 8354SOL     OW25960   2.866   0.557   0.274
 8354SOL    HW125961   2.929   0.522   0.343
 8354SOL    HW225962   2.854   0.488   0.202
 8355SOL     OW25963   3.108   1.332   0.856
 8355SOL    HW125964   3.172   1.405   0.877
 8355SOL    HW225965   3.032   1.335   0.921
 8356SOL     OW25966   2.907   5.253   0.250
 8356SOL    HW125967   2.903   5.154   0.259
 8356SOL    HW225968   3.001   5.281   0.228
 8357SOL     OW25969   4.332   5.767   2.977
 8357SOL    HW125970   4.431   5.755   2.975
 8357SOL    HW225971   4.310   5.864   2.976
 8358SOL     OW25972   3.269   2.056   5.161
 8358SOL    HW125973   3.250   1.979   5.101
 8358SOL    HW225974   3.247   2.142   5.114
 8359SOL     OW25975   3.647   4.877   3.616
 8359SOL    HW125976   3.590   4.797   3.599
 8359SOL    HW225977   3.690   4.907   3.531
 8360SOL     OW25978   4.350   0.683   3.239
 8360SOL    HW125979   4.422   0.748   3.216
 8360SOL    HW225980   4.284   0.679   3.164
 8361SOL     OW25981   1.334   0.431   3.069
 8361SOL    HW125982   1.268   0.450   2.995
 8361SOL    HW225983   1.420   0.478   3.050
 8362SOL     OW25984   2.394   3.062   0.518
 8362SOL    HW125985   2.489   3.060   0.548
 8362SOL    HW225986   2.352   3.148   0.546
 8363SOL     OW25987   0.672   3.641   1.699
 8363SOL    HW125988   0.624   3.725   1.676
 8363SOL    HW225989   0.743   3.623   1.630
 8364SOL     OW25990   6.873   4.655   5.595
 8364SOL    HW125991   6.946   4.610   5.543
 8364SOL    HW225992   6.889   4.753   5.597
 8365SOL     OW25993   1.305   3.777   6.029
 8365SOL    HW125994   1.220   3.734   6.060
 8365SOL    HW225995   1.284   3.846   5.960
 8366SOL     OW25996   2.384   6.822   2.345
 8366SOL    HW125997   2.437   6.907   2.345
 8366SOL    HW225998   2.443   6.746   2.316
 8367SOL     OW25999   5.080   5.677   3.560
 8367SOL    HW126000   5.008   5.728   3.514
 8367SOL    HW226001   5.042   5.592   3.597
 8368SOL     OW26002   3.181   5.820   6.108
 8368SOL    HW126003   3.262   5.772   6.142
 8368SOL    HW226004   3.181   5.820   6.008
 8369SOL     OW26005   2.521   1.547   1.133
 8369SOL    HW126006   2.424   1.530   1.150
 8369SOL    HW226007   2.569   1.553   1.220
 8370SOL     OW26008   1.992   1.275   6.957
 8370SOL    HW126009   1.921   1.346   6.949
 8370SOL    HW226010   2.072   1.302   6.903
 8371SOL     OW26011   1.596   2.400   0.249
 8371SOL    HW126012   1.545   2.336   0.192
 8371SOL    HW226013   1.545   2.486   0.257
 8372SOL     OW26014   6.490   0.553   0.514
 8372SOL    HW126015   6.447   0.572   0.603
 8372SOL    HW226016   6.439   0.480   0.468
 8373SOL     OW26017   1.606   6.852   4.274
 8373SOL    HW126018   1.603   6.758   4.240
 8373SOL    HW226019   1.599   6.916   4.197
 8374SOL     OW26020   6.784   0.743   6.061
 8374SOL    HW126021   6.828   0.653   6.063
 8374SOL    HW226022   6.685   0.732   6.065
 8375SOL     OW26023   4.188   0.721   6.291
 8375SOL    HW126024   4.155   0.783   6.362
 8375SOL    HW226025   4.167   0.627   6.317
 8376SOL     OW26026   4.381   0.510   4.242
 8376SOL    HW126027   4.368   0.533   4.338
 8376SOL    HW226028   4.404   0.413   4.233
 8377SOL     OW26029   5.580   5.000   0.862
 8377SOL    HW126030   5.593   4.981   0.765
 8377SOL    HW226031   5.666   5.032   0.902
 8378SOL     OW26032   4.845   2.867   3.616
 8378SOL    HW126033   4.894   2.950   3.590
 8378SOL    HW226034   4.906   2.806   3.666
 8379SOL     OW26035   5.132   2.794   2.379
 8379SOL    HW126036   5.221   2.750   2.369
 8379SOL    HW226037   5.142   2.892   2.365
 8380SOL     OW26038   5.971   1.538   3.730
 8380SOL    HW126039   6.055   1.484   3.740
 8380SOL    HW226040   5.900   1.480   3.688
 8381SOL     OW26041   1.813   5.481   4.189
 8381SOL    HW126042   1.835   5.578   4.181
 8381SOL    HW226043   1.714   5.469   4.178
 8382SOL     OW26044   0.467   4.514   2.059
 8382SOL    HW126045   0.433   4.555   2.143
 8382SOL    HW226046   0.472   4.583   1.987
 8383SOL     OW26047   3.395   1.363   5.468
 8383SOL    HW126048   3.342   1.427   5.524
 8383SOL    HW226049   3.367   1.269   5.489
 8384SOL     OW26050   0.874   0.013   1.601
 8384SOL    HW126051   0.879   6.941   1.636
 8384SOL    HW226052   0.967   0.049   1.592
 8385SOL     OW26053   4.024   1.550   1.241
 8385SOL    HW126054   3.948   1.616   1.237
 8385SOL    HW226055   3.988   1.457   1.248
 8386SOL     OW26056   0.595   3.155   2.126
 8386SOL    HW126057   0.650   3.144   2.209
 8386SOL    HW226058   0.572   3.252   2.115
 8387SOL     OW26059   0.824   2.037   1.715
 8387SOL    HW126060   0.822   2.034   1.815
 8387SOL    HW226061   0.733   2.014   1.680
 8388SOL     OW26062   0.965   6.485   3.013
 8388SOL    HW126063   0.907   6.564   2.991
 8388SOL    HW226064   1.061   6.513   3.011
 8389SOL     OW26065   6.054   3.187   3.678
 8389SOL    HW126066   5.977   3.221   3.625
 8389SOL    HW226067   6.097   3.110   3.630
 8390SOL     OW26068   6.110   2.066   6.611
 8390SOL    HW126069   6.038   2.000   6.588
 8390SOL    HW226070   6.193   2.043   6.560
 8391SOL     OW26071   6.503   0.000   1.330
 8391SOL    HW126072   6.576   0.063   1.302
 8391SOL    HW226073   6.543   6.934   1.359
 8392SOL     OW26074   3.648   2.995   4.903
 8392SOL    HW126075   3.653   2.897   4.885
 8392SOL    HW226076   3.739   3.029   4.927
 8393SOL     OW26077   5.872   0.099   1.240
 8393SOL    HW126078   5.923   0.023   1.281
 8393SOL    HW226079   5.912   0.186   1.270
 8394SOL     OW26080   5.832   2.913   2.369
 8394SOL    HW126081   5.828   2.830   2.313
 8394SOL    HW226082   5.915   2.912   2.425
 8395SOL     OW26083   2.343   0.865   4.967
 8395SOL    HW126084   2.298   0.789   4.922
 8395SOL    HW226085   2.277   0.918   5.020
 8396SOL     OW26086   5.032   5.259   4.228
 8396SOL    HW126087   5.116   5.220   4.265
 8396SOL    HW226088   5.049   5.354   4.201
 8397SOL     OW26089   6.186   6.807   2.842
 8397SOL    HW126090   6.143   6.831   2.755
 8397SOL    HW226091   6.120   6.759   2.900
 8398SOL     OW26092   5.991   1.761   6.627
 8398SOL    HW126093   5.977   1.662   6.629
 8398SOL    HW226094   5.985   1.793   6.532
 8399SOL     OW26095   0.422   4.437   2.576
 8399SOL    HW126096   0.403   4.516   2.518
 8399SOL    HW226097   0.520   4.434   2.597
 8400SOL     OW26098   0.759   0.862   4.968
 8400SOL    HW126099   0.756   0.821   5.059
 8400SOL    HW226100   0.801   0.953   4.974
 8401SOL     OW26101   2.159   0.423   5.863
 8401SOL    HW126102   2.153   0.504   5.921
 8401SOL    HW226103   2.195   0.347   5.916
 8402SOL     OW26104   3.070   0.503   6.265
 8402SOL    HW126105   3.106   0.593   6.288
 8402SOL    HW226106   3.053   0.497   6.167
 8403SOL     OW26107   5.842   4.923   5.405
 8403SOL    HW126108   5.758   4.927   5.460
 8403SOL    HW226109   5.841   4.842   5.347
 8404SOL     OW26110   1.278   1.421   0.269
 8404SOL    HW126111   1.185   1.413   0.306
 8404SOL    HW226112   1.340   1.448   0.343
 8405SOL     OW26113   4.027   6.768   5.646
 8405SOL    HW126114   4.054   6.821   5.566
 8405SOL    HW226115   4.076   6.681   5.647
 8406SOL     OW26116   5.687   0.659   5.833
 8406SOL    HW126117   5.701   0.565   5.800
 8406SOL    HW226118   5.775   0.704   5.841
 8407SOL     OW26119   4.565   0.944   4.562
 8407SOL    HW126120   4.568   0.876   4.489
 8407SOL    HW226121   4.471   0.975   4.575
 8408SOL     OW26122   3.890   2.172   1.514
 8408SOL    HW126123   3.974   2.120   1.496
 8408SOL    HW226124   3.902   2.226   1.597
 8409SOL     OW26125   4.369   2.386   1.823
 8409SOL    HW126126   4.407   2.318   1.759
 8409SOL    HW226127   4.350   2.470   1.773
 8410SOL     OW26128   7.008   1.758   1.552
 8410SOL    HW126129   6.966   1.688   1.496
 8410SOL    HW226130   6.980   1.848   1.520
 8411SOL     OW26131   1.143   5.832   0.993
 8411SOL    HW126132   1.134   5.918   0.943
 8411SOL    HW226133   1.086   5.834   1.075
 8412SOL     OW26134   2.652   2.826   0.251
 8412SOL    HW126135   2.647   2.844   0.153
 8412SOL    HW226136   2.734   2.869   0.289
 8413SOL     OW26137   3.573   5.923   4.706
 8413SOL    HW126138   3.512   5.877   4.641
 8413SOL    HW226139   3.668   5.917   4.673
 8414SOL     OW26140   2.066   6.831   0.822
 8414SOL    HW126141   2.109   6.915   0.790
 8414SOL    HW226142   2.132   6.780   0.878
 8415SOL     OW26143   3.459   1.571   6.432
 8415SOL    HW126144   3.439   1.636   6.358
 8415SOL    HW226145   3.375   1.524   6.458
 8416SOL     OW26146   0.603   2.746   5.007
 8416SOL    HW126147   0.702   2.741   4.997
 8416SOL    HW226148   0.559   2.713   4.923
 8417SOL     OW26149   1.922   3.604   6.105
 8417SOL    HW126150   1.952   3.523   6.055
 8417SOL    HW226151   1.936   3.589   6.203
 8418SOL     OW26152   0.067   6.185   2.564
 8418SOL    HW126153   0.072   6.284   2.577
 8418SOL    HW226154   0.088   6.163   2.469
 8419SOL     OW26155   3.595   1.467   4.442
 8419SOL    HW126156   3.581   1.473   4.541
 8419SOL    HW226157   3.513   1.497   4.394
 8420SOL     OW26158   3.499   0.987   2.163
 8420SOL    HW126159   3.406   0.952   2.172
 8420SOL    HW226160   3.505   1.048   2.084
 8421SOL     OW26161   4.821   0.107   6.671
 8421SOL    HW126162   4.781   0.132   6.582
 8421SOL    HW226163   4.915   0.076   6.657
 8422SOL     OW26164   5.319   2.207   4.221
 8422SOL    HW126165   5.258   2.236   4.295
 8422SOL    HW226166   5.284   2.239   4.134
 8423SOL     OW26167   5.982   5.918   0.124
 8423SOL    HW126168   5.882   5.914   0.128
 8423SOL    HW226169   6.020   5.827   0.141
 8424SOL     OW26170   2.969   0.530   5.132
 8424SOL    HW126171   3.011   0.513   5.221
 8424SOL    HW226172   3.038   0.525   5.060
 8425SOL     OW26173   3.572   3.322   2.090
 8425SOL    HW126174   3.522   3.237   2.071
 8425SOL    HW226175   3.520   3.378   2.154
 8426SOL     OW26176   3.539   3.343   1.593
 8426SOL    HW126177   3.463   3.279   1.605
 8426SOL    HW226178   3.503   3.436   1.587
 8427SOL     OW26179   4.016   3.172   3.030
 8427SOL    HW126180   3.994   3.166   3.127
 8427SOL    HW226181   4.064   3.089   3.001
 8428SOL     OW26182   5.703   0.298   2.087
 8428SOL    HW126183   5.763   0.226   2.052
 8428SOL    HW226184   5.643   0.260   2.157
 8429SOL     OW26185   3.209   6.167   5.321
 8429SOL    HW126186   3.297   6.129   5.292
 8429SOL    HW226187   3.159   6.099   5.375
 8430SOL     OW26188   5.198   6.688   5.525
 8430SOL    HW126189   5.105   6.722   5.507
 8430SOL    HW226190   5.262   6.732   5.462
 8431SOL     OW26191   2.311   3.147   6.199
 8431SOL    HW126192   2.342   3.203   6.122
 8431SOL    HW226193   2.279   3.059   6.164
 8432SOL     OW26194   6.492   5.132   5.934
 8432SOL    HW126195   6.538   5.070   5.870
 8432SOL    HW226196   6.511   5.103   6.028
 8433SOL     OW26197   5.110   2.015   1.115
 8433SOL    HW126198   5.194   2.024   1.168
 8433SOL    HW226199   5.040   1.970   1.171
 8434SOL     OW26200   3.066   6.228   4.849
 8434SOL    HW126201   3.036   6.168   4.923
 8434SOL    HW226202   3.150   6.276   4.876
 8435SOL     OW26203   6.720   1.899   3.035
 8435SOL    HW126204   6.623   1.874   3.045
 8435SOL    HW226205   6.729   1.968   2.963
 8436SOL     OW26206   1.807   5.215   2.828
 8436SOL    HW126207   1.852   5.127   2.814
 8436SOL    HW226208   1.713   5.211   2.793
 8437SOL     OW26209   1.728   5.916   0.657
 8437SOL    HW126210   1.720   5.858   0.576
 8437SOL    HW226211   1.728   5.859   0.739
 8438SOL     OW26212   1.054   4.157   2.666
 8438SOL    HW126213   1.150   4.149   2.690
 8438SOL    HW226214   1.038   4.116   2.576
 8439SOL     OW26215   6.293   4.086   2.470
 8439SOL    HW126216   6.261   3.995   2.445
 8439SOL    HW226217   6.227   4.155   2.441
 8440SOL     OW26218   1.735   1.756   2.232
 8440SOL    HW126219   1.637   1.759   2.253
 8440SOL    HW226220   1.782   1.825   2.287
 8441SOL     OW26221   6.896   2.705   5.841
 8441SOL    HW126222   6.950   2.737   5.764
 8441SOL    HW226223   6.799   2.723   5.823
 8442SOL     OW26224   3.790   2.404   6.604
 8442SOL    HW126225   3.848   2.347   6.662
 8442SOL    HW226226   3.820   2.396   6.509
 8443SOL     OW26227   2.046   4.359   2.807
 8443SOL    HW126228   2.110   4.289   2.836
 8443SOL    HW226229   2.037   4.428   2.878
 8444SOL     OW26230   5.699   5.210   4.955
 8444SOL    HW126231   5.754   5.273   4.901
 8444SOL    HW226232   5.757   5.138   4.992
 8445SOL     OW26233   4.359   6.272   6.943
 8445SOL    HW126234   4.321   6.232   0.005
 8445SOL    HW226235   4.325   6.221   6.864
 8446SOL     OW26236   6.439   5.782   4.445
 8446SOL    HW126237   6.450   5.808   4.541
 8446SOL    HW226238   6.381   5.848   4.399
 8447SOL     OW26239   3.504   1.933   4.485
 8447SOL    HW126240   3.593   1.963   4.519
 8447SOL    HW226241   3.435   2.001   4.508
 8448SOL     OW26242   3.339   6.495   2.882
 8448SOL    HW126243   3.285   6.448   2.812
 8448SOL    HW226244   3.321   6.593   2.877
 8449SOL     OW26245   1.428   2.499   4.134
 8449SOL    HW126246   1.363   2.446   4.188
 8449SOL    HW226247   1.504   2.528   4.192
 8450SOL     OW26248   6.798   0.841   0.607
 8450SOL    HW126249   6.773   0.936   0.588
 8450SOL    HW226250   6.897   0.830   0.600
 8451SOL     OW26251   3.949   2.903   1.607
 8451SOL    HW126252   3.875   2.970   1.604
 8451SOL    HW226253   4.019   2.926   1.540
 8452SOL     OW26254   5.122   0.855   5.806
 8452SOL    HW126255   5.155   0.891   5.719
 8452SOL    HW226256   5.152   0.760   5.817
 8453SOL     OW26257   0.173   0.503   0.392
 8453SOL    HW126258   0.174   0.580   0.456
 8453SOL    HW226259   0.089   0.507   0.337
 8454SOL     OW26260   6.209   6.069   6.712
 8454SOL    HW126261   6.129   6.115   6.673
 8454SOL    HW226262   6.270   6.041   6.638
 8455SOL     OW26263   6.110   0.692   2.786
 8455SOL    HW126264   6.114   0.686   2.686
 8455SOL    HW226265   6.128   0.602   2.826
 8456SOL     OW26266   6.989   0.341   2.218
 8456SOL    HW126267   6.946   0.374   2.134
 8456SOL    HW226268   6.936   0.264   2.255
 8457SOL     OW26269   6.856   0.124   5.049
 8457SOL    HW126270   6.927   0.155   5.113
 8457SOL    HW226271   6.856   0.025   5.045
 8458SOL     OW26272   0.890   6.857   0.145
 8458SOL    HW126273   0.869   6.824   0.237
 8458SOL    HW226274   0.957   6.931   0.151
 8459SOL     OW26275   0.750   5.647   2.830
 8459SOL    HW126276   0.681   5.717   2.812
 8459SOL    HW226277   0.833   5.691   2.864
 8460SOL     OW26278   4.040   3.439   3.297
 8460SOL    HW126279   3.944   3.459   3.316
 8460SOL    HW226280   4.095   3.462   3.377
 8461SOL     OW26281   6.311   3.430   3.717
 8461SOL    HW126282   6.222   3.426   3.670
 8461SOL    HW226283   6.355   3.340   3.713
 8462SOL     OW26284   2.647   2.423   1.850
 8462SOL    HW126285   2.728   2.383   1.893
 8462SOL    HW226286   2.607   2.358   1.786
 8463SOL     OW26287   6.403   0.538   1.713
 8463SOL    HW126288   6.423   0.628   1.751
 8463SOL    HW226289   6.369   0.547   1.619
 8464SOL     OW26290   6.968   1.069   4.315
 8464SOL    HW126291   6.947   1.159   4.278
 8464SOL    HW226292   6.901   1.045   4.385
 8465SOL     OW26293   2.000   1.414   0.594
 8465SOL    HW126294   2.007   1.453   0.686
 8465SOL    HW226295   2.078   1.353   0.577
 8466SOL     OW26296   0.837   6.976   4.120
 8466SOL    HW126297   0.906   6.915   4.160
 8466SOL    HW226298   0.786   6.927   4.050
 8467SOL     OW26299   4.140   5.415   0.664
 8467SOL    HW126300   4.180   5.452   0.580
 8467SOL    HW226301   4.113   5.490   0.724
 8468SOL     OW26302   3.551   2.303   0.205
 8468SOL    HW126303   3.561   2.382   0.145
 8468SOL    HW226304   3.616   2.232   0.179
 8469SOL     OW26305   4.385   2.070   5.711
 8469SOL    HW126306   4.293   2.030   5.706
 8469SOL    HW226307   4.443   2.029   5.641
 8470SOL     OW26308   2.020   2.879   0.007
 8470SOL    HW126309   2.017   2.787   6.990
 8470SOL    HW226310   2.113   2.899   0.040
 8471SOL     OW26311   4.448   1.560   4.925
 8471SOL    HW126312   4.356   1.520   4.929
 8471SOL    HW226313   4.442   1.654   4.892
 8472SOL     OW26314   1.281   6.435   2.964
 8472SOL    HW126315   1.263   6.485   2.879
 8472SOL    HW226316   1.265   6.337   2.949
 8473SOL     OW26317   6.651   5.982   6.732
 8473SOL    HW126318   6.706   6.065   6.731
 8473SOL    HW226319   6.602   5.975   6.819
 8474SOL     OW26320   4.070   5.505   6.939
 8474SOL    HW126321   4.115   5.549   7.016
 8474SOL    HW226322   3.985   5.462   6.970
 8475SOL     OW26323   4.683   2.008   2.738
 8475SOL    HW126324   4.732   1.931   2.698
 8475SOL    HW226325   4.748   2.077   2.770
 8476SOL     OW26326   4.728   0.168   3.086
 8476SOL    HW126327   4.713   0.262   3.054
 8476SOL    HW226328   4.779   0.118   3.017
 8477SOL     OW26329   3.442   6.965   3.114
 8477SOL    HW126330   3.360   6.917   3.145
 8477SOL    HW226331   3.416   0.019   3.054
 8478SOL     OW26332   1.193   0.196   5.886
 8478SOL    HW126333   1.129   0.163   5.817
 8478SOL    HW226334   1.243   0.275   5.849
 8479SOL     OW26335   5.434   0.760   2.368
 8479SOL    HW126336   5.403   0.717   2.452
 8479SOL    HW226337   5.522   0.721   2.340
 8480SOL     OW26338   1.820   1.034   1.663
 8480SOL    HW126339   1.773   1.103   1.608
 8480SOL    HW226340   1.842   0.955   1.605
 8481SOL     OW26341   4.405   0.162   5.506
 8481SOL    HW126342   4.505   0.162   5.495
 8481SOL    HW226343   4.375   0.072   5.536
 8482SOL     OW26344   0.031   0.597   1.440
 8482SOL    HW126345   0.063   0.571   1.531
 8482SOL    HW226346   0.105   0.643   1.391
 8483SOL     OW26347   5.148   6.462   2.064
 8483SOL    HW126348   5.149   6.392   1.992
 8483SOL    HW226349   5.208   6.434   2.139
 8484SOL     OW26350   6.588   4.902   5.791
 8484SOL    HW126351   6.675   4.949   5.773
 8484SOL    HW226352   6.536   4.894   5.706
 8485SOL     OW26353   1.735   3.262   6.282
 8485SOL    HW126354   1.742   3.240   6.185
 8485SOL    HW226355   1.826   3.268   6.322
 8486SOL     OW26356   4.267   0.900   2.620
 8486SOL    HW126357   4.248   0.958   2.699
 8486SOL    HW226358   4.199   0.827   2.615
 8487SOL     OW26359   4.358   0.673   0.571
 8487SOL    HW126360   4.411   0.700   0.652
 8487SOL    HW226361   4.275   0.625   0.600
 8488SOL     OW26362   6.720   3.689   5.347
 8488SOL    HW126363   6.653   3.626   5.308
 8488SOL    HW226364   6.679   3.738   5.424
 8489SOL     OW26365   3.093   0.051   3.379
 8489SOL    HW126366   3.136   0.141   3.374
 8489SOL    HW226367   3.162   7.001   3.372
 8490SOL     OW26368   3.855   4.992   2.640
 8490SOL    HW126369   3.892   4.963   2.552
 8490SOL    HW226370   3.757   5.006   2.633
 8491SOL     OW26371   1.069   0.931   1.623
 8491SOL    HW126372   1.013   0.867   1.571
 8491SOL    HW226373   1.020   1.018   1.632
 8492SOL     OW26374   5.788   4.044   4.651
 8492SOL    HW126375   5.823   3.954   4.627
 8492SOL    HW226376   5.731   4.079   4.577
 8493SOL     OW26377   3.333   2.959   1.051
 8493SOL    HW126378   3.301   2.903   1.128
 8493SOL    HW226379   3.349   2.901   0.972
 8494SOL     OW26380   3.464   6.464   6.687
 8494SOL    HW126381   3.419   6.523   6.753
 8494SOL    HW226382   3.458   6.504   6.595
 8495SOL     OW26383   0.661   2.831   6.607
 8495SOL    HW126384   0.656   2.761   6.536
 8495SOL    HW226385   0.617   2.798   6.690
 8496SOL     OW26386   1.018   2.284   3.404
 8496SOL    HW126387   0.984   2.232   3.483
 8496SOL    HW226388   0.941   2.325   3.356
 8497SOL     OW26389   5.874   3.916   3.469
 8497SOL    HW126390   5.912   3.896   3.379
 8497SOL    HW226391   5.824   3.836   3.503
 8498SOL     OW26392   6.837   0.774   1.413
 8498SOL    HW126393   6.837   0.861   1.461
 8498SOL    HW226394   6.899   0.711   1.458
 8499SOL     OW26395   0.009   4.460   0.622
 8499SOL    HW126396   6.958   4.500   0.678
 8499SOL    HW226397   0.057   4.533   0.573
 8500SOL     OW26398   2.294   0.494   5.578
 8500SOL    HW126399   2.393   0.484   5.587
 8500SOL    HW226400   2.249   0.462   5.661
 8501SOL     OW26401   2.644   3.690   6.372
 8501SOL    HW126402   2.739   3.710   6.347
 8501SOL    HW226403   2.614   3.607   6.324
 8502SOL     OW26404   0.897   6.756   1.648
 8502SOL    HW126405   0.867   6.686   1.713
 8502SOL    HW226406   0.850   6.744   1.561
 8503SOL     OW26407   3.872   5.430   3.316
 8503SOL    HW126408   3.957   5.419   3.367
 8503SOL    HW226409   3.893   5.444   3.219
 8504SOL     OW26410   1.172   4.742   3.263
 8504SOL    HW126411   1.211   4.802   3.193
 8504SOL    HW226412   1.190   4.781   3.353
 8505SOL     OW26413   4.449   2.165   3.487
 8505SOL    HW126414   4.534   2.207   3.457
 8505SOL    HW226415   4.402   2.227   3.551
 8506SOL     OW26416   0.611   5.536   6.763
 8506SOL    HW126417   0.564   5.556   6.849
 8506SOL    HW226418   0.548   5.549   6.687
 8507SOL     OW26419   1.624   0.518   4.409
 8507SOL    HW126420   1.647   0.488   4.501
 8507SOL    HW226421   1.617   0.438   4.348
 8508SOL     OW26422   0.620   3.312   5.421
 8508SOL    HW126423   0.624   3.365   5.337
 8508SOL    HW226424   0.526   3.310   5.456
 8509SOL     OW26425   6.066   2.259   4.810
 8509SOL    HW126426   6.022   2.211   4.734
 8509SOL    HW226427   5.997   2.307   4.864
 8510SOL     OW26428   4.833   0.047   2.611
 8510SOL    HW126429   4.859   0.142   2.592
 8510SOL    HW226430   4.829   7.017   2.525
 8511SOL     OW26431   6.571   5.433   1.665
 8511SOL    HW126432   6.482   5.415   1.623
 8511SOL    HW226433   6.587   5.531   1.668
 8512SOL     OW26434   4.259   3.086   1.053
 8512SOL    HW126435   4.280   3.164   1.111
 8512SOL    HW226436   4.335   3.021   1.056
 8513SOL     OW26437   0.551   3.439   0.944
 8513SOL    HW126438   0.629   3.399   0.993
 8513SOL    HW226439   0.467   3.425   0.997
 8514SOL     OW26440   2.175   2.916   4.837
 8514SOL    HW126441   2.149   2.820   4.847
 8514SOL    HW226442   2.247   2.938   4.903
 8515SOL     OW26443   2.716   0.973   0.167
 8515SOL    HW126444   2.744   0.969   0.071
 8515SOL    HW226445   2.789   0.936   0.225
 8516SOL     OW26446   6.425   3.424   4.959
 8516SOL    HW126447   6.392   3.489   4.890
 8516SOL    HW226448   6.517   3.393   4.934
 8517SOL     OW26449   1.492   1.905   5.947
 8517SOL    HW126450   1.393   1.905   5.931
 8517SOL    HW226451   1.517   1.984   6.002
 8518SOL     OW26452   5.484   4.770   0.052
 8518SOL    HW126453   5.560   4.781   7.010
 8518SOL    HW226454   5.507   4.810   0.141
 8519SOL     OW26455   0.665   3.878   0.586
 8519SOL    HW126456   0.685   3.784   0.611
 8519SOL    HW226457   0.583   3.880   0.527
 8520SOL     OW26458   3.307   3.758   6.057
 8520SOL    HW126459   3.334   3.841   6.010
 8520SOL    HW226460   3.389   3.709   6.088
 8521SOL     OW26461   1.922   6.828   4.709
 8521SOL    HW126462   1.877   6.805   4.623
 8521SOL    HW226463   1.949   6.744   4.756
 8522SOL     OW26464   0.152   0.529   0.063
 8522SOL    HW126465   0.239   0.547   0.109
 8522SOL    HW226466   0.167   0.469   7.006
 8523SOL     OW26467   3.994   1.813   1.448
 8523SOL    HW126468   4.071   1.748   1.442
 8523SOL    HW226469   3.917   1.769   1.494
 8524SOL     OW26470   3.082   6.384   5.239
 8524SOL    HW126471   2.984   6.365   5.248
 8524SOL    HW226472   3.134   6.311   5.283
 8525SOL     OW26473   6.132   2.895   2.544
 8525SOL    HW126474   6.110   2.806   2.583
 8525SOL    HW226475   6.221   2.925   2.577
 8526SOL     OW26476   0.386   4.522   6.667
 8526SOL    HW126477   0.316   4.454   6.650
 8526SOL    HW226478   0.425   4.553   6.580
 8527SOL     OW26479   2.819   0.608   6.103
 8527SOL    HW126480   2.871   0.547   6.043
 8527SOL    HW226481   2.881   0.650   6.170
 8528SOL     OW26482   5.700   0.503   1.048
 8528SOL    HW126483   5.605   0.534   1.047
 8528SOL    HW226484   5.703   0.406   1.074
 8529SOL     OW26485   1.009   6.402   6.444
 8529SOL    HW126486   1.030   6.496   6.415
 8529SOL    HW226487   0.942   6.403   6.518
 8530SOL     OW26488   4.119   3.773   2.690
 8530SOL    HW126489   4.115   3.678   2.721
 8530SOL    HW226490   4.211   3.810   2.708
 8531SOL     OW26491   6.365   5.819   3.303
 8531SOL    HW126492   6.333   5.911   3.281
 8531SOL    HW226493   6.289   5.754   3.294
 8532SOL     OW26494   3.595   5.422   0.353
 8532SOL    HW126495   3.556   5.333   0.376
 8532SOL    HW226496   3.521   5.487   0.336
 8533SOL     OW26497   2.482   6.214   5.179
 8533SOL    HW126498   2.429   6.143   5.226
 8533SOL    HW226499   2.556   6.245   5.239
 8534SOL     OW26500   1.872   3.267   1.995
 8534SOL    HW126501   1.898   3.241   1.902
 8534SOL    HW226502   1.952   3.261   2.054
 8535SOL     OW26503   6.222   0.128   2.157
 8535SOL    HW126504   6.209   0.116   2.255
 8535SOL    HW226505   6.134   0.119   2.110
 8536SOL     OW26506   1.595   1.103   3.937
 8536SOL    HW126507   1.527   1.030   3.930
 8536SOL    HW226508   1.548   1.190   3.952
 8537SOL     OW26509   5.895   1.078   3.125
 8537SOL    HW126510   5.825   1.144   3.153
 8537SOL    HW226511   5.852   0.989   3.109
 8538SOL     OW26512   0.640   2.134   6.888
 8538SOL    HW126513   0.698   2.216   6.884
 8538SOL    HW226514   0.547   2.157   6.859
 8539SOL     OW26515   5.372   3.077   2.078
 8539SOL    HW126516   5.426   3.098   1.997
 8539SOL    HW226517   5.328   2.987   2.067
 8540SOL     OW26518   4.193   0.308   1.356
 8540SOL    HW126519   4.256   0.385   1.357
 8540SOL    HW226520   4.144   0.304   1.443
 8541SOL     OW26521   1.672   3.048   3.391
 8541SOL    HW126522   1.737   3.032   3.317
 8541SOL    HW226523   1.706   3.005   3.475
 8542SOL     OW26524   2.885   4.668   6.453
 8542SOL    HW126525   2.863   4.590   6.512
 8542SOL    HW226526   2.884   4.638   6.357
 8543SOL     OW26527   3.690   2.069   6.438
 8543SOL    HW126528   3.598   2.047   6.469
 8543SOL    HW226529   3.751   2.078   6.517
 8544SOL     OW26530   6.055   1.744   4.178
 8544SOL    HW126531   6.088   1.676   4.111
 8544SOL    HW226532   6.057   1.704   4.269
 8545SOL     OW26533   4.377   6.557   5.292
 8545SOL    HW126534   4.473   6.566   5.266
 8545SOL    HW226535   4.364   6.597   5.383
 8546SOL     OW26536   4.102   2.150   0.168
 8546SOL    HW126537   4.177   2.166   0.232
 8546SOL    HW226538   4.017   2.186   0.207
 8547SOL     OW26539   1.797   4.473   2.164
 8547SOL    HW126540   1.707   4.483   2.206
 8547SOL    HW226541   1.859   4.425   2.226
 8548SOL     OW26542   6.193   1.936   5.487
 8548SOL    HW126543   6.190   1.970   5.581
 8548SOL    HW226544   6.141   1.997   5.427
 8549SOL     OW26545   5.203   3.003   5.268
 8549SOL    HW126546   5.263   2.961   5.336
 8549SOL    HW226547   5.217   2.958   5.179
 8550SOL     OW26548   1.452   4.627   5.278
 8550SOL    HW126549   1.373   4.632   5.218
 8550SOL    HW226550   1.534   4.608   5.224
 8551SOL     OW26551   2.141   4.654   1.170
 8551SOL    HW126552   2.237   4.641   1.191
 8551SOL    HW226553   2.086   4.588   1.221
 8552SOL     OW26554   2.718   6.573   4.706
 8552SOL    HW126555   2.645   6.593   4.772
 8552SOL    HW226556   2.720   6.645   4.636
 8553SOL     OW26557   6.230   5.639   6.973
 8553SOL    HW126558   6.214   5.653   0.049
 8553SOL    HW226559   6.272   5.720   6.933
 8554SOL     OW26560   5.871   3.981   0.579
 8554SOL    HW126561   5.896   3.993   0.483
 8554SOL    HW226562   5.831   3.890   0.592
 8555SOL     OW26563   2.110   6.647   4.308
 8555SOL    HW126564   2.086   6.730   4.258
 8555SOL    HW226565   2.082   6.567   4.254
 8556SOL     OW26566   5.907   6.802   4.843
 8556SOL    HW126567   5.850   6.750   4.780
 8556SOL    HW226568   5.926   6.892   4.805
 8557SOL     OW26569   6.428   1.762   1.097
 8557SOL    HW126570   6.366   1.713   1.035
 8557SOL    HW226571   6.404   1.859   1.096
 8558SOL     OW26572   1.560   4.149   2.461
 8558SOL    HW126573   1.541   4.059   2.500
 8558SOL    HW226574   1.474   4.193   2.435
 8559SOL     OW26575   0.921   1.586   5.185
 8559SOL    HW126576   1.002   1.549   5.141
 8559SOL    HW226577   0.944   1.675   5.227
 8560SOL     OW26578   6.661   2.666   6.692
 8560SOL    HW126579   6.743   2.663   6.749
 8560SOL    HW226580   6.583   2.695   6.747
 8561SOL     OW26581   4.849   5.859   6.441
 8561SOL    HW126582   4.832   5.908   6.527
 8561SOL    HW226583   4.934   5.807   6.449
 8562SOL     OW26584   3.974   0.597   4.419
 8562SOL    HW126585   4.005   0.502   4.419
 8562SOL    HW226586   3.925   0.616   4.334
 8563SOL     OW26587   2.686   3.022   6.732
 8563SOL    HW126588   2.705   2.925   6.718
 8563SOL    HW226589   2.688   3.043   6.829
 8564SOL     OW26590   0.729   5.635   3.228
 8564SOL    HW126591   0.821   5.671   3.244
 8564SOL    HW226592   0.734   5.539   3.202
 8565SOL     OW26593   3.338   1.086   1.459
 8565SOL    HW126594   3.246   1.123   1.470
 8565SOL    HW226595   3.340   0.990   1.486
 8566SOL     OW26596   1.651   4.093   4.285
 8566SOL    HW126597   1.639   4.116   4.382
 8566SOL    HW226598   1.719   4.155   4.245
 8567SOL     OW26599   5.409   6.597   6.347
 8567SOL    HW126600   5.347   6.520   6.335
 8567SOL    HW226601   5.503   6.563   6.358
 8568SOL     OW26602   5.599   0.114   0.714
 8568SOL    HW126603   5.636   0.205   0.697
 8568SOL    HW226604   5.504   0.111   0.684
 8569SOL     OW26605   3.316   0.566   5.340
 8569SOL    HW126606   3.256   0.487   5.344
 8569SOL    HW226607   3.411   0.536   5.345
 8570SOL     OW26608   6.463   3.479   6.333
 8570SOL    HW126609   6.486   3.386   6.305
 8570SOL    HW226610   6.543   3.523   6.373
 8571SOL     OW26611   6.701   4.214   5.844
 8571SOL    HW126612   6.612   4.180   5.876
 8571SOL    HW226613   6.742   4.272   5.914
 8572SOL     OW26614   2.615   4.976   6.246
 8572SOL    HW126615   2.607   4.911   6.321
 8572SOL    HW226616   2.708   5.011   6.242
 8573SOL     OW26617   3.453   6.161   3.975
 8573SOL    HW126618   3.454   6.107   3.891
 8573SOL    HW226619   3.410   6.108   4.048
 8574SOL     OW26620   1.061   4.082   4.067
 8574SOL    HW126621   1.113   4.091   4.152
 8574SOL    HW226622   0.964   4.073   4.088
 8575SOL     OW26623   2.951   3.412   6.307
 8575SOL    HW126624   2.924   3.435   6.213
 8575SOL    HW226625   2.958   3.495   6.362
 8576SOL     OW26626   2.181   0.193   0.845
 8576SOL    HW126627   2.175   0.111   0.788
 8576SOL    HW226628   2.093   0.208   0.891
 8577SOL     OW26629   6.323   5.618   4.247
 8577SOL    HW126630   6.381   5.649   4.323
 8577SOL    HW226631   6.227   5.630   4.272
 8578SOL     OW26632   4.711   0.575   3.815
 8578SOL    HW126633   4.620   0.545   3.786
 8578SOL    HW226634   4.718   0.674   3.807
 8579SOL     OW26635   0.703   4.418   2.642
 8579SOL    HW126636   0.738   4.437   2.550
 8579SOL    HW226637   0.664   4.326   2.644
 8580SOL     OW26638   2.695   5.619   6.005
 8580SOL    HW126639   2.629   5.627   6.080
 8580SOL    HW226640   2.656   5.658   5.922
 8581SOL     OW26641   3.596   3.315   0.266
 8581SOL    HW126642   3.579   3.359   0.355
 8581SOL    HW226643   3.605   3.385   0.196
 8582SOL     OW26644   3.920   4.806   0.130
 8582SOL    HW126645   4.014   4.826   0.103
 8582SOL    HW226646   3.860   4.881   0.102
 8583SOL     OW26647   5.692   6.858   4.486
 8583SOL    HW126648   5.671   6.929   4.419
 8583SOL    HW226649   5.784   6.822   4.469
 8584SOL     OW26650   0.147   5.648   6.223
 8584SOL    HW126651   0.110   5.723   6.167
 8584SOL    HW226652   0.245   5.640   6.207
 8585SOL     OW26653   1.426   1.734   0.771
 8585SOL    HW126654   1.330   1.754   0.791
 8585SOL    HW226655   1.439   1.729   0.672
 8586SOL     OW26656   3.908   4.975   3.693
 8586SOL    HW126657   3.811   4.984   3.669
 8586SOL    HW226658   3.920   4.901   3.759
 8587SOL     OW26659   6.647   1.498   1.339
 8587SOL    HW126660   6.558   1.539   1.357
 8587SOL    HW226661   6.706   1.566   1.295
 8588SOL     OW26662   3.509   3.022   6.370
 8588SOL    HW126663   3.424   3.025   6.317
 8588SOL    HW226664   3.585   3.055   6.314
 8589SOL     OW26665   2.650   1.838   4.481
 8589SOL    HW126666   2.590   1.834   4.561
 8589SOL    HW226667   2.597   1.822   4.398
 8590SOL     OW26668   5.440   4.844   5.378
 8590SOL    HW126669   5.496   4.915   5.421
 8590SOL    HW226670   5.365   4.820   5.438
 8591SOL     OW26671   0.625   3.009   0.688
 8591SOL    HW126672   0.535   3.044   0.713
 8591SOL    HW226673   0.617   2.945   0.612
 8592SOL     OW26674   6.393   6.155   6.983
 8592SOL    HW126675   6.355   6.244   7.010
 8592SOL    HW226676   6.371   6.087   0.031
 8593SOL     OW26677   0.649   5.210   3.196
 8593SOL    HW126678   0.585   5.242   3.127
 8593SOL    HW226679   0.644   5.268   3.277
 8594SOL     OW26680   4.106   3.514   2.785
 8594SOL    HW126681   4.128   3.492   2.880
 8594SOL    HW226682   4.122   3.434   2.727
 8595SOL     OW26683   1.344   2.688   1.962
 8595SOL    HW126684   1.321   2.687   1.865
 8595SOL    HW226685   1.319   2.601   2.004
 8596SOL     OW26686   6.649   4.019   2.354
 8596SOL    HW126687   6.699   4.096   2.393
 8596SOL    HW226688   6.554   4.045   2.337
 8597SOL     OW26689   2.060   1.785   0.918
 8597SOL    HW126690   1.990   1.785   0.990
 8597SOL    HW226691   2.039   1.857   0.852
 8598SOL     OW26692   6.280   2.776   1.790
 8598SOL    HW126693   6.214   2.701   1.793
 8598SOL    HW226694   6.312   2.794   1.883
 8599SOL     OW26695   1.021   2.694   0.777
 8599SOL    HW126696   1.074   2.612   0.754
 8599SOL    HW226697   1.016   2.754   0.697
 8600SOL     OW26698   6.924   2.497   6.047
 8600SOL    HW126699   6.936   2.422   5.982
 8600SOL    HW226700   6.918   2.584   5.998
 8601SOL     OW26701   0.650   0.397   4.950
 8601SOL    HW126702   0.729   0.456   4.935
 8601SOL    HW226703   0.673   0.304   4.924
 8602SOL     OW26704   1.188   6.391   2.219
 8602SOL    HW126705   1.277   6.421   2.186
 8602SOL    HW226706   1.122   6.394   2.143
 8603SOL     OW26707   4.933   3.749   1.829
 8603SOL    HW126708   4.889   3.661   1.810
 8603SOL    HW226709   4.864   3.814   1.862
 8604SOL     OW26710   6.047   2.118   3.453
 8604SOL    HW126711   5.953   2.086   3.446
 8604SOL    HW226712   6.048   2.214   3.481
 8605SOL     OW26713   2.914   5.157   1.641
 8605SOL    HW126714   2.834   5.100   1.621
 8605SOL    HW226715   2.991   5.129   1.585
 8606SOL     OW26716   4.074   5.247   4.480
 8606SOL    HW126717   4.009   5.216   4.411
 8606SOL    HW226718   4.084   5.176   4.550
 8607SOL     OW26719   2.724   6.518   0.334
 8607SOL    HW126720   2.789   6.499   0.408
 8607SOL    HW226721   2.649   6.452   0.338
 8608SOL     OW26722   5.596   6.673   2.434
 8608SOL    HW126723   5.579   6.698   2.339
 8608SOL    HW226724   5.690   6.695   2.458
 8609SOL     OW26725   5.528   0.302   5.893
 8609SOL    HW126726   5.608   0.339   5.846
 8609SOL    HW226727   5.463   0.376   5.912
 8610SOL     OW26728   6.669   6.445   5.492
 8610SOL    HW126729   6.684   6.498   5.575
 8610SOL    HW226730   6.717   6.358   5.498
 8611SOL     OW26731   1.736   2.135   2.922
 8611SOL    HW126732   1.681   2.054   2.943
 8611SOL    HW226733   1.833   2.109   2.918
 8612SOL     OW26734   5.277   3.112   4.451
 8612SOL    HW126735   5.278   3.064   4.539
 8612SOL    HW226736   5.183   3.140   4.430
 8613SOL     OW26737   1.128   0.329   0.484
 8613SOL    HW126738   1.206   0.286   0.530
 8613SOL    HW226739   1.049   0.328   0.545
 8614SOL     OW26740   1.654   2.907   3.156
 8614SOL    HW126741   1.693   2.816   3.167
 8614SOL    HW226742   1.720   2.967   3.110
 8615SOL     OW26743   5.027   1.941   6.080
 8615SOL    HW126744   4.969   1.904   6.152
 8615SOL    HW226745   4.981   1.930   5.991
 8616SOL     OW26746   0.897   3.201   0.492
 8616SOL    HW126747   0.867   3.176   0.584
 8616SOL    HW226748   0.975   3.144   0.465
 8617SOL     OW26749   6.303   3.018   0.781
 8617SOL    HW126750   6.255   3.031   0.694
 8617SOL    HW226751   6.256   2.949   0.835
 8618SOL     OW26752   3.566   1.277   2.787
 8618SOL    HW126753   3.615   1.202   2.831
 8618SOL    HW226754   3.524   1.335   2.857
 8619SOL     OW26755   3.633   6.846   0.818
 8619SOL    HW126756   3.706   6.900   0.777
 8619SOL    HW226757   3.545   6.873   0.778
 8620SOL     OW26758   6.058   5.988   4.012
 8620SOL    HW126759   6.077   5.991   3.914
 8620SOL    HW226760   6.048   5.892   4.041
 8621SOL     OW26761   5.038   0.941   3.434
 8621SOL    HW126762   5.072   1.004   3.503
 8621SOL    HW226763   4.962   0.984   3.384
 8622SOL     OW26764   5.091   5.479   6.103
 8622SOL    HW126765   5.101   5.442   6.010
 8622SOL    HW226766   5.038   5.416   6.159
 8623SOL     OW26767   6.218   1.755   3.777
 8623SOL    HW126768   6.187   1.846   3.747
 8623SOL    HW226769   6.142   1.709   3.825
 8624SOL     OW26770   6.355   3.091   3.388
 8624SOL    HW126771   6.318   3.166   3.333
 8624SOL    HW226772   6.279   3.040   3.429
 8625SOL     OW26773   3.681   1.465   6.250
 8625SOL    HW126774   3.772   1.497   6.274
 8625SOL    HW226775   3.614   1.502   6.315
 8626SOL     OW26776   3.157   3.752   1.809
 8626SOL    HW126777   3.216   3.692   1.862
 8626SOL    HW226778   3.153   3.843   1.851
 8627SOL     OW26779   3.012   0.342   6.766
 8627SOL    HW126780   3.024   0.312   6.861
 8627SOL    HW226781   2.915   0.354   6.746
 8628SOL     OW26782   6.420   1.649   1.388
 8628SOL    HW126783   6.422   1.703   1.303
 8628SOL    HW226784   6.425   1.711   1.466
 8629SOL     OW26785   1.600   5.930   3.317
 8629SOL    HW126786   1.613   5.831   3.327
 8629SOL    HW226787   1.562   5.967   3.401
 8630SOL     OW26788   5.160   4.854   4.022
 8630SOL    HW126789   5.162   4.906   4.107
 8630SOL    HW226790   5.191   4.760   4.039
 8631SOL     OW26791   4.101   6.577   3.522
 8631SOL    HW126792   4.195   6.548   3.540
 8631SOL    HW226793   4.091   6.602   3.426
 8632SOL     OW26794   3.300   0.747   3.039
 8632SOL    HW126795   3.399   0.742   3.024
 8632SOL    HW226796   3.283   0.767   3.136
 8633SOL     OW26797   6.560   6.683   2.615
 8633SOL    HW126798   6.502   6.679   2.697
 8633SOL    HW226799   6.531   6.612   2.551
 8634SOL     OW26800   6.150   6.038   1.800
 8634SOL    HW126801   6.120   6.111   1.862
 8634SOL    HW226802   6.208   6.077   1.729
 8635SOL     OW26803   5.976   3.614   5.700
 8635SOL    HW126804   5.938   3.565   5.622
 8635SOL    HW226805   5.905   3.671   5.742
 8636SOL     OW26806   5.904   5.373   0.998
 8636SOL    HW126807   5.850   5.444   1.043
 8636SOL    HW226808   5.980   5.347   1.058
 8637SOL     OW26809   0.994   0.696   2.167
 8637SOL    HW126810   0.988   0.786   2.124
 8637SOL    HW226811   0.905   0.650   2.161
 8638SOL     OW26812   5.909   4.531   1.032
 8638SOL    HW126813   5.839   4.599   1.053
 8638SOL    HW226814   6.000   4.573   1.041
 8639SOL     OW26815   6.060   2.510   2.673
 8639SOL    HW126816   6.158   2.503   2.692
 8639SOL    HW226817   6.017   2.568   2.742
 8640SOL     OW26818   4.792   5.983   1.542
 8640SOL    HW126819   4.734   5.992   1.461
 8640SOL    HW226820   4.734   5.977   1.624
 8641SOL     OW26821   5.497   4.505   3.770
 8641SOL    HW126822   5.434   4.439   3.811
 8641SOL    HW226823   5.546   4.463   3.694
 8642SOL     OW26824   4.629   1.194   1.508
 8642SOL    HW126825   4.563   1.149   1.568
 8642SOL    HW226826   4.643   1.138   1.426
 8643SOL     OW26827   4.702   6.960   6.863
 8643SOL    HW126828   4.707   6.869   6.823
 8643SOL    HW226829   4.747   0.004   6.802
 8644SOL     OW26830   6.470   3.417   5.544
 8644SOL    HW126831   6.561   3.387   5.573
 8644SOL    HW226832   6.415   3.337   5.521
 8645SOL     OW26833   6.534   3.460   1.628
 8645SOL    HW126834   6.625   3.497   1.608
 8645SOL    HW226835   6.486   3.522   1.690
 8646SOL     OW26836   5.015   6.488   0.532
 8646SOL    HW126837   4.993   6.538   0.448
 8646SOL    HW226838   4.940   6.499   0.598
 8647SOL     OW26839   4.839   5.195   2.271
 8647SOL    HW126840   4.905   5.166   2.340
 8647SOL    HW226841   4.862   5.153   2.183
 8648SOL     OW26842   5.902   0.503   3.944
 8648SOL    HW126843   5.932   0.598   3.939
 8648SOL    HW226844   5.806   0.497   3.918
 8649SOL     OW26845   6.405   3.930   5.745
 8649SOL    HW126846   6.314   3.890   5.753
 8649SOL    HW226847   6.412   4.008   5.807
 8650SOL     OW26848   0.275   5.573   1.512
 8650SOL    HW126849   0.175   5.581   1.517
 8650SOL    HW226850   0.316   5.661   1.537
 8651SOL     OW26851   4.401   3.271   1.241
 8651SOL    HW126852   4.467   3.215   1.291
 8651SOL    HW226853   4.391   3.359   1.288
 8652SOL     OW26854   0.684   2.399   4.294
 8652SOL    HW126855   0.711   2.494   4.277
 8652SOL    HW226856   0.666   2.386   4.391
 8653SOL     OW26857   5.215   3.150   6.532
 8653SOL    HW126858   5.251   3.189   6.617
 8653SOL    HW226859   5.192   3.054   6.547
 8654SOL     OW26860   1.404   4.892   1.563
 8654SOL    HW126861   1.400   4.871   1.466
 8654SOL    HW226862   1.491   4.862   1.601
 8655SOL     OW26863   5.421   5.935   2.977
 8655SOL    HW126864   5.493   5.981   3.029
 8655SOL    HW226865   5.462   5.888   2.898
 8656SOL     OW26866   6.502   2.206   2.009
 8656SOL    HW126867   6.452   2.157   2.081
 8656SOL    HW226868   6.437   2.244   1.943
 8657SOL     OW26869   3.163   5.174   0.631
 8657SOL    HW126870   3.094   5.165   0.703
 8657SOL    HW226871   3.133   5.124   0.550
 8658SOL     OW26872   1.261   5.806   5.846
 8658SOL    HW126873   1.199   5.741   5.889
 8658SOL    HW226874   1.251   5.896   5.889
 8659SOL     OW26875   4.207   0.003   4.654
 8659SOL    HW126876   4.286   6.993   4.707
 8659SOL    HW226877   4.170   6.948   4.601
 8660SOL     OW26878   4.813   4.668   0.119
 8660SOL    HW126879   4.788   4.598   0.185
 8660SOL    HW226880   4.735   4.728   0.103
 8661SOL     OW26881   6.162   3.173   2.059
 8661SOL    HW126882   6.197   3.265   2.041
 8661SOL    HW226883   6.182   3.147   2.154
 8662SOL     OW26884   0.308   0.994   6.859
 8662SOL    HW126885   0.238   1.065   6.845
 8662SOL    HW226886   0.382   1.007   6.792
 8663SOL     OW26887   2.629   5.253   1.026
 8663SOL    HW126888   2.572   5.282   1.103
 8663SOL    HW226889   2.714   5.306   1.026
 8664SOL     OW26890   4.732   4.766   1.528
 8664SOL    HW126891   4.774   4.755   1.618
 8664SOL    HW226892   4.803   4.777   1.458
 8665SOL     OW26893   5.049   5.227   4.557
 8665SOL    HW126894   5.119   5.298   4.546
 8665SOL    HW226895   4.962   5.260   4.520
 8666SOL     OW26896   6.787   4.529   4.476
 8666SOL    HW126897   6.853   4.478   4.421
 8666SOL    HW226898   6.807   4.627   4.469
 8667SOL     OW26899   5.307   2.513   3.662
 8667SOL    HW126900   5.235   2.571   3.624
 8667SOL    HW226901   5.288   2.417   3.640
 8668SOL     OW26902   3.475   0.596   5.102
 8668SOL    HW126903   3.398   0.633   5.050
 8668SOL    HW226904   3.536   0.671   5.130
 8669SOL     OW26905   3.890   6.844   6.467
 8669SOL    HW126906   3.853   6.786   6.395
 8669SOL    HW226907   3.854   6.813   6.556
 8670SOL     OW26908   4.577   4.509   2.352
 8670SOL    HW126909   4.653   4.527   2.415
 8670SOL    HW226910   4.606   4.531   2.259
 8671SOL     OW26911   6.197   6.123   2.382
 8671SOL    HW126912   6.196   6.025   2.365
 8671SOL    HW226913   6.131   6.168   2.322
 8672SOL     OW26914   3.818   4.897   4.513
 8672SOL    HW126915   3.909   4.931   4.492
 8672SOL    HW226916   3.804   4.895   4.612
 8673SOL     OW26917   4.930   2.395   6.873
 8673SOL    HW126918   4.963   2.463   6.939
 8673SOL    HW226919   4.950   2.303   6.907
 8674SOL     OW26920   0.712   6.991   2.961
 8674SOL    HW126921   0.793   6.932   2.968
 8674SOL    HW226922   0.722   0.030   2.882
 8675SOL     OW26923   2.535   1.772   2.896
 8675SOL    HW126924   2.526   1.772   2.797
 8675SOL    HW226925   2.630   1.757   2.921
 8676SOL     OW26926   4.587   1.228   4.133
 8676SOL    HW126927   4.505   1.283   4.150
 8676SOL    HW226928   4.659   1.287   4.097
 8677SOL     OW26929   2.108   3.672   5.526
 8677SOL    HW126930   2.142   3.588   5.569
 8677SOL    HW226931   2.179   3.710   5.467
 8678SOL     OW26932   0.945   0.792   5.781
 8678SOL    HW126933   0.918   0.739   5.700
 8678SOL    HW226934   0.956   0.730   5.859
 8679SOL     OW26935   5.997   1.782   4.824
 8679SOL    HW126936   5.975   1.850   4.754
 8679SOL    HW226937   5.932   1.705   4.818
 8680SOL     OW26938   0.921   3.926   0.430
 8680SOL    HW126939   0.856   3.896   0.500
 8680SOL    HW226940   0.938   4.024   0.441
 8681SOL     OW26941   4.208   3.840   1.368
 8681SOL    HW126942   4.149   3.775   1.320
 8681SOL    HW226943   4.169   3.860   1.458
 8682SOL     OW26944   1.452   5.896   2.615
 8682SOL    HW126945   1.391   5.969   2.583
 8682SOL    HW226946   1.396   5.818   2.643
 8683SOL     OW26947   4.769   3.323   6.973
 8683SOL    HW126948   4.795   3.227   6.980
 8683SOL    HW226949   4.676   3.335   7.007
 8684SOL     OW26950   6.229   2.724   3.428
 8684SOL    HW126951   6.139   2.708   3.388
 8684SOL    HW226952   6.291   2.650   3.400
 8685SOL     OW26953   0.201   1.776   5.456
 8685SOL    HW126954   0.146   1.705   5.501
 8685SOL    HW226955   0.150   1.815   5.380
 8686SOL     OW26956   6.434   1.377   3.868
 8686SOL    HW126957   6.466   1.372   3.963
 8686SOL    HW226958   6.466   1.462   3.827
 8687SOL     OW26959   3.680   1.030   2.892
 8687SOL    HW126960   3.736   1.039   2.975
 8687SOL    HW226961   3.736   0.992   2.819
 8688SOL     OW26962   0.918   6.724   2.408
 8688SOL    HW126963   1.011   6.730   2.371
 8688SOL    HW226964   0.900   6.631   2.440
 8689SOL     OW26965   5.293   4.196   1.554
 8689SOL    HW126966   5.330   4.162   1.641
 8689SOL    HW226967   5.289   4.122   1.488
 8690SOL     OW26968   1.606   1.114   2.283
 8690SOL    HW126969   1.559   1.194   2.245
 8690SOL    HW226970   1.546   1.069   2.349
 8691SOL     OW26971   6.134   1.592   0.456
 8691SOL    HW126972   6.118   1.556   0.548
 8691SOL    HW226973   6.130   1.517   0.390
 8692SOL     OW26974   1.530   1.137   3.597
 8692SOL    HW126975   1.581   1.072   3.652
 8692SOL    HW226976   1.444   1.095   3.566
 8693SOL     OW26977   5.053   2.133   6.512
 8693SOL    HW126978   4.962   2.169   6.529
 8693SOL    HW226979   5.086   2.167   6.424
 8694SOL     OW26980   3.851   6.952   6.734
 8694SOL    HW126981   3.782   6.887   6.768
 8694SOL    HW226982   3.814   7.002   6.655
 8695SOL     OW26983   4.394   4.445   5.375
 8695SOL    HW126984   4.371   4.432   5.278
 8695SOL    HW226985   4.419   4.540   5.391
 8696SOL     OW26986   2.387   5.325   0.507
 8696SOL    HW126987   2.476   5.291   0.538
 8696SOL    HW226988   2.314   5.277   0.556
 8697SOL     OW26989   5.049   5.128   6.450
 8697SOL    HW126990   5.085   5.205   6.503
 8697SOL    HW226991   5.120   5.059   6.438
 8698SOL     OW26992   5.617   5.822   5.097
 8698SOL    HW126993   5.524   5.795   5.123
 8698SOL    HW226994   5.681   5.749   5.120
 8699SOL     OW26995   1.736   1.415   4.890
 8699SOL    HW126996   1.639   1.433   4.904
 8699SOL    HW226997   1.774   1.371   4.971
 8700SOL     OW26998   2.732   2.302   6.146
 8700SOL    HW126999   2.766   2.278   6.055
 8700SOL    HW227000   2.632   2.292   6.148
 8701SOL     OW27001   1.181   1.059   3.781
 8701SOL    HW127002   1.175   1.158   3.793
 8701SOL    HW227003   1.235   1.038   3.699
 8702SOL     OW27004   4.945   6.510   6.841
 8702SOL    HW127005   4.958   6.442   6.770
 8702SOL    HW227006   5.026   6.513   6.900
 8703SOL     OW27007   1.130   5.028   1.355
 8703SOL    HW127008   1.200   5.080   1.404
 8703SOL    HW227009   1.155   4.931   1.353
 8704SOL     OW27010   1.207   4.248   1.856
 8704SOL    HW127011   1.216   4.213   1.949
 8704SOL    HW227012   1.180   4.174   1.795
 8705SOL     OW27013   4.603   6.488   4.510
 8705SOL    HW127014   4.554   6.491   4.597
 8705SOL    HW227015   4.687   6.436   4.521
 8706SOL     OW27016   4.856   0.806   5.712
 8706SOL    HW127017   4.945   0.808   5.757
 8706SOL    HW227018   4.869   0.792   5.614
 8707SOL     OW27019   3.876   1.710   5.566
 8707SOL    HW127020   3.779   1.714   5.590
 8707SOL    HW227021   3.925   1.656   5.634
 8708SOL     OW27022   3.843   1.608   0.965
 8708SOL    HW127023   3.930   1.626   0.918
 8708SOL    HW227024   3.833   1.510   0.981
 8709SOL     OW27025   5.430   3.584   0.494
 8709SOL    HW127026   5.426   3.489   0.524
 8709SOL    HW227027   5.378   3.642   0.557
 8710SOL     OW27028   6.504   3.497   4.137
 8710SOL    HW127029   6.407   3.516   4.149
 8710SOL    HW227030   6.524   3.480   4.040
 8711SOL     OW27031   1.183   1.070   4.567
 8711SOL    HW127032   1.141   1.140   4.509
 8711SOL    HW227033   1.180   0.981   4.521
 8712SOL     OW27034   3.420   0.275   6.759
 8712SOL    HW127035   3.457   0.210   6.825
 8712SOL    HW227036   3.357   0.228   6.697
 8713SOL     OW27037   6.266   4.799   2.636
 8713SOL    HW127038   6.305   4.711   2.664
 8713SOL    HW227039   6.338   4.856   2.599
 8714SOL     OW27040   1.593   1.750   3.839
 8714SOL    HW127041   1.643   1.833   3.863
 8714SOL    HW227042   1.591   1.740   3.740
 8715SOL     OW27043   5.798   0.884   2.476
 8715SOL    HW127044   5.870   0.883   2.546
 8715SOL    HW227045   5.833   0.840   2.393
 8716SOL     OW27046   0.502   1.312   2.157
 8716SOL    HW127047   0.463   1.362   2.235
 8716SOL    HW227048   0.557   1.236   2.190
 8717SOL     OW27049   4.127   3.544   0.986
 8717SOL    HW127050   4.106   3.448   0.971
 8717SOL    HW227051   4.213   3.567   0.941
 8718SOL     OW27052   0.073   2.834   5.652
 8718SOL    HW127053   0.138   2.777   5.601
 8718SOL    HW227054   0.034   2.903   5.591
 8719SOL     OW27055   6.010   0.624   5.756
 8719SOL    HW127056   6.005   0.724   5.757
 8719SOL    HW227057   6.096   0.594   5.797
 8720SOL     OW27058   5.024   3.280   5.277
 8720SOL    HW127059   5.082   3.357   5.305
 8720SOL    HW227060   5.057   3.196   5.321
 8721SOL     OW27061   6.945   0.580   5.297
 8721SOL    HW127062   7.020   0.611   5.354
 8721SOL    HW227063   6.897   0.505   5.342
 8722SOL     OW27064   3.150   3.037   0.685
 8722SOL    HW127065   3.076   3.052   0.749
 8722SOL    HW227066   3.130   3.082   0.598
 8723SOL     OW27067   0.295   5.780   0.664
 8723SOL    HW127068   0.390   5.752   0.648
 8723SOL    HW227069   0.273   5.767   0.761
 8724SOL     OW27070   4.834   5.701   6.749
 8724SOL    HW127071   4.805   5.681   6.656
 8724SOL    HW227072   4.932   5.722   6.750
 8725SOL     OW27073   2.417   6.399   0.923
 8725SOL    HW127074   2.379   6.330   0.985
 8725SOL    HW227075   2.343   6.438   0.868
 8726SOL     OW27076   0.230   0.182   0.969
 8726SOL    HW127077   0.285   0.167   1.052
 8726SOL    HW227078   0.144   0.133   0.978
 8727SOL     OW27079   5.571   6.652   1.267
 8727SOL    HW127080   5.503   6.687   1.331
 8727SOL    HW227081   5.561   6.698   1.178
 8728SOL     OW27082   2.657   5.849   5.346
 8728SOL    HW127083   2.746   5.873   5.385
 8728SOL    HW227084   2.668   5.774   5.280
 8729SOL     OW27085   4.769   5.834   4.577
 8729SOL    HW127086   4.733   5.746   4.606
 8729SOL    HW227087   4.740   5.852   4.483
 8730SOL     OW27088   6.225   6.023   1.197
 8730SOL    HW127089   6.150   5.968   1.160
 8730SOL    HW227090   6.307   6.010   1.140
 8731SOL     OW27091   0.599   1.574   2.268
 8731SOL    HW127092   0.581   1.506   2.338
 8731SOL    HW227093   0.626   1.660   2.311
 8732SOL     OW27094   6.893   6.111   1.814
 8732SOL    HW127095   6.980   6.062   1.830
 8732SOL    HW227096   6.825   6.046   1.780
 8733SOL     OW27097   6.900   0.477   0.755
 8733SOL    HW127098   6.920   0.457   0.851
 8733SOL    HW227099   6.841   0.406   0.717
 8734SOL     OW27100   6.405   6.207   0.931
 8734SOL    HW127101   6.361   6.259   0.858
 8734SOL    HW227102   6.453   6.269   0.993
 8735SOL     OW27103   0.576   3.123   6.414
 8735SOL    HW127104   0.603   3.184   6.339
 8735SOL    HW227105   0.496   3.070   6.386
 8736SOL     OW27106   0.246   4.970   5.879
 8736SOL    HW127107   0.303   5.024   5.817
 8736SOL    HW227108   0.159   5.018   5.894
 8737SOL     OW27109   3.905   5.848   6.766
 8737SOL    HW127110   3.834   5.778   6.780
 8737SOL    HW227111   3.992   5.804   6.744
 8738SOL     OW27112   0.866   4.181   5.609
 8738SOL    HW127113   0.815   4.167   5.694
 8738SOL    HW227114   0.885   4.092   5.566
 8739SOL     OW27115   1.221   3.737   5.647
 8739SOL    HW127116   1.184   3.794   5.720
 8739SOL    HW227117   1.271   3.793   5.582
 8740SOL     OW27118   1.754   6.538   0.748
 8740SOL    HW127119   1.764   6.528   0.847
 8740SOL    HW227120   1.661   6.512   0.722
 8741SOL     OW27121   1.453   3.742   1.914
 8741SOL    HW127122   1.474   3.676   1.985
 8741SOL    HW227123   1.437   3.832   1.955
 8742SOL     OW27124   4.634   5.745   2.192
 8742SOL    HW127125   4.594   5.745   2.100
 8742SOL    HW227126   4.727   5.707   2.188
 8743SOL     OW27127   2.579   4.842   2.279
 8743SOL    HW127128   2.582   4.941   2.266
 8743SOL    HW227129   2.513   4.820   2.351
 8744SOL     OW27130   3.061   3.502   5.587
 8744SOL    HW127131   3.105   3.504   5.497
 8744SOL    HW227132   3.012   3.416   5.598
 8745SOL     OW27133   5.364   1.885   6.722
 8745SOL    HW127134   5.407   1.824   6.789
 8745SOL    HW227135   5.433   1.946   6.683
 8746SOL     OW27136   5.450   3.354   4.430
 8746SOL    HW127137   5.381   3.307   4.485
 8746SOL    HW227138   5.541   3.318   4.452
 8747SOL     OW27139   0.220   1.804   3.933
 8747SOL    HW127140   0.301   1.797   3.991
 8747SOL    HW227141   0.190   1.899   3.928
 8748SOL     OW27142   2.869   7.006   6.700
 8748SOL    HW127143   2.935   6.952   6.648
 8748SOL    HW227144   2.819   6.947   6.763
 8749SOL     OW27145   3.825   1.486   3.564
 8749SOL    HW127146   3.916   1.519   3.590
 8749SOL    HW227147   3.803   1.403   3.615
 8750SOL     OW27148   1.758   0.710   5.060
 8750SOL    HW127149   1.737   0.638   5.127
 8750SOL    HW227150   1.852   0.697   5.026
 8751SOL     OW27151   1.684   6.401   3.058
 8751SOL    HW127152   1.737   6.341   3.118
 8751SOL    HW227153   1.596   6.422   3.101
 8752SOL     OW27154   2.165   0.659   5.975
 8752SOL    HW127155   2.213   0.746   5.961
 8752SOL    HW227156   2.067   0.675   5.981
 8753SOL     OW27157   5.473   1.172   5.049
 8753SOL    HW127158   5.496   1.255   4.998
 8753SOL    HW227159   5.421   1.197   5.131
 8754SOL     OW27160   1.679   1.007   5.727
 8754SOL    HW127161   1.745   1.054   5.786
 8754SOL    HW227162   1.723   0.928   5.685
 8755SOL     OW27163   2.181   2.126   0.479
 8755SOL    HW127164   2.118   2.112   0.403
 8755SOL    HW227165   2.168   2.054   0.547
 8756SOL     OW27166   2.525   5.244   4.589
 8756SOL    HW127167   2.560   5.150   4.597
 8756SOL    HW227168   2.495   5.260   4.495
 8757SOL     OW27169   3.231   5.242   3.439
 8757SOL    HW127170   3.314   5.212   3.486
 8757SOL    HW227171   3.248   5.331   3.396
 8758SOL     OW27172   4.904   6.330   2.598
 8758SOL    HW127173   4.834   6.387   2.555
 8758SOL    HW227174   4.906   6.349   2.696
 8759SOL     OW27175   5.367   0.555   6.362
 8759SOL    HW127176   5.352   0.605   6.277
 8759SOL    HW227177   5.466   0.546   6.378
 8760SOL     OW27178   1.794   3.005   3.636
 8760SOL    HW127179   1.833   2.936   3.698
 8760SOL    HW227180   1.865   3.072   3.613
 8761SOL     OW27181   5.116   6.055   1.704
 8761SOL    HW127182   5.124   6.005   1.790
 8761SOL    HW227183   5.204   6.095   1.680
 8762SOL     OW27184   1.074   5.193   1.081
 8762SOL    HW127185   1.110   5.163   1.169
 8762SOL    HW227186   1.080   5.293   1.076
 8763SOL     OW27187   0.389   6.308   6.601
 8763SOL    HW127188   0.380   6.405   6.620
 8763SOL    HW227189   0.299   6.269   6.581
 8764SOL     OW27190   3.253   2.082   6.189
 8764SOL    HW127191   3.324   2.151   6.203
 8764SOL    HW227192   3.212   2.096   6.099
 8765SOL     OW27193   6.144   0.016   4.759
 8765SOL    HW127194   6.195   0.009   4.674
 8765SOL    HW227195   6.207   0.037   4.835
 8766SOL     OW27196   2.405   4.336   2.158
 8766SOL    HW127197   2.465   4.411   2.183
 8766SOL    HW227198   2.460   4.258   2.127
 8767SOL     OW27199   4.738   0.110   5.149
 8767SOL    HW127200   4.821   0.100   5.204
 8767SOL    HW227201   4.724   0.207   5.128
 8768SOL     OW27202   0.582   4.249   0.329
 8768SOL    HW127203   0.547   4.318   0.266
 8768SOL    HW227204   0.649   4.192   0.281
 8769SOL     OW27205   1.844   0.576   6.246
 8769SOL    HW127206   1.759   0.578   6.193
 8769SOL    HW227207   1.848   0.491   6.299
 8770SOL     OW27208   5.696   1.435   3.001
 8770SOL    HW127209   5.627   1.382   3.051
 8770SOL    HW227210   5.750   1.487   3.066
 8771SOL     OW27211   3.008   3.073   5.238
 8771SOL    HW127212   3.068   3.135   5.291
 8771SOL    HW227213   2.914   3.107   5.242
 8772SOL     OW27214   6.622   6.812   6.753
 8772SOL    HW127215   6.529   6.816   6.788
 8772SOL    HW227216   6.631   6.871   6.672
 8773SOL     OW27217   2.992   1.597   2.978
 8773SOL    HW127218   3.044   1.543   3.044
 8773SOL    HW227219   3.054   1.636   2.909
 8774SOL     OW27220   1.308   1.215   6.807
 8774SOL    HW127221   1.311   1.287   6.876
 8774SOL    HW227222   1.346   1.131   6.844
 8775SOL     OW27223   6.760   6.113   4.131
 8775SOL    HW127224   6.706   6.029   4.134
 8775SOL    HW227225   6.729   6.176   4.203
 8776SOL     OW27226   3.088   3.783   5.252
 8776SOL    HW127227   3.130   3.734   5.176
 8776SOL    HW227228   3.155   3.841   5.297
 8777SOL     OW27229   6.010   5.756   2.988
 8777SOL    HW127230   5.919   5.741   3.027
 8777SOL    HW227231   6.029   5.685   2.920
 8778SOL     OW27232   1.394   3.093   2.811
 8778SOL    HW127233   1.467   3.053   2.755
 8778SOL    HW227234   1.393   3.049   2.901
 8779SOL     OW27235   1.705   4.689   1.142
 8779SOL    HW127236   1.787   4.744   1.124
 8779SOL    HW227237   1.702   4.664   1.238
 8780SOL     OW27238   2.207   5.789   5.234
 8780SOL    HW127239   2.198   5.765   5.138
 8780SOL    HW227240   2.124   5.762   5.283
 8781SOL     OW27241   1.299   2.485   2.610
 8781SOL    HW127242   1.294   2.584   2.621
 8781SOL    HW227243   1.296   2.462   2.513
 8782SOL     OW27244   5.473   1.475   3.625
 8782SOL    HW127245   5.456   1.501   3.720
 8782SOL    HW227246   5.553   1.524   3.591
 8783SOL     OW27247   6.263   2.520   5.762
 8783SOL    HW127248   6.336   2.536   5.828
 8783SOL    HW227249   6.302   2.519   5.670
 8784SOL     OW27250   5.718   4.153   5.831
 8784SOL    HW127251   5.780   4.208   5.775
 8784SOL    HW227252   5.673   4.084   5.773
 8785SOL     OW27253   5.207   4.069   6.247
 8785SOL    HW127254   5.268   4.148   6.248
 8785SOL    HW227255   5.137   4.082   6.176
 8786SOL     OW27256   1.725   6.223   6.995
 8786SOL    HW127257   1.638   6.272   6.995
 8786SOL    HW227258   1.800   6.289   6.983
 8787SOL     OW27259   1.291   2.629   6.835
 8787SOL    HW127260   1.286   2.724   6.804
 8787SOL    HW227261   1.249   2.569   6.767
 8788SOL     OW27262   1.250   2.141   5.252
 8788SOL    HW127263   1.197   2.056   5.246
 8788SOL    HW227264   1.333   2.132   5.198
 8789SOL     OW27265   6.765   1.358   0.509
 8789SOL    HW127266   6.844   1.358   0.447
 8789SOL    HW227267   6.751   1.266   0.544
 8790SOL     OW27268   3.922   1.194   6.121
 8790SOL    HW127269   3.863   1.186   6.042
 8790SOL    HW227270   3.970   1.282   6.118
 8791SOL     OW27271   5.349   6.116   5.253
 8791SOL    HW127272   5.408   6.184   5.209
 8791SOL    HW227273   5.405   6.039   5.284
 8792SOL     OW27274   4.957   6.607   2.536
 8792SOL    HW127275   4.863   6.588   2.512
 8792SOL    HW227276   4.993   6.680   2.478
 8793SOL     OW27277   0.791   4.387   3.263
 8793SOL    HW127278   0.889   4.404   3.272
 8793SOL    HW227279   0.740   4.465   3.300
 8794SOL     OW27280   2.904   6.095   2.604
 8794SOL    HW127281   2.820   6.122   2.651
 8794SOL    HW227282   2.893   6.109   2.505
 8795SOL     OW27283   2.997   6.501   4.717
 8795SOL    HW127284   2.899   6.518   4.716
 8795SOL    HW227285   3.018   6.427   4.781
 8796SOL     OW27286   4.912   2.122   4.549
 8796SOL    HW127287   4.951   2.207   4.585
 8796SOL    HW227288   4.876   2.138   4.457
 8797SOL     OW27289   0.383   5.590   6.622
 8797SOL    HW127290   0.431   5.648   6.557
 8797SOL    HW227291   0.286   5.586   6.597
 8798SOL     OW27292   3.214   3.530   5.362
 8798SOL    HW127293   3.303   3.563   5.332
 8798SOL    HW227294   3.143   3.592   5.328
 8799SOL     OW27295   3.603   0.737   2.245
 8799SOL    HW127296   3.539   0.679   2.295
 8799SOL    HW227297   3.557   0.822   2.218
 8800SOL     OW27298   3.695   3.689   0.678
 8800SOL    HW127299   3.693   3.742   0.593
 8800SOL    HW227300   3.788   3.687   0.714
 8801SOL     OW27301   3.191   6.536   5.594
 8801SOL    HW127302   3.271   6.594   5.608
 8801SOL    HW227303   3.110   6.593   5.581
 8802SOL     OW27304   1.762   6.503   1.355
 8802SOL    HW127305   1.670   6.500   1.316
 8802SOL    HW227306   1.821   6.440   1.305
 8803SOL     OW27307   3.622   5.942   1.932
 8803SOL    HW127308   3.606   5.843   1.930
 8803SOL    HW227309   3.544   5.989   1.891
 8804SOL     OW27310   2.528   0.692   1.449
 8804SOL    HW127311   2.528   0.738   1.538
 8804SOL    HW227312   2.575   0.605   1.456
 8805SOL     OW27313   0.731   0.252   3.885
 8805SOL    HW127314   0.669   0.322   3.851
 8805SOL    HW227315   0.720   0.168   3.832
 8806SOL     OW27316   1.963   4.872   6.782
 8806SOL    HW127317   1.919   4.793   6.825
 8806SOL    HW227318   2.026   4.915   6.848
 8807SOL     OW27319   2.332   5.230   6.672
 8807SOL    HW127320   2.367   5.139   6.648
 8807SOL    HW227321   2.282   5.224   6.758
 8808SOL     OW27322   6.025   2.607   0.713
 8808SOL    HW127323   5.981   2.692   0.741
 8808SOL    HW227324   5.961   2.531   0.725
 8809SOL     OW27325   6.454   4.834   0.244
 8809SOL    HW127326   6.504   4.755   0.277
 8809SOL    HW227327   6.494   4.865   0.157
 8810SOL     OW27328   5.021   1.543   3.731
 8810SOL    HW127329   4.927   1.574   3.740
 8810SOL    HW227330   5.043   1.530   3.634
 8811SOL     OW27331   1.032   0.799   3.441
 8811SOL    HW127332   0.933   0.802   3.455
 8811SOL    HW227333   1.070   0.891   3.453
 8812SOL     OW27334   2.726   1.427   0.012
 8812SOL    HW127335   2.661   1.470   0.074
 8812SOL    HW227336   2.770   1.350   0.057
 8813SOL     OW27337   1.077   5.813   1.314
 8813SOL    HW127338   1.046   5.722   1.342
 8813SOL    HW227339   1.161   5.836   1.364
 8814SOL     OW27340   5.565   6.900   5.475
 8814SOL    HW127341   5.631   6.937   5.409
 8814SOL    HW227342   5.483   6.869   5.426
 8815SOL     OW27343   6.166   5.134   3.217
 8815SOL    HW127344   6.171   5.215   3.275
 8815SOL    HW227345   6.084   5.139   3.160
 8816SOL     OW27346   0.840   5.538   2.376
 8816SOL    HW127347   0.820   5.444   2.406
 8816SOL    HW227348   0.854   5.596   2.456
 8817SOL     OW27349   2.160   3.808   5.157
 8817SOL    HW127350   2.249   3.854   5.153
 8817SOL    HW227351   2.174   3.709   5.163
 8818SOL     OW27352   6.614   4.585   5.247
 8818SOL    HW127353   6.702   4.539   5.249
 8818SOL    HW227354   6.626   4.681   5.270
 8819SOL     OW27355   6.895   0.686   4.876
 8819SOL    HW127356   6.970   0.647   4.822
 8819SOL    HW227357   6.855   0.616   4.934
 8820SOL     OW27358   0.892   2.594   3.116
 8820SOL    HW127359   0.963   2.629   3.054
 8820SOL    HW227360   0.921   2.606   3.210
 8821SOL     OW27361   1.053   6.664   0.026
 8821SOL    HW127362   1.017   6.579   7.008
 8821SOL    HW227363   0.978   6.717   0.067
 8822SOL     OW27364   1.243   2.712   4.137
 8822SOL    HW127365   1.253   2.793   4.079
 8822SOL    HW227366   1.327   2.659   4.136
 8823SOL     OW27367   2.370   5.165   0.908
 8823SOL    HW127368   2.363   5.065   0.908
 8823SOL    HW227369   2.460   5.192   0.942
 8824SOL     OW27370   4.860   3.975   1.288
 8824SOL    HW127371   4.801   3.974   1.207
 8824SOL    HW227372   4.805   3.997   1.368
 8825SOL     OW27373   2.581   2.072   0.045
 8825SOL    HW127374   2.503   2.024   0.005
 8825SOL    HW227375   2.589   2.162   0.002
 8826SOL     OW27376   5.571   0.174   1.658
 8826SOL    HW127377   5.669   0.169   1.642
 8826SOL    HW227378   5.543   0.270   1.665
 8827SOL     OW27379   6.456   1.622   3.751
 8827SOL    HW127380   6.456   1.603   3.653
 8827SOL    HW227381   6.362   1.641   3.782
 8828SOL     OW27382   1.831   6.015   3.665
 8828SOL    HW127383   1.913   6.044   3.616
 8828SOL    HW227384   1.814   6.077   3.742
 8829SOL     OW27385   0.994   0.379   1.452
 8829SOL    HW127386   0.935   0.388   1.372
 8829SOL    HW227387   1.082   0.339   1.425
 8830SOL     OW27388   1.293   1.412   0.784
 8830SOL    HW127389   1.344   1.326   0.787
 8830SOL    HW227390   1.330   1.470   0.711
 8831SOL     OW27391   6.413   0.806   1.836
 8831SOL    HW127392   6.476   0.857   1.895
 8831SOL    HW227393   6.323   0.803   1.878
 8832SOL     OW27394   6.238   1.374   2.151
 8832SOL    HW127395   6.329   1.407   2.174
 8832SOL    HW227396   6.178   1.384   2.230
 8833SOL     OW27397   0.992   5.369   2.016
 8833SOL    HW127398   0.995   5.433   2.092
 8833SOL    HW227399   0.899   5.332   2.008
 8834SOL     OW27400   6.433   4.428   3.934
 8834SOL    HW127401   6.338   4.433   3.963
 8834SOL    HW227402   6.491   4.401   4.012
 8835SOL     OW27403   0.472   1.469   0.611
 8835SOL    HW127404   0.477   1.465   0.711
 8835SOL    HW227405   0.549   1.418   0.573
 8836SOL     OW27406   4.586   1.664   1.851
 8836SOL    HW127407   4.504   1.670   1.794
 8836SOL    HW227408   4.645   1.743   1.833
 8837SOL     OW27409   0.265   2.579   2.376
 8837SOL    HW127410   0.357   2.613   2.396
 8837SOL    HW227411   0.271   2.489   2.334
 8838SOL     OW27412   1.334   0.144   3.584
 8838SOL    HW127413   1.374   0.142   3.492
 8838SOL    HW227414   1.252   0.200   3.584
 8839SOL     OW27415   5.523   5.300   4.660
 8839SOL    HW127416   5.466   5.239   4.716
 8839SOL    HW227417   5.469   5.333   4.583
 8840SOL     OW27418   4.400   1.008   1.775
 8840SOL    HW127419   4.377   1.077   1.844
 8840SOL    HW227420   4.425   0.923   1.821
 8841SOL     OW27421   3.593   6.756   3.586
 8841SOL    HW127422   3.580   6.732   3.682
 8841SOL    HW227423   3.688   6.784   3.571
 8842SOL     OW27424   1.426   1.965   1.917
 8842SOL    HW127425   1.380   1.944   1.831
 8842SOL    HW227426   1.360   2.002   1.982
 8843SOL     OW27427   6.842   2.877   4.289
 8843SOL    HW127428   6.803   2.786   4.277
 8843SOL    HW227429   6.894   2.880   4.374
 8844SOL     OW27430   5.959   1.731   0.168
 8844SOL    HW127431   5.873   1.772   0.138
 8844SOL    HW227432   6.012   1.799   0.219
 8845SOL     OW27433   4.969   2.610   0.040
 8845SOL    HW127434   4.903   2.582   0.111
 8845SOL    HW227435   4.932   2.689   7.012
 8846SOL     OW27436   3.201   4.857   4.072
 8846SOL    HW127437   3.226   4.801   4.150
 8846SOL    HW227438   3.210   4.954   4.096
 8847SOL     OW27439   1.071   1.438   3.358
 8847SOL    HW127440   1.016   1.419   3.277
 8847SOL    HW227441   1.104   1.532   3.356
 8848SOL     OW27442   0.453   1.465   3.557
 8848SOL    HW127443   0.354   1.457   3.569
 8848SOL    HW227444   0.479   1.426   3.469
 8849SOL     OW27445   3.135   7.021   1.262
 8849SOL    HW127446   3.196   0.015   1.340
 8849SOL    HW227447   3.188   0.003   1.178
 8850SOL     OW27448   3.133   1.956   0.119
 8850SOL    HW127449   3.112   1.977   0.024
 8850SOL    HW227450   3.139   1.857   0.131
 8851SOL     OW27451   1.889   3.757   1.870
 8851SOL    HW127452   1.857   3.663   1.877
 8851SOL    HW227453   1.978   3.765   1.915
 8852SOL     OW27454   0.996   2.579   4.543
 8852SOL    HW127455   0.932   2.529   4.602
 8852SOL    HW227456   1.026   2.662   4.590
 8853SOL     OW27457   4.383   0.631   1.620
 8853SOL    HW127458   4.382   0.535   1.646
 8853SOL    HW227459   4.476   0.657   1.594
 8854SOL     OW27460   6.688   2.324   5.040
 8854SOL    HW127461   6.711   2.262   5.116
 8854SOL    HW227462   6.626   2.277   4.977
 8855SOL     OW27463   4.979   4.754   1.361
 8855SOL    HW127464   5.029   4.715   1.439
 8855SOL    HW227465   4.989   4.694   1.282
 8856SOL     OW27466   5.712   0.681   5.446
 8856SOL    HW127467   5.743   0.771   5.415
 8856SOL    HW227468   5.642   0.693   5.516
 8857SOL     OW27469   6.753   2.118   6.374
 8857SOL    HW127470   6.821   2.176   6.328
 8857SOL    HW227471   6.756   2.137   6.472
 8858SOL     OW27472   6.595   5.519   4.748
 8858SOL    HW127473   6.689   5.553   4.747
 8858SOL    HW227474   6.573   5.479   4.659
 8859SOL     OW27475   0.373   5.574   2.938
 8859SOL    HW127476   0.433   5.638   2.986
 8859SOL    HW227477   0.281   5.579   2.977
 8860SOL     OW27478   6.428   2.791   2.475
 8860SOL    HW127479   6.471   2.848   2.545
 8860SOL    HW227480   6.491   2.718   2.448
 8861SOL     OW27481   2.929   2.403   1.474
 8861SOL    HW127482   2.967   2.495   1.467
 8861SOL    HW227483   2.974   2.354   1.549
 8862SOL     OW27484   4.480   4.644   4.749
 8862SOL    HW127485   4.472   4.741   4.725
 8862SOL    HW227486   4.436   4.628   4.837
 8863SOL     OW27487   1.497   3.283   1.764
 8863SOL    HW127488   1.508   3.210   1.832
 8863SOL    HW227489   1.586   3.304   1.724
 8864SOL     OW27490   6.306   1.809   4.872
 8864SOL    HW127491   6.323   1.836   4.966
 8864SOL    HW227492   6.211   1.780   4.861
 8865SOL     OW27493   2.792   1.322   0.745
 8865SOL    HW127494   2.748   1.308   0.833
 8865SOL    HW227495   2.891   1.313   0.755
 8866SOL     OW27496   6.315   0.098   1.745
 8866SOL    HW127497   6.324   0.151   1.661
 8866SOL    HW227498   6.277   0.156   1.817
 8867SOL     OW27499   5.927   2.417   3.148
 8867SOL    HW127500   5.939   2.421   3.248
 8867SOL    HW227501   5.834   2.446   3.125
 8868SOL     OW27502   0.352   2.884   3.397
 8868SOL    HW127503   0.372   2.891   3.299
 8868SOL    HW227504   0.287   2.810   3.412
 8869SOL     OW27505   4.515   6.927   3.769
 8869SOL    HW127506   4.457   6.877   3.834
 8869SOL    HW227507   4.603   6.946   3.810
 8870SOL     OW27508   0.912   0.994   2.050
 8870SOL    HW127509   0.877   0.970   1.959
 8870SOL    HW227510   0.989   1.057   2.041
 8871SOL     OW27511   0.281   6.489   1.143
 8871SOL    HW127512   0.220   6.494   1.223
 8871SOL    HW227513   0.345   6.565   1.146
 8872SOL     OW27514   6.646   4.867   3.578
 8872SOL    HW127515   6.690   4.930   3.642
 8872SOL    HW227516   6.547   4.876   3.586
 8873SOL     OW27517   1.904   1.693   3.591
 8873SOL    HW127518   1.831   1.759   3.576
 8873SOL    HW227519   1.928   1.649   3.504
 8874SOL     OW27520   2.648   5.853   0.498
 8874SOL    HW127521   2.735   5.893   0.528
 8874SOL    HW227522   2.579   5.864   0.569
 8875SOL     OW27523   6.225   2.962   4.060
 8875SOL    HW127524   6.216   2.915   3.972
 8875SOL    HW227525   6.245   3.059   4.044
 8876SOL     OW27526   4.615   0.323   0.731
 8876SOL    HW127527   4.648   0.277   0.648
 8876SOL    HW227528   4.639   0.420   0.727
 8877SOL     OW27529   0.996   4.304   1.403
 8877SOL    HW127530   1.015   4.210   1.430
 8877SOL    HW227531   0.950   4.351   1.479
 8878SOL     OW27532   4.902   3.832   2.369
 8878SOL    HW127533   4.870   3.860   2.278
 8878SOL    HW227534   4.923   3.734   2.367
 8879SOL     OW27535   0.196   4.404   4.026
 8879SOL    HW127536   0.123   4.335   4.033
 8879SOL    HW227537   0.209   4.428   3.930
 8880SOL     OW27538   4.092   1.862   2.733
 8880SOL    HW127539   4.081   1.801   2.654
 8880SOL    HW227540   4.069   1.956   2.706
 8881SOL     OW27541   3.739   5.303   2.917
 8881SOL    HW127542   3.821   5.284   2.864
 8881SOL    HW227543   3.723   5.228   2.982
 8882SOL     OW27544   3.835   1.473   0.387
 8882SOL    HW127545   3.922   1.523   0.387
 8882SOL    HW227546   3.826   1.422   0.301
 8883SOL     OW27547   0.573   6.416   3.048
 8883SOL    HW127548   0.642   6.374   3.108
 8883SOL    HW227549   0.589   6.387   2.954
 8884SOL     OW27550   4.563   2.087   6.094
 8884SOL    HW127551   4.577   2.158   6.163
 8884SOL    HW227552   4.520   2.126   6.013
 8885SOL     OW27553   5.985   4.922   0.840
 8885SOL    HW127554   6.072   4.894   0.880
 8885SOL    HW227555   5.970   4.872   0.755
 8886SOL     OW27556   4.738   6.374   0.364
 8886SOL    HW127557   4.783   6.420   0.287
 8886SOL    HW227558   4.742   6.432   0.445
 8887SOL     OW27559   4.072   0.383   2.005
 8887SOL    HW127560   4.157   0.332   2.001
 8887SOL    HW227561   4.060   0.434   1.920
 8888SOL     OW27562   3.997   2.140   2.035
 8888SOL    HW127563   3.982   2.067   1.968
 8888SOL    HW227564   3.913   2.194   2.044
 8889SOL     OW27565   1.641   4.887   6.370
 8889SOL    HW127566   1.720   4.945   6.352
 8889SOL    HW227567   1.557   4.937   6.350
 8890SOL     OW27568   1.739   6.022   0.163
 8890SOL    HW127569   1.744   6.078   0.081
 8890SOL    HW227570   1.643   6.004   0.185
 8891SOL     OW27571   5.612   3.380   5.538
 8891SOL    HW127572   5.573   3.290   5.558
 8891SOL    HW227573   5.689   3.397   5.598
 8892SOL     OW27574   2.685   5.367   4.950
 8892SOL    HW127575   2.687   5.279   4.905
 8892SOL    HW227576   2.634   5.360   5.036
 8893SOL     OW27577   0.582   4.669   5.317
 8893SOL    HW127578   0.626   4.583   5.344
 8893SOL    HW227579   0.648   4.744   5.327
 8894SOL     OW27580   5.534   2.395   1.668
 8894SOL    HW127581   5.553   2.389   1.570
 8894SOL    HW227582   5.619   2.416   1.717
 8895SOL     OW27583   0.225   3.520   1.820
 8895SOL    HW127584   0.197   3.615   1.808
 8895SOL    HW227585   0.244   3.479   1.730
 8896SOL     OW27586   0.768   1.147   3.715
 8896SOL    HW127587   0.769   1.158   3.616
 8896SOL    HW227588   0.674   1.141   3.747
 8897SOL     OW27589   1.634   5.330   4.447
 8897SOL    HW127590   1.577   5.412   4.443
 8897SOL    HW227591   1.726   5.355   4.476
 8898SOL     OW27592   5.926   5.136   3.028
 8898SOL    HW127593   5.979   5.203   2.975
 8898SOL    HW227594   5.832   5.169   3.038
 8899SOL     OW27595   2.271   4.609   1.490
 8899SOL    HW127596   2.235   4.518   1.469
 8899SOL    HW227597   2.199   4.664   1.532
 8900SOL     OW27598   3.918   1.874   4.683
 8900SOL    HW127599   3.979   1.945   4.720
 8900SOL    HW227600   3.883   1.819   4.759
 8901SOL     OW27601   0.788   4.668   5.116
 8901SOL    HW127602   0.883   4.638   5.125
 8901SOL    HW227603   0.729   4.590   5.096
 8902SOL     OW27604   0.663   4.768   6.687
 8902SOL    HW127605   0.758   4.757   6.656
 8902SOL    HW227606   0.656   4.733   6.781
 8903SOL     OW27607   0.742   0.642   4.377
 8903SOL    HW127608   0.665   0.651   4.313
 8903SOL    HW227609   0.766   0.546   4.388
 8904SOL     OW27610   6.877   1.303   2.760
 8904SOL    HW127611   6.846   1.339   2.672
 8904SOL    HW227612   6.799   1.292   2.821
 8905SOL     OW27613   1.865   4.962   1.468
 8905SOL    HW127614   1.816   5.031   1.416
 8905SOL    HW227615   1.934   4.919   1.410
 8906SOL     OW27616   6.166   0.533   6.768
 8906SOL    HW127617   6.199   0.578   6.851
 8906SOL    HW227618   6.069   0.513   6.776
 8907SOL     OW27619   2.716   3.052   5.314
 8907SOL    HW127620   2.637   3.035   5.255
 8907SOL    HW227621   2.714   2.988   5.391
 8908SOL     OW27622   1.781   5.660   5.850
 8908SOL    HW127623   1.714   5.734   5.858
 8908SOL    HW227624   1.848   5.683   5.779
 8909SOL     OW27625   2.261   6.227   1.967
 8909SOL    HW127626   2.323   6.235   1.889
 8909SOL    HW227627   2.196   6.303   1.965
 8910SOL     OW27628   0.935   0.921   3.804
 8910SOL    HW127629   0.856   0.975   3.776
 8910SOL    HW227630   1.019   0.965   3.770
 8911SOL     OW27631   5.067   2.852   4.223
 8911SOL    HW127632   5.035   2.810   4.308
 8911SOL    HW227633   5.040   2.948   4.221
 8912SOL     OW27634   3.471   2.900   3.608
 8912SOL    HW127635   3.531   2.929   3.533
 8912SOL    HW227636   3.508   2.817   3.650
 8913SOL     OW27637   5.217   5.682   1.213
 8913SOL    HW127638   5.124   5.682   1.177
 8913SOL    HW227639   5.230   5.764   1.269
 8914SOL     OW27640   4.864   4.992   5.104
 8914SOL    HW127641   4.921   5.057   5.154
 8914SOL    HW227642   4.921   4.920   5.066
 8915SOL     OW27643   2.552   1.002   3.611
 8915SOL    HW127644   2.488   0.936   3.572
 8915SOL    HW227645   2.500   1.075   3.657
 8916SOL     OW27646   6.017   0.533   2.200
 8916SOL    HW127647   6.113   0.503   2.203
 8916SOL    HW227648   5.999   0.575   2.111
 8917SOL     OW27649   6.014   2.265   0.534
 8917SOL    HW127650   5.955   2.345   0.538
 8917SOL    HW227651   6.093   2.278   0.593
 8918SOL     OW27652   1.653   3.020   2.651
 8918SOL    HW127653   1.604   3.087   2.594
 8918SOL    HW227654   1.747   3.011   2.619
 8919SOL     OW27655   6.417   2.488   3.012
 8919SOL    HW127656   6.391   2.409   3.067
 8919SOL    HW227657   6.495   2.534   3.056
 8920SOL     OW27658   0.857   1.983   0.506
 8920SOL    HW127659   0.857   1.920   0.583
 8920SOL    HW227660   0.773   2.038   0.507
 8921SOL     OW27661   0.881   2.508   1.168
 8921SOL    HW127662   0.921   2.438   1.110
 8921SOL    HW227663   0.838   2.579   1.111
 8922SOL     OW27664   2.752   5.100   3.338
 8922SOL    HW127665   2.842   5.117   3.298
 8922SOL    HW227666   2.763   5.061   3.429
 8923SOL     OW27667   2.667   1.528   3.797
 8923SOL    HW127668   2.670   1.507   3.894
 8923SOL    HW227669   2.573   1.521   3.764
 8924SOL     OW27670   6.237   5.094   4.935
 8924SOL    HW127671   6.280   5.135   4.855
 8924SOL    HW227672   6.174   5.022   4.906
 8925SOL     OW27673   0.661   6.541   3.674
 8925SOL    HW127674   0.594   6.613   3.659
 8925SOL    HW227675   0.636   6.460   3.621
 8926SOL     OW27676   5.895   2.269   6.713
 8926SOL    HW127677   5.981   2.218   6.724
 8926SOL    HW227678   5.874   2.278   6.616
 8927SOL     OW27679   1.318   1.839   6.525
 8927SOL    HW127680   1.410   1.869   6.552
 8927SOL    HW227681   1.320   1.811   6.429
 8928SOL     OW27682   0.994   6.627   5.252
 8928SOL    HW127683   0.963   6.577   5.333
 8928SOL    HW227684   1.043   6.565   5.191
 8929SOL     OW27685   6.493   1.364   3.561
 8929SOL    HW127686   6.505   1.282   3.617
 8929SOL    HW227687   6.580   1.412   3.552
 8930SOL     OW27688   2.202   5.382   2.620
 8930SOL    HW127689   2.238   5.339   2.703
 8930SOL    HW227690   2.102   5.378   2.622
 8931SOL     OW27691   4.364   2.874   0.095
 8931SOL    HW127692   4.452   2.919   0.091
 8931SOL    HW227693   4.291   2.942   0.099
 8932SOL     OW27694   0.422   3.632   2.388
 8932SOL    HW127695   0.445   3.555   2.448
 8932SOL    HW227696   0.506   3.675   2.355
 8933SOL     OW27697   4.984   2.214   5.983
 8933SOL    HW127698   4.987   2.126   6.029
 8933SOL    HW227699   4.911   2.270   6.022
 8934SOL     OW27700   2.464   6.334   2.789
 8934SOL    HW127701   2.497   6.423   2.759
 8934SOL    HW227702   2.369   6.341   2.819
 8935SOL     OW27703   0.132   5.561   6.503
 8935SOL    HW127704   0.041   5.528   6.526
 8935SOL    HW227705   0.136   5.584   6.406
 8936SOL     OW27706   4.553   3.037   0.913
 8936SOL    HW127707   4.521   2.978   0.988
 8936SOL    HW227708   4.576   2.980   0.834
 8937SOL     OW27709   0.145   1.358   6.335
 8937SOL    HW127710   0.130   1.363   6.434
 8937SOL    HW227711   0.160   1.263   6.309
 8938SOL     OW27712   4.512   5.586   1.754
 8938SOL    HW127713   4.567   5.586   1.671
 8938SOL    HW227714   4.568   5.556   1.832
 8939SOL     OW27715   5.832   2.033   4.469
 8939SOL    HW127716   5.837   2.130   4.445
 8939SOL    HW227717   5.824   1.979   4.385
 8940SOL     OW27718   5.447   6.972   2.539
 8940SOL    HW127719   5.429   6.958   2.636
 8940SOL    HW227720   5.395   6.905   2.485
 8941SOL     OW27721   3.943   2.150   0.392
 8941SOL    HW127722   3.906   2.060   0.367
 8941SOL    HW227723   3.974   2.147   0.487
 8942SOL     OW27724   1.324   2.336   5.972
 8942SOL    HW127725   1.310   2.370   5.879
 8942SOL    HW227726   1.415   2.296   5.980
 8943SOL     OW27727   5.334   3.709   0.697
 8943SOL    HW127728   5.313   3.646   0.771
 8943SOL    HW227729   5.283   3.794   0.709
 8944SOL     OW27730   4.360   5.440   1.128
 8944SOL    HW127731   4.370   5.538   1.111
 8944SOL    HW227732   4.345   5.425   1.226
 8945SOL     OW27733   2.343   1.134   3.753
 8945SOL    HW127734   2.269   1.161   3.814
 8945SOL    HW227735   2.407   1.074   3.801
 8946SOL     OW27736   3.735   0.817   4.985
 8946SOL    HW127737   3.824   0.839   5.024
 8946SOL    HW227738   3.665   0.821   5.057
 8947SOL     OW27739   3.434   3.689   5.297
 8947SOL    HW127740   3.385   3.717   5.214
 8947SOL    HW227741   3.516   3.637   5.271
 8948SOL     OW27742   5.374   4.720   3.635
 8948SOL    HW127743   5.434   4.652   3.676
 8948SOL    HW227744   5.347   4.787   3.704
 8949SOL     OW27745   1.878   5.750   6.099
 8949SOL    HW127746   1.837   5.723   6.012
 8949SOL    HW227747   1.831   5.704   6.175
 8950SOL     OW27748   4.749   2.899   4.546
 8950SOL    HW127749   4.706   2.859   4.627
 8950SOL    HW227750   4.816   2.835   4.509
 8951SOL     OW27751   2.968   1.818   5.527
 8951SOL    HW127752   2.869   1.827   5.526
 8951SOL    HW227753   3.007   1.872   5.452
 8952SOL     OW27754   6.210   6.712   3.428
 8952SOL    HW127755   6.186   6.690   3.523
 8952SOL    HW227756   6.129   6.745   3.380
 8953SOL     OW27757   1.324   5.094   5.594
 8953SOL    HW127758   1.404   5.153   5.588
 8953SOL    HW227759   1.350   4.999   5.577
 8954SOL     OW27760   2.732   6.641   6.297
 8954SOL    HW127761   2.650   6.619   6.244
 8954SOL    HW227762   2.742   6.574   6.371
 8955SOL     OW27763   0.085   4.006   4.219
 8955SOL    HW127764   0.170   3.966   4.185
 8955SOL    HW227765   0.103   4.056   4.303
 8956SOL     OW27766   0.811   0.770   4.605
 8956SOL    HW127767   0.874   0.717   4.661
 8956SOL    HW227768   0.782   0.716   4.526
 8957SOL     OW27769   3.404   6.091   1.891
 8957SOL    HW127770   3.307   6.105   1.869
 8957SOL    HW227771   3.435   6.166   1.950
 8958SOL     OW27772   3.236   0.684   4.964
 8958SOL    HW127773   3.178   0.763   4.944
 8958SOL    HW227774   3.259   0.638   4.878
 8959SOL     OW27775   3.933   5.135   6.894
 8959SOL    HW127776   3.896   5.220   6.856
 8959SOL    HW227777   3.977   5.082   6.822
 8960SOL     OW27778   4.108   5.789   0.408
 8960SOL    HW127779   4.154   5.823   0.326
 8960SOL    HW227780   4.177   5.757   0.474
 8961SOL     OW27781   0.833   2.866   4.328
 8961SOL    HW127782   0.883   2.909   4.404
 8961SOL    HW227783   0.838   2.926   4.248
 8962SOL     OW27784   4.931   0.436   3.919
 8962SOL    HW127785   4.950   0.342   3.893
 8962SOL    HW227786   4.835   0.457   3.900
 8963SOL     OW27787   0.802   1.064   4.095
 8963SOL    HW127788   0.827   0.973   4.127
 8963SOL    HW227789   0.885   1.121   4.088
 8964SOL     OW27790   0.729   3.103   3.307
 8964SOL    HW127791   0.727   3.012   3.349
 8964SOL    HW227792   0.807   3.110   3.245
 8965SOL     OW27793   1.760   5.206   1.326
 8965SOL    HW127794   1.828   5.279   1.333
 8965SOL    HW227795   1.678   5.231   1.377
 8966SOL     OW27796   4.067   2.082   4.771
 8966SOL    HW127797   4.086   2.112   4.864
 8966SOL    HW227798   4.148   2.095   4.714
 8967SOL     OW27799   5.446   6.554   0.489
 8967SOL    HW127800   5.479   6.471   0.444
 8967SOL    HW227801   5.396   6.610   0.423
 8968SOL     OW27802   5.979   3.886   3.757
 8968SOL    HW127803   5.912   3.933   3.699
 8968SOL    HW227804   6.067   3.932   3.749
 8969SOL     OW27805   6.470   0.012   3.953
 8969SOL    HW127806   6.523   6.949   3.944
 8969SOL    HW227807   6.444   0.045   3.862
 8970SOL     OW27808   3.009   2.647   1.403
 8970SOL    HW127809   2.937   2.647   1.334
 8970SOL    HW227810   3.025   2.741   1.434
 8971SOL     OW27811   3.706   6.706   2.911
 8971SOL    HW127812   3.607   6.698   2.901
 8971SOL    HW227813   3.729   6.797   2.944
 8972SOL     OW27814   5.189   0.187   4.852
 8972SOL    HW127815   5.161   0.137   4.934
 8972SOL    HW227816   5.242   0.267   4.878
 8973SOL     OW27817   1.832   4.753   6.533
 8973SOL    HW127818   1.866   4.817   6.602
 8973SOL    HW227819   1.750   4.791   6.491
 8974SOL     OW27820   0.258   2.488   4.158
 8974SOL    HW127821   0.317   2.538   4.221
 8974SOL    HW227822   0.297   2.397   4.141
 8975SOL     OW27823   3.460   0.816   6.162
 8975SOL    HW127824   3.476   0.717   6.157
 8975SOL    HW227825   3.545   0.864   6.139
 8976SOL     OW27826   1.418   5.998   3.543
 8976SOL    HW127827   1.411   6.057   3.624
 8976SOL    HW227828   1.376   5.909   3.563
 8977SOL     OW27829   5.107   1.653   0.163
 8977SOL    HW127830   5.141   1.565   0.132
 8977SOL    HW227831   5.143   1.672   0.254
 8978SOL     OW27832   5.551   4.951   1.402
 8978SOL    HW127833   5.505   4.974   1.316
 8978SOL    HW227834   5.620   4.880   1.385
 8979SOL     OW27835   0.782   4.816   4.748
 8979SOL    HW127836   0.848   4.892   4.752
 8979SOL    HW227837   0.831   4.730   4.756
 8980SOL     OW27838   2.964   3.288   4.195
 8980SOL    HW127839   2.979   3.313   4.291
 8980SOL    HW227840   2.979   3.190   4.184
 8981SOL     OW27841   2.739   1.905   5.256
 8981SOL    HW127842   2.734   1.823   5.199
 8981SOL    HW227843   2.834   1.933   5.266
 8982SOL     OW27844   3.517   5.149   0.375
 8982SOL    HW127845   3.455   5.096   0.317
 8982SOL    HW227846   3.471   5.169   0.462
 8983SOL     OW27847   4.836   4.608   0.930
 8983SOL    HW127848   4.872   4.639   0.842
 8983SOL    HW227849   4.756   4.550   0.915
 8984SOL     OW27850   1.496   6.829   3.466
 8984SOL    HW127851   1.443   6.868   3.390
 8984SOL    HW227852   1.475   6.879   3.550
 8985SOL     OW27853   3.273   3.017   6.239
 8985SOL    HW127854   3.275   3.018   6.139
 8985SOL    HW227855   3.210   3.087   6.272
 8986SOL     OW27856   2.600   5.834   1.962
 8986SOL    HW127857   2.602   5.751   1.905
 8986SOL    HW227858   2.517   5.833   2.017
 8987SOL     OW27859   5.025   6.720   2.144
 8987SOL    HW127860   4.925   6.716   2.157
 8987SOL    HW227861   5.058   6.630   2.118
 8988SOL     OW27862   0.550   4.583   4.780
 8988SOL    HW127863   0.585   4.541   4.864
 8988SOL    HW227864   0.484   4.654   4.803
 8989SOL     OW27865   2.378   2.022   6.699
 8989SOL    HW127866   2.406   2.116   6.679
 8989SOL    HW227867   2.456   1.961   6.688
 8990SOL     OW27868   0.458   4.889   4.354
 8990SOL    HW127869   0.521   4.917   4.427
 8990SOL    HW227870   0.410   4.806   4.383
 8991SOL     OW27871   1.533   2.452   5.303
 8991SOL    HW127872   1.590   2.505   5.367
 8991SOL    HW227873   1.592   2.402   5.240
 8992SOL     OW27874   6.153   2.085   1.801
 8992SOL    HW127875   6.239   2.039   1.780
 8992SOL    HW227876   6.166   2.184   1.802
 8993SOL     OW27877   4.285   2.051   1.210
 8993SOL    HW127878   4.314   2.028   1.117
 8993SOL    HW227879   4.311   1.978   1.272
 8994SOL     OW27880   1.587   5.507   2.543
 8994SOL    HW127881   1.658   5.485   2.477
 8994SOL    HW227882   1.628   5.551   2.623
 8995SOL     OW27883   0.557   0.599   1.532
 8995SOL    HW127884   0.599   0.605   1.623
 8995SOL    HW227885   0.601   0.525   1.481
 8996SOL     OW27886   4.196   5.902   5.606
 8996SOL    HW127887   4.106   5.934   5.580
 8996SOL    HW227888   4.225   5.828   5.545
 8997SOL     OW27889   6.254   0.105   4.998
 8997SOL    HW127890   6.308   0.027   5.029
 8997SOL    HW227891   6.310   0.188   5.003
 8998SOL     OW27892   6.901   4.308   5.087
 8998SOL    HW127893   6.867   4.351   5.171
 8998SOL    HW227894   6.832   4.245   5.052
 8999SOL     OW27895   4.140   5.846   6.375
 8999SOL    HW127896   4.099   5.771   6.427
 8999SOL    HW227897   4.070   5.889   6.318
 9000SOL     OW27898   0.673   4.281   1.081
 9000SOL    HW127899   0.685   4.187   1.051
 9000SOL    HW227900   0.638   4.282   1.175
 9001SOL     OW27901   1.477   5.620   0.756
 9001SOL    HW127902   1.549   5.582   0.698
 9001SOL    HW227903   1.488   5.585   0.849
 9002SOL     OW27904   6.742   5.663   6.368
 9002SOL    HW127905   6.768   5.632   6.460
 9002SOL    HW227906   6.662   5.722   6.374
 9003SOL     OW27907   5.014   6.911   0.682
 9003SOL    HW127908   5.072   6.833   0.660
 9003SOL    HW227909   4.924   6.879   0.711
 9004SOL     OW27910   6.027   5.038   1.844
 9004SOL    HW127911   6.097   4.996   1.902
 9004SOL    HW227912   6.018   5.135   1.868
 9005SOL     OW27913   4.986   0.983   4.359
 9005SOL    HW127914   5.015   1.063   4.410
 9005SOL    HW227915   4.950   0.914   4.422
 9006SOL     OW27916   3.645   6.376   0.261
 9006SOL    HW127917   3.670   6.450   0.198
 9006SOL    HW227918   3.547   6.358   0.253
 9007SOL     OW27919   0.286   0.814   3.507
 9007SOL    HW127920   0.268   0.736   3.447
 9007SOL    HW227921   0.246   0.797   3.597
 9008SOL     OW27922   6.844   5.253   2.336
 9008SOL    HW127923   6.809   5.162   2.361
 9008SOL    HW227924   6.937   5.264   2.372
 9009SOL     OW27925   2.899   6.482   1.978
 9009SOL    HW127926   2.872   6.439   2.064
 9009SOL    HW227927   2.830   6.548   1.949
 9010SOL     OW27928   1.513   5.890   4.335
 9010SOL    HW127929   1.531   5.988   4.326
 9010SOL    HW227930   1.432   5.866   4.281
 9011SOL     OW27931   2.338   2.023   2.163
 9011SOL    HW127932   2.267   2.034   2.232
 9011SOL    HW227933   2.424   2.000   2.207
 9012SOL     OW27934   2.442   6.210   6.847
 9012SOL    HW127935   2.405   6.162   6.767
 9012SOL    HW227936   2.387   6.292   6.864
 9013SOL     OW27937   1.999   0.574   4.681
 9013SOL    HW127938   1.942   0.517   4.621
 9013SOL    HW227939   1.959   0.665   4.687
 9014SOL     OW27940   5.303   3.513   3.649
 9014SOL    HW127941   5.261   3.470   3.569
 9014SOL    HW227942   5.246   3.591   3.678
 9015SOL     OW27943   4.173   6.569   6.067
 9015SOL    HW127944   4.076   6.551   6.050
 9015SOL    HW227945   4.225   6.552   5.984
 9016SOL     OW27946   5.274   4.529   5.883
 9016SOL    HW127947   5.317   4.463   5.945
 9016SOL    HW227948   5.246   4.610   5.936
 9017SOL     OW27949   2.750   0.298   5.338
 9017SOL    HW127950   2.755   0.224   5.272
 9017SOL    HW227951   2.763   0.386   5.292
 9018SOL     OW27952   4.116   5.117   0.442
 9018SOL    HW127953   4.138   5.020   0.436
 9018SOL    HW227954   4.049   5.132   0.514
 9019SOL     OW27955   0.563   3.395   4.225
 9019SOL    HW127956   0.660   3.400   4.246
 9019SOL    HW227957   0.515   3.345   4.297
 9020SOL     OW27958   5.703   4.689   3.560
 9020SOL    HW127959   5.782   4.681   3.620
 9020SOL    HW227960   5.667   4.597   3.541
 9021SOL     OW27961   6.918   1.293   4.179
 9021SOL    HW127962   6.842   1.303   4.243
 9021SOL    HW227963   6.953   1.383   4.153
 9022SOL     OW27964   4.509   3.512   0.063
 9022SOL    HW127965   4.546   3.544   6.997
 9022SOL    HW227966   4.454   3.585   0.104
 9023SOL     OW27967   6.867   4.763   0.708
 9023SOL    HW127968   6.876   4.710   0.792
 9023SOL    HW227969   6.770   4.776   0.687
 9024SOL     OW27970   2.216   4.668   6.015
 9024SOL    HW127971   2.119   4.643   6.006
 9024SOL    HW227972   2.225   4.767   6.004
 9025SOL     OW27973   0.893   6.307   1.101
 9025SOL    HW127974   0.807   6.330   1.055
 9025SOL    HW227975   0.900   6.208   1.112
 9026SOL     OW27976   5.826   1.131   0.213
 9026SOL    HW127977   5.876   1.052   0.250
 9026SOL    HW227978   5.889   1.208   0.202
 9027SOL     OW27979   6.963   3.775   3.156
 9027SOL    HW127980   6.889   3.745   3.096
 9027SOL    HW227981   0.022   3.716   3.142
 9028SOL     OW27982   3.307   4.777   6.728
 9028SOL    HW127983   3.371   4.711   6.688
 9028SOL    HW227984   3.252   4.818   6.656
 9029SOL     OW27985   4.335   6.133   5.005
 9029SOL    HW127986   4.381   6.217   5.033
 9029SOL    HW227987   4.306   6.082   5.086
 9030SOL     OW27988   2.822   2.225   2.348
 9030SOL    HW127989   2.855   2.301   2.405
 9030SOL    HW227990   2.838   2.247   2.252
 9031SOL     OW27991   5.106   0.064   5.099
 9031SOL    HW127992   5.148   0.126   5.165
 9031SOL    HW227993   5.080   7.000   5.145
 9032SOL     OW27994   5.456   2.802   1.257
 9032SOL    HW127995   5.377   2.851   1.220
 9032SOL    HW227996   5.479   2.725   1.197
 9033SOL     OW27997   1.225   6.523   2.709
 9033SOL    HW127998   1.316   6.565   2.697
 9033SOL    HW227999   1.199   6.476   2.626
 9034SOL     OW28000   4.633   6.562   5.206
 9034SOL    HW128001   4.705   6.631   5.214
 9034SOL    HW228002   4.642   6.515   5.118
 9035SOL     OW28003   2.985   5.206   6.164
 9035SOL    HW128004   2.940   5.295   6.175
 9035SOL    HW228005   3.044   5.208   6.084
 9036SOL     OW28006   0.844   5.217   5.445
 9036SOL    HW128007   0.881   5.297   5.398
 9036SOL    HW228008   0.919   5.167   5.488
 9037SOL     OW28009   0.215   0.463   2.269
 9037SOL    HW128010   0.283   0.415   2.213
 9037SOL    HW228011   0.124   0.429   2.247
 9038SOL     OW28012   3.982   3.251   5.533
 9038SOL    HW128013   4.019   3.234   5.441
 9038SOL    HW228014   4.039   3.318   5.580
 9039SOL     OW28015   4.274   6.009   6.869
 9039SOL    HW128016   4.256   5.989   6.772
 9039SOL    HW228017   4.324   5.933   6.909
 9040SOL     OW28018   2.076   2.278   1.572
 9040SOL    HW128019   2.135   2.199   1.555
 9040SOL    HW228020   2.041   2.275   1.666
 9041SOL     OW28021   5.971   2.073   2.828
 9041SOL    HW128022   6.054   2.129   2.821
 9041SOL    HW228023   5.931   2.085   2.919
 9042SOL     OW28024   5.548   5.679   6.479
 9042SOL    HW128025   5.483   5.707   6.549
 9042SOL    HW228026   5.522   5.589   6.444
 9043SOL     OW28027   2.678   2.880   1.690
 9043SOL    HW128028   2.708   2.799   1.741
 9043SOL    HW228029   2.578   2.878   1.682
 9044SOL     OW28030   1.705   0.567   0.187
 9044SOL    HW128031   1.789   0.513   0.195
 9044SOL    HW228032   1.693   0.595   0.092
 9045SOL     OW28033   3.793   0.597   3.700
 9045SOL    HW128034   3.697   0.606   3.676
 9045SOL    HW228035   3.802   0.542   3.783
 9046SOL     OW28036   3.871   3.625   2.429
 9046SOL    HW128037   3.797   3.686   2.403
 9046SOL    HW228038   3.858   3.594   2.523
 9047SOL     OW28039   0.450   4.615   5.593
 9047SOL    HW128040   0.455   4.515   5.582
 9047SOL    HW228041   0.462   4.658   5.503
 9048SOL     OW28042   6.853   1.908   5.015
 9048SOL    HW128043   6.768   1.863   4.988
 9048SOL    HW228044   6.916   1.912   4.937
 9049SOL     OW28045   1.384   6.865   5.595
 9049SOL    HW128046   1.311   6.840   5.659
 9049SOL    HW228047   1.420   6.955   5.618
 9050SOL     OW28048   1.131   4.623   0.170
 9050SOL    HW128049   1.113   4.594   0.264
 9050SOL    HW228050   1.221   4.591   0.142
 9051SOL     OW28051   2.120   0.773   1.688
 9051SOL    HW128052   2.165   0.845   1.635
 9051SOL    HW228053   2.115   0.800   1.784
 9052SOL     OW28054   1.996   3.248   6.384
 9052SOL    HW128055   2.078   3.248   6.327
 9052SOL    HW228056   1.987   3.338   6.428
 9053SOL     OW28057   0.342   1.258   0.036
 9053SOL    HW128058   0.406   1.306   6.998
 9053SOL    HW228059   0.362   1.279   0.132
 9054SOL     OW28060   1.396   5.580   3.000
 9054SOL    HW128061   1.335   5.571   2.921
 9054SOL    HW228062   1.402   5.492   3.047
 9055SOL     OW28063   0.839   2.612   5.996
 9055SOL    HW128064   0.891   2.603   6.081
 9055SOL    HW228065   0.744   2.586   6.012
 9056SOL     OW28066   5.821   1.918   4.211
 9056SOL    HW128067   5.895   1.871   4.162
 9056SOL    HW228068   5.777   1.983   4.149
 9057SOL     OW28069   5.033   1.518   3.448
 9057SOL    HW128070   4.946   1.473   3.429
 9057SOL    HW228071   5.072   1.552   3.362
 9058SOL     OW28072   2.240   0.186   6.018
 9058SOL    HW128073   2.173   0.195   6.092
 9058SOL    HW228074   2.204   0.125   5.947
 9059SOL     OW28075   1.306   2.196   3.877
 9059SOL    HW128076   1.369   2.273   3.875
 9059SOL    HW228077   1.279   2.171   3.784
 9060SOL     OW28078   5.327   2.623   5.146
 9060SOL    HW128079   5.420   2.589   5.132
 9060SOL    HW228080   5.312   2.704   5.090
 9061SOL     OW28081   2.033   4.781   4.040
 9061SOL    HW128082   2.051   4.779   3.941
 9061SOL    HW228083   1.941   4.744   4.057
 9062SOL     OW28084   1.584   5.975   1.786
 9062SOL    HW128085   1.490   5.948   1.769
 9062SOL    HW228086   1.642   5.893   1.793
 9063SOL     OW28087   3.299   1.641   2.181
 9063SOL    HW128088   3.327   1.571   2.247
 9063SOL    HW228089   3.323   1.732   2.216
 9064SOL     OW28090   4.428   3.940   6.779
 9064SOL    HW128091   4.383   4.012   6.831
 9064SOL    HW228092   4.527   3.942   6.797
 9065SOL     OW28093   2.617   0.926   1.326
 9065SOL    HW128094   2.709   0.908   1.290
 9065SOL    HW228095   2.576   0.841   1.358
 9066SOL     OW28096   5.114   6.805   6.924
 9066SOL    HW128097   5.144   6.896   6.895
 9066SOL    HW228098   5.142   6.737   6.855
 9067SOL     OW28099   0.829   0.449   1.644
 9067SOL    HW128100   0.774   0.395   1.708
 9067SOL    HW228101   0.876   0.387   1.580
 9068SOL     OW28102   1.179   6.051   6.272
 9068SOL    HW128103   1.257   6.104   6.304
 9068SOL    HW228104   1.203   5.954   6.269
 9069SOL     OW28105   1.117   2.328   6.164
 9069SOL    HW128106   1.188   2.307   6.096
 9069SOL    HW228107   1.106   2.250   6.225
 9070SOL     OW28108   1.586   4.557   4.206
 9070SOL    HW128109   1.509   4.598   4.157
 9070SOL    HW228110   1.562   4.545   4.303
 9071SOL     OW28111   4.987   4.952   6.870
 9071SOL    HW128112   4.979   5.052   6.863
 9071SOL    HW228113   4.975   4.924   6.965
 9072SOL     OW28114   5.109   4.307   0.945
 9072SOL    HW128115   5.021   4.296   0.990
 9072SOL    HW228116   5.098   4.357   0.860
 9073SOL     OW28117   2.180   0.298   1.382
 9073SOL    HW128118   2.251   0.341   1.439
 9073SOL    HW228119   2.194   0.199   1.380
 9074SOL     OW28120   0.398   0.825   1.701
 9074SOL    HW128121   0.469   0.894   1.717
 9074SOL    HW228122   0.407   0.788   1.609
 9075SOL     OW28123   0.069   0.172   1.253
 9075SOL    HW128124   0.010   0.221   1.189
 9075SOL    HW228125   0.020   0.156   1.339
 9076SOL     OW28126   1.307   2.338   5.479
 9076SOL    HW128127   1.281   2.280   5.402
 9076SOL    HW228128   1.392   2.386   5.457
 9077SOL     OW28129   5.829   6.256   2.526
 9077SOL    HW128130   5.889   6.231   2.450
 9077SOL    HW228131   5.740   6.213   2.514
 9078SOL     OW28132   4.680   3.240   5.496
 9078SOL    HW128133   4.711   3.246   5.401
 9078SOL    HW228134   4.730   3.166   5.542
 9079SOL     OW28135   2.483   6.680   5.304
 9079SOL    HW128136   2.441   6.764   5.270
 9079SOL    HW228137   2.508   6.692   5.400
 9080SOL     OW28138   4.636   1.402   0.361
 9080SOL    HW128139   4.647   1.339   0.438
 9080SOL    HW228140   4.724   1.415   0.316
 9081SOL     OW28141   5.655   6.943   3.363
 9081SOL    HW128142   5.667   6.888   3.445
 9081SOL    HW228143   5.718   7.020   3.364
 9082SOL     OW28144   2.370   0.694   1.948
 9082SOL    HW128145   2.310   0.645   1.885
 9082SOL    HW228146   2.376   0.643   2.034
 9083SOL     OW28147   4.409   5.152   3.755
 9083SOL    HW128148   4.326   5.095   3.760
 9083SOL    HW228149   4.447   5.146   3.663
 9084SOL     OW28150   3.348   3.470   2.240
 9084SOL    HW128151   3.272   3.407   2.224
 9084SOL    HW228152   3.394   3.447   2.325
 9085SOL     OW28153   1.148   2.028   0.661
 9085SOL    HW128154   1.228   2.049   0.604
 9085SOL    HW228155   1.065   2.040   0.608
 9086SOL     OW28156   6.690   3.712   0.206
 9086SOL    HW128157   6.679   3.620   0.244
 9086SOL    HW228158   6.606   3.739   0.160
 9087SOL     OW28159   5.218   3.448   2.056
 9087SOL    HW128160   5.118   3.443   2.059
 9087SOL    HW228161   5.253   3.458   2.148
 9088SOL     OW28162   5.762   4.821   2.024
 9088SOL    HW128163   5.779   4.761   2.102
 9088SOL    HW228164   5.733   4.766   1.946
 9089SOL     OW28165   4.060   0.965   5.735
 9089SOL    HW128166   4.095   0.974   5.829
 9089SOL    HW228167   3.968   1.002   5.730
 9090SOL     OW28168   6.664   1.771   3.799
 9090SOL    HW128169   6.671   1.842   3.869
 9090SOL    HW228170   6.573   1.730   3.803
 9091SOL     OW28171   4.186   2.778   5.538
 9091SOL    HW128172   4.284   2.766   5.525
 9091SOL    HW228173   4.169   2.858   5.596
 9092SOL     OW28174   6.583   3.738   6.154
 9092SOL    HW128175   6.650   3.804   6.119
 9092SOL    HW228176   6.614   3.703   6.242
 9093SOL     OW28177   2.539   6.453   5.039
 9093SOL    HW128178   2.481   6.372   5.033
 9093SOL    HW228179   2.525   6.499   5.127
 9094SOL     OW28180   1.847   3.785   0.612
 9094SOL    HW128181   1.911   3.852   0.650
 9094SOL    HW228182   1.825   3.810   0.518
 9095SOL     OW28183   0.553   0.196   6.105
 9095SOL    HW128184   0.635   0.226   6.055
 9095SOL    HW228185   0.474   0.196   6.043
 9096SOL     OW28186   6.667   5.531   3.868
 9096SOL    HW128187   6.673   5.615   3.813
 9096SOL    HW228188   6.756   5.515   3.912
 9097SOL     OW28189   0.834   4.172   0.115
 9097SOL    HW128190   0.895   4.145   0.041
 9097SOL    HW228191   0.839   4.271   0.129
 9098SOL     OW28192   1.989   5.338   4.047
 9098SOL    HW128193   1.999   5.379   3.956
 9098SOL    HW228194   1.913   5.381   4.095
 9099SOL     OW28195   2.340   1.711   6.150
 9099SOL    HW128196   2.297   1.712   6.240
 9099SOL    HW228197   2.322   1.623   6.105
 9100SOL     OW28198   1.986   4.881   4.510
 9100SOL    HW128199   1.932   4.823   4.571
 9100SOL    HW228200   1.935   4.898   4.426
 9101SOL     OW28201   6.684   1.901   1.164
 9101SOL    HW128202   6.740   1.835   1.213
 9101SOL    HW228203   6.598   1.858   1.137
 9102SOL     OW28204   3.810   0.644   3.214
 9102SOL    HW128205   3.785   0.547   3.221
 9102SOL    HW228206   3.797   0.675   3.120
 9103SOL     OW28207   6.506   0.297   1.123
 9103SOL    HW128208   6.469   0.323   1.213
 9103SOL    HW228209   6.581   0.233   1.136
 9104SOL     OW28210   5.768   2.357   5.717
 9104SOL    HW128211   5.792   2.293   5.644
 9104SOL    HW228212   5.831   2.435   5.715
 9105SOL     OW28213   2.848   0.746   0.016
 9105SOL    HW128214   2.924   0.687   0.045
 9105SOL    HW228215   2.769   0.729   0.075
 9106SOL     OW28216   2.396   3.147   6.452
 9106SOL    HW128217   2.365   3.139   6.357
 9106SOL    HW228218   2.451   3.068   6.475
 9107SOL     OW28219   3.707   0.491   1.244
 9107SOL    HW128220   3.767   0.563   1.208
 9107SOL    HW228221   3.742   0.402   1.217
 9108SOL     OW28222   6.372   6.578   5.580
 9108SOL    HW128223   6.425   6.493   5.578
 9108SOL    HW228224   6.393   6.632   5.498
 9109SOL     OW28225   5.379   4.399   3.347
 9109SOL    HW128226   5.352   4.495   3.360
 9109SOL    HW228227   5.352   4.369   3.255
 9110SOL     OW28228   1.458   6.715   2.420
 9110SOL    HW128229   1.534   6.715   2.355
 9110SOL    HW228230   1.378   6.756   2.376
 9111SOL     OW28231   4.572   2.702   5.378
 9111SOL    HW128232   4.576   2.797   5.348
 9111SOL    HW228233   4.520   2.696   5.463
 9112SOL     OW28234   0.466   4.616   1.796
 9112SOL    HW128235   0.387   4.670   1.768
 9112SOL    HW228236   0.480   4.540   1.732
 9113SOL     OW28237   5.669   0.046   4.296
 9113SOL    HW128238   5.709   0.075   4.209
 9113SOL    HW228239   5.612   0.120   4.333
 9114SOL     OW28240   0.311   1.518   6.185
 9114SOL    HW128241   0.327   1.464   6.102
 9114SOL    HW228242   0.243   1.472   6.242
 9115SOL     OW28243   5.584   3.916   4.426
 9115SOL    HW128244   5.500   3.863   4.441
 9115SOL    HW228245   5.650   3.861   4.376
 9116SOL     OW28246   0.563   5.312   3.680
 9116SOL    HW128247   0.647   5.269   3.711
 9116SOL    HW228248   0.485   5.274   3.729
 9117SOL     OW28249   1.927   6.900   0.149
 9117SOL    HW128250   1.867   6.841   0.203
 9117SOL    HW228251   2.010   6.850   0.125
 9118SOL     OW28252   6.686   5.109   1.187
 9118SOL    HW128253   6.617   5.181   1.185
 9118SOL    HW228254   6.768   5.143   1.233
 9119SOL     OW28255   3.381   1.499   0.897
 9119SOL    HW128256   3.433   1.584   0.892
 9119SOL    HW228257   3.423   1.439   0.965
 9120SOL     OW28258   6.428   4.405   5.092
 9120SOL    HW128259   6.466   4.489   5.053
 9120SOL    HW228260   6.449   4.401   5.189
 9121SOL     OW28261   4.306   1.009   4.615
 9121SOL    HW128262   4.278   1.099   4.581
 9121SOL    HW228263   4.232   0.943   4.599
 9122SOL     OW28264   0.086   1.487   2.078
 9122SOL    HW128265   0.073   1.482   1.978
 9122SOL    HW228266   0.012   1.541   2.118
 9123SOL     OW28267   0.748   6.392   4.761
 9123SOL    HW128268   0.759   6.393   4.860
 9123SOL    HW228269   0.820   6.447   4.718
 9124SOL     OW28270   3.349   5.638   0.378
 9124SOL    HW128271   3.332   5.583   0.296
 9124SOL    HW228272   3.263   5.652   0.427
 9125SOL     OW28273   4.922   6.414   1.857
 9125SOL    HW128274   4.918   6.357   1.775
 9125SOL    HW228275   4.919   6.356   1.938
 9126SOL     OW28276   3.839   5.152   0.298
 9126SOL    HW128277   3.925   5.149   0.348
 9126SOL    HW228278   3.763   5.160   0.363
 9127SOL     OW28279   6.289   4.515   5.637
 9127SOL    HW128280   6.309   4.455   5.715
 9127SOL    HW228281   6.356   4.499   5.564
 9128SOL     OW28282   5.228   3.522   6.838
 9128SOL    HW128283   5.130   3.501   6.832
 9128SOL    HW228284   5.246   3.610   6.793
 9129SOL     OW28285   0.717   3.303   1.514
 9129SOL    HW128286   0.635   3.264   1.555
 9129SOL    HW228287   0.798   3.262   1.556
 9130SOL     OW28288   2.896   3.492   6.039
 9130SOL    HW128289   2.916   3.582   6.000
 9130SOL    HW228290   2.893   3.423   5.967
 9131SOL     OW28291   6.361   3.234   0.981
 9131SOL    HW128292   6.417   3.184   1.047
 9131SOL    HW228293   6.350   3.180   0.898
 9132SOL     OW28294   1.129   3.999   3.653
 9132SOL    HW128295   1.111   3.902   3.636
 9132SOL    HW228296   1.223   4.011   3.684
 9133SOL     OW28297   4.991   0.077   0.497
 9133SOL    HW128298   4.982   0.046   0.402
 9133SOL    HW228299   5.024   0.001   0.553
 9134SOL     OW28300   4.860   4.165   6.906
 9134SOL    HW128301   4.798   4.185   6.831
 9134SOL    HW228302   4.833   4.079   6.951
 9135SOL     OW28303   6.784   5.513   2.689
 9135SOL    HW128304   6.874   5.548   2.663
 9135SOL    HW228305   6.741   5.575   2.754
 9136SOL     OW28306   0.584   5.253   6.712
 9136SOL    HW128307   0.666   5.242   6.769
 9136SOL    HW228308   0.543   5.342   6.730
 9137SOL     OW28309   5.605   5.427   6.004
 9137SOL    HW128310   5.542   5.437   5.927
 9137SOL    HW228311   5.678   5.495   5.998
 9138SOL     OW28312   1.573   4.223   6.452
 9138SOL    HW128313   1.527   4.170   6.523
 9138SOL    HW228314   1.661   4.180   6.431
 9139SOL     OW28315   0.620   6.764   0.886
 9139SOL    HW128316   0.574   6.822   0.953
 9139SOL    HW228317   0.558   6.746   0.809
 9140SOL     OW28318   0.661   4.034   3.104
 9140SOL    HW128319   0.565   4.007   3.108
 9140SOL    HW228320   0.690   4.070   3.193
 9141SOL     OW28321   0.583   6.241   4.215
 9141SOL    HW128322   0.528   6.320   4.186
 9141SOL    HW228323   0.541   6.200   4.296
 9142SOL     OW28324   1.581   5.190   3.289
 9142SOL    HW128325   1.674   5.217   3.264
 9142SOL    HW228326   1.518   5.266   3.272
 9143SOL     OW28327   5.185   3.553   2.441
 9143SOL    HW128328   5.091   3.547   2.406
 9143SOL    HW228329   5.240   3.481   2.399
 9144SOL     OW28330   2.374   4.617   5.081
 9144SOL    HW128331   2.436   4.601   5.158
 9144SOL    HW228332   2.421   4.671   5.011
 9145SOL     OW28333   3.036   6.111   6.436
 9145SOL    HW128334   3.108   6.164   6.481
 9145SOL    HW228335   3.049   6.116   6.337
 9146SOL     OW28336   5.438   1.851   4.519
 9146SOL    HW128337   5.516   1.887   4.570
 9146SOL    HW228338   5.382   1.794   4.579
 9147SOL     OW28339   4.194   6.904   6.183
 9147SOL    HW128340   4.125   6.932   6.250
 9147SOL    HW228341   4.244   6.984   6.151
 9148SOL     OW28342   3.679   5.510   2.310
 9148SOL    HW128343   3.737   5.470   2.240
 9148SOL    HW228344   3.712   5.483   2.401
 9149SOL     OW28345   1.540   4.265   1.662
 9149SOL    HW128346   1.524   4.300   1.754
 9149SOL    HW228347   1.576   4.172   1.666
 9150SOL     OW28348   3.939   3.357   6.669
 9150SOL    HW128349   3.970   3.452   6.658
 9150SOL    HW228350   3.937   3.334   6.766
 9151SOL     OW28351   2.140   3.547   3.880
 9151SOL    HW128352   2.063   3.609   3.874
 9151SOL    HW228353   2.197   3.557   3.798
 9152SOL     OW28354   1.894   5.184   1.610
 9152SOL    HW128355   1.968   5.242   1.574
 9152SOL    HW228356   1.899   5.093   1.569
 9153SOL     OW28357   0.671   3.961   0.239
 9153SOL    HW128358   0.692   3.870   0.203
 9153SOL    HW228359   0.740   4.026   0.208
 9154SOL     OW28360   4.315   5.318   2.738
 9154SOL    HW128361   4.326   5.308   2.639
 9154SOL    HW228362   4.218   5.322   2.760
 9155SOL     OW28363   0.617   6.315   2.800
 9155SOL    HW128364   0.710   6.338   2.771
 9155SOL    HW228365   0.580   6.246   2.738
 9156SOL     OW28366   6.737   4.407   5.603
 9156SOL    HW128367   6.773   4.487   5.651
 9156SOL    HW228368   6.763   4.324   5.653
 9157SOL     OW28369   1.912   4.604   4.994
 9157SOL    HW128370   1.985   4.548   4.955
 9157SOL    HW228371   1.950   4.664   5.064
 9158SOL     OW28372   6.849   2.565   3.801
 9158SOL    HW128373   6.865   2.525   3.891
 9158SOL    HW228374   6.937   2.594   3.762
 9159SOL     OW28375   2.456   0.779   3.496
 9159SOL    HW128376   2.363   0.791   3.530
 9159SOL    HW228377   2.462   0.694   3.444
 9160SOL     OW28378   0.794   3.485   6.701
 9160SOL    HW128379   0.735   3.417   6.746
 9160SOL    HW228380   0.873   3.438   6.662
 9161SOL     OW28381   5.586   3.448   2.723
 9161SOL    HW128382   5.610   3.360   2.682
 9161SOL    HW228383   5.487   3.450   2.741
 9162SOL     OW28384   5.249   1.957   2.022
 9162SOL    HW128385   5.270   2.047   1.984
 9162SOL    HW228386   5.286   1.886   1.963
 9163SOL     OW28387   1.983   3.644   3.030
 9163SOL    HW128388   2.030   3.626   2.944
 9163SOL    HW228389   2.025   3.589   3.103
 9164SOL     OW28390   3.412   0.497   0.845
 9164SOL    HW128391   3.454   0.414   0.882
 9164SOL    HW228392   3.482   0.551   0.798
 9165SOL     OW28393   6.414   0.195   6.335
 9165SOL    HW128394   6.497   0.250   6.329
 9165SOL    HW228395   6.365   0.215   6.419
 9166SOL     OW28396   4.024   5.710   1.823
 9166SOL    HW128397   4.058   5.757   1.742
 9166SOL    HW228398   3.925   5.695   1.814
 9167SOL     OW28399   0.865   2.781   4.987
 9167SOL    HW128400   0.877   2.804   5.084
 9167SOL    HW228401   0.940   2.721   4.958
 9168SOL     OW28402   6.022   5.921   4.354
 9168SOL    HW128403   5.979   5.903   4.265
 9168SOL    HW228404   5.971   5.993   4.402
 9169SOL     OW28405   5.700   5.891   0.246
 9169SOL    HW128406   5.743   5.806   0.274
 9169SOL    HW228407   5.638   5.873   0.169
 9170SOL     OW28408   1.496   0.092   5.609
 9170SOL    HW128409   1.526   0.093   5.514
 9170SOL    HW228410   1.516   0.181   5.651
 9171SOL     OW28411   4.722   5.678   0.104
 9171SOL    HW128412   4.638   5.645   0.148
 9171SOL    HW228413   4.740   5.624   0.023
 9172SOL     OW28414   5.302   0.449   5.972
 9172SOL    HW128415   5.232   0.379   5.984
 9172SOL    HW228416   5.309   0.504   6.056
 9173SOL     OW28417   5.822   4.030   6.249
 9173SOL    HW128418   5.907   3.984   6.276
 9173SOL    HW228419   5.845   4.114   6.199
 9174SOL     OW28420   6.000   4.948   6.985
 9174SOL    HW128421   6.032   5.015   6.918
 9174SOL    HW228422   6.046   4.963   0.051
 9175SOL     OW28423   1.959   0.929   1.198
 9175SOL    HW128424   1.922   1.018   1.226
 9175SOL    HW228425   2.046   0.913   1.246
 9176SOL     OW28426   1.376   0.045   2.316
 9176SOL    HW128427   1.388   6.999   2.242
 9176SOL    HW228428   1.405   0.135   2.284
 9177SOL     OW28429   0.639   5.842   3.398
 9177SOL    HW128430   0.686   5.774   3.342
 9177SOL    HW228431   0.541   5.840   3.376
 9178SOL     OW28432   1.072   3.704   1.104
 9178SOL    HW128433   1.056   3.631   1.038
 9178SOL    HW228434   1.103   3.786   1.057
 9179SOL     OW28435   3.767   5.901   2.833
 9179SOL    HW128436   3.822   5.885   2.751
 9179SOL    HW228437   3.711   5.820   2.852
 9180SOL     OW28438   0.111   1.117   5.191
 9180SOL    HW128439   0.063   1.033   5.166
 9180SOL    HW228440   0.137   1.113   5.287
 9181SOL     OW28441   3.260   2.132   3.135
 9181SOL    HW128442   3.337   2.099   3.188
 9181SOL    HW228443   3.291   2.161   3.045
 9182SOL     OW28444   6.821   1.265   3.161
 9182SOL    HW128445   6.806   1.216   3.246
 9182SOL    HW228446   6.740   1.256   3.102
 9183SOL     OW28447   3.239   1.542   5.607
 9183SOL    HW128448   3.271   1.613   5.670
 9183SOL    HW228449   3.139   1.548   5.598
 9184SOL     OW28450   2.819   5.694   0.762
 9184SOL    HW128451   2.781   5.648   0.682
 9184SOL    HW228452   2.895   5.752   0.733
 9185SOL     OW28453   0.104   1.299   5.540
 9185SOL    HW128454   0.069   1.392   5.546
 9185SOL    HW228455   0.203   1.300   5.553
 9186SOL     OW28456   5.412   6.523   5.943
 9186SOL    HW128457   5.347   6.471   5.888
 9186SOL    HW228458   5.409   6.619   5.917
 9187SOL     OW28459   5.216   3.528   1.247
 9187SOL    HW128460   5.220   3.448   1.308
 9187SOL    HW228461   5.163   3.505   1.165
 9188SOL     OW28462   1.136   1.318   2.592
 9188SOL    HW128463   1.060   1.301   2.655
 9188SOL    HW228464   1.133   1.252   2.517
 9189SOL     OW28465   3.193   0.605   6.977
 9189SOL    HW128466   3.158   0.512   6.974
 9189SOL    HW228467   3.162   0.649   0.041
 9190SOL     OW28468   3.718   0.974   5.737
 9190SOL    HW128469   3.638   1.019   5.777
 9190SOL    HW228470   3.700   0.876   5.729
 9191SOL     OW28471   5.136   0.089   1.766
 9191SOL    HW128472   5.138   0.186   1.791
 9191SOL    HW228473   5.177   0.078   1.675
 9192SOL     OW28474   4.318   4.616   4.154
 9192SOL    HW128475   4.389   4.682   4.178
 9192SOL    HW228476   4.340   4.527   4.195
 9193SOL     OW28477   4.143   3.581   2.437
 9193SOL    HW128478   4.163   3.649   2.508
 9193SOL    HW228479   4.045   3.580   2.418
 9194SOL     OW28480   3.016   5.367   3.619
 9194SOL    HW128481   3.083   5.317   3.565
 9194SOL    HW228482   2.928   5.367   3.572
 9195SOL     OW28483   0.259   3.164   3.640
 9195SOL    HW128484   0.264   3.116   3.728
 9195SOL    HW228485   0.311   3.113   3.571
 9196SOL     OW28486   5.374   5.302   3.529
 9196SOL    HW128487   5.311   5.318   3.453
 9196SOL    HW228488   5.403   5.390   3.568
 9197SOL     OW28489   4.241   1.987   6.976
 9197SOL    HW128490   4.164   1.925   6.962
 9197SOL    HW228491   4.209   2.082   6.971
 9198SOL     OW28492   6.240   2.869   4.774
 9198SOL    HW128493   6.259   2.955   4.821
 9198SOL    HW228494   6.313   2.804   4.795
 9199SOL     OW28495   0.873   3.780   0.155
 9199SOL    HW128496   0.881   3.813   0.249
 9199SOL    HW228497   0.953   3.807   0.103
 9200SOL     OW28498   4.455   5.841   1.975
 9200SOL    HW128499   4.461   5.821   1.877
 9200SOL    HW228500   4.444   5.940   1.987
 9201SOL     OW28501   0.128   2.748   2.527
 9201SOL    HW128502   0.163   2.672   2.472
 9201SOL    HW228503   0.150   2.731   2.623
 9202SOL     OW28504   1.685   5.743   2.987
 9202SOL    HW128505   1.592   5.728   3.020
 9202SOL    HW228506   1.750   5.710   3.055
 9203SOL     OW28507   5.182   2.230   0.531
 9203SOL    HW128508   5.103   2.269   0.483
 9203SOL    HW228509   5.193   2.134   0.504
 9204SOL     OW28510   4.567   4.553   1.543
 9204SOL    HW128511   4.635   4.625   1.528
 9204SOL    HW228512   4.550   4.543   1.641
 9205SOL     OW28513   4.150   2.432   0.954
 9205SOL    HW128514   4.233   2.398   0.997
 9205SOL    HW228515   4.153   2.532   0.949
 9206SOL     OW28516   0.042   0.069   5.240
 9206SOL    HW128517   0.027   6.991   5.233
 9206SOL    HW228518   0.101   0.098   5.165
 9207SOL     OW28519   5.869   6.484   0.305
 9207SOL    HW128520   5.873   6.414   0.234
 9207SOL    HW228521   5.909   6.448   0.390
 9208SOL     OW28522   5.946   4.478   1.598
 9208SOL    HW128523   5.968   4.391   1.640
 9208SOL    HW228524   5.912   4.463   1.505
 9209SOL     OW28525   5.217   0.699   4.495
 9209SOL    HW128526   5.257   0.616   4.535
 9209SOL    HW228527   5.134   0.723   4.545
 9210SOL     OW28528   1.469   6.733   0.301
 9210SOL    HW128529   1.388   6.683   0.273
 9210SOL    HW228530   1.473   6.737   0.401
 9211SOL     OW28531   5.499   1.380   6.300
 9211SOL    HW128532   5.426   1.394   6.367
 9211SOL    HW228533   5.482   1.436   6.219
 9212SOL     OW28534   6.485   3.462   6.685
 9212SOL    HW128535   6.420   3.391   6.658
 9212SOL    HW228536   6.501   3.524   6.607
 9213SOL     OW28537   0.304   5.159   3.250
 9213SOL    HW128538   0.392   5.203   3.233
 9213SOL    HW228539   0.270   5.118   3.165
 9214SOL     OW28540   1.772   0.990   6.004
 9214SOL    HW128541   1.771   0.943   6.091
 9214SOL    HW228542   1.851   0.961   5.951
 9215SOL     OW28543   6.638   3.781   3.954
 9215SOL    HW128544   6.708   3.812   4.019
 9215SOL    HW228545   6.600   3.860   3.906
 9216SOL     OW28546   1.861   0.070   3.571
 9216SOL    HW128547   1.831   0.012   3.647
 9216SOL    HW228548   1.961   0.079   3.574
 9217SOL     OW28549   3.469   2.533   0.350
 9217SOL    HW128550   3.502   2.439   0.355
 9217SOL    HW228551   3.415   2.546   0.267
 9218SOL     OW28552   5.003   5.937   5.934
 9218SOL    HW128553   4.925   5.940   5.997
 9218SOL    HW228554   5.014   6.025   5.890
 9219SOL     OW28555   4.105   3.179   6.105
 9219SOL    HW128556   4.008   3.200   6.097
 9219SOL    HW228557   4.146   3.233   6.179
 9220SOL     OW28558   0.774   6.868   3.522
 9220SOL    HW128559   0.677   6.868   3.498
 9220SOL    HW228560   0.828   6.895   3.443
 9221SOL     OW28561   2.648   1.429   2.014
 9221SOL    HW128562   2.610   1.494   2.080
 9221SOL    HW228563   2.676   1.345   2.062
 9222SOL     OW28564   2.038   6.055   3.472
 9222SOL    HW128565   2.094   5.988   3.422
 9222SOL    HW228566   1.959   6.080   3.417
 9223SOL     OW28567   5.848   2.384   4.913
 9223SOL    HW128568   5.795   2.382   4.828
 9223SOL    HW228569   5.869   2.479   4.936
 9224SOL     OW28570   1.747   5.677   2.719
 9224SOL    HW128571   1.830   5.631   2.752
 9224SOL    HW228572   1.691   5.703   2.797
 9225SOL     OW28573   0.549   5.961   5.337
 9225SOL    HW128574   0.589   5.928   5.252
 9225SOL    HW228575   0.556   5.890   5.407
 9226SOL     OW28576   0.686   6.735   4.616
 9226SOL    HW128577   0.757   6.790   4.661
 9226SOL    HW228578   0.699   6.739   4.517
 9227SOL     OW28579   4.375   2.724   0.927
 9227SOL    HW128580   4.415   2.635   0.904
 9227SOL    HW228581   4.280   2.712   0.955
 9228SOL     OW28582   3.737   3.265   4.361
 9228SOL    HW128583   3.679   3.195   4.321
 9228SOL    HW228584   3.793   3.306   4.289
 9229SOL     OW28585   0.650   6.149   1.138
 9229SOL    HW128586   0.608   6.164   1.049
 9229SOL    HW228587   0.680   6.054   1.146
 9230SOL     OW28588   3.685   6.963   6.126
 9230SOL    HW128589   3.626   0.014   6.089
 9230SOL    HW228590   3.717   6.991   6.217
 9231SOL     OW28591   5.819   6.391   1.768
 9231SOL    HW128592   5.835   6.441   1.853
 9231SOL    HW228593   5.761   6.445   1.708
 9232SOL     OW28594   1.125   5.018   1.860
 9232SOL    HW128595   1.189   5.081   1.904
 9232SOL    HW228596   1.175   4.943   1.817
 9233SOL     OW28597   1.580   7.004   5.864
 9233SOL    HW128598   1.602   0.069   5.910
 9233SOL    HW228599   1.558   0.001   5.768
 9234SOL     OW28600   3.406   3.875   6.910
 9234SOL    HW128601   3.429   3.970   6.888
 9234SOL    HW228602   3.307   3.866   6.923
 9235SOL     OW28603   2.009   2.429   2.805
 9235SOL    HW128604   2.030   2.358   2.738
 9235SOL    HW228605   1.967   2.388   2.885
 9236SOL     OW28606   1.555   4.511   6.490
 9236SOL    HW128607   1.523   4.416   6.500
 9236SOL    HW228608   1.629   4.528   6.555
 9237SOL     OW28609   6.886   5.413   3.668
 9237SOL    HW128610   6.899   5.481   3.740
 9237SOL    HW228611   6.805   5.359   3.688
 9238SOL     OW28612   1.798   2.729   5.063
 9238SOL    HW128613   1.847   2.646   5.037
 9238SOL    HW228614   1.840   2.808   5.017
 9239SOL     OW28615   1.778   6.244   6.226
 9239SOL    HW128616   1.733   6.276   6.143
 9239SOL    HW228617   1.787   6.319   6.291
 9240SOL     OW28618   3.908   1.349   4.881
 9240SOL    HW128619   3.825   1.335   4.935
 9240SOL    HW228620   3.883   1.383   4.790
 9241SOL     OW28621   5.292   6.198   0.235
 9241SOL    HW128622   5.359   6.142   0.285
 9241SOL    HW228623   5.202   6.187   0.277
 9242SOL     OW28624   2.654   2.271   6.875
 9242SOL    HW128625   2.581   2.280   6.808
 9242SOL    HW228626   2.647   2.345   6.942
 9243SOL     OW28627   1.947   0.223   0.582
 9243SOL    HW128628   1.877   0.249   0.515
 9243SOL    HW228629   2.033   0.271   0.561
 9244SOL     OW28630   2.999   6.418   6.661
 9244SOL    HW128631   2.943   6.419   6.744
 9244SOL    HW228632   3.082   6.472   6.676
 9245SOL     OW28633   0.853   3.816   3.081
 9245SOL    HW128634   0.902   3.840   3.165
 9245SOL    HW228635   0.772   3.874   3.072
 9246SOL     OW28636   4.999   0.928   6.415
 9246SOL    HW128637   4.963   0.995   6.480
 9246SOL    HW228638   4.949   0.935   6.329
 9247SOL     OW28639   2.913   6.519   2.734
 9247SOL    HW128640   2.969   6.437   2.746
 9247SOL    HW228641   2.840   6.501   2.668
 9248SOL     OW28642   3.016   0.081   6.399
 9248SOL    HW128643   2.958   0.003   6.378
 9248SOL    HW228644   3.091   0.053   6.460
 9249SOL     OW28645   3.426   1.377   0.654
 9249SOL    HW128646   3.420   1.422   0.743
 9249SOL    HW228647   3.360   1.419   0.591
 9250SOL     OW28648   0.837   3.459   1.850
 9250SOL    HW128649   0.916   3.458   1.789
 9250SOL    HW228650   0.754   3.472   1.796
 9251SOL     OW28651   4.276   1.079   0.617
 9251SOL    HW128652   4.192   1.027   0.633
 9251SOL    HW228653   4.254   1.167   0.576
 9252SOL     OW28654   5.566   1.371   4.868
 9252SOL    HW128655   5.537   1.463   4.895
 9252SOL    HW228656   5.532   1.350   4.776
 9253SOL     OW28657   2.424   4.961   3.727
 9253SOL    HW128658   2.352   5.013   3.774
 9253SOL    HW228659   2.445   5.004   3.640
 9254SOL     OW28660   6.749   6.211   2.188
 9254SOL    HW128661   6.795   6.123   2.185
 9254SOL    HW228662   6.654   6.198   2.220
 9255SOL     OW28663   0.479   3.175   1.549
 9255SOL    HW128664   0.390   3.134   1.531
 9255SOL    HW228665   0.493   3.183   1.647
 9256SOL     OW28666   2.127   6.271   1.373
 9256SOL    HW128667   2.049   6.313   1.326
 9256SOL    HW228668   2.189   6.342   1.407
 9257SOL     OW28669   6.384   6.189   5.248
 9257SOL    HW128670   6.459   6.156   5.306
 9257SOL    HW228671   6.297   6.152   5.282
 9258SOL     OW28672   4.977   3.552   3.075
 9258SOL    HW128673   5.055   3.537   3.015
 9258SOL    HW228674   4.948   3.648   3.069
 9259SOL     OW28675   0.916   3.238   6.385
 9259SOL    HW128676   0.833   3.265   6.336
 9259SOL    HW228677   0.892   3.199   6.473
 9260SOL     OW28678   5.127   4.852   5.099
 9260SOL    HW128679   5.196   4.913   5.139
 9260SOL    HW228680   5.153   4.830   5.005
 9261SOL     OW28681   1.619   3.095   1.143
 9261SOL    HW128682   1.631   3.036   1.224
 9261SOL    HW228683   1.650   3.045   1.062
 9262SOL     OW28684   6.741   6.643   6.103
 9262SOL    HW128685   6.758   6.625   6.200
 9262SOL    HW228686   6.772   6.736   6.081
 9263SOL     OW28687   2.612   4.835   2.828
 9263SOL    HW128688   2.628   4.932   2.811
 9263SOL    HW228689   2.589   4.790   2.742
 9264SOL     OW28690   5.870   3.698   5.244
 9264SOL    HW128691   5.815   3.696   5.160
 9264SOL    HW228692   5.950   3.639   5.231
 9265SOL     OW28693   4.520   0.520   1.947
 9265SOL    HW128694   4.544   0.424   1.934
 9265SOL    HW228695   4.508   0.539   2.044
 9266SOL     OW28696   0.410   4.581   0.959
 9266SOL    HW128697   0.334   4.516   0.953
 9266SOL    HW228698   0.487   4.546   0.905
 9267SOL     OW28699   6.699   1.123   3.357
 9267SOL    HW128700   6.604   1.099   3.376
 9267SOL    HW228701   6.759   1.069   3.415
 9268SOL     OW28702   0.088   6.897   1.123
 9268SOL    HW128703   0.051   6.876   1.214
 9268SOL    HW228704   0.030   6.964   1.078
 9269SOL     OW28705   3.176   6.124   1.297
 9269SOL    HW128706   3.083   6.116   1.263
 9269SOL    HW228707   3.222   6.036   1.290
 9270SOL     OW28708   2.056   1.433   5.455
 9270SOL    HW128709   1.981   1.392   5.507
 9270SOL    HW228710   2.018   1.493   5.384
 9271SOL     OW28711   1.462   5.168   5.222
 9271SOL    HW128712   1.555   5.197   5.245
 9271SOL    HW228713   1.397   5.212   5.284
 9272SOL     OW28714   6.125   6.882   6.061
 9272SOL    HW128715   6.080   6.866   5.973
 9272SOL    HW228716   6.081   6.958   6.109
 9273SOL     OW28717   6.269   4.093   3.382
 9273SOL    HW128718   6.214   4.022   3.338
 9273SOL    HW228719   6.348   4.052   3.427
 9274SOL     OW28720   6.862   3.376   0.778
 9274SOL    HW128721   6.931   3.381   0.706
 9274SOL    HW228722   6.904   3.390   0.867
 9275SOL     OW28723   4.798   2.041   0.571
 9275SOL    HW128724   4.740   2.058   0.651
 9275SOL    HW228725   4.808   1.942   0.557
 9276SOL     OW28726   1.325   4.347   0.314
 9276SOL    HW128727   1.417   4.380   0.336
 9276SOL    HW228728   1.314   4.254   0.350
 9277SOL     OW28729   3.328   6.075   2.782
 9277SOL    HW128730   3.370   6.138   2.717
 9277SOL    HW228731   3.391   6.000   2.802
 9278SOL     OW28732   1.805   0.167   4.595
 9278SOL    HW128733   1.807   0.124   4.685
 9278SOL    HW228734   1.828   0.100   4.525
 9279SOL     OW28735   3.471   6.172   1.610
 9279SOL    HW128736   3.424   6.088   1.584
 9279SOL    HW228737   3.520   6.158   1.696
 9280SOL     OW28738   1.023   4.723   1.591
 9280SOL    HW128739   1.085   4.645   1.588
 9280SOL    HW228740   0.963   4.722   1.510
 9281SOL     OW28741   1.381   5.892   0.685
 9281SOL    HW128742   1.371   5.865   0.590
 9281SOL    HW228743   1.425   5.817   0.736
 9282SOL     OW28744   1.768   0.995   3.717
 9282SOL    HW128745   1.748   0.897   3.714
 9282SOL    HW228746   1.730   1.034   3.801
 9283SOL     OW28747   5.693   4.949   6.302
 9283SOL    HW128748   5.700   5.043   6.269
 9283SOL    HW228749   5.635   4.946   6.383
 9284SOL     OW28750   3.759   6.557   1.486
 9284SOL    HW128751   3.773   6.491   1.413
 9284SOL    HW228752   3.837   6.554   1.549
 9285SOL     OW28753   0.046   5.691   3.379
 9285SOL    HW128754   0.109   5.614   3.389
 9285SOL    HW228755   0.096   5.771   3.343
 9286SOL     OW28756   5.576   6.117   1.982
 9286SOL    HW128757   5.556   6.145   2.076
 9286SOL    HW228758   5.675   6.121   1.966
 9287SOL     OW28759   4.613   4.452   0.853
 9287SOL    HW128760   4.516   4.447   0.828
 9287SOL    HW228761   4.664   4.383   0.802
 9288SOL     OW28762   3.910   0.808   3.399
 9288SOL    HW128763   3.866   0.735   3.347
 9288SOL    HW228764   3.845   0.845   3.466
 9289SOL     OW28765   4.289   6.374   2.265
 9289SOL    HW128766   4.275   6.286   2.310
 9289SOL    HW228767   4.367   6.421   2.308
 9290SOL     OW28768   5.539   0.744   3.534
 9290SOL    HW128769   5.481   0.665   3.552
 9290SOL    HW228770   5.540   0.763   3.435
 9291SOL     OW28771   0.208   4.788   5.451
 9291SOL    HW128772   0.206   4.888   5.450
 9291SOL    HW228773   0.246   4.755   5.538
 9292SOL     OW28774   1.741   2.023   0.036
 9292SOL    HW128775   1.788   2.053   0.119
 9292SOL    HW228776   1.725   2.102   6.998
 9293SOL     OW28777   4.116   1.012   5.995
 9293SOL    HW128778   4.045   1.061   6.045
 9293SOL    HW228779   4.204   1.024   6.043
 9294SOL     OW28780   5.682   5.916   6.112
 9294SOL    HW128781   5.751   5.908   6.184
 9294SOL    HW228782   5.603   5.858   6.134
 9295SOL     OW28783   6.235   0.168   3.060
 9295SOL    HW128784   6.163   0.181   2.992
 9295SOL    HW228785   6.283   0.082   3.042
 9296SOL     OW28786   2.477   3.262   5.699
 9296SOL    HW128787   2.538   3.331   5.660
 9296SOL    HW228788   2.482   3.264   5.798
 9297SOL     OW28789   6.898   5.600   1.943
 9297SOL    HW128790   6.859   5.567   2.028
 9297SOL    HW228791   6.958   5.530   1.904
 9298SOL     OW28792   6.590   4.837   0.003
 9298SOL    HW128793   6.680   4.798   7.007
 9298SOL    HW228794   6.561   4.889   6.943
 9299SOL     OW28795   3.131   2.123   4.156
 9299SOL    HW128796   3.219   2.115   4.202
 9299SOL    HW228797   3.063   2.157   4.221
 9300SOL     OW28798   2.663   5.961   6.085
 9300SOL    HW128799   2.745   5.904   6.072
 9300SOL    HW228800   2.626   5.945   6.177
 9301SOL     OW28801   0.148   3.311   4.156
 9301SOL    HW128802   0.056   3.324   4.121
 9301SOL    HW228803   0.189   3.230   4.113
 9302SOL     OW28804   2.927   6.028   3.891
 9302SOL    HW128805   2.943   6.110   3.946
 9302SOL    HW228806   2.844   6.038   3.837
 9303SOL     OW28807   2.957   4.337   6.779
 9303SOL    HW128808   2.913   4.295   6.700
 9303SOL    HW228809   2.949   4.437   6.772
 9304SOL     OW28810   5.790   5.754   6.659
 9304SOL    HW128811   5.842   5.708   6.587
 9304SOL    HW228812   5.694   5.729   6.653
 9305SOL     OW28813   2.413   2.000   0.822
 9305SOL    HW128814   2.337   2.016   0.885
 9305SOL    HW228815   2.394   1.918   0.768
 9306SOL     OW28816   6.639   6.083   3.831
 9306SOL    HW128817   6.542   6.065   3.850
 9306SOL    HW228818   6.695   6.048   3.906
 9307SOL     OW28819   1.550   4.321   0.979
 9307SOL    HW128820   1.580   4.293   1.070
 9307SOL    HW228821   1.571   4.417   0.966
 9308SOL     OW28822   2.486   3.275   0.846
 9308SOL    HW128823   2.534   3.351   0.803
 9308SOL    HW228824   2.388   3.295   0.850
 9309SOL     OW28825   3.565   4.958   5.908
 9309SOL    HW128826   3.651   4.925   5.948
 9309SOL    HW228827   3.567   5.058   5.902
 9310SOL     OW28828   6.462   6.305   5.727
 9310SOL    HW128829   6.483   6.208   5.712
 9310SOL    HW228830   6.529   6.344   5.790
 9311SOL     OW28831   5.444   4.644   6.724
 9311SOL    HW128832   5.539   4.617   6.713
 9311SOL    HW228833   5.389   4.565   6.749
 9312SOL     OW28834   5.815   3.520   3.931
 9312SOL    HW128835   5.851   3.429   3.955
 9312SOL    HW228836   5.885   3.569   3.878
 9313SOL     OW28837   0.562   0.486   1.989
 9313SOL    HW128838   0.603   0.448   1.906
 9313SOL    HW228839   0.573   0.585   1.990
 9314SOL     OW28840   5.102   4.664   1.611
 9314SOL    HW128841   5.118   4.566   1.605
 9314SOL    HW228842   5.187   4.713   1.589
 9315SOL     OW28843   5.771   5.526   5.709
 9315SOL    HW128844   5.808   5.586   5.638
 9315SOL    HW228845   5.738   5.581   5.785
 9316SOL     OW28846   5.396   5.472   6.750
 9316SOL    HW128847   5.483   5.426   6.766
 9316SOL    HW228848   5.405   5.570   6.771
 9317SOL     OW28849   2.543   6.869   3.416
 9317SOL    HW128850   2.616   6.806   3.390
 9317SOL    HW228851   2.527   6.934   3.342
 9318SOL     OW28852   3.122   0.294   3.505
 9318SOL    HW128853   3.135   0.209   3.555
 9318SOL    HW228854   3.026   0.319   3.505
 9319SOL     OW28855   3.846   2.469   1.045
 9319SOL    HW128856   3.943   2.471   1.022
 9319SOL    HW228857   3.805   2.557   1.023
 9320SOL     OW28858   6.440   0.070   6.665
 9320SOL    HW128859   6.526   0.035   6.626
 9320SOL    HW228860   6.363   0.028   6.617
 9321SOL     OW28861   1.441   2.226   4.533
 9321SOL    HW128862   1.414   2.144   4.583
 9321SOL    HW228863   1.360   2.278   4.507
 9322SOL     OW28864   5.555   3.462   0.260
 9322SOL    HW128865   5.498   3.485   0.182
 9322SOL    HW228866   5.547   3.533   0.330
 9323SOL     OW28867   0.785   2.825   4.701
 9323SOL    HW128868   0.765   2.738   4.746
 9323SOL    HW228869   0.883   2.834   4.686
 9324SOL     OW28870   0.883   4.443   1.195
 9324SOL    HW128871   0.929   4.373   1.249
 9324SOL    HW228872   0.799   4.405   1.155
 9325SOL     OW28873   0.063   4.364   2.993
 9325SOL    HW128874   0.103   4.389   2.905
 9325SOL    HW228875   0.128   4.309   3.045
 9326SOL     OW28876   4.133   4.644   1.259
 9326SOL    HW128877   4.096   4.680   1.344
 9326SOL    HW228878   4.065   4.652   1.187
 9327SOL     OW28879   1.913   1.625   3.338
 9327SOL    HW128880   1.962   1.680   3.270
 9327SOL    HW228881   1.823   1.602   3.302
 9328SOL     OW28882   1.232   0.410   3.512
 9328SOL    HW128883   1.326   0.398   3.545
 9328SOL    HW228884   1.190   0.488   3.561
 9329SOL     OW28885   1.359   5.240   6.090
 9329SOL    HW128886   1.302   5.240   6.172
 9329SOL    HW228887   1.415   5.323   6.088
 9330SOL     OW28888   0.997   6.512   0.899
 9330SOL    HW128889   0.955   6.448   0.963
 9330SOL    HW228890   1.078   6.470   0.858
 9331SOL     OW28891   2.291   5.220   4.756
 9331SOL    HW128892   2.268   5.302   4.705
 9331SOL    HW228893   2.384   5.191   4.732
 9332SOL     OW28894   6.215   5.859   0.401
 9332SOL    HW128895   6.170   5.856   0.491
 9332SOL    HW228896   6.312   5.837   0.412
 9333SOL     OW28897   1.223   5.526   0.744
 9333SOL    HW128898   1.264   5.444   0.783
 9333SOL    HW228899   1.288   5.602   0.751
 9334SOL     OW28900   0.248   5.913   0.376
 9334SOL    HW128901   0.239   5.814   0.363
 9334SOL    HW228902   0.291   5.930   0.465
 9335SOL     OW28903   6.890   4.086   0.843
 9335SOL    HW128904   6.898   4.088   0.743
 9335SOL    HW228905   6.794   4.072   0.869
 9336SOL     OW28906   4.028   5.349   5.548
 9336SOL    HW128907   4.025   5.371   5.646
 9336SOL    HW228908   4.075   5.422   5.499
 9337SOL     OW28909   3.322   1.759   4.626
 9337SOL    HW128910   3.259   1.807   4.687
 9337SOL    HW228911   3.392   1.823   4.594
 9338SOL     OW28912   4.298   6.965   1.440
 9338SOL    HW128913   4.341   0.003   1.372
 9338SOL    HW228914   4.200   6.959   1.423
 9339SOL     OW28915   0.369   3.788   4.823
 9339SOL    HW128916   0.281   3.750   4.793
 9339SOL    HW228917   0.430   3.798   4.745
 9340SOL     OW28918   2.589   4.560   2.209
 9340SOL    HW128919   2.658   4.536   2.141
 9340SOL    HW228920   2.610   4.649   2.249
 9341SOL     OW28921   5.380   5.487   1.317
 9341SOL    HW128922   5.343   5.404   1.358
 9341SOL    HW228923   5.305   5.548   1.292
 9342SOL     OW28924   3.241   0.335   4.748
 9342SOL    HW128925   3.176   0.303   4.817
 9342SOL    HW228926   3.272   0.258   4.692
 9343SOL     OW28927   5.444   3.811   1.248
 9343SOL    HW128928   5.454   3.764   1.335
 9343SOL    HW228929   5.515   3.882   1.240
 9344SOL     OW28930   5.675   6.472   5.020
 9344SOL    HW128931   5.681   6.479   4.921
 9344SOL    HW228932   5.718   6.387   5.050
 9345SOL     OW28933   7.000   4.500   6.251
 9345SOL    HW128934   0.002   4.472   6.344
 9345SOL    HW228935   0.049   4.562   6.216
 9346SOL     OW28936   4.956   0.786   2.124
 9346SOL    HW128937   5.040   0.730   2.121
 9346SOL    HW228938   4.895   0.756   2.050
 9347SOL     OW28939   4.587   6.911   2.083
 9347SOL    HW128940   4.582   7.007   2.110
 9347SOL    HW228941   4.608   6.904   1.986
 9348SOL     OW28942   2.706   5.275   1.885
 9348SOL    HW128943   2.744   5.187   1.913
 9348SOL    HW228944   2.671   5.323   1.965
 9349SOL     OW28945   6.984   5.086   1.414
 9349SOL    HW128946   6.928   5.073   1.496
 9349SOL    HW228947   0.055   5.112   1.441
 9350SOL     OW28948   6.380   0.294   6.804
 9350SOL    HW128949   6.422   0.217   6.755
 9350SOL    HW228950   6.287   0.308   6.770
 9351SOL     OW28951   4.359   4.061   6.286
 9351SOL    HW128952   4.381   4.082   6.381
 9351SOL    HW228953   4.422   3.992   6.252
 9352SOL     OW28954   2.687   1.772   6.678
 9352SOL    HW128955   2.698   1.860   6.724
 9352SOL    HW228956   2.662   1.702   6.746
 9353SOL     OW28957   0.811   3.046   2.270
 9353SOL    HW128958   0.731   2.996   2.239
 9353SOL    HW228959   0.889   3.025   2.211
 9354SOL     OW28960   5.924   2.067   2.570
 9354SOL    HW128961   5.878   1.979   2.556
 9354SOL    HW228962   5.963   2.070   2.662
 9355SOL     OW28963   0.447   1.688   1.815
 9355SOL    HW128964   0.417   1.667   1.908
 9355SOL    HW228965   0.392   1.637   1.750
 9356SOL     OW28966   4.516   2.522   2.275
 9356SOL    HW128967   4.426   2.493   2.308
 9356SOL    HW228968   4.517   2.523   2.175
 9357SOL     OW28969   1.986   4.425   6.720
 9357SOL    HW128970   1.976   4.366   6.800
 9357SOL    HW228971   2.064   4.486   6.733
 9358SOL     OW28972   5.665   4.408   2.752
 9358SOL    HW128973   5.630   4.484   2.699
 9358SOL    HW228974   5.638   4.322   2.710
 9359SOL     OW28975   4.377   5.392   5.702
 9359SOL    HW128976   4.325   5.468   5.742
 9359SOL    HW228977   4.453   5.368   5.763
 9360SOL     OW28978   0.953   0.220   5.426
 9360SOL    HW128979   1.015   0.193   5.500
 9360SOL    HW228980   0.867   0.170   5.434
 9361SOL     OW28981   1.651   1.434   2.116
 9361SOL    HW128982   1.734   1.485   2.094
 9361SOL    HW228983   1.647   1.418   2.215
 9362SOL     OW28984   1.433   1.558   3.162
 9362SOL    HW128985   1.445   1.618   3.083
 9362SOL    HW228986   1.518   1.510   3.181
 9363SOL     OW28987   1.465   6.345   2.125
 9363SOL    HW128988   1.502   6.258   2.158
 9363SOL    HW228989   1.419   6.330   2.037
 9364SOL     OW28990   5.534   4.187   0.973
 9364SOL    HW128991   5.502   4.196   0.879
 9364SOL    HW228992   5.477   4.243   1.033
 9365SOL     OW28993   2.163   1.510   4.058
 9365SOL    HW128994   2.084   1.505   4.119
 9365SOL    HW228995   2.137   1.555   3.973
 9366SOL     OW28996   2.702   1.255   1.712
 9366SOL    HW128997   2.645   1.228   1.635
 9366SOL    HW228998   2.711   1.355   1.713
 9367SOL     OW28999   5.524   6.752   4.217
 9367SOL    HW129000   5.468   6.813   4.273
 9367SOL    HW229001   5.539   6.795   4.128
 9368SOL     OW29002   5.754   2.669   0.890
 9368SOL    HW129003   5.788   2.709   0.805
 9368SOL    HW229004   5.680   2.605   0.870
 9369SOL     OW29005   0.223   1.881   5.072
 9369SOL    HW129006   0.221   1.980   5.057
 9369SOL    HW229007   0.149   1.855   5.133
 9370SOL     OW29008   5.947   5.586   2.204
 9370SOL    HW129009   5.945   5.678   2.242
 9370SOL    HW229010   5.971   5.520   2.275
 9371SOL     OW29011   1.770   6.754   0.351
 9371SOL    HW129012   1.822   6.771   0.435
 9371SOL    HW229013   1.674   6.740   0.374
 9372SOL     OW29014   5.588   5.474   0.566
 9372SOL    HW129015   5.519   5.526   0.515
 9372SOL    HW229016   5.574   5.489   0.664
 9373SOL     OW29017   4.727   2.861   4.260
 9373SOL    HW129018   4.729   2.890   4.355
 9373SOL    HW229019   4.678   2.774   4.253
 9374SOL     OW29020   5.463   3.839   6.876
 9374SOL    HW129021   5.541   3.837   6.813
 9374SOL    HW229022   5.493   3.815   6.968
 9375SOL     OW29023   6.472   6.832   4.197
 9375SOL    HW129024   6.407   6.898   4.234
 9375SOL    HW229025   6.557   6.879   4.172
 9376SOL     OW29026   2.545   3.475   1.675
 9376SOL    HW129027   2.510   3.430   1.594
 9376SOL    HW229028   2.495   3.443   1.756
 9377SOL     OW29029   6.836   4.456   3.869
 9377SOL    HW129030   6.754   4.470   3.813
 9377SOL    HW229031   6.854   4.358   3.879
 9378SOL     OW29032   4.316   6.387   0.968
 9378SOL    HW129033   4.317   6.370   0.869
 9378SOL    HW229034   4.255   6.322   1.012
 9379SOL     OW29035   4.740   4.681   5.188
 9379SOL    HW129036   4.813   4.675   5.256
 9379SOL    HW229037   4.765   4.747   5.117
 9380SOL     OW29038   6.865   5.663   5.521
 9380SOL    HW129039   6.843   5.572   5.555
 9380SOL    HW229040   6.923   5.655   5.440
 9381SOL     OW29041   1.082   0.853   0.371
 9381SOL    HW129042   1.114   0.899   0.288
 9381SOL    HW229043   1.050   0.761   0.347
 9382SOL     OW29044   5.742   1.845   3.017
 9382SOL    HW129045   5.701   1.905   2.948
 9382SOL    HW229046   5.670   1.807   3.075
 9383SOL     OW29047   6.784   5.079   6.630
 9383SOL    HW129048   6.847   5.017   6.584
 9383SOL    HW229049   6.830   5.125   6.706
 9384SOL     OW29050   3.692   6.872   2.403
 9384SOL    HW129051   3.663   6.802   2.469
 9384SOL    HW229052   3.787   6.855   2.377
 9385SOL     OW29053   3.565   6.687   3.314
 9385SOL    HW129054   3.593   6.682   3.410
 9385SOL    HW229055   3.602   6.770   3.272
 9386SOL     OW29056   3.592   0.148   5.021
 9386SOL    HW129057   3.510   0.146   4.964
 9386SOL    HW229058   3.674   0.144   4.963
 9387SOL     OW29059   4.955   5.617   0.809
 9387SOL    HW129060   5.011   5.535   0.802
 9387SOL    HW229061   4.940   5.655   0.717
 9388SOL     OW29062   6.654   6.843   1.906
 9388SOL    HW129063   6.745   6.853   1.946
 9388SOL    HW229064   6.663   6.827   1.807
 9389SOL     OW29065   2.858   0.817   0.342
 9389SOL    HW129066   2.855   0.722   0.312
 9389SOL    HW229067   2.884   0.820   0.438
 9390SOL     OW29068   3.887   5.698   0.735
 9390SOL    HW129069   3.860   5.615   0.687
 9390SOL    HW229070   3.826   5.714   0.812
 9391SOL     OW29071   5.985   0.780   3.978
 9391SOL    HW129072   6.028   0.792   3.889
 9391SOL    HW229073   6.047   0.728   4.038
 9392SOL     OW29074   0.838   6.998   5.345
 9392SOL    HW129075   0.753   6.957   5.378
 9392SOL    HW229076   0.916   6.954   5.391
 9393SOL     OW29077   4.597   1.566   5.778
 9393SOL    HW129078   4.554   1.550   5.689
 9393SOL    HW229079   4.565   1.498   5.843
 9394SOL     OW29080   6.373   1.649   2.505
 9394SOL    HW129081   6.441   1.677   2.573
 9394SOL    HW229082   6.393   1.557   2.472
 9395SOL     OW29083   2.118   2.658   6.722
 9395SOL    HW129084   2.023   2.660   6.752
 9395SOL    HW229085   2.157   2.568   6.742
 9396SOL     OW29086   0.324   1.084   5.975
 9396SOL    HW129087   0.412   1.070   5.929
 9396SOL    HW229088   0.270   1.000   5.971
 9397SOL     OW29089   2.124   1.914   0.645
 9397SOL    HW129090   2.206   1.857   0.652
 9397SOL    HW229091   2.047   1.858   0.615
 9398SOL     OW29092   2.658   1.537   1.760
 9398SOL    HW129093   2.691   1.520   1.853
 9398SOL    HW229094   2.558   1.543   1.761
 9399SOL     OW29095   0.403   0.783   5.847
 9399SOL    HW129096   0.305   0.791   5.870
 9399SOL    HW229097   0.455   0.764   5.930
 9400SOL     OW29098   3.718   1.595   3.850
 9400SOL    HW129099   3.738   1.685   3.811
 9400SOL    HW229100   3.691   1.533   3.777
 9401SOL     OW29101   4.476   6.390   4.151
 9401SOL    HW129102   4.442   6.429   4.065
 9401SOL    HW229103   4.425   6.430   4.228
 9402SOL     OW29104   2.846   4.557   6.201
 9402SOL    HW129105   2.792   4.622   6.148
 9402SOL    HW229106   2.846   4.468   6.154
 9403SOL     OW29107   6.092   6.738   4.077
 9403SOL    HW129108   6.133   6.679   4.147
 9403SOL    HW229109   5.998   6.708   4.059
 9404SOL     OW29110   1.574   4.334   5.027
 9404SOL    HW129111   1.649   4.275   4.998
 9404SOL    HW229112   1.591   4.427   4.998
 9405SOL     OW29113   0.582   0.892   1.397
 9405SOL    HW129114   0.645   0.817   1.374
 9405SOL    HW229115   0.564   0.946   1.316
 9406SOL     OW29116   6.530   1.023   4.829
 9406SOL    HW129117   6.527   1.122   4.842
 9406SOL    HW229118   6.625   0.992   4.825
 9407SOL     OW29119   3.650   5.582   3.326
 9407SOL    HW129120   3.680   5.677   3.314
 9407SOL    HW229121   3.731   5.523   3.333
 9408SOL     OW29122   3.847   2.277   6.347
 9408SOL    HW129123   3.915   2.207   6.324
 9408SOL    HW229124   3.763   2.233   6.379
 9409SOL     OW29125   6.231   3.716   3.742
 9409SOL    HW129126   6.132   3.703   3.730
 9409SOL    HW229127   6.266   3.646   3.804
 9410SOL     OW29128   4.181   6.773   1.673
 9410SOL    HW129129   4.279   6.776   1.654
 9410SOL    HW229130   4.153   6.860   1.714
 9411SOL     OW29131   5.392   5.203   2.067
 9411SOL    HW129132   5.343   5.183   1.982
 9411SOL    HW229133   5.473   5.145   2.073
 9412SOL     OW29134   6.613   2.218   3.069
 9412SOL    HW129135   6.663   2.301   3.045
 9412SOL    HW229136   6.627   2.149   2.998
 9413SOL     OW29137   3.741   5.671   2.978
 9413SOL    HW129138   3.665   5.653   3.041
 9413SOL    HW229139   3.817   5.609   2.999
 9414SOL     OW29140   2.208   0.313   2.193
 9414SOL    HW129141   2.173   0.319   2.100
 9414SOL    HW229142   2.173   0.390   2.247
 9415SOL     OW29143   1.562   0.588   2.145
 9415SOL    HW129144   1.569   0.600   2.244
 9415SOL    HW229145   1.481   0.533   2.124
 9416SOL     OW29146   1.443   2.091   1.365
 9416SOL    HW129147   1.443   1.997   1.399
 9416SOL    HW229148   1.523   2.139   1.398
 9417SOL     OW29149   1.093   0.385   5.071
 9417SOL    HW129150   1.097   0.342   5.161
 9417SOL    HW229151   1.133   0.323   5.003
 9418SOL     OW29152   4.389   4.228   1.044
 9418SOL    HW129153   4.407   4.242   0.947
 9418SOL    HW229154   4.299   4.266   1.067
 9419SOL     OW29155   2.375   5.692   3.809
 9419SOL    HW129156   2.326   5.723   3.890
 9419SOL    HW229157   2.473   5.686   3.829
 9420SOL     OW29158   2.079   0.568   3.266
 9420SOL    HW129159   2.036   0.654   3.292
 9420SOL    HW229160   2.064   0.500   3.338
 9421SOL     OW29161   1.732   5.077   5.095
 9421SOL    HW129162   1.733   5.143   5.171
 9421SOL    HW229163   1.692   4.991   5.127
 9422SOL     OW29164   4.208   1.088   2.997
 9422SOL    HW129165   4.293   1.065   2.949
 9422SOL    HW229166   4.148   1.139   2.935
 9423SOL     OW29167   4.520   0.039   4.851
 9423SOL    HW129168   4.611   0.000   4.868
 9423SOL    HW229169   4.504   0.114   4.915
 9424SOL     OW29170   3.115   5.958   3.392
 9424SOL    HW129171   3.029   5.964   3.342
 9424SOL    HW229172   3.176   5.892   3.348
 9425SOL     OW29173   0.744   5.299   2.474
 9425SOL    HW129174   0.647   5.315   2.494
 9425SOL    HW229175   0.752   5.230   2.402
 9426SOL     OW29176   3.783   5.997   0.799
 9426SOL    HW129177   3.800   5.947   0.714
 9426SOL    HW229178   3.751   6.090   0.777
 9427SOL     OW29179   2.696   5.092   3.923
 9427SOL    HW129180   2.632   5.041   3.866
 9427SOL    HW229181   2.648   5.130   4.002
 9428SOL     OW29182   4.680   6.632   2.432
 9428SOL    HW129183   4.640   6.693   2.500
 9428SOL    HW229184   4.629   6.546   2.430
 9429SOL     OW29185   0.639   3.448   3.005
 9429SOL    HW129186   0.608   3.358   2.972
 9429SOL    HW229187   0.588   3.473   3.087
 9430SOL     OW29188   6.381   6.478   1.706
 9430SOL    HW129189   6.292   6.432   1.703
 9430SOL    HW229190   6.403   6.513   1.615
 9431SOL     OW29191   6.906   4.387   0.339
 9431SOL    HW129192   6.970   4.404   0.414
 9431SOL    HW229193   6.812   4.383   0.375
 9432SOL     OW29194   6.752   6.800   4.144
 9432SOL    HW129195   6.728   6.788   4.048
 9432SOL    HW229196   6.774   6.895   4.162
 9433SOL     OW29197   2.631   5.564   4.100
 9433SOL    HW129198   2.604   5.496   4.169
 9433SOL    HW229199   2.612   5.528   4.009
 9434SOL     OW29200   6.451   4.539   3.470
 9434SOL    HW129201   6.386   4.465   3.456
 9434SOL    HW229202   6.432   4.613   3.406
 9435SOL     OW29203   2.543   2.124   5.243
 9435SOL    HW129204   2.567   2.178   5.162
 9435SOL    HW229205   2.616   2.058   5.261
 9436SOL     OW29206   3.619   1.645   5.667
 9436SOL    HW129207   3.563   1.685   5.594
 9436SOL    HW229208   3.577   1.664   5.755
 9437SOL     OW29209   0.469   6.149   4.441
 9437SOL    HW129210   0.504   6.230   4.489
 9437SOL    HW229211   0.495   6.067   4.492
 9438SOL     OW29212   0.556   6.475   1.660
 9438SOL    HW129213   0.630   6.440   1.602
 9438SOL    HW229214   0.470   6.432   1.634
 9439SOL     OW29215   1.731   3.376   1.151
 9439SOL    HW129216   1.690   3.285   1.146
 9439SOL    HW229217   1.687   3.436   1.084
 9440SOL     OW29218   3.126   6.080   3.639
 9440SOL    HW129219   3.086   6.012   3.701
 9440SOL    HW229220   3.130   6.043   3.547
 9441SOL     OW29221   1.475   5.491   5.455
 9441SOL    HW129222   1.437   5.414   5.405
 9441SOL    HW229223   1.483   5.468   5.552
 9442SOL     OW29224   0.606   3.829   1.094
 9442SOL    HW129225   0.684   3.807   1.153
 9442SOL    HW229226   0.540   3.883   1.146
 9443SOL     OW29227   1.371   2.448   1.434
 9443SOL    HW129228   1.330   2.383   1.498
 9443SOL    HW229229   1.324   2.443   1.346
 9444SOL     OW29230   1.413   4.412   5.721
 9444SOL    HW129231   1.512   4.420   5.710
 9444SOL    HW229232   1.392   4.340   5.788
 9445SOL     OW29233   6.331   2.498   2.005
 9445SOL    HW129234   6.344   2.450   2.092
 9445SOL    HW229235   6.414   2.550   1.983
 9446SOL     OW29236   5.599   4.331   0.088
 9446SOL    HW129237   5.532   4.257   0.080
 9446SOL    HW229238   5.675   4.315   0.025
 9447SOL     OW29239   5.662   1.162   1.541
 9447SOL    HW129240   5.673   1.251   1.587
 9447SOL    HW229241   5.594   1.108   1.590
 9448SOL     OW29242   5.794   6.148   0.347
 9448SOL    HW129243   5.785   6.093   0.264
 9448SOL    HW229244   5.829   6.090   0.421
 9449SOL     OW29245   5.843   5.668   5.176
 9449SOL    HW129246   5.929   5.715   5.156
 9449SOL    HW229247   5.842   5.579   5.130
 9450SOL     OW29248   2.188   5.982   3.921
 9450SOL    HW129249   2.148   6.048   3.985
 9450SOL    HW229250   2.283   5.964   3.947
 9451SOL     OW29251   3.919   3.828   5.359
 9451SOL    HW129252   3.993   3.889   5.329
 9451SOL    HW229253   3.956   3.736   5.373
 9452SOL     OW29254   3.381   4.406   0.697
 9452SOL    HW129255   3.481   4.409   0.689
 9452SOL    HW229256   3.356   4.361   0.783
 9453SOL     OW29257   3.822   5.694   1.162
 9453SOL    HW129258   3.805   5.741   1.076
 9453SOL    HW229259   3.832   5.596   1.145
 9454SOL     OW29260   2.073   2.430   6.007
 9454SOL    HW129261   2.134   2.354   5.982
 9454SOL    HW229262   2.072   2.497   5.933
 9455SOL     OW29263   1.633   2.349   2.339
 9455SOL    HW129264   1.635   2.380   2.434
 9455SOL    HW229265   1.539   2.326   2.313
 9456SOL     OW29266   1.240   3.140   0.178
 9456SOL    HW129267   1.271   3.234   0.190
 9456SOL    HW229268   1.220   3.124   0.081
 9457SOL     OW29269   6.085   3.840   0.257
 9457SOL    HW129270   6.091   3.810   0.161
 9457SOL    HW229271   6.004   3.898   0.269
 9458SOL     OW29272   1.383   6.559   4.009
 9458SOL    HW129273   1.368   6.469   3.967
 9458SOL    HW229274   1.306   6.580   4.069
 9459SOL     OW29275   4.545   6.063   0.627
 9459SOL    HW129276   4.550   6.091   0.722
 9459SOL    HW229277   4.629   6.013   0.602
 9460SOL     OW29278   1.460   4.005   5.566
 9460SOL    HW129279   1.447   3.935   5.496
 9460SOL    HW229280   1.372   4.048   5.587
 9461SOL     OW29281   1.514   0.225   2.664
 9461SOL    HW129282   1.453   0.156   2.624
 9461SOL    HW229283   1.596   0.181   2.699
 9462SOL     OW29284   0.475   2.970   3.663
 9462SOL    HW129285   0.566   3.008   3.647
 9462SOL    HW229286   0.437   2.938   3.577
 9463SOL     OW29287   5.554   2.487   6.394
 9463SOL    HW129288   5.580   2.402   6.349
 9463SOL    HW229289   5.595   2.564   6.345
 9464SOL     OW29290   4.071   6.346   6.506
 9464SOL    HW129291   4.117   6.426   6.467
 9464SOL    HW229292   4.053   6.280   6.433
 9465SOL     OW29293   4.739   6.090   4.613
 9465SOL    HW129294   4.733   6.011   4.551
 9465SOL    HW229295   4.654   6.098   4.665
 9466SOL     OW29296   3.391   1.883   6.896
 9466SOL    HW129297   3.453   1.812   6.929
 9466SOL    HW229298   3.398   1.964   6.955
 9467SOL     OW29299   1.516   2.860   2.288
 9467SOL    HW129300   1.610   2.893   2.285
 9467SOL    HW229301   1.453   2.935   2.270
 9468SOL     OW29302   1.007   2.238   5.874
 9468SOL    HW129303   0.990   2.270   5.967
 9468SOL    HW229304   0.926   2.190   5.840
 9469SOL     OW29305   0.208   4.106   2.756
 9469SOL    HW129306   0.223   4.179   2.822
 9469SOL    HW229307   0.117   4.068   2.768
 9470SOL     OW29308   6.970   3.579   1.429
 9470SOL    HW129309   0.046   3.557   1.439
 9470SOL    HW229310   6.956   3.633   1.346
 9471SOL     OW29311   0.507   2.593   5.599
 9471SOL    HW129312   0.505   2.494   5.593
 9471SOL    HW229313   0.469   2.622   5.687
 9472SOL     OW29314   6.601   1.992   5.386
 9472SOL    HW129315   6.543   1.911   5.388
 9472SOL    HW229316   6.598   2.037   5.475
 9473SOL     OW29317   2.715   5.039   5.520
 9473SOL    HW129318   2.753   4.962   5.571
 9473SOL    HW229319   2.780   5.070   5.451
 9474SOL     OW29320   3.983   5.693   3.705
 9474SOL    HW129321   4.034   5.719   3.624
 9474SOL    HW229322   4.006   5.754   3.781
 9475SOL     OW29323   1.958   3.475   1.236
 9475SOL    HW129324   1.870   3.434   1.213
 9475SOL    HW229325   2.022   3.403   1.264
 9476SOL     OW29326   2.636   3.732   5.544
 9476SOL    HW129327   2.715   3.708   5.488
 9476SOL    HW229328   2.561   3.764   5.485
 9477SOL     OW29329   0.684   2.280   0.238
 9477SOL    HW129330   0.610   2.328   0.190
 9477SOL    HW229331   0.652   2.250   0.327
 9478SOL     OW29332   5.562   3.963   6.291
 9478SOL    HW129333   5.535   3.946   6.196
 9478SOL    HW229334   5.661   3.974   6.297
 9479SOL     OW29335   5.390   4.681   5.138
 9479SOL    HW129336   5.320   4.632   5.188
 9479SOL    HW229337   5.435   4.747   5.199
 9480SOL     OW29338   6.671   3.620   6.447
 9480SOL    HW129339   6.713   3.673   6.521
 9480SOL    HW229340   6.735   3.551   6.414
 9481SOL     OW29341   0.274   2.502   2.991
 9481SOL    HW129342   0.295   2.577   2.929
 9481SOL    HW229343   0.340   2.503   3.067
 9482SOL     OW29344   4.841   0.788   2.379
 9482SOL    HW129345   4.870   0.799   2.284
 9482SOL    HW229346   4.757   0.733   2.382
 9483SOL     OW29347   1.071   1.167   0.476
 9483SOL    HW129348   1.067   1.148   0.574
 9483SOL    HW229349   1.051   1.264   0.460
 9484SOL     OW29350   6.087   0.418   3.714
 9484SOL    HW129351   6.067   0.487   3.644
 9484SOL    HW229352   6.007   0.407   3.773
 9485SOL     OW29353   0.453   0.228   2.750
 9485SOL    HW129354   0.431   0.187   2.662
 9485SOL    HW229355   0.550   0.252   2.752
 9486SOL     OW29356   2.716   6.671   2.030
 9486SOL    HW129357   2.706   6.769   2.013
 9486SOL    HW229358   2.635   6.636   2.075
 9487SOL     OW29359   3.343   3.205   3.396
 9487SOL    HW129360   3.283   3.133   3.431
 9487SOL    HW229361   3.288   3.276   3.351
 9488SOL     OW29362   1.584   0.786   1.749
 9488SOL    HW129363   1.606   0.847   1.674
 9488SOL    HW229364   1.485   0.769   1.750
 9489SOL     OW29365   3.082   4.788   0.228
 9489SOL    HW129366   3.181   4.782   0.214
 9489SOL    HW229367   3.052   4.711   0.285
 9490SOL     OW29368   4.838   1.735   0.269
 9490SOL    HW129369   4.908   1.770   0.206
 9490SOL    HW229370   4.763   1.695   0.216
 9491SOL     OW29371   5.893   5.928   6.329
 9491SOL    HW129372   5.845   6.003   6.376
 9491SOL    HW229373   5.985   5.958   6.305
 9492SOL     OW29374   2.596   4.807   1.066
 9492SOL    HW129375   2.599   4.724   1.009
 9492SOL    HW229376   2.558   4.784   1.155
 9493SOL     OW29377   5.322   6.236   2.744
 9493SOL    HW129378   5.343   6.248   2.841
 9493SOL    HW229379   5.267   6.312   2.711
 9494SOL     OW29380   4.142   3.182   6.608
 9494SOL    HW129381   4.163   3.150   6.700
 9494SOL    HW229382   4.062   3.243   6.612
 9495SOL     OW29383   5.743   2.875   4.132
 9495SOL    HW129384   5.755   2.794   4.074
 9495SOL    HW229385   5.833   2.917   4.148
 9496SOL     OW29386   6.554   4.233   7.013
 9496SOL    HW129387   6.608   4.202   0.070
 9496SOL    HW229388   6.547   4.333   7.016
 9497SOL     OW29389   1.115   6.227   6.056
 9497SOL    HW129390   1.151   6.317   6.079
 9497SOL    HW229391   1.055   6.195   6.129
 9498SOL     OW29392   4.234   0.013   6.566
 9498SOL    HW129393   4.209   6.973   6.641
 9498SOL    HW229394   4.155   0.024   6.504
 9499SOL     OW29395   4.644   4.085   5.675
 9499SOL    HW129396   4.561   4.099   5.728
 9499SOL    HW229397   4.700   4.014   5.718
 9500SOL     OW29398   4.984   5.731   1.049
 9500SOL    HW129399   4.899   5.737   1.101
 9500SOL    HW229400   4.965   5.689   0.959
 9501SOL     OW29401   3.497   1.791   4.936
 9501SOL    HW129402   3.559   1.732   4.988
 9501SOL    HW229403   3.546   1.871   4.902
 9502SOL     OW29404   3.608   3.313   5.796
 9502SOL    HW129405   3.560   3.232   5.830
 9502SOL    HW229406   3.548   3.392   5.802
 9503SOL     OW29407   1.383   6.834   1.747
 9503SOL    HW129408   1.466   6.867   1.701
 9503SOL    HW229409   1.349   6.752   1.700
 9504SOL     OW29410   0.404   3.345   0.703
 9504SOL    HW129411   0.422   3.257   0.659
 9504SOL    HW229412   0.448   3.347   0.792
 9505SOL     OW29413   5.270   3.275   3.036
 9505SOL    HW129414   5.272   3.221   2.952
 9505SOL    HW229415   5.239   3.368   3.016
 9506SOL     OW29416   6.478   2.242   1.478
 9506SOL    HW129417   6.570   2.239   1.516
 9506SOL    HW229418   6.448   2.337   1.471
 9507SOL     OW29419   1.228   2.838   5.195
 9507SOL    HW129420   1.307   2.877   5.242
 9507SOL    HW229421   1.199   2.899   5.122
 9508SOL     OW29422   4.825   1.240   5.756
 9508SOL    HW129423   4.741   1.199   5.792
 9508SOL    HW229424   4.870   1.291   5.829
 9509SOL     OW29425   3.833   6.736   6.212
 9509SOL    HW129426   3.773   6.784   6.149
 9509SOL    HW229427   3.864   6.650   6.170
 9510SOL     OW29428   6.390   3.809   3.060
 9510SOL    HW129429   6.428   3.902   3.066
 9510SOL    HW229430   6.464   3.743   3.049
 9511SOL     OW29431   2.330   1.697   0.967
 9511SOL    HW129432   2.240   1.737   0.948
 9511SOL    HW229433   2.369   1.740   1.048
 9512SOL     OW29434   1.365   3.799   5.407
 9512SOL    HW129435   1.441   3.734   5.411
 9512SOL    HW229436   1.333   3.806   5.312
 9513SOL     OW29437   2.340   4.490   4.656
 9513SOL    HW129438   2.414   4.552   4.680
 9513SOL    HW229439   2.367   4.396   4.678
 9514SOL     OW29440   3.217   2.792   5.593
 9514SOL    HW129441   3.198   2.703   5.635
 9514SOL    HW229442   3.173   2.797   5.504
 9515SOL     OW29443   2.161   6.012   5.679
 9515SOL    HW129444   2.209   5.934   5.639
 9515SOL    HW229445   2.103   5.981   5.754
 9516SOL     OW29446   5.706   4.495   4.577
 9516SOL    HW129447   5.771   4.469   4.505
 9516SOL    HW229448   5.617   4.515   4.537
 9517SOL     OW29449   0.682   5.111   2.804
 9517SOL    HW129450   0.602   5.128   2.861
 9517SOL    HW229451   0.738   5.193   2.800
 9518SOL     OW29452   1.038   2.885   5.672
 9518SOL    HW129453   1.126   2.840   5.686
 9518SOL    HW229454   1.046   2.982   5.695
 9519SOL     OW29455   3.211   3.545   3.553
 9519SOL    HW129456   3.214   3.505   3.461
 9519SOL    HW229457   3.132   3.606   3.559
 9520SOL     OW29458   5.166   0.952   6.676
 9520SOL    HW129459   5.152   0.855   6.659
 9520SOL    HW229460   5.089   0.989   6.727
 9521SOL     OW29461   3.733   1.080   1.009
 9521SOL    HW129462   3.690   1.041   1.090
 9521SOL    HW229463   3.677   1.059   0.929
 9522SOL     OW29464   3.594   6.746   1.083
 9522SOL    HW129465   3.572   6.747   0.985
 9522SOL    HW229466   3.573   6.655   1.120
 9523SOL     OW29467   2.618   5.073   4.913
 9523SOL    HW129468   2.711   5.080   4.876
 9523SOL    HW229469   2.622   5.048   5.009
 9524SOL     OW29470   1.926   4.064   0.357
 9524SOL    HW129471   2.013   4.015   0.349
 9524SOL    HW229472   1.908   4.116   0.274
 9525SOL     OW29473   2.147   3.075   6.566
 9525SOL    HW129474   2.076   3.125   6.516
 9525SOL    HW229475   2.236   3.111   6.541
 9526SOL     OW29476   5.422   5.317   5.840
 9526SOL    HW129477   5.440   5.244   5.773
 9526SOL    HW229478   5.324   5.337   5.842
 9527SOL     OW29479   3.943   6.773   4.416
 9527SOL    HW129480   3.873   6.777   4.488
 9527SOL    HW229481   4.032   6.756   4.458
 9528SOL     OW29482   5.005   2.392   0.300
 9528SOL    HW129483   4.946   2.311   0.302
 9528SOL    HW229484   4.948   2.474   0.308
 9529SOL     OW29485   5.550   0.823   1.993
 9529SOL    HW129486   5.536   0.912   2.036
 9529SOL    HW229487   5.602   0.764   2.054
 9530SOL     OW29488   0.931   5.657   3.711
 9530SOL    HW129489   0.950   5.723   3.638
 9530SOL    HW229490   0.889   5.705   3.788
 9531SOL     OW29491   3.205   5.695   1.446
 9531SOL    HW129492   3.169   5.606   1.416
 9531SOL    HW229493   3.139   5.737   1.510
 9532SOL     OW29494   0.044   5.122   4.566
 9532SOL    HW129495   0.071   5.027   4.583
 9532SOL    HW229496   7.013   5.127   4.481
 9533SOL     OW29497   1.402   4.043   3.656
 9533SOL    HW129498   1.428   4.045   3.560
 9533SOL    HW229499   1.469   4.093   3.710
 9534SOL     OW29500   4.692   5.894   4.291
 9534SOL    HW129501   4.790   5.905   4.275
 9534SOL    HW229502   4.644   5.976   4.262
 9535SOL     OW29503   0.231   1.832   4.398
 9535SOL    HW129504   0.299   1.792   4.460
 9535SOL    HW229505   0.168   1.761   4.366
 9536SOL     OW29506   3.928   3.580   5.657
 9536SOL    HW129507   3.890   3.572   5.565
 9536SOL    HW229508   4.025   3.604   5.651
 9537SOL     OW29509   0.009   1.099   4.004
 9537SOL    HW129510   7.007   1.149   4.087
 9537SOL    HW229511   6.955   1.105   3.938
 9538SOL     OW29512   5.444   0.639   5.002
 9538SOL    HW129513   5.442   0.678   5.094
 9538SOL    HW229514   5.458   0.712   4.935
 9539SOL     OW29515   3.512   3.702   2.516
 9539SOL    HW129516   3.508   3.607   2.487
 9539SOL    HW229517   3.567   3.709   2.599
 9540SOL     OW29518   3.936   5.032   3.020
 9540SOL    HW129519   3.893   4.952   2.977
 9540SOL    HW229520   3.910   5.036   3.117
 9541SOL     OW29521   1.555   5.816   5.878
 9541SOL    HW129522   1.481   5.755   5.850
 9541SOL    HW229523   1.541   5.906   5.837
 9542SOL     OW29524   6.353   3.715   2.663
 9542SOL    HW129525   6.355   3.635   2.724
 9542SOL    HW229526   6.433   3.772   2.681
 9543SOL     OW29527   2.512   0.159   5.738
 9543SOL    HW129528   2.535   0.210   5.821
 9543SOL    HW229529   2.522   0.218   5.658
 9544SOL     OW29530   6.518   3.796   4.726
 9544SOL    HW129531   6.422   3.792   4.696
 9544SOL    HW229532   6.569   3.855   4.663
 9545SOL     OW29533   6.647   4.183   2.039
 9545SOL    HW129534   6.558   4.195   2.084
 9545SOL    HW229535   6.637   4.191   1.940
 9546SOL     OW29536   2.956   2.851   1.164
 9546SOL    HW129537   2.897   2.882   1.239
 9546SOL    HW229538   3.052   2.862   1.191
 9547SOL     OW29539   4.447   0.502   3.439
 9547SOL    HW129540   4.452   0.592   3.396
 9547SOL    HW229541   4.387   0.506   3.518
 9548SOL     OW29542   0.617   5.112   5.998
 9548SOL    HW129543   0.531   5.150   6.032
 9548SOL    HW229544   0.602   5.072   5.908
 9549SOL     OW29545   4.427   1.381   1.755
 9549SOL    HW129546   4.524   1.391   1.779
 9549SOL    HW229547   4.371   1.429   1.823
 9550SOL     OW29548   6.663   2.886   1.658
 9550SOL    HW129549   6.618   2.799   1.636
 9550SOL    HW229550   6.640   2.953   1.588
 9551SOL     OW29551   6.021   3.078   6.663
 9551SOL    HW129552   6.105   3.129   6.646
 9551SOL    HW229553   6.008   3.011   6.590
 9552SOL     OW29554   2.909   1.795   6.995
 9552SOL    HW129555   2.912   1.714   6.936
 9552SOL    HW229556   2.885   1.769   0.066
 9553SOL     OW29557   5.720   1.520   0.020
 9553SOL    HW129558   5.813   1.496   7.013
 9553SOL    HW229559   5.720   1.612   0.059
 9554SOL     OW29560   2.942   1.152   4.598
 9554SOL    HW129561   2.942   1.251   4.613
 9554SOL    HW229562   2.997   1.130   4.517
 9555SOL     OW29563   0.045   6.182   3.211
 9555SOL    HW129564   6.985   6.211   3.263
 9555SOL    HW229565   0.118   6.249   3.225
 9556SOL     OW29566   2.324   4.306   6.530
 9556SOL    HW129567   2.231   4.342   6.529
 9556SOL    HW229568   2.326   4.216   6.487
 9557SOL     OW29569   5.886   0.925   1.167
 9557SOL    HW129570   5.809   0.894   1.112
 9557SOL    HW229571   5.858   1.002   1.225
 9558SOL     OW29572   4.878   6.248   6.394
 9558SOL    HW129573   4.960   6.196   6.371
 9558SOL    HW229574   4.848   6.301   6.315
 9559SOL     OW29575   2.150   4.655   6.965
 9559SOL    HW129576   2.160   4.582   0.011
 9559SOL    HW229577   2.053   4.676   6.954
 9560SOL     OW29578   2.527   0.145   2.375
 9560SOL    HW129579   2.485   0.143   2.284
 9560SOL    HW229580   2.549   0.239   2.400
 9561SOL     OW29581   0.091   0.798   0.258
 9561SOL    HW129582   0.152   0.866   0.218
 9561SOL    HW229583   0.103   0.710   0.212
 9562SOL     OW29584   1.820   6.066   2.890
 9562SOL    HW129585   1.885   6.083   2.964
 9562SOL    HW229586   1.790   5.971   2.892
 9563SOL     OW29587   0.944   5.720   6.497
 9563SOL    HW129588   0.942   5.688   6.402
 9563SOL    HW229589   0.926   5.818   6.499
 9564SOL     OW29590   1.127   1.283   0.957
 9564SOL    HW129591   1.166   1.329   0.877
 9564SOL    HW229592   1.176   1.197   0.974
 9565SOL     OW29593   2.266   2.093   4.418
 9565SOL    HW129594   2.168   2.112   4.422
 9565SOL    HW229595   2.309   2.153   4.350
 9566SOL     OW29596   3.134   0.031   7.000
 9566SOL    HW129597   3.199   0.097   0.018
 9566SOL    HW229598   3.043   0.073   6.994
 9567SOL     OW29599   0.201   4.292   1.489
 9567SOL    HW129600   0.114   4.242   1.492
 9567SOL    HW229601   0.232   4.300   1.394
 9568SOL     OW29602   4.470   1.675   6.248
 9568SOL    HW129603   4.488   1.699   6.344
 9568SOL    HW229604   4.524   1.594   6.223
 9569SOL     OW29605   5.540   0.115   2.212
 9569SOL    HW129606   5.627   0.081   2.247
 9569SOL    HW229607   5.468   0.048   2.231
 9570SOL     OW29608   0.893   3.888   2.240
 9570SOL    HW129609   0.957   3.918   2.311
 9570SOL    HW229610   0.934   3.813   2.188
 9571SOL     OW29611   1.628   1.239   6.481
 9571SOL    HW129612   1.671   1.155   6.515
 9571SOL    HW229613   1.545   1.217   6.431
 9572SOL     OW29614   2.182   5.042   4.424
 9572SOL    HW129615   2.265   4.994   4.397
 9572SOL    HW229616   2.123   4.979   4.476
 9573SOL     OW29617   5.935   6.740   4.465
 9573SOL    HW129618   5.944   6.655   4.414
 9573SOL    HW229619   6.024   6.764   4.506
 9574SOL     OW29620   4.554   3.044   0.490
 9574SOL    HW129621   4.580   3.133   0.452
 9574SOL    HW229622   4.536   3.054   0.588
 9575SOL     OW29623   5.244   6.817   2.258
 9575SOL    HW129624   5.156   6.781   2.228
 9575SOL    HW229625   5.278   6.883   2.190
 9576SOL     OW29626   1.262   1.266   6.046
 9576SOL    HW129627   1.282   1.324   5.967
 9576SOL    HW229628   1.173   1.222   6.033
 9577SOL     OW29629   6.611   4.890   3.312
 9577SOL    HW129630   6.666   4.811   3.284
 9577SOL    HW229631   6.635   4.915   3.406
 9578SOL     OW29632   2.021   3.283   2.635
 9578SOL    HW129633   1.987   3.211   2.576
 9578SOL    HW229634   2.000   3.372   2.595
 9579SOL     OW29635   6.205   5.666   2.538
 9579SOL    HW129636   6.268   5.625   2.605
 9579SOL    HW229637   6.116   5.622   2.546
 9580SOL     OW29638   4.786   4.005   3.489
 9580SOL    HW129639   4.699   3.966   3.521
 9580SOL    HW229640   4.801   4.093   3.533
 9581SOL     OW29641   5.446   1.992   6.335
 9581SOL    HW129642   5.372   1.925   6.344
 9581SOL    HW229643   5.456   2.018   6.239
 9582SOL     OW29644   4.818   6.535   4.792
 9582SOL    HW129645   4.736   6.477   4.786
 9582SOL    HW229646   4.829   6.585   4.706
 9583SOL     OW29647   3.116   5.001   1.385
 9583SOL    HW129648   3.183   5.072   1.361
 9583SOL    HW229649   3.119   4.985   1.484
 9584SOL     OW29650   2.545   5.342   4.245
 9584SOL    HW129651   2.542   5.250   4.206
 9584SOL    HW229652   2.475   5.351   4.316
 9585SOL     OW29653   4.491   6.618   0.768
 9585SOL    HW129654   4.396   6.641   0.791
 9585SOL    HW229655   4.551   6.650   0.841
 9586SOL     OW29656   2.975   5.623   3.094
 9586SOL    HW129657   3.075   5.629   3.102
 9586SOL    HW229658   2.932   5.674   3.168
 9587SOL     OW29659   3.353   6.620   0.308
 9587SOL    HW129660   3.285   6.603   0.379
 9587SOL    HW229661   3.410   6.698   0.334
 9588SOL     OW29662   6.550   5.766   0.201
 9588SOL    HW129663   6.522   5.772   0.297
 9588SOL    HW229664   6.625   5.701   0.192
 9589SOL     OW29665   1.695   1.970   6.353
 9589SOL    HW129666   1.786   2.010   6.345
 9589SOL    HW229667   1.702   1.870   6.356
 9590SOL     OW29668   6.398   0.538   1.009
 9590SOL    HW129669   6.454   0.457   1.028
 9590SOL    HW229670   6.435   0.617   1.058
 9591SOL     OW29671   5.434   0.707   0.406
 9591SOL    HW129672   5.394   0.799   0.406
 9591SOL    HW229673   5.530   0.713   0.432
 9592SOL     OW29674   2.530   5.958   5.647
 9592SOL    HW129675   2.530   6.024   5.722
 9592SOL    HW229676   2.590   5.991   5.574
 9593SOL     OW29677   2.201   2.590   3.889
 9593SOL    HW129678   2.174   2.625   3.979
 9593SOL    HW229679   2.279   2.642   3.855
 9594SOL     OW29680   0.038   6.563   3.427
 9594SOL    HW129681   6.972   6.557   3.476
 9594SOL    HW229682   0.024   6.535   3.332
 9595SOL     OW29683   0.787   3.681   3.681
 9595SOL    HW129684   0.714   3.748   3.690
 9595SOL    HW229685   0.829   3.663   3.770
 9596SOL     OW29686   1.613   6.947   0.608
 9596SOL    HW129687   1.567   6.866   0.571
 9596SOL    HW229688   1.708   6.925   0.630
 9597SOL     OW29689   0.942   3.684   2.044
 9597SOL    HW129690   0.857   3.670   1.994
 9597SOL    HW229691   1.018   3.693   1.980
 9598SOL     OW29692   2.125   4.255   4.251
 9598SOL    HW129693   2.065   4.309   4.310
 9598SOL    HW229694   2.112   4.282   4.155
 9599SOL     OW29695   4.504   0.065   4.573
 9599SOL    HW129696   4.493   0.106   4.663
 9599SOL    HW229697   4.601   0.067   4.547
 9600SOL     OW29698   3.705   1.272   0.739
 9600SOL    HW129699   3.619   1.309   0.703
 9600SOL    HW229700   3.695   1.173   0.753
 9601SOL     OW29701   0.911   3.670   0.609
 9601SOL    HW129702   1.011   3.681   0.616
 9601SOL    HW229703   0.882   3.593   0.664
 9602SOL     OW29704   4.226   4.338   5.622
 9602SOL    HW129705   4.177   4.274   5.681
 9602SOL    HW229706   4.289   4.287   5.563
 9603SOL     OW29707   5.152   6.911   5.799
 9603SOL    HW129708   5.191   6.896   5.708
 9603SOL    HW229709   5.087   6.986   5.796
 9604SOL     OW29710   4.881   6.943   1.665
 9604SOL    HW129711   4.937   6.974   1.589
 9604SOL    HW229712   4.926   6.867   1.711
 9605SOL     OW29713   5.310   5.272   1.721
 9605SOL    HW129714   5.318   5.371   1.704
 9605SOL    HW229715   5.225   5.253   1.769
 9606SOL     OW29716   0.977   1.333   6.550
 9606SOL    HW129717   1.070   1.299   6.537
 9606SOL    HW229718   0.957   1.338   6.648
 9607SOL     OW29719   1.683   2.443   6.723
 9607SOL    HW129720   1.655   2.491   6.807
 9607SOL    HW229721   1.782   2.452   6.711
 9608SOL     OW29722   5.725   2.361   4.678
 9608SOL    HW129723   5.629   2.346   4.703
 9608SOL    HW229724   5.730   2.434   4.610
 9609SOL     OW29725   4.916   2.946   0.639
 9609SOL    HW129726   4.897   3.027   0.583
 9609SOL    HW229727   4.830   2.905   0.669
 9610SOL     OW29728   1.011   4.491   3.132
 9610SOL    HW129729   1.101   4.451   3.148
 9610SOL    HW229730   1.021   4.586   3.103
 9611SOL     OW29731   1.937   0.826   0.433
 9611SOL    HW129732   1.983   0.737   0.432
 9611SOL    HW229733   1.988   0.889   0.491
 9612SOL     OW29734   0.269   1.912   3.662
 9612SOL    HW129735   0.333   1.860   3.606
 9612SOL    HW229736   0.257   1.867   3.750
 9613SOL     OW29737   6.110   4.538   3.825
 9613SOL    HW129738   6.181   4.596   3.864
 9613SOL    HW229739   6.043   4.594   3.777
 9614SOL     OW29740   4.021   2.193   3.228
 9614SOL    HW129741   4.091   2.166   3.294
 9614SOL    HW229742   4.064   2.212   3.140
 9615SOL     OW29743   1.673   4.177   1.198
 9615SOL    HW129744   1.601   4.108   1.189
 9615SOL    HW229745   1.723   4.162   1.284
 9616SOL     OW29746   4.393   3.509   6.004
 9616SOL    HW129747   4.310   3.494   6.058
 9616SOL    HW229748   4.417   3.425   5.956
 9617SOL     OW29749   1.485   3.180   2.510
 9617SOL    HW129750   1.412   3.158   2.575
 9617SOL    HW229751   1.448   3.181   2.417
 9618SOL     OW29752   2.682   2.405   0.337
 9618SOL    HW129753   2.722   2.318   0.308
 9618SOL    HW229754   2.669   2.404   0.436
 9619SOL     OW29755   2.241   0.699   6.685
 9619SOL    HW129756   2.246   0.601   6.705
 9619SOL    HW229757   2.301   0.749   6.748
 9620SOL     OW29758   5.136   0.754   4.980
 9620SOL    HW129759   5.062   0.702   4.938
 9620SOL    HW229760   5.202   0.781   4.911
 9621SOL     OW29761   1.827   3.868   3.026
 9621SOL    HW129762   1.815   3.886   2.928
 9621SOL    HW229763   1.871   3.778   3.037
 9622SOL     OW29764   4.539   0.264   0.065
 9622SOL    HW129765   4.450   0.226   0.038
 9622SOL    HW229766   4.534   0.364   0.063
 9623SOL     OW29767   1.705   3.791   0.036
 9623SOL    HW129768   1.635   3.764   0.103
 9623SOL    HW229769   1.711   3.891   0.033
 9624SOL     OW29770   6.473   3.219   3.677
 9624SOL    HW129771   6.559   3.178   3.708
 9624SOL    HW229772   6.431   3.161   3.608
 9625SOL     OW29773   5.542   6.350   1.625
 9625SOL    HW129774   5.485   6.396   1.558
 9625SOL    HW229775   5.635   6.338   1.589
 9626SOL     OW29776   3.264   0.404   0.624
 9626SOL    HW129777   3.329   0.409   0.549
 9626SOL    HW229778   3.305   0.439   0.707
 9627SOL     OW29779   0.687   0.086   6.844
 9627SOL    HW129780   0.655   0.089   6.939
 9627SOL    HW229781   0.774   0.136   6.837
 9628SOL     OW29782   3.565   0.042   1.900
 9628SOL    HW129783   3.529   0.011   1.988
 9628SOL    HW229784   3.574   0.142   1.902
 9629SOL     OW29785   2.594   0.126   0.981
 9629SOL    HW129786   2.618   0.055   1.047
 9629SOL    HW229787   2.506   0.165   1.004
 9630SOL     OW29788   0.139   2.161   6.211
 9630SOL    HW129789   0.084   2.149   6.129
 9630SOL    HW229790   0.084   2.137   6.291
 9631SOL     OW29791   6.784   5.967   0.316
 9631SOL    HW129792   6.857   5.904   0.289
 9631SOL    HW229793   6.818   6.061   0.311
 9632SOL     OW29794   1.292   5.378   2.564
 9632SOL    HW129795   1.221   5.345   2.625
 9632SOL    HW229796   1.265   5.360   2.469
 9633SOL     OW29797   0.291   5.348   6.456
 9633SOL    HW129798   0.249   5.301   6.378
 9633SOL    HW229799   0.245   5.435   6.471
 9634SOL     OW29800   0.687   6.022   5.847
 9634SOL    HW129801   0.627   6.056   5.919
 9634SOL    HW229802   0.780   6.012   5.883
 9635SOL     OW29803   0.108   5.867   5.317
 9635SOL    HW129804   0.147   5.861   5.225
 9635SOL    HW229805   0.132   5.785   5.369
 9636SOL     OW29806   4.121   1.568   0.400
 9636SOL    HW129807   4.122   1.635   0.474
 9636SOL    HW229808   4.202   1.580   0.342
 9637SOL     OW29809   2.474   0.829   6.235
 9637SOL    HW129810   2.557   0.881   6.259
 9637SOL    HW229811   2.422   0.809   6.318
 9638SOL     OW29812   6.535   2.482   6.477
 9638SOL    HW129813   6.575   2.516   6.562
 9638SOL    HW229814   6.459   2.421   6.498
 9639SOL     OW29815   3.549   0.362   2.548
 9639SOL    HW129816   3.573   0.398   2.638
 9639SOL    HW229817   3.611   0.287   2.525
 9640SOL     OW29818   1.346   1.686   2.909
 9640SOL    HW129819   1.339   1.595   2.869
 9640SOL    HW229820   1.255   1.729   2.908
 9641SOL     OW29821   5.466   5.767   6.211
 9641SOL    HW129822   5.409   5.690   6.181
 9641SOL    HW229823   5.504   5.746   6.301
 9642SOL     OW29824   3.158   6.584   3.287
 9642SOL    HW129825   3.169   6.513   3.357
 9642SOL    HW229826   3.232   6.577   3.221
 9643SOL     OW29827   4.304   5.001   2.793
 9643SOL    HW129828   4.269   5.085   2.835
 9643SOL    HW229829   4.235   4.929   2.799
 9644SOL     OW29830   2.521   1.284   0.551
 9644SOL    HW129831   2.605   1.267   0.602
 9644SOL    HW229832   2.507   1.211   0.484
 9645SOL     OW29833   2.495   5.446   4.757
 9645SOL    HW129834   2.524   5.369   4.700
 9645SOL    HW229835   2.500   5.419   4.854
 9646SOL     OW29836   3.639   5.336   3.847
 9646SOL    HW129837   3.608   5.357   3.939
 9646SOL    HW229838   3.568   5.284   3.799
 9647SOL     OW29839   6.591   2.873   6.019
 9647SOL    HW129840   6.584   2.970   5.998
 9647SOL    HW229841   6.658   2.859   6.092
 9648SOL     OW29842   4.389   3.567   0.919
 9648SOL    HW129843   4.451   3.592   0.994
 9648SOL    HW229844   4.413   3.476   0.885
 9649SOL     OW29845   2.272   5.401   1.893
 9649SOL    HW129846   2.309   5.433   1.980
 9649SOL    HW229847   2.187   5.350   1.909
 9650SOL     OW29848   1.497   0.597   1.480
 9650SOL    HW129849   1.570   0.545   1.526
 9650SOL    HW229850   1.443   0.647   1.548
 9651SOL     OW29851   0.417   1.764   0.008
 9651SOL    HW129852   0.352   1.840   0.013
 9651SOL    HW229853   0.387   1.691   0.069
 9652SOL     OW29854   1.252   4.810   1.767
 9652SOL    HW129855   1.182   4.740   1.757
 9652SOL    HW229856   1.296   4.827   1.679
 9653SOL     OW29857   5.586   6.124   4.262
 9653SOL    HW129858   5.620   6.060   4.331
 9653SOL    HW229859   5.506   6.172   4.298
 9654SOL     OW29860   2.021   3.066   2.197
 9654SOL    HW129861   2.102   3.008   2.193
 9654SOL    HW229862   2.049   3.162   2.195
 9655SOL     OW29863   6.160   2.039   6.945
 9655SOL    HW129864   6.252   2.004   6.962
 9655SOL    HW229865   6.153   2.073   6.851
 9656SOL     OW29866   2.772   1.650   3.308
 9656SOL    HW129867   2.710   1.728   3.317
 9656SOL    HW229868   2.759   1.588   3.385
 9657SOL     OW29869   6.763   0.408   4.981
 9657SOL    HW129870   6.739   0.390   5.077
 9657SOL    HW229871   6.835   0.344   4.953
 9658SOL     OW29872   5.925   1.449   2.564
 9658SOL    HW129873   5.995   1.515   2.535
 9658SOL    HW229874   5.955   1.404   2.648
 9659SOL     OW29875   1.165   5.183   6.907
 9659SOL    HW129876   1.250   5.233   6.891
 9659SOL    HW229877   1.167   5.097   6.856
 9660SOL     OW29878   1.009   5.137   0.380
 9660SOL    HW129879   1.097   5.169   0.347
 9660SOL    HW229880   0.936   5.192   0.339
 9661SOL     OW29881   3.859   0.737   0.662
 9661SOL    HW129882   3.945   0.736   0.712
 9661SOL    HW229883   3.868   0.682   0.579
 9662SOL     OW29884   6.139   2.015   4.268
 9662SOL    HW129885   6.118   2.069   4.186
 9662SOL    HW229886   6.138   1.918   4.246
 9663SOL     OW29887   2.552   5.911   2.829
 9663SOL    HW129888   2.486   5.843   2.798
 9663SOL    HW229889   2.523   5.947   2.918
 9664SOL     OW29890   2.917   5.787   1.227
 9664SOL    HW129891   2.861   5.810   1.306
 9664SOL    HW229892   2.886   5.701   1.187
 9665SOL     OW29893   5.322   4.258   3.800
 9665SOL    HW129894   5.393   4.211   3.749
 9665SOL    HW229895   5.256   4.298   3.736
 9666SOL     OW29896   5.942   4.731   4.635
 9666SOL    HW129897   5.989   4.720   4.548
 9666SOL    HW229898   5.865   4.667   4.640
 9667SOL     OW29899   2.989   3.803   3.652
 9667SOL    HW129900   2.977   3.902   3.657
 9667SOL    HW229901   2.946   3.761   3.732
 9668SOL     OW29902   7.018   1.836   5.251
 9668SOL    HW129903   6.958   1.853   5.329
 9668SOL    HW229904   6.967   1.788   5.179
 9669SOL     OW29905   1.790   6.518   0.178
 9669SOL    HW129906   1.718   6.463   0.221
 9669SOL    HW229907   1.802   6.603   0.229
 9670SOL     OW29908   6.066   4.161   6.607
 9670SOL    HW129909   6.018   4.178   6.694
 9670SOL    HW229910   6.002   4.171   6.531
 9671SOL     OW29911   6.877   0.976   0.171
 9671SOL    HW129912   6.890   1.064   0.216
 9671SOL    HW229913   6.963   0.925   0.172
 9672SOL     OW29914   0.810   6.475   5.424
 9672SOL    HW129915   0.775   6.504   5.513
 9672SOL    HW229916   0.736   6.434   5.371
 9673SOL     OW29917   2.260   2.485   6.252
 9673SOL    HW129918   2.172   2.455   6.215
 9673SOL    HW229919   2.279   2.578   6.222
 9674SOL     OW29920   2.489   6.385   2.379
 9674SOL    HW129921   2.412   6.409   2.438
 9674SOL    HW229922   2.478   6.290   2.348
 9675SOL     OW29923   0.251   2.325   2.263
 9675SOL    HW129924   0.295   2.243   2.300
 9675SOL    HW229925   0.167   2.299   2.216
 9676SOL     OW29926   6.763   2.739   4.854
 9676SOL    HW129927   6.719   2.818   4.812
 9676SOL    HW229928   6.855   2.728   4.817
 9677SOL     OW29929   1.667   3.336   5.632
 9677SOL    HW129930   1.661   3.428   5.671
 9677SOL    HW229931   1.594   3.279   5.670
 9678SOL     OW29932   3.626   3.382   3.193
 9678SOL    HW129933   3.531   3.354   3.207
 9678SOL    HW229934   3.669   3.322   3.126
 9679SOL     OW29935   0.734   4.029   0.959
 9679SOL    HW129936   0.677   3.956   0.996
 9679SOL    HW229937   0.701   4.054   0.868
 9680SOL     OW29938   4.757   5.092   2.694
 9680SOL    HW129939   4.700   5.047   2.762
 9680SOL    HW229940   4.719   5.182   2.672
 9681SOL     OW29941   0.509   1.007   4.098
 9681SOL    HW129942   0.446   1.048   4.164
 9681SOL    HW229943   0.603   1.024   4.125
 9682SOL     OW29944   0.657   4.159   2.613
 9682SOL    HW129945   0.605   4.075   2.609
 9682SOL    HW229946   0.700   4.177   2.525
 9683SOL     OW29947   4.282   0.137   5.162
 9683SOL    HW129948   4.226   0.137   5.079
 9683SOL    HW229949   4.236   0.190   5.233
 9684SOL     OW29950   1.091   4.191   3.481
 9684SOL    HW129951   1.181   4.233   3.487
 9684SOL    HW229952   1.088   4.109   3.539
 9685SOL     OW29953   1.994   1.682   6.591
 9685SOL    HW129954   1.977   1.678   6.492
 9685SOL    HW229955   1.963   1.771   6.626
 9686SOL     OW29956   5.868   2.898   1.934
 9686SOL    HW129957   5.898   2.987   1.968
 9686SOL    HW229958   5.772   2.884   1.958
 9687SOL     OW29959   3.364   1.035   4.458
 9687SOL    HW129960   3.358   0.966   4.531
 9687SOL    HW229961   3.383   1.124   4.498
 9688SOL     OW29962   5.772   1.588   4.317
 9688SOL    HW129963   5.685   1.619   4.277
 9688SOL    HW229964   5.845   1.652   4.290
 9689SOL     OW29965   2.860   5.129   5.302
 9689SOL    HW129966   2.952   5.144   5.265
 9689SOL    HW229967   2.800   5.096   5.229
 9690SOL     OW29968   6.485   3.561   0.439
 9690SOL    HW129969   6.509   3.498   0.365
 9690SOL    HW229970   6.566   3.584   0.491
 9691SOL     OW29971   1.475   4.880   0.606
 9691SOL    HW129972   1.573   4.899   0.595
 9691SOL    HW229973   1.455   4.863   0.702
 9692SOL     OW29974   3.108   5.675   0.540
 9692SOL    HW129975   3.075   5.582   0.551
 9692SOL    HW229976   3.067   5.715   0.458
 9693SOL     OW29977   5.930   5.710   1.492
 9693SOL    HW129978   5.877   5.740   1.571
 9693SOL    HW229979   5.884   5.738   1.408
 9694SOL     OW29980   0.913   1.645   0.412
 9694SOL    HW129981   1.006   1.678   0.399
 9694SOL    HW229982   0.896   1.631   0.509
 9695SOL     OW29983   6.523   4.527   0.028
 9695SOL    HW129984   6.577   4.579   0.093
 9695SOL    HW229985   6.438   4.496   0.072
 9696SOL     OW29986   4.157   4.376   0.364
 9696SOL    HW129987   4.113   4.293   0.398
 9696SOL    HW229988   4.088   4.447   0.349
 9697SOL     OW29989   0.288   6.177   6.314
 9697SOL    HW129990   0.230   6.208   6.389
 9697SOL    HW229991   0.232   6.165   6.232
 9698SOL     OW29992   4.972   1.603   5.343
 9698SOL    HW129993   4.901   1.597   5.413
 9698SOL    HW229994   5.050   1.656   5.378
 9699SOL     OW29995   1.610   2.385   6.456
 9699SOL    HW129996   1.551   2.307   6.477
 9699SOL    HW229997   1.642   2.427   6.541
 9700SOL     OW29998   3.974   3.178   3.307
 9700SOL    HW129999   3.982   3.274   3.283
 9700SOL    HW230000   3.999   3.165   3.403
 9701SOL     OW30001   5.060   4.515   4.395
 9701SOL    HW130002   5.005   4.529   4.313
 9701SOL    HW230003   5.149   4.479   4.369
 9702SOL     OW30004   5.408   0.465   1.030
 9702SOL    HW130005   5.324   0.489   1.077
 9702SOL    HW230006   5.405   0.497   0.936
 9703SOL     OW30007   2.720   5.807   4.507
 9703SOL    HW130008   2.754   5.724   4.464
 9703SOL    HW230009   2.719   5.882   4.441
 9704SOL     OW30010   2.174   1.382   3.653
 9704SOL    HW130011   2.136   1.306   3.706
 9704SOL    HW230012   2.144   1.374   3.557
 9705SOL     OW30013   3.721   4.143   0.691
 9705SOL    HW130014   3.663   4.090   0.628
 9705SOL    HW230015   3.726   4.096   0.779
 9706SOL     OW30016   0.086   2.659   3.735
 9706SOL    HW130017   0.112   2.712   3.815
 9706SOL    HW230018   0.105   2.562   3.751
 9707SOL     OW30019   2.994   5.342   1.858
 9707SOL    HW130020   2.954   5.340   1.950
 9707SOL    HW230021   2.930   5.300   1.794
 9708SOL     OW30022   1.979   1.839   1.545
 9708SOL    HW130023   2.042   1.804   1.475
 9708SOL    HW230024   1.896   1.873   1.500
 9709SOL     OW30025   1.882   6.600   3.675
 9709SOL    HW130026   1.857   6.518   3.726
 9709SOL    HW230027   1.878   6.581   3.577
 9710SOL     OW30028   1.115   0.057   3.830
 9710SOL    HW130029   1.110   0.103   3.741
 9710SOL    HW230030   1.099   0.123   3.903
 9711SOL     OW30031   1.473   3.219   6.401
 9711SOL    HW130032   1.448   3.135   6.448
 9711SOL    HW230033   1.565   3.209   6.361
 9712SOL     OW30034   4.947   3.594   4.751
 9712SOL    HW130035   4.908   3.592   4.843
 9712SOL    HW230036   5.042   3.564   4.754
 9713SOL     OW30037   0.088   5.028   3.105
 9713SOL    HW130038   0.011   5.005   3.165
 9713SOL    HW230039   0.096   4.958   3.034
 9714SOL     OW30040   2.581   1.702   2.640
 9714SOL    HW130041   2.678   1.717   2.656
 9714SOL    HW230042   2.568   1.619   2.586
 9715SOL     OW30043   6.160   5.526   6.115
 9715SOL    HW130044   6.248   5.522   6.067
 9715SOL    HW230045   6.174   5.504   6.211
 9716SOL     OW30046   3.314   0.964   6.006
 9716SOL    HW130047   3.355   0.887   6.055
 9716SOL    HW230048   3.384   1.009   5.950
 9717SOL     OW30049   5.457   5.105   3.326
 9717SOL    HW130050   5.445   5.143   3.418
 9717SOL    HW230051   5.429   5.009   3.326
 9718SOL     OW30052   5.494   3.042   1.811
 9718SOL    HW130053   5.590   3.017   1.798
 9718SOL    HW230054   5.487   3.140   1.828
 9719SOL     OW30055   0.060   1.266   0.085
 9719SOL    HW130056   0.002   1.245   0.007
 9719SOL    HW230057   0.154   1.238   0.064
 9720SOL     OW30058   0.594   0.602   0.744
 9720SOL    HW130059   0.676   0.655   0.724
 9720SOL    HW230060   0.607   0.507   0.713
 9721SOL     OW30061   0.391   2.337   3.580
 9721SOL    HW130062   0.371   2.435   3.575
 9721SOL    HW230063   0.343   2.289   3.507
 9722SOL     OW30064   0.092   0.084   4.574
 9722SOL    HW130065   0.049   0.095   4.484
 9722SOL    HW230066   0.181   0.129   4.574
 9723SOL     OW30067   6.622   0.355   4.054
 9723SOL    HW130068   6.558   0.315   4.120
 9723SOL    HW230069   6.615   0.305   3.967
 9724SOL     OW30070   4.186   2.813   1.730
 9724SOL    HW130071   4.251   2.890   1.723
 9724SOL    HW230072   4.096   2.843   1.700
 9725SOL     OW30073   3.730   3.170   5.574
 9725SOL    HW130074   3.799   3.239   5.552
 9725SOL    HW230075   3.687   3.193   5.661
 9726SOL     OW30076   5.291   5.964   4.909
 9726SOL    HW130077   5.257   6.043   4.960
 9726SOL    HW230078   5.251   5.880   4.947
 9727SOL     OW30079   0.864   0.522   6.762
 9727SOL    HW130080   0.880   0.475   6.848
 9727SOL    HW230081   0.951   0.535   6.714
 9728SOL     OW30082   3.247   6.240   6.571
 9728SOL    HW130083   3.209   6.318   6.620
 9728SOL    HW230084   3.299   6.273   6.492
 9729SOL     OW30085   2.983   5.345   2.609
 9729SOL    HW130086   2.968   5.323   2.705
 9729SOL    HW230087   3.055   5.286   2.572
 9730SOL     OW30088   5.403   3.986   3.216
 9730SOL    HW130089   5.342   3.917   3.176
 9730SOL    HW230090   5.394   4.072   3.166
 9731SOL     OW30091   5.319   4.665   1.056
 9731SOL    HW130092   5.416   4.685   1.046
 9731SOL    HW230093   5.265   4.746   1.034
 9732SOL     OW30094   4.520   6.436   4.757
 9732SOL    HW130095   4.489   6.343   4.741
 9732SOL    HW230096   4.501   6.462   4.851
 9733SOL     OW30097   5.200   4.469   4.734
 9733SOL    HW130098   5.234   4.533   4.666
 9733SOL    HW230099   5.261   4.470   4.814
 9734SOL     OW30100   5.938   1.832   5.756
 9734SOL    HW130101   5.984   1.749   5.726
 9734SOL    HW230102   5.886   1.813   5.839
 9735SOL     OW30103   3.259   4.753   0.839
 9735SOL    HW130104   3.347   4.794   0.815
 9735SOL    HW230105   3.268   4.702   0.925
 9736SOL     OW30106   3.228   1.553   1.938
 9736SOL    HW130107   3.246   1.579   2.033
 9736SOL    HW230108   3.147   1.493   1.935
 9737SOL     OW30109   4.165   1.531   4.634
 9737SOL    HW130110   4.232   1.602   4.652
 9737SOL    HW230111   4.074   1.572   4.623
 9738SOL     OW30112   2.135   0.839   2.005
 9738SOL    HW130113   2.068   0.827   2.079
 9738SOL    HW230114   2.215   0.783   2.023
 9739SOL     OW30115   5.539   4.358   1.998
 9739SOL    HW130116   5.638   4.374   2.002
 9739SOL    HW230117   5.504   4.342   2.090
 9740SOL     OW30118   6.345   3.049   2.676
 9740SOL    HW130119   6.292   3.134   2.677
 9740SOL    HW230120   6.442   3.070   2.663
 9741SOL     OW30121   3.536   2.064   2.601
 9741SOL    HW130122   3.492   2.041   2.514
 9741SOL    HW230123   3.631   2.035   2.599
 9742SOL     OW30124   4.135   1.583   3.867
 9742SOL    HW130125   4.052   1.549   3.911
 9742SOL    HW230126   4.209   1.590   3.934
 9743SOL     OW30127   1.316   0.961   5.254
 9743SOL    HW130128   1.315   1.060   5.260
 9743SOL    HW230129   1.228   0.924   5.284
 9744SOL     OW30130   2.868   0.109   1.406
 9744SOL    HW130131   2.872   0.127   1.308
 9744SOL    HW230132   2.774   0.085   1.431
 9745SOL     OW30133   0.353   0.678   4.442
 9745SOL    HW130134   0.372   0.775   4.460
 9745SOL    HW230135   0.397   0.622   4.511
 9746SOL     OW30136   6.214   6.931   4.483
 9746SOL    HW130137   6.130   6.952   4.433
 9746SOL    HW230138   6.278   7.007   4.474
 9747SOL     OW30139   0.229   0.010   6.366
 9747SOL    HW130140   0.253   6.974   6.444
 9747SOL    HW230141   0.298   7.020   6.295
 9748SOL     OW30142   1.573   4.191   4.552
 9748SOL    HW130143   1.598   4.273   4.603
 9748SOL    HW230144   1.648   4.124   4.558
 9749SOL     OW30145   0.309   5.282   4.494
 9749SOL    HW130146   0.383   5.267   4.430
 9749SOL    HW230147   0.224   5.297   4.444
 9750SOL     OW30148   2.394   5.459   2.422
 9750SOL    HW130149   2.484   5.416   2.433
 9750SOL    HW230150   2.335   5.431   2.498
 9751SOL     OW30151   1.210   2.449   0.441
 9751SOL    HW130152   1.126   2.499   0.423
 9751SOL    HW230153   1.229   2.387   0.365
 9752SOL     OW30154   3.581   6.763   5.921
 9752SOL    HW130155   3.582   6.674   5.967
 9752SOL    HW230156   3.589   6.835   5.989
 9753SOL     OW30157   6.736   6.222   0.130
 9753SOL    HW130158   6.733   6.264   0.039
 9753SOL    HW230159   6.831   6.209   0.157
 9754SOL     OW30160   6.898   3.412   6.794
 9754SOL    HW130161   6.891   3.500   6.841
 9754SOL    HW230162   6.993   3.380   6.797
 9755SOL     OW30163   3.987   5.898   4.980
 9755SOL    HW130164   4.055   5.900   5.054
 9755SOL    HW230165   4.023   5.945   4.900
 9756SOL     OW30166   4.723   2.897   6.387
 9756SOL    HW130167   4.743   2.967   6.318
 9756SOL    HW230168   4.807   2.877   6.438
 9757SOL     OW30169   6.326   1.037   4.009
 9757SOL    HW130170   6.408   1.092   4.023
 9757SOL    HW230171   6.266   1.044   4.088
 9758SOL     OW30172   3.435   1.086   0.360
 9758SOL    HW130173   3.440   0.996   0.317
 9758SOL    HW230174   3.399   1.077   0.453
 9759SOL     OW30175   3.024   5.901   1.596
 9759SOL    HW130176   2.956   5.839   1.634
 9759SOL    HW230177   2.985   5.992   1.587
 9760SOL     OW30178   5.511   4.346   5.903
 9760SOL    HW130179   5.451   4.279   5.946
 9760SOL    HW230180   5.585   4.299   5.855
 9761SOL     OW30181   4.860   5.540   2.469
 9761SOL    HW130182   4.906   5.456   2.498
 9761SOL    HW230183   4.770   5.546   2.513
 9762SOL     OW30184   3.255   0.692   2.243
 9762SOL    HW130185   3.169   0.646   2.220
 9762SOL    HW230186   3.309   0.633   2.304
 9763SOL     OW30187   2.415   1.901   1.436
 9763SOL    HW130188   2.417   1.803   1.458
 9763SOL    HW230189   2.427   1.954   1.519
 9764SOL     OW30190   0.662   2.297   4.042
 9764SOL    HW130191   0.676   2.305   4.141
 9764SOL    HW230192   0.751   2.293   3.997
 9765SOL     OW30193   0.500   0.619   6.064
 9765SOL    HW130194   0.540   0.674   6.137
 9765SOL    HW230195   0.447   0.544   6.105
 9766SOL     OW30196   2.594   0.757   2.323
 9766SOL    HW130197   2.677   0.717   2.360
 9766SOL    HW230198   2.549   0.692   2.262
 9767SOL     OW30199   4.656   0.407   5.333
 9767SOL    HW130200   4.563   0.439   5.317
 9767SOL    HW230201   4.705   0.400   5.246
 9768SOL     OW30202   4.674   2.278   3.369
 9768SOL    HW130203   4.749   2.261   3.433
 9768SOL    HW230204   4.683   2.216   3.291
 9769SOL     OW30205   0.468   2.222   0.685
 9769SOL    HW130206   0.550   2.238   0.740
 9769SOL    HW230207   0.420   2.308   0.670
 9770SOL     OW30208   0.974   2.731   5.453
 9770SOL    HW130209   0.954   2.642   5.493
 9770SOL    HW230210   1.005   2.794   5.525
 9771SOL     OW30211   2.137   6.609   3.865
 9771SOL    HW130212   2.219   6.556   3.846
 9771SOL    HW230213   2.158   6.680   3.932
 9772SOL     OW30214   5.848   6.699   1.266
 9772SOL    HW130215   5.753   6.668   1.268
 9772SOL    HW230216   5.875   6.721   1.172
 9773SOL     OW30217   4.974   5.205   3.877
 9773SOL    HW130218   4.910   5.280   3.856
 9773SOL    HW230219   4.962   5.132   3.810
 9774SOL     OW30220   6.579   5.003   4.414
 9774SOL    HW130221   6.624   4.945   4.482
 9774SOL    HW230222   6.645   5.029   4.343
 9775SOL     OW30223   3.051   1.607   4.924
 9775SOL    HW130224   3.084   1.522   4.882
 9775SOL    HW230225   2.970   1.640   4.875
 9776SOL     OW30226   0.676   4.650   4.400
 9776SOL    HW130227   0.749   4.716   4.381
 9776SOL    HW230228   0.636   4.619   4.314
 9777SOL     OW30229   5.139   6.150   6.407
 9777SOL    HW130230   5.175   6.145   6.500
 9777SOL    HW230231   5.208   6.117   6.343
 9778SOL     OW30232   4.051   0.935   4.680
 9778SOL    HW130233   4.053   0.972   4.773
 9778SOL    HW230234   4.037   0.836   4.685
 9779SOL     OW30235   3.489   2.396   6.607
 9779SOL    HW130236   3.584   2.383   6.635
 9779SOL    HW230237   3.482   2.479   6.551
 9780SOL     OW30238   2.183   3.880   1.149
 9780SOL    HW130239   2.128   3.831   1.216
 9780SOL    HW230240   2.169   3.840   1.058
 9781SOL     OW30241   0.781   6.966   4.433
 9781SOL    HW130242   0.704   6.937   4.376
 9781SOL    HW230243   0.850   7.011   4.375
 9782SOL     OW30244   6.273   6.919   1.195
 9782SOL    HW130245   6.237   6.967   1.115
 9782SOL    HW230246   6.360   6.959   1.222
 9783SOL     OW30247   6.028   6.941   3.749
 9783SOL    HW130248   6.050   6.977   3.659
 9783SOL    HW230249   6.110   6.904   3.791
 9784SOL     OW30250   5.233   0.250   4.562
 9784SOL    HW130251   5.263   0.338   4.597
 9784SOL    HW230252   5.178   0.203   4.631
 9785SOL     OW30253   0.996   2.281   1.083
 9785SOL    HW130254   1.048   2.245   1.006
 9785SOL    HW230255   1.013   2.225   1.164
 9786SOL     OW30256   2.032   0.342   3.733
 9786SOL    HW130257   1.969   0.419   3.742
 9786SOL    HW230258   2.124   0.369   3.759
 9787SOL     OW30259   5.752   4.207   1.777
 9787SOL    HW130260   5.678   4.226   1.713
 9787SOL    HW230261   5.787   4.115   1.761
 9788SOL     OW30262   6.806   0.487   6.552
 9788SOL    HW130263   6.759   0.503   6.638
 9788SOL    HW230264   6.811   0.389   6.534
 9789SOL     OW30265   1.678   4.422   4.705
 9789SOL    HW130266   1.768   4.389   4.731
 9789SOL    HW230267   1.655   4.504   4.759
 9790SOL     OW30268   6.997   1.273   3.485
 9790SOL    HW130269   6.939   1.293   3.407
 9790SOL    HW230270   6.985   1.178   3.512
 9791SOL     OW30271   1.595   2.810   0.649
 9791SOL    HW130272   1.561   2.763   0.567
 9791SOL    HW230273   1.521   2.820   0.715
 9792SOL     OW30274   4.027   5.787   2.097
 9792SOL    HW130275   4.029   5.715   2.028
 9792SOL    HW230276   3.971   5.863   2.064
 9793SOL     OW30277   5.226   5.968   2.726
 9793SOL    HW130278   5.296   6.038   2.745
 9793SOL    HW230279   5.138   5.997   2.764
 9794SOL     OW30280   3.897   3.238   6.909
 9794SOL    HW130281   3.843   3.162   6.872
 9794SOL    HW230282   3.905   3.227   7.008
 9795SOL     OW30283   1.523   4.690   2.666
 9795SOL    HW130284   1.462   4.651   2.734
 9795SOL    HW230285   1.604   4.632   2.656
 9796SOL     OW30286   4.013   4.920   6.627
 9796SOL    HW130287   4.006   4.899   6.530
 9796SOL    HW230288   3.988   5.016   6.642
 9797SOL     OW30289   5.976   2.951   5.238
 9797SOL    HW130290   5.958   2.877   5.303
 9797SOL    HW230291   6.058   2.930   5.184
 9798SOL     OW30292   2.914   0.865   2.269
 9798SOL    HW130293   3.000   0.910   2.243
 9798SOL    HW230294   2.850   0.868   2.192
 9799SOL     OW30295   3.865   3.792   3.256
 9799SOL    HW130296   3.814   3.706   3.256
 9799SOL    HW230297   3.911   3.804   3.169
 9800SOL     OW30298   3.460   6.856   0.411
 9800SOL    HW130299   3.415   6.945   0.406
 9800SOL    HW230300   3.537   6.854   0.347
 9801SOL     OW30301   5.704   4.615   1.486
 9801SOL    HW130302   5.716   4.516   1.499
 9801SOL    HW230303   5.659   4.631   1.398
 9802SOL     OW30304   0.935   5.618   2.147
 9802SOL    HW130305   0.882   5.580   2.223
 9802SOL    HW230306   1.004   5.681   2.183
 9803SOL     OW30307   5.527   0.335   6.764
 9803SOL    HW130308   5.442   0.381   6.738
 9803SOL    HW230309   5.553   0.269   6.693
 9804SOL     OW30310   4.525   5.210   4.580
 9804SOL    HW130311   4.610   5.167   4.611
 9804SOL    HW230312   4.481   5.257   4.656
 9805SOL     OW30313   3.682   3.899   0.842
 9805SOL    HW130314   3.706   3.896   0.939
 9805SOL    HW230315   3.694   3.808   0.802
 9806SOL     OW30316   6.959   1.456   2.376
 9806SOL    HW130317   6.994   1.363   2.367
 9806SOL    HW230318   6.877   1.455   2.435
 9807SOL     OW30319   2.360   3.016   0.985
 9807SOL    HW130320   2.349   3.078   0.908
 9807SOL    HW230321   2.271   3.002   1.030
 9808SOL     OW30322   2.430   2.476   3.569
 9808SOL    HW130323   2.458   2.461   3.474
 9808SOL    HW230324   2.330   2.479   3.573
 9809SOL     OW30325   0.143   0.236   4.189
 9809SOL    HW130326   0.209   0.221   4.263
 9809SOL    HW230327   0.057   0.191   4.212
 9810SOL     OW30328   4.470   1.778   2.427
 9810SOL    HW130329   4.567   1.799   2.417
 9810SOL    HW230330   4.459   1.689   2.469
 9811SOL     OW30331   1.461   0.820   3.354
 9811SOL    HW130332   1.444   0.862   3.265
 9811SOL    HW230333   1.552   0.777   3.353
 9812SOL     OW30334   5.678   3.027   6.395
 9812SOL    HW130335   5.605   3.056   6.333
 9812SOL    HW230336   5.641   2.967   6.466
 9813SOL     OW30337   6.074   4.557   0.268
 9813SOL    HW130338   5.986   4.514   0.249
 9813SOL    HW230339   6.094   4.550   0.366
 9814SOL     OW30340   6.263   1.235   6.039
 9814SOL    HW130341   6.323   1.170   5.992
 9814SOL    HW230342   6.236   1.307   5.976
 9815SOL     OW30343   0.152   4.849   2.188
 9815SOL    HW130344   0.119   4.904   2.265
 9815SOL    HW230345   0.078   4.791   2.154
 9816SOL     OW30346   6.604   1.755   5.013
 9816SOL    HW130347   6.523   1.809   5.038
 9816SOL    HW230348   6.618   1.760   4.915
 9817SOL     OW30349   2.266   1.422   0.350
 9817SOL    HW130350   2.263   1.504   0.407
 9817SOL    HW230351   2.253   1.341   0.409
 9818SOL     OW30352   0.449   0.410   2.424
 9818SOL    HW130353   0.350   0.410   2.413
 9818SOL    HW230354   0.484   0.318   2.407
 9819SOL     OW30355   5.690   1.171   4.608
 9819SOL    HW130356   5.780   1.150   4.647
 9819SOL    HW230357   5.653   1.089   4.565
 9820SOL     OW30358   3.556   0.478   6.584
 9820SOL    HW130359   3.523   0.420   6.658
 9820SOL    HW230360   3.511   0.568   6.589
 9821SOL     OW30361   4.983   3.875   6.942
 9821SOL    HW130362   4.905   3.848   7.000
 9821SOL    HW230363   4.983   3.820   6.859
 9822SOL     OW30364   3.057   5.805   3.801
 9822SOL    HW130365   3.131   5.788   3.866
 9822SOL    HW230366   3.012   5.891   3.823
 9823SOL     OW30367   4.542   5.744   3.439
 9823SOL    HW130368   4.551   5.646   3.459
 9823SOL    HW230369   4.539   5.795   3.525
 9824SOL     OW30370   1.232   5.790   5.583
 9824SOL    HW130371   1.271   5.774   5.674
 9824SOL    HW230372   1.156   5.855   5.591
 9825SOL     OW30373   1.170   6.373   4.562
 9825SOL    HW130374   1.265   6.376   4.591
 9825SOL    HW230375   1.119   6.448   4.605
 9826SOL     OW30376   2.050   5.941   5.922
 9826SOL    HW130377   2.001   5.869   5.972
 9826SOL    HW230378   2.075   6.014   5.985
 9827SOL     OW30379   1.410   4.792   2.004
 9827SOL    HW130380   1.375   4.868   2.060
 9827SOL    HW230381   1.361   4.790   1.917
 9828SOL     OW30382   4.849   2.163   4.289
 9828SOL    HW130383   4.881   2.258   4.283
 9828SOL    HW230384   4.911   2.104   4.237
 9829SOL     OW30385   5.633   3.962   5.652
 9829SOL    HW130386   5.642   3.878   5.598
 9829SOL    HW230387   5.542   4.001   5.638
 9830SOL     OW30388   5.735   1.163   2.855
 9830SOL    HW130389   5.735   1.125   2.947
 9830SOL    HW230390   5.784   1.251   2.854
 9831SOL     OW30391   0.923   5.244   1.696
 9831SOL    HW130392   1.016   5.262   1.729
 9831SOL    HW230393   0.928   5.190   1.612
 9832SOL     OW30394   5.237   5.682   5.440
 9832SOL    HW130395   5.199   5.689   5.532
 9832SOL    HW230396   5.321   5.628   5.442
 9833SOL     OW30397   3.712   2.970   4.215
 9833SOL    HW130398   3.709   2.940   4.311
 9833SOL    HW230399   3.796   3.023   4.200
 9834SOL     OW30400   3.482   5.892   6.382
 9834SOL    HW130401   3.515   5.982   6.410
 9834SOL    HW230402   3.533   5.861   6.302
 9835SOL     OW30403   3.791   3.401   3.625
 9835SOL    HW130404   3.711   3.344   3.607
 9835SOL    HW230405   3.762   3.488   3.663
 9836SOL     OW30406   6.092   2.656   5.953
 9836SOL    HW130407   6.140   2.611   5.878
 9836SOL    HW230408   6.157   2.709   6.007
 9837SOL     OW30409   6.314   0.697   4.580
 9837SOL    HW130410   6.407   0.713   4.616
 9837SOL    HW230411   6.320   0.672   4.484
 9838SOL     OW30412   0.927   6.003   1.197
 9838SOL    HW130413   0.837   5.962   1.181
 9838SOL    HW230414   0.984   5.940   1.248
 9839SOL     OW30415   3.878   6.287   3.843
 9839SOL    HW130416   3.973   6.280   3.875
 9839SOL    HW230417   3.816   6.291   3.921
 9840SOL     OW30418   6.105   2.358   6.301
 9840SOL    HW130419   6.174   2.288   6.320
 9840SOL    HW230420   6.147   2.448   6.303
 9841SOL     OW30421   0.138   5.804   2.354
 9841SOL    HW130422   0.223   5.782   2.402
 9841SOL    HW230423   0.116   5.731   2.290
 9842SOL     OW30424   3.668   0.500   0.215
 9842SOL    HW130425   3.763   0.472   0.202
 9842SOL    HW230426   3.624   0.515   0.126
 9843SOL     OW30427   0.448   0.273   0.674
 9843SOL    HW130428   0.479   0.249   0.582
 9843SOL    HW230429   0.350   0.293   0.672
 9844SOL     OW30430   5.047   1.183   4.531
 9844SOL    HW130431   5.143   1.206   4.518
 9844SOL    HW230432   5.021   1.198   4.627
 9845SOL     OW30433   1.168   3.602   2.294
 9845SOL    HW130434   1.092   3.545   2.265
 9845SOL    HW230435   1.228   3.620   2.216
 9846SOL     OW30436   5.839   2.503   2.518
 9846SOL    HW130437   5.925   2.462   2.546
 9846SOL    HW230438   5.853   2.563   2.440
 9847SOL     OW30439   3.935   4.380   0.093
 9847SOL    HW130440   3.965   4.303   0.037
 9847SOL    HW230441   3.934   4.352   0.189
 9848SOL     OW30442   3.216   3.599   5.791
 9848SOL    HW130443   3.188   3.625   5.884
 9848SOL    HW230444   3.135   3.575   5.738
 9849SOL     OW30445   1.675   1.852   1.973
 9849SOL    HW130446   1.674   1.800   2.058
 9849SOL    HW230447   1.584   1.889   1.955
 9850SOL     OW30448   1.745   0.682   4.236
 9850SOL    HW130449   1.699   0.614   4.293
 9850SOL    HW230450   1.678   0.748   4.201
 9851SOL     OW30451   3.260   5.534   3.559
 9851SOL    HW130452   3.305   5.571   3.640
 9851SOL    HW230453   3.164   5.516   3.579
 9852SOL     OW30454   2.332   0.433   6.704
 9852SOL    HW130455   2.354   0.406   6.610
 9852SOL    HW230456   2.399   0.394   6.767
 9853SOL     OW30457   0.267   3.570   4.085
 9853SOL    HW130458   0.245   3.474   4.102
 9853SOL    HW230459   0.359   3.577   4.046
 9854SOL     OW30460   6.332   4.293   6.839
 9854SOL    HW130461   6.368   4.253   6.755
 9854SOL    HW230462   6.390   4.266   6.916
 9855SOL     OW30463   1.217   6.385   0.857
 9855SOL    HW130464   1.236   6.300   0.809
 9855SOL    HW230465   1.301   6.418   0.901
 9856SOL     OW30466   4.649   4.638   3.166
 9856SOL    HW130467   4.726   4.606   3.112
 9856SOL    HW230468   4.579   4.675   3.105
 9857SOL     OW30469   4.921   0.088   5.374
 9857SOL    HW130470   4.852   0.147   5.415
 9857SOL    HW230471   4.999   0.079   5.436
 9858SOL     OW30472   0.253   5.385   2.632
 9858SOL    HW130473   0.199   5.459   2.672
 9858SOL    HW230474   0.302   5.337   2.705
 9859SOL     OW30475   0.517   5.860   2.891
 9859SOL    HW130476   0.489   5.842   2.985
 9859SOL    HW230477   0.444   5.909   2.843
 9860SOL     OW30478   1.445   3.190   3.362
 9860SOL    HW130479   1.445   3.235   3.272
 9860SOL    HW230480   1.522   3.127   3.367
 9861SOL     OW30481   3.672   2.149   4.239
 9861SOL    HW130482   3.662   2.100   4.153
 9861SOL    HW230483   3.764   2.134   4.276
 9862SOL     OW30484   1.858   2.690   6.831
 9862SOL    HW130485   1.816   2.773   6.796
 9862SOL    HW230486   1.806   2.656   6.910
 9863SOL     OW30487   3.729   6.225   1.521
 9863SOL    HW130488   3.780   6.197   1.603
 9863SOL    HW230489   3.633   6.200   1.532
 9864SOL     OW30490   3.025   5.861   4.965
 9864SOL    HW130491   3.029   5.785   5.030
 9864SOL    HW230492   2.995   5.943   5.014
 9865SOL     OW30493   2.616   5.716   5.764
 9865SOL    HW130494   2.584   5.640   5.708
 9865SOL    HW230495   2.571   5.800   5.735
 9866SOL     OW30496   0.255   5.717   5.578
 9866SOL    HW130497   0.196   5.791   5.547
 9866SOL    HW230498   0.210   5.666   5.651
 9867SOL     OW30499   4.870   1.079   2.505
 9867SOL    HW130500   4.811   1.144   2.458
 9867SOL    HW230501   4.845   0.985   2.480
 9868SOL     OW30502   2.317   4.473   3.255
 9868SOL    HW130503   2.342   4.421   3.336
 9868SOL    HW230504   2.263   4.415   3.194
 9869SOL     OW30505   5.273   1.982   2.832
 9869SOL    HW130506   5.283   1.921   2.753
 9869SOL    HW230507   5.211   2.057   2.808
 9870SOL     OW30508   2.284   2.907   2.888
 9870SOL    HW130509   2.366   2.859   2.918
 9870SOL    HW230510   2.204   2.870   2.936
 9871SOL     OW30511   5.893   5.296   3.462
 9871SOL    HW130512   5.859   5.230   3.394
 9871SOL    HW230513   5.980   5.334   3.431
 9872SOL     OW30514   0.961   6.113   5.235
 9872SOL    HW130515   1.045   6.059   5.231
 9872SOL    HW230516   0.967   6.177   5.312
 9873SOL     OW30517   0.382   0.873   5.170
 9873SOL    HW130518   0.427   0.960   5.148
 9873SOL    HW230519   0.372   0.818   5.087
 9874SOL     OW30520   6.981   1.625   3.538
 9874SOL    HW130521   6.911   1.555   3.552
 9874SOL    HW230522   6.949   1.692   3.471
 9875SOL     OW30523   5.904   6.086   1.023
 9875SOL    HW130524   5.965   6.008   1.011
 9875SOL    HW230525   5.813   6.054   1.049
 9876SOL     OW30526   0.302   0.544   3.405
 9876SOL    HW130527   0.267   0.562   3.313
 9876SOL    HW230528   0.402   0.555   3.406
 9877SOL     OW30529   1.632   6.034   4.819
 9877SOL    HW130530   1.612   6.036   4.916
 9877SOL    HW230531   1.571   5.969   4.773
 9878SOL     OW30532   4.222   3.778   0.314
 9878SOL    HW130533   4.272   3.749   0.233
 9878SOL    HW230534   4.204   3.699   0.372
 9879SOL     OW30535   5.460   5.433   4.398
 9879SOL    HW130536   5.547   5.482   4.395
 9879SOL    HW230537   5.458   5.364   4.327
 9880SOL     OW30538   2.593   1.264   0.978
 9880SOL    HW130539   2.547   1.179   0.950
 9880SOL    HW230540   2.541   1.342   0.945
 9881SOL     OW30541   6.352   6.952   2.987
 9881SOL    HW130542   6.451   6.944   2.981
 9881SOL    HW230543   6.309   6.878   2.934
 9882SOL     OW30544   3.525   4.006   4.491
 9882SOL    HW130545   3.559   3.971   4.404
 9882SOL    HW230546   3.466   3.937   4.534
 9883SOL     OW30547   1.493   6.040   2.857
 9883SOL    HW130548   1.528   5.992   2.776
 9883SOL    HW230549   1.514   6.138   2.850
 9884SOL     OW30550   2.973   2.472   5.358
 9884SOL    HW130551   2.984   2.571   5.346
 9884SOL    HW230552   3.020   2.424   5.284
 9885SOL     OW30553   4.997   2.293   4.938
 9885SOL    HW130554   4.979   2.306   4.841
 9885SOL    HW230555   5.084   2.245   4.950
 9886SOL     OW30556   2.672   6.415   1.681
 9886SOL    HW130557   2.736   6.356   1.730
 9886SOL    HW230558   2.719   6.460   1.605
 9887SOL     OW30559   3.713   1.040   0.138
 9887SOL    HW130560   3.631   1.017   0.191
 9887SOL    HW230561   3.721   0.978   0.061
 9888SOL     OW30562   6.444   6.566   4.105
 9888SOL    HW130563   6.425   6.647   4.160
 9888SOL    HW230564   6.473   6.594   4.014
 9889SOL     OW30565   6.837   5.903   2.173
 9889SOL    HW130566   6.797   5.813   2.187
 9889SOL    HW230567   6.923   5.893   2.121
 9890SOL     OW30568   1.870   3.062   3.019
 9890SOL    HW130569   1.943   3.108   3.069
 9890SOL    HW230570   1.809   3.129   2.978
 9891SOL     OW30571   3.613   0.353   1.889
 9891SOL    HW130572   3.565   0.440   1.888
 9891SOL    HW230573   3.669   0.345   1.806
 9892SOL     OW30574   1.976   6.077   3.111
 9892SOL    HW130575   2.057   6.136   3.115
 9892SOL    HW230576   1.910   6.105   3.181
 9893SOL     OW30577   5.756   4.513   4.847
 9893SOL    HW130578   5.705   4.596   4.870
 9893SOL    HW230579   5.750   4.496   4.749
 9894SOL     OW30580   4.415   3.902   5.392
 9894SOL    HW130581   4.513   3.922   5.389
 9894SOL    HW230582   4.374   3.950   5.470
 9895SOL     OW30583   4.753   2.365   5.915
 9895SOL    HW130584   4.670   2.311   5.897
 9895SOL    HW230585   4.782   2.410   5.830
 9896SOL     OW30586   4.266   3.754   6.879
 9896SOL    HW130587   4.216   3.693   6.817
 9896SOL    HW230588   4.324   3.816   6.825
 9897SOL     OW30589   1.580   1.430   2.374
 9897SOL    HW130590   1.483   1.430   2.396
 9897SOL    HW230591   1.630   1.483   2.443
 9898SOL     OW30592   0.024   5.457   0.117
 9898SOL    HW130593   0.105   5.465   0.058
 9898SOL    HW230594   6.968   5.427   0.062
 9899SOL     OW30595   4.043   5.435   0.969
 9899SOL    HW130596   4.121   5.372   0.971
 9899SOL    HW230597   4.075   5.527   0.947
 9900SOL     OW30598   2.145   5.882   3.035
 9900SOL    HW130599   2.082   5.953   3.065
 9900SOL    HW230600   2.239   5.915   3.041
 9901SOL     OW30601   3.047   1.023   5.930
 9901SOL    HW130602   3.033   1.111   5.885
 9901SOL    HW230603   3.144   1.008   5.945
 9902SOL     OW30604   4.427   4.456   0.363
 9902SOL    HW130605   4.430   4.554   0.341
 9902SOL    HW230606   4.333   4.428   0.379
 9903SOL     OW30607   2.193   1.178   1.181
 9903SOL    HW130608   2.118   1.167   1.116
 9903SOL    HW230609   2.261   1.106   1.165
 9904SOL     OW30610   6.430   6.181   2.055
 9904SOL    HW130611   6.422   6.175   2.154
 9904SOL    HW230612   6.474   6.099   2.019
 9905SOL     OW30613   2.152   6.780   0.046
 9905SOL    HW130614   2.162   6.778   6.968
 9905SOL    HW230615   2.155   6.687   0.082
 9906SOL     OW30616   3.819   3.721   6.383
 9906SOL    HW130617   3.733   3.752   6.343
 9906SOL    HW230618   3.813   3.623   6.402
 9907SOL     OW30619   0.745   6.269   3.283
 9907SOL    HW130620   0.775   6.301   3.373
 9907SOL    HW230621   0.822   6.273   3.219
 9908SOL     OW30622   6.583   2.703   5.809
 9908SOL    HW130623   6.599   2.766   5.886
 9908SOL    HW230624   6.557   2.613   5.845
 9909SOL     OW30625   2.197   6.250   3.176
 9909SOL    HW130626   2.142   6.294   3.246
 9909SOL    HW230627   2.285   6.221   3.215
 9910SOL     OW30628   1.010   5.465   0.897
 9910SOL    HW130629   1.099   5.491   0.859
 9910SOL    HW230630   0.986   5.374   0.865
 9911SOL     OW30631   3.271   4.864   2.115
 9911SOL    HW130632   3.357   4.896   2.075
 9911SOL    HW230633   3.243   4.779   2.070
 9912SOL     OW30634   5.623   6.780   0.173
 9912SOL    HW130635   5.664   6.838   0.243
 9912SOL    HW230636   5.693   6.753   0.107
 9913SOL     OW30637   6.509   1.778   2.730
 9913SOL    HW130638   6.586   1.797   2.792
 9913SOL    HW230639   6.446   1.855   2.731
 9914SOL     OW30640   1.981   5.520   3.844
 9914SOL    HW130641   1.906   5.465   3.808
 9914SOL    HW230642   1.962   5.617   3.830
 9915SOL     OW30643   6.329   4.954   4.202
 9915SOL    HW130644   6.350   4.857   4.214
 9915SOL    HW230645   6.287   4.968   4.113
 9916SOL     OW30646   1.929   3.498   0.732
 9916SOL    HW130647   1.904   3.436   0.658
 9916SOL    HW230648   1.927   3.592   0.698
 9917SOL     OW30649   1.862   3.800   4.426
 9917SOL    HW130650   1.961   3.794   4.421
 9917SOL    HW230651   1.828   3.736   4.496
 9918SOL     OW30652   1.907   2.091   4.274
 9918SOL    HW130653   1.811   2.116   4.266
 9918SOL    HW230654   1.918   1.993   4.261
 9919SOL     OW30655   0.921   6.085   1.476
 9919SOL    HW130656   0.947   6.092   1.380
 9919SOL    HW230657   0.864   6.163   1.500
 9920SOL     OW30658   2.949   0.684   3.065
 9920SOL    HW130659   2.981   0.589   3.053
 9920SOL    HW230660   2.981   0.740   2.989
 9921SOL     OW30661   5.025   0.645   2.520
 9921SOL    HW130662   5.054   0.587   2.444
 9921SOL    HW230663   4.961   0.715   2.486
 9922SOL     OW30664   6.327   2.927   2.273
 9922SOL    HW130665   6.296   3.022   2.281
 9922SOL    HW230666   6.360   2.896   2.363
 9923SOL     OW30667   5.667   7.003   6.755
 9923SOL    HW130668   5.713   0.067   6.729
 9923SOL    HW230669   5.575   7.002   6.715
 9924SOL     OW30670   5.696   0.296   3.430
 9924SOL    HW130671   5.754   0.374   3.407
 9924SOL    HW230672   5.600   0.322   3.423
 9925SOL     OW30673   4.094   2.157   5.018
 9925SOL    HW130674   4.093   2.251   4.984
 9925SOL    HW230675   4.007   2.138   5.065
 9926SOL     OW30676   1.984   1.056   5.784
 9926SOL    HW130677   2.036   1.138   5.758
 9926SOL    HW230678   2.014   0.979   5.727
 9927SOL     OW30679   1.986   3.794   3.939
 9927SOL    HW130680   1.921   3.833   4.004
 9927SOL    HW230681   2.038   3.868   3.895
 9928SOL     OW30682   6.398   2.869   3.026
 9928SOL    HW130683   6.303   2.887   3.053
 9928SOL    HW230684   6.460   2.909   3.093
 9929SOL     OW30685   1.545   5.115   4.880
 9929SOL    HW130686   1.619   5.117   4.947
 9929SOL    HW230687   1.462   5.153   4.920
 9930SOL     OW30688   6.989   6.038   6.737
 9930SOL    HW130689   6.915   6.102   6.759
 9930SOL    HW230690   6.964   5.984   6.657
 9931SOL     OW30691   1.642   4.254   0.100
 9931SOL    HW130692   1.643   4.325   0.029
 9931SOL    HW230693   1.714   4.273   0.167
 9932SOL     OW30694   2.176   2.021   1.355
 9932SOL    HW130695   2.082   2.003   1.382
 9932SOL    HW230696   2.238   1.963   1.408
 9933SOL     OW30697   1.453   1.811   3.310
 9933SOL    HW130698   1.454   1.722   3.263
 9933SOL    HW230699   1.535   1.820   3.367
 9934SOL     OW30700   4.889   0.069   5.856
 9934SOL    HW130701   4.804   0.101   5.816
 9934SOL    HW230702   4.870   0.022   5.943
 9935SOL     OW30703   3.392   2.833   0.346
 9935SOL    HW130704   3.444   2.782   0.277
 9935SOL    HW230705   3.325   2.892   0.301
 9936SOL     OW30706   4.847   5.689   0.538
 9936SOL    HW130707   4.891   5.690   0.448
 9936SOL    HW230708   4.755   5.650   0.530
 9937SOL     OW30709   1.439   6.964   5.099
 9937SOL    HW130710   1.519   6.906   5.085
 9937SOL    HW230711   1.357   6.916   5.067
 9938SOL     OW30712   0.861   1.737   3.105
 9938SOL    HW130713   0.797   1.766   3.176
 9938SOL    HW230714   0.809   1.700   3.028
 9939SOL     OW30715   2.980   3.881   1.172
 9939SOL    HW130716   3.008   3.887   1.268
 9939SOL    HW230717   3.042   3.820   1.123
 9940SOL     OW30718   6.434   1.008   2.623
 9940SOL    HW130719   6.402   0.913   2.628
 9940SOL    HW230720   6.436   1.037   2.527
 9941SOL     OW30721   5.982   3.497   0.505
 9941SOL    HW130722   5.999   3.465   0.412
 9941SOL    HW230723   6.053   3.564   0.530
 9942SOL     OW30724   6.083   5.361   2.325
 9942SOL    HW130725   6.169   5.401   2.293
 9942SOL    HW230726   6.102   5.299   2.401
 9943SOL     OW30727   1.176   4.851   5.006
 9943SOL    HW130728   1.229   4.880   5.086
 9943SOL    HW230729   1.091   4.903   5.001
 9944SOL     OW30730   2.260   5.737   6.403
 9944SOL    HW130731   2.257   5.639   6.384
 9944SOL    HW230732   2.306   5.753   6.490
 9945SOL     OW30733   6.122   2.970   5.617
 9945SOL    HW130734   6.119   2.948   5.715
 9945SOL    HW230735   6.062   3.047   5.598
 9946SOL     OW30736   5.899   1.648   0.902
 9946SOL    HW130737   5.835   1.705   0.851
 9946SOL    HW230738   5.855   1.613   0.985
 9947SOL     OW30739   0.526   0.212   3.084
 9947SOL    HW130740   0.563   0.138   3.027
 9947SOL    HW230741   0.540   0.300   3.039
 9948SOL     OW30742   4.933   0.584   4.891
 9948SOL    HW130743   4.936   0.485   4.875
 9948SOL    HW230744   4.862   0.605   4.958
 9949SOL     OW30745   6.912   2.997   2.784
 9949SOL    HW130746   6.883   2.908   2.750
 9949SOL    HW230747   6.907   3.064   2.710
 9950SOL     OW30748   5.267   4.358   6.425
 9950SOL    HW130749   5.292   4.387   6.517
 9950SOL    HW230750   5.169   4.374   6.410
 9951SOL     OW30751   6.849   2.162   2.429
 9951SOL    HW130752   6.890   2.077   2.395
 9951SOL    HW230753   6.800   2.208   2.354
 9952SOL     OW30754   1.485   4.837   1.254
 9952SOL    HW130755   1.502   4.927   1.215
 9952SOL    HW230756   1.534   4.767   1.200
 9953SOL     OW30757   6.063   4.490   4.813
 9953SOL    HW130758   6.048   4.401   4.770
 9953SOL    HW230759   5.993   4.554   4.782
 9954SOL     OW30760   4.169   2.096   1.460
 9954SOL    HW130761   4.176   2.013   1.405
 9954SOL    HW230762   4.251   2.151   1.449
 9955SOL     OW30763   6.356   5.457   1.490
 9955SOL    HW130764   6.289   5.525   1.519
 9955SOL    HW230765   6.406   5.491   1.411
 9956SOL     OW30766   1.633   3.809   3.294
 9956SOL    HW130767   1.635   3.854   3.383
 9956SOL    HW230768   1.698   3.733   3.294
 9957SOL     OW30769   5.710   6.702   0.464
 9957SOL    HW130770   5.708   6.679   0.562
 9957SOL    HW230771   5.762   6.632   0.415
 9958SOL     OW30772   6.575   5.991   5.402
 9958SOL    HW130773   6.532   6.034   5.481
 9958SOL    HW230774   6.555   5.893   5.403
 9959SOL     OW30775   6.344   5.871   6.887
 9959SOL    HW130776   6.321   5.967   6.869
 9959SOL    HW230777   6.363   5.860   6.985
 9960SOL     OW30778   6.009   0.113   6.194
 9960SOL    HW130779   5.970   0.158   6.114
 9960SOL    HW230780   6.086   0.167   6.229
 9961SOL     OW30781   3.151   6.576   0.472
 9961SOL    HW130782   3.141   6.580   0.571
 9961SOL    HW230783   3.114   6.490   0.438
 9962SOL     OW30784   3.626   0.679   1.420
 9962SOL    HW130785   3.640   0.612   1.347
 9962SOL    HW230786   3.657   0.640   1.507
 9963SOL     OW30787   0.393   0.247   6.423
 9963SOL    HW130788   0.352   0.157   6.405
 9963SOL    HW230789   0.492   0.238   6.428
 9964SOL     OW30790   4.619   5.352   5.436
 9964SOL    HW130791   4.571   5.271   5.469
 9964SOL    HW230792   4.700   5.368   5.492
 9965SOL     OW30793   2.159   5.489   4.669
 9965SOL    HW130794   2.115   5.418   4.615
 9965SOL    HW230795   2.131   5.579   4.636
 9966SOL     OW30796   1.759   4.411   1.904
 9966SOL    HW130797   1.783   4.444   1.995
 9966SOL    HW230798   1.762   4.488   1.839
 9967SOL     OW30799   6.571   0.332   2.361
 9967SOL    HW130800   6.563   0.244   2.408
 9967SOL    HW230801   6.533   0.323   2.269
 9968SOL     OW30802   5.078   6.045   0.355
 9968SOL    HW130803   4.982   6.049   0.381
 9968SOL    HW230804   5.091   5.978   0.282
 9969SOL     OW30805   0.262   6.350   3.192
 9969SOL    HW130806   0.347   6.297   3.191
 9969SOL    HW230807   0.270   6.428   3.131
 9970SOL     OW30808   0.442   3.533   1.497
 9970SOL    HW130809   0.473   3.571   1.410
 9970SOL    HW230810   0.519   3.526   1.560
 9971SOL     OW30811   6.910   5.345   5.873
 9971SOL    HW130812   6.906   5.301   5.962
 9971SOL    HW230813   6.957   5.285   5.808
 9972SOL     OW30814   2.990   4.287   5.708
 9972SOL    HW130815   3.010   4.323   5.617
 9972SOL    HW230816   3.072   4.242   5.745
 9973SOL     OW30817   2.966   2.271   2.915
 9973SOL    HW130818   2.995   2.194   2.857
 9973SOL    HW230819   2.894   2.322   2.870
 9974SOL     OW30820   0.792   3.411   3.586
 9974SOL    HW130821   0.809   3.414   3.488
 9974SOL    HW230822   0.765   3.502   3.618
 9975SOL     OW30823   1.040   4.804   6.998
 9975SOL    HW130824   1.065   4.723   0.029
 9975SOL    HW230825   0.957   4.844   0.015
 9976SOL     OW30826   4.631   5.954   5.205
 9976SOL    HW130827   4.642   5.974   5.302
 9976SOL    HW230828   4.700   6.003   5.152
 9977SOL     OW30829   4.298   6.812   5.897
 9977SOL    HW130830   4.314   6.724   5.853
 9977SOL    HW230831   4.230   6.801   5.970
 9978SOL     OW30832   6.714   2.821   0.070
 9978SOL    HW130833   6.632   2.803   0.124
 9978SOL    HW230834   6.711   2.916   0.036
 9979SOL     OW30835   3.856   4.008   3.862
 9979SOL    HW130836   3.922   3.938   3.839
 9979SOL    HW230837   3.848   4.016   3.961
 9980SOL     OW30838   0.218   6.867   6.843
 9980SOL    HW130839   0.129   6.914   6.851
 9980SOL    HW230840   0.267   6.876   6.930
 9981SOL     OW30841   5.208   1.091   1.109
 9981SOL    HW130842   5.274   1.093   1.184
 9981SOL    HW230843   5.253   1.062   1.025
 9982SOL     OW30844   2.704   1.756   5.041
 9982SOL    HW130845   2.622   1.805   5.012
 9982SOL    HW230846   2.752   1.721   4.961
 9983SOL     OW30847   0.443   2.826   2.033
 9983SOL    HW130848   0.489   2.876   1.960
 9983SOL    HW230849   0.507   2.813   2.109
 9984SOL     OW30850   1.222   4.762   1.304
 9984SOL    HW130851   1.312   4.791   1.273
 9984SOL    HW230852   1.220   4.662   1.311
 9985SOL     OW30853   4.636   4.551   5.941
 9985SOL    HW130854   4.728   4.543   5.903
 9985SOL    HW230855   4.627   4.491   6.021
 9986SOL     OW30856   5.702   4.068   6.844
 9986SOL    HW130857   5.612   4.103   6.816
 9986SOL    HW230858   5.751   4.139   6.895
 9987SOL     OW30859   5.451   2.031   0.570
 9987SOL    HW130860   5.517   2.000   0.639
 9987SOL    HW230861   5.432   2.128   0.583
 9988SOL     OW30862   5.582   6.621   3.776
 9988SOL    HW130863   5.485   6.602   3.789
 9988SOL    HW230864   5.636   6.556   3.829
 9989SOL     OW30865   6.402   5.809   2.129
 9989SOL    HW130866   6.470   5.746   2.167
 9989SOL    HW230867   6.322   5.811   2.189
 9990SOL     OW30868   0.260   5.957   2.852
 9990SOL    HW130869   0.240   6.055   2.865
 9990SOL    HW230870   0.181   5.912   2.812
 9991SOL     OW30871   2.015   3.508   1.807
 9991SOL    HW130872   2.051   3.480   1.718
 9991SOL    HW230873   2.085   3.493   1.877
 9992SOL     OW30874   2.253   4.539   0.251
 9992SOL    HW130875   2.292   4.490   0.329
 9992SOL    HW230876   2.305   4.516   0.168
 9993SOL     OW30877   3.338   0.214   4.315
 9993SOL    HW130878   3.323   0.313   4.322
 9993SOL    HW230879   3.331   0.173   4.405
 9994SOL     OW30880   6.050   5.086   5.324
 9994SOL    HW130881   5.974   5.026   5.345
 9994SOL    HW230882   6.136   5.039   5.343
 9995SOL     OW30883   4.093   1.729   6.057
 9995SOL    HW130884   4.125   1.823   6.041
 9995SOL    HW230885   4.054   1.693   5.972
 9996SOL     OW30886   2.979   4.801   1.021
 9996SOL    HW130887   3.049   4.834   0.957
 9996SOL    HW230888   2.918   4.738   0.974
 9997SOL     OW30889   5.819   0.550   2.666
 9997SOL    HW130890   5.918   0.551   2.681
 9997SOL    HW230891   5.785   0.456   2.674
 9998SOL     OW30892   5.168   3.831   2.483
 9998SOL    HW130893   5.081   3.868   2.451
 9998SOL    HW230894   5.172   3.733   2.463
 9999SOL     OW30895   0.611   6.847   4.982
 9999SOL    HW130896   0.662   6.771   5.022
 9999SOL    HW230897   0.565   6.816   4.899
10000SOL     OW30898   4.545   3.227   1.647
10000SOL    HW130899   4.636   3.236   1.688
10000SOL    HW230900   4.554   3.218   1.547
10001SOL     OW30901   3.875   0.136   1.397
10001SOL    HW130902   3.820   0.169   1.474
10001SOL    HW230903   3.823   0.148   1.312
10002SOL     OW30904   1.765   6.829   2.856
10002SOL    HW130905   1.759   6.736   2.893
10002SOL    HW230906   1.681   6.851   2.806
10003SOL     OW30907   0.637   1.185   2.575
10003SOL    HW130908   0.601   1.109   2.520
10003SOL    HW230909   0.596   1.182   2.666
10004SOL     OW30910   0.102   2.913   3.084
10004SOL    HW130911   0.191   2.906   3.127
10004SOL    HW230912   0.114   2.921   2.985
10005SOL     OW30913   2.583   5.804   2.348
10005SOL    HW130914   2.518   5.778   2.277
10005SOL    HW230915   2.555   5.890   2.391
10006SOL     OW30916   5.809   2.032   6.155
10006SOL    HW130917   5.856   2.086   6.085
10006SOL    HW230918   5.763   1.954   6.111
10007SOL     OW30919   1.561   5.043   3.538
10007SOL    HW130920   1.512   4.957   3.526
10007SOL    HW230921   1.578   5.085   3.449
10008SOL     OW30922   4.184   0.709   5.715
10008SOL    HW130923   4.219   0.726   5.622
10008SOL    HW230924   4.086   0.725   5.717
10009SOL     OW30925   1.538   5.196   1.962
10009SOL    HW130926   1.482   5.236   2.034
10009SOL    HW230927   1.588   5.117   1.998
10010SOL     OW30928   2.048   4.902   0.749
10010SOL    HW130929   1.965   4.928   0.799
10010SOL    HW230930   2.023   4.853   0.666
10011SOL     OW30931   3.366   3.507   6.872
10011SOL    HW130932   3.308   3.546   6.944
10011SOL    HW230933   3.310   3.481   6.794
10012SOL     OW30934   5.950   1.940   3.181
10012SOL    HW130935   5.962   1.916   3.277
10012SOL    HW230936   5.867   1.896   3.146
10013SOL     OW30937   0.569   6.228   5.428
10013SOL    HW130938   0.625   6.225   5.511
10013SOL    HW230939   0.553   6.135   5.395
10014SOL     OW30940   1.574   0.985   3.089
10014SOL    HW130941   1.628   1.002   3.006
10014SOL    HW230942   1.486   0.946   3.064
10015SOL     OW30943   4.239   0.689   6.858
10015SOL    HW130944   4.237   0.634   6.775
10015SOL    HW230945   4.208   0.782   6.837
10016SOL     OW30946   3.127   0.980   4.750
10016SOL    HW130947   3.203   0.926   4.713
10016SOL    HW230948   3.052   0.981   4.685
10017SOL     OW30949   3.401   1.411   2.967
10017SOL    HW130950   3.336   1.340   2.992
10017SOL    HW230951   3.385   1.492   3.022
10018SOL     OW30952   0.396   5.160   5.632
10018SOL    HW130953   0.397   5.253   5.669
10018SOL    HW230954   0.482   5.114   5.654
10019SOL     OW30955   6.916   1.925   2.355
10019SOL    HW130956   6.890   1.843   2.405
10019SOL    HW230957   6.995   1.906   2.297
10020SOL     OW30958   6.492   0.684   2.737
10020SOL    HW130959   6.577   0.691   2.788
10020SOL    HW230960   6.512   0.681   2.639
10021SOL     OW30961   1.669   3.490   1.423
10021SOL    HW130962   1.730   3.567   1.443
10021SOL    HW230963   1.663   3.478   1.324
10022SOL     OW30964   0.975   6.747   5.945
10022SOL    HW130965   0.895   6.758   5.886
10022SOL    HW230966   0.973   6.816   6.017
10023SOL     OW30967   1.252   1.460   5.504
10023SOL    HW130968   1.184   1.531   5.520
10023SOL    HW230969   1.235   1.383   5.565
10024SOL     OW30970   2.343   4.282   3.447
10024SOL    HW130971   2.353   4.218   3.372
10024SOL    HW230972   2.371   4.238   3.533
10025SOL     OW30973   0.584   3.035   1.083
10025SOL    HW130974   0.572   3.114   1.144
10025SOL    HW230975   0.682   3.015   1.073
10026SOL     OW30976   6.861   1.105   4.582
10026SOL    HW130977   6.828   1.043   4.654
10026SOL    HW230978   6.920   1.175   4.624
10027SOL     OW30979   3.512   1.151   5.799
10027SOL    HW130980   3.468   1.241   5.811
10027SOL    HW230981   3.484   1.113   5.711
10028SOL     OW30982   3.963   6.762   2.410
10028SOL    HW130983   4.006   6.684   2.366
10028SOL    HW230984   3.903   6.730   2.484
10029SOL     OW30985   6.990   5.052   4.283
10029SOL    HW130986   0.061   5.015   4.297
10029SOL    HW230987   6.930   4.980   4.247
10030SOL     OW30988   2.906   6.985   4.197
10030SOL    HW130989   2.974   6.964   4.127
10030SOL    HW230990   2.932   6.942   4.283
10031SOL     OW30991   1.979   6.869   3.929
10031SOL    HW130992   2.035   6.952   3.927
10031SOL    HW230993   1.891   6.887   3.887
10032SOL     OW30994   2.925   6.030   4.311
10032SOL    HW130995   3.005   6.043   4.252
10032SOL    HW230996   2.942   5.955   4.375
10033SOL     OW30997   2.496   1.266   4.801
10033SOL    HW130998   2.424   1.234   4.862
10033SOL    HW230999   2.564   1.194   4.789
10034SOL     OW31000   2.220   1.112   2.033
10034SOL    HW131001   2.173   1.024   2.027
10034SOL    HW231002   2.311   1.104   1.992
10035SOL     OW31003   0.411   3.082   2.323
10035SOL    HW131004   0.453   3.095   2.233
10035SOL    HW231005   0.449   3.149   2.388
10036SOL     OW31006   0.139   1.614   6.869
10036SOL    HW131007   0.195   1.682   6.821
10036SOL    HW231008   0.171   1.522   6.846
10037SOL     OW31009   6.053   0.696   6.067
10037SOL    HW131010   5.968   0.743   6.045
10037SOL    HW231011   6.049   0.663   6.162
10038SOL     OW31012   4.769   6.715   6.745
10038SOL    HW131013   4.827   6.644   6.783
10038SOL    HW231014   4.680   6.676   6.722
10039SOL     OW31015   0.226   5.116   1.508
10039SOL    HW131016   0.257   5.134   1.602
10039SOL    HW231017   0.194   5.021   1.502
10040SOL     OW31018   2.592   0.266   0.210
10040SOL    HW131019   2.642   0.336   0.159
10040SOL    HW231020   2.642   0.179   0.203
10041SOL     OW31021   5.582   4.621   5.366
10041SOL    HW131022   5.507   4.674   5.327
10041SOL    HW231023   5.664   4.633   5.310
10042SOL     OW31024   6.423   0.664   5.094
10042SOL    HW131025   6.420   0.654   5.194
10042SOL    HW231026   6.329   0.663   5.058
10043SOL     OW31027   0.752   0.498   2.745
10043SOL    HW131028   0.819   0.454   2.805
10043SOL    HW231029   0.744   0.445   2.660
10044SOL     OW31030   3.192   2.454   6.834
10044SOL    HW131031   3.150   2.531   6.785
10044SOL    HW231032   3.282   2.435   6.794
10045SOL     OW31033   4.075   0.011   4.373
10045SOL    HW131034   3.996   6.996   4.421
10045SOL    HW231035   4.060   0.003   4.274
10046SOL     OW31036   6.723   2.181   1.583
10046SOL    HW131037   6.714   2.157   1.679
10046SOL    HW231038   6.815   2.216   1.565
10047SOL     OW31039   1.400   2.979   3.065
10047SOL    HW131040   1.330   2.942   3.127
10047SOL    HW231041   1.489   2.941   3.090
10048SOL     OW31042   3.483   2.172   1.714
10048SOL    HW131043   3.499   2.200   1.620
10048SOL    HW231044   3.533   2.233   1.776
10049SOL     OW31045   1.677   5.624   4.629
10049SOL    HW131046   1.666   5.574   4.542
10049SOL    HW231047   1.741   5.575   4.687
10050SOL     OW31048   5.831   1.489   4.895
10050SOL    HW131049   5.760   1.420   4.886
10050SOL    HW231050   5.831   1.549   4.815
10051SOL     OW31051   6.326   1.784   0.705
10051SOL    HW131052   6.411   1.736   0.682
10051SOL    HW231053   6.296   1.838   0.627
10052SOL     OW31054   1.970   5.303   0.977
10052SOL    HW131055   1.929   5.243   0.907
10052SOL    HW231056   1.897   5.345   1.031
10053SOL     OW31057   2.832   6.451   3.380
10053SOL    HW131058   2.751   6.407   3.419
10053SOL    HW231059   2.914   6.414   3.424
10054SOL     OW31060   4.603   5.020   3.919
10054SOL    HW131061   4.669   5.092   3.941
10054SOL    HW231062   4.543   5.051   3.845
10055SOL     OW31063   5.142   3.250   0.186
10055SOL    HW131064   5.188   3.212   0.106
10055SOL    HW231065   5.122   3.347   0.169
10056SOL     OW31066   5.003   4.010   2.868
10056SOL    HW131067   5.033   4.102   2.843
10056SOL    HW231068   4.990   3.955   2.786
10057SOL     OW31069   2.560   2.478   3.032
10057SOL    HW131070   2.473   2.430   3.028
10057SOL    HW231071   2.609   2.466   2.945
10058SOL     OW31072   1.043   5.138   4.034
10058SOL    HW131073   0.968   5.072   4.043
10058SOL    HW231074   1.099   5.114   3.955
10059SOL     OW31075   4.643   6.396   1.657
10059SOL    HW131076   4.619   6.492   1.668
10059SOL    HW231077   4.573   6.351   1.601
10060SOL     OW31078   2.414   2.703   2.318
10060SOL    HW131079   2.502   2.678   2.358
10060SOL    HW231080   2.394   2.643   2.241
10061SOL     OW31081   6.742   2.071   5.755
10061SOL    HW131082   6.653   2.097   5.717
10061SOL    HW231083   6.731   1.990   5.812
10062SOL     OW31084   4.947   5.770   2.766
10062SOL    HW131085   5.029   5.751   2.820
10062SOL    HW231086   4.947   5.866   2.738
10063SOL     OW31087   0.806   2.632   2.229
10063SOL    HW131088   0.823   2.711   2.170
10063SOL    HW231089   0.711   2.602   2.218
10064SOL     OW31090   5.038   4.959   5.644
10064SOL    HW131091   4.963   4.953   5.577
10064SOL    HW231092   5.012   4.908   5.726
10065SOL     OW31093   0.210   0.389   2.707
10065SOL    HW131094   0.292   0.336   2.686
10065SOL    HW231095   0.160   0.344   2.781
10066SOL     OW31096   0.385   0.800   3.935
10066SOL    HW131097   0.329   0.853   3.871
10066SOL    HW231098   0.441   0.862   3.989
10067SOL     OW31099   4.837   6.370   3.603
10067SOL    HW131100   4.754   6.378   3.547
10067SOL    HW231101   4.819   6.309   3.680
10068SOL     OW31102   5.127   3.346   5.634
10068SOL    HW131103   5.165   3.256   5.658
10068SOL    HW231104   5.114   3.400   5.717
10069SOL     OW31105   5.216   1.674   3.893
10069SOL    HW131106   5.161   1.601   3.853
10069SOL    HW231107   5.303   1.636   3.926
10070SOL     OW31108   1.321   0.179   4.287
10070SOL    HW131109   1.367   0.173   4.198
10070SOL    HW231110   1.358   0.109   4.348
10071SOL     OW31111   4.931   4.682   5.376
10071SOL    HW131112   4.905   4.612   5.442
10071SOL    HW231113   5.030   4.678   5.362
10072SOL     OW31114   1.046   6.655   4.025
10072SOL    HW131115   1.018   6.730   4.085
10072SOL    HW231116   1.002   6.664   3.936
10073SOL     OW31117   6.954   5.914   6.496
10073SOL    HW131118   6.979   5.833   6.442
10073SOL    HW231119   6.871   5.954   6.459
10074SOL     OW31120   2.360   6.967   4.820
10074SOL    HW131121   2.296   6.977   4.743
10074SOL    HW231122   2.338   0.013   4.890
10075SOL     OW31123   1.069   2.634   4.880
10075SOL    HW131124   1.154   2.679   4.854
10075SOL    HW231125   1.083   2.536   4.885
10076SOL     OW31126   5.718   0.254   3.695
10076SOL    HW131127   5.673   0.332   3.739
10076SOL    HW231128   5.715   0.266   3.596
10077SOL     OW31129   3.040   1.835   5.965
10077SOL    HW131130   3.078   1.828   6.058
10077SOL    HW231131   2.944   1.862   5.970
10078SOL     OW31132   5.551   5.949   5.324
10078SOL    HW131133   5.585   5.903   5.407
10078SOL    HW231134   5.604   5.919   5.245
10079SOL     OW31135   0.300   2.885   5.805
10079SOL    HW131136   0.362   2.955   5.770
10079SOL    HW231137   0.216   2.885   5.750
10080SOL     OW31138   1.331   2.830   5.681
10080SOL    HW131139   1.336   2.751   5.620
10080SOL    HW231140   1.410   2.829   5.743
10081SOL     OW31141   0.386   1.284   0.288
10081SOL    HW131142   0.437   1.369   0.276
10081SOL    HW231143   0.412   1.241   0.374
10082SOL     OW31144   6.903   0.463   0.331
10082SOL    HW131145   6.858   0.539   0.378
10082SOL    HW231146   6.921   0.389   0.396
10083SOL     OW31147   5.394   1.479   4.191
10083SOL    HW131148   5.418   1.567   4.232
10083SOL    HW231149   5.295   1.473   4.180
10084SOL     OW31150   2.620   0.417   6.378
10084SOL    HW131151   2.603   0.433   6.281
10084SOL    HW231152   2.706   0.368   6.390
10085SOL     OW31153   1.038   4.878   2.706
10085SOL    HW131154   1.033   4.970   2.669
10085SOL    HW231155   1.133   4.847   2.706
10086SOL     OW31156   6.970   3.359   1.762
10086SOL    HW131157   6.890   3.339   1.705
10086SOL    HW231158   6.950   3.437   1.821
10087SOL     OW31159   2.422   1.023   3.220
10087SOL    HW131160   2.332   1.013   3.261
10087SOL    HW231161   2.449   0.937   3.175
10088SOL     OW31162   5.874   0.069   4.728
10088SOL    HW131163   5.895   0.066   4.630
10088SOL    HW231164   5.959   0.079   4.780
10089SOL     OW31165   2.027   2.304   1.841
10089SOL    HW131166   2.064   2.390   1.878
10089SOL    HW231167   2.038   2.231   1.908
10090SOL     OW31168   0.542   5.478   1.946
10090SOL    HW131169   0.590   5.467   1.859
10090SOL    HW231170   0.445   5.497   1.928
10091SOL     OW31171   0.402   1.799   4.183
10091SOL    HW131172   0.330   1.831   4.245
10091SOL    HW231173   0.454   1.726   4.226
10092SOL     OW31174   1.802   2.909   5.645
10092SOL    HW131175   1.899   2.903   5.619
10092SOL    HW231176   1.747   2.861   5.577
10093SOL     OW31177   6.962   6.309   6.315
10093SOL    HW131178   6.991   6.261   6.232
10093SOL    HW231179   7.009   6.397   6.321
10094SOL     OW31180   1.330   0.446   1.851
10094SOL    HW131181   1.268   0.471   1.925
10094SOL    HW231182   1.377   0.528   1.818
10095SOL     OW31183   0.004   2.222   4.927
10095SOL    HW131184   0.092   2.192   4.965
10095SOL    HW231185   6.954   2.156   4.951
10096SOL     OW31186   6.941   5.717   3.045
10096SOL    HW131187   6.893   5.782   3.104
10096SOL    HW231188   6.951   5.757   2.954
10097SOL     OW31189   0.985   2.497   5.781
10097SOL    HW131190   0.989   2.401   5.812
10097SOL    HW231191   0.943   2.553   5.852
10098SOL     OW31192   3.770   5.136   6.576
10098SOL    HW131193   3.701   5.195   6.534
10098SOL    HW231194   3.726   5.053   6.610
10099SOL     OW31195   0.355   4.345   4.531
10099SOL    HW131196   0.367   4.441   4.559
10099SOL    HW231197   0.419   4.287   4.582
10100SOL     OW31198   4.704   0.242   5.525
10100SOL    HW131199   4.713   0.270   5.621
10100SOL    HW231200   4.695   0.324   5.468
10101SOL     OW31201   0.091   4.806   2.722
10101SOL    HW131202   0.099   4.903   2.701
10101SOL    HW231203   0.018   4.792   2.790
10102SOL     OW31204   3.830   0.635   4.205
10102SOL    HW131205   3.736   0.603   4.200
10102SOL    HW231206   3.845   0.706   4.137
10103SOL     OW31207   0.703   2.579   0.468
10103SOL    HW131208   0.646   2.524   0.407
10103SOL    HW231209   0.776   2.522   0.505
10104SOL     OW31210   2.349   6.186   5.744
10104SOL    HW131211   2.281   6.115   5.727
10104SOL    HW231212   2.398   6.166   5.829
10105SOL     OW31213   3.470   0.457   6.966
10105SOL    HW131214   3.532   0.523   6.923
10105SOL    HW231215   3.451   0.383   6.902
10106SOL     OW31216   4.946   5.024   1.274
10106SOL    HW131217   4.973   5.042   1.179
10106SOL    HW231218   4.960   4.927   1.295
10107SOL     OW31219   5.501   0.935   6.019
10107SOL    HW131220   5.468   1.024   5.988
10107SOL    HW231221   5.460   0.863   5.963
10108SOL     OW31222   5.559   6.358   6.608
10108SOL    HW131223   5.615   6.378   6.528
10108SOL    HW231224   5.617   6.350   6.689
10109SOL     OW31225   4.614   5.864   2.954
10109SOL    HW131226   4.662   5.906   3.032
10109SOL    HW231227   4.657   5.777   2.931
10110SOL     OW31228   3.376   1.793   6.217
10110SOL    HW131229   3.400   1.876   6.167
10110SOL    HW231230   3.373   1.715   6.154
10111SOL     OW31231   0.010   2.487   1.724
10111SOL    HW131232   6.992   2.578   1.715
10111SOL    HW231233   0.028   2.449   1.633
10112SOL     OW31234   4.719   3.083   6.192
10112SOL    HW131235   4.758   3.174   6.178
10112SOL    HW231236   4.625   3.081   6.157
10113SOL     OW31237   4.059   6.828   0.813
10113SOL    HW131238   4.023   6.748   0.765
10113SOL    HW231239   4.129   6.872   0.757
10114SOL     OW31240   4.685   1.148   2.313
10114SOL    HW131241   4.664   1.245   2.297
10114SOL    HW231242   4.610   1.105   2.363
10115SOL     OW31243   1.340   2.001   4.655
10115SOL    HW131244   1.433   1.980   4.684
10115SOL    HW231245   1.325   1.967   4.562
10116SOL     OW31246   0.584   0.449   1.010
10116SOL    HW131247   0.536   0.413   1.090
10116SOL    HW231248   0.520   0.496   0.950
10117SOL     OW31249   4.536   6.940   5.891
10117SOL    HW131250   4.460   6.875   5.902
10117SOL    HW231251   4.609   6.917   5.955
10118SOL     OW31252   6.202   5.835   2.331
10118SOL    HW131253   6.111   5.847   2.291
10118SOL    HW231254   6.199   5.768   2.405
10119SOL     OW31255   2.012   6.986   6.252
10119SOL    HW131256   2.112   6.976   6.249
10119SOL    HW231257   1.969   6.908   6.208
10120SOL     OW31258   5.611   3.206   3.550
10120SOL    HW131259   5.582   3.271   3.620
10120SOL    HW231260   5.537   3.142   3.531
10121SOL     OW31261   6.142   4.663   3.510
10121SOL    HW131262   6.129   4.701   3.419
10121SOL    HW231263   6.065   4.689   3.569
10122SOL     OW31264   5.344   2.589   0.472
10122SOL    HW131265   5.378   2.682   0.457
10122SOL    HW231266   5.324   2.576   0.569
10123SOL     OW31267   0.029   0.104   0.026
10123SOL    HW131268   7.019   0.140   6.960
10123SOL    HW231269   0.101   0.164   0.063
10124SOL     OW31270   3.188   4.049   0.632
10124SOL    HW131271   3.120   4.056   0.705
10124SOL    HW231272   3.280   4.056   0.672
10125SOL     OW31273   2.179   0.314   0.526
10125SOL    HW131274   2.240   0.322   0.605
10125SOL    HW231275   2.233   0.287   0.446
10126SOL     OW31276   5.924   5.330   6.270
10126SOL    HW131277   5.893   5.397   6.203
10126SOL    HW231278   6.023   5.332   6.276
10127SOL     OW31279   3.989   4.843   5.176
10127SOL    HW131280   4.002   4.812   5.270
10127SOL    HW231281   3.928   4.922   5.175
10128SOL     OW31282   0.986   1.431   1.173
10128SOL    HW131283   1.034   1.389   1.096
10128SOL    HW231284   1.052   1.454   1.245
10129SOL     OW31285   5.199   2.632   2.962
10129SOL    HW131286   5.115   2.581   2.942
10129SOL    HW231287   5.238   2.665   2.876
10130SOL     OW31288   6.277   5.940   1.464
10130SOL    HW131289   6.294   6.021   1.520
10130SOL    HW231290   6.261   5.968   1.369
10131SOL     OW31291   0.586   0.077   0.096
10131SOL    HW131292   0.510   0.143   0.102
10131SOL    HW231293   0.612   0.049   0.189
10132SOL     OW31294   2.669   6.483   2.584
10132SOL    HW131295   2.589   6.469   2.526
10132SOL    HW231296   2.646   6.543   2.660
10133SOL     OW31297   6.001   4.684   2.723
10133SOL    HW131298   5.979   4.742   2.802
10133SOL    HW231299   6.096   4.698   2.697
10134SOL     OW31300   0.617   1.465   1.654
10134SOL    HW131301   0.567   1.397   1.601
10134SOL    HW231302   0.555   1.511   1.718
10135SOL     OW31303   3.021   6.044   2.845
10135SOL    HW131304   3.115   6.076   2.837
10135SOL    HW231305   2.966   6.085   2.772
10136SOL     OW31306   6.517   6.470   2.430
10136SOL    HW131307   6.556   6.378   2.434
10136SOL    HW231308   6.418   6.464   2.418
10137SOL     OW31309   5.786   5.037   4.682
10137SOL    HW131310   5.716   5.104   4.708
10137SOL    HW231311   5.742   4.958   4.641
10138SOL     OW31312   5.840   3.003   6.077
10138SOL    HW131313   5.901   2.978   6.152
10138SOL    HW231314   5.864   2.951   5.995
10139SOL     OW31315   3.547   2.978   3.349
10139SOL    HW131316   3.520   3.071   3.374
10139SOL    HW231317   3.468   2.930   3.309
10140SOL     OW31318   1.247   4.875   4.265
10140SOL    HW131319   1.251   4.975   4.261
10140SOL    HW231320   1.154   4.846   4.287
10141SOL     OW31321   2.113   0.577   3.981
10141SOL    HW131322   2.162   0.650   3.933
10141SOL    HW231323   2.039   0.543   3.924
10142SOL     OW31324   5.223   5.427   4.530
10142SOL    HW131325   5.195   5.506   4.585
10142SOL    HW231326   5.297   5.455   4.468
10143SOL     OW31327   4.464   6.163   1.264
10143SOL    HW131328   4.461   6.258   1.294
10143SOL    HW231329   4.380   6.116   1.292
10144SOL     OW31330   2.777   4.797   3.036
10144SOL    HW131331   2.719   4.824   2.959
10144SOL    HW231332   2.771   4.698   3.049
10145SOL     OW31333   2.861   0.323   6.398
10145SOL    HW131334   2.912   0.237   6.402
10145SOL    HW231335   2.921   0.395   6.362
10146SOL     OW31336   5.033   4.768   4.567
10146SOL    HW131337   5.068   4.841   4.509
10146SOL    HW231338   5.051   4.679   4.525
10147SOL     OW31339   4.998   5.842   4.347
10147SOL    HW131340   4.942   5.760   4.354
10147SOL    HW231341   5.019   5.860   4.251
10148SOL     OW31342   6.055   5.518   0.814
10148SOL    HW131343   5.996   5.493   0.891
10148SOL    HW231344   6.129   5.450   0.806
10149SOL     OW31345   4.195   3.035   1.538
10149SOL    HW131346   4.259   3.110   1.523
10149SOL    HW231347   4.169   2.996   1.449
10150SOL     OW31348   5.462   4.174   0.700
10150SOL    HW131349   5.423   4.253   0.652
10150SOL    HW231350   5.489   4.105   0.633
10151SOL     OW31351   0.639   5.511   5.623
10151SOL    HW131352   0.722   5.511   5.679
10151SOL    HW231353   0.563   5.474   5.676
10152SOL     OW31354   0.833   5.807   4.200
10152SOL    HW131355   0.737   5.801   4.228
10152SOL    HW231356   0.863   5.902   4.206
10153SOL     OW31357   5.217   5.169   3.982
10153SOL    HW131358   5.119   5.188   3.975
10153SOL    HW231359   5.266   5.223   3.913
10154SOL     OW31360   0.014   5.991   5.859
10154SOL    HW131361   0.008   5.946   5.770
10154SOL    HW231362   6.982   6.076   5.857
10155SOL     OW31363   3.656   0.960   6.092
10155SOL    HW131364   3.717   0.930   6.165
10155SOL    HW231365   3.708   0.974   6.008
10156SOL     OW31366   5.864   0.324   2.335
10156SOL    HW131367   5.895   0.376   2.256
10156SOL    HW231368   5.924   0.343   2.413
10157SOL     OW31369   4.961   0.724   3.874
10157SOL    HW131370   5.044   0.740   3.927
10157SOL    HW231371   4.938   0.627   3.877
10158SOL     OW31372   4.934   3.077   5.879
10158SOL    HW131373   4.909   2.998   5.935
10158SOL    HW231374   4.860   3.145   5.882
10159SOL     OW31375   1.776   0.890   6.248
10159SOL    HW131376   1.835   0.901   6.328
10159SOL    HW231377   1.680   0.898   6.275
10160SOL     OW31378   0.571   6.088   3.550
10160SOL    HW131379   0.628   6.137   3.615
10160SOL    HW231380   0.615   6.001   3.526
10161SOL     OW31381   2.657   5.977   5.054
10161SOL    HW131382   2.584   6.045   5.048
10161SOL    HW231383   2.617   5.885   5.052
10162SOL     OW31384   3.174   2.923   6.509
10162SOL    HW131385   3.175   2.859   6.586
10162SOL    HW231386   3.258   2.912   6.456
10163SOL     OW31387   0.774   3.501   5.595
10163SOL    HW131388   0.873   3.511   5.586
10163SOL    HW231389   0.746   3.417   5.547
10164SOL     OW31390   1.405   2.650   6.209
10164SOL    HW131391   1.349   2.657   6.127
10164SOL    HW231392   1.366   2.581   6.271
10165SOL     OW31393   0.252   1.768   2.686
10165SOL    HW131394   0.184   1.697   2.700
10165SOL    HW231395   0.240   1.840   2.754
10166SOL     OW31396   0.447   1.302   1.879
10166SOL    HW131397   0.521   1.241   1.852
10166SOL    HW231398   0.462   1.334   1.972
10167SOL     OW31399   5.033   0.985   0.698
10167SOL    HW131400   5.078   0.900   0.673
10167SOL    HW231401   4.979   0.972   0.781
10168SOL     OW31402   6.700   4.866   4.610
10168SOL    HW131403   6.658   4.848   4.699
10168SOL    HW231404   6.785   4.813   4.602
10169SOL     OW31405   6.396   4.168   4.923
10169SOL    HW131406   6.463   4.210   4.862
10169SOL    HW231407   6.375   4.230   4.998
10170SOL     OW31408   1.379   3.996   5.133
10170SOL    HW131409   1.409   4.008   5.038
10170SOL    HW231410   1.431   4.057   5.193
10171SOL     OW31411   5.746   3.055   6.715
10171SOL    HW131412   5.845   3.057   6.707
10171SOL    HW231413   5.711   2.970   6.676
10172SOL     OW31414   4.693   0.754   4.103
10172SOL    HW131415   4.778   0.702   4.110
10172SOL    HW231416   4.700   0.838   4.156
10173SOL     OW31417   2.211   2.608   2.726
10173SOL    HW131418   2.271   2.660   2.788
10173SOL    HW231419   2.148   2.552   2.779
10174SOL     OW31420   6.447   4.299   0.901
10174SOL    HW131421   6.445   4.292   1.001
10174SOL    HW231422   6.357   4.276   0.864
10175SOL     OW31423   5.498   2.602   5.508
10175SOL    HW131424   5.419   2.548   5.536
10175SOL    HW231425   5.564   2.605   5.584
10176SOL     OW31426   2.256   3.332   0.529
10176SOL    HW131427   2.243   3.416   0.475
10176SOL    HW231428   2.198   3.336   0.611
10177SOL     OW31429   2.026   0.391   5.216
10177SOL    HW131430   2.124   0.408   5.206
10177SOL    HW231431   2.007   0.295   5.195
10178SOL     OW31432   5.297   2.862   5.017
10178SOL    HW131433   5.202   2.886   5.001
10178SOL    HW231434   5.352   2.883   4.936
10179SOL     OW31435   0.182   3.399   6.890
10179SOL    HW131436   0.164   3.442   6.979
10179SOL    HW231437   0.225   3.466   6.829
10180SOL     OW31438   1.856   6.806   6.100
10180SOL    HW131439   1.800   6.725   6.117
10180SOL    HW231440   1.849   6.831   6.003
10181SOL     OW31441   6.039   3.531   2.062
10181SOL    HW131442   5.986   3.510   2.144
10181SOL    HW231443   5.995   3.489   1.982
10182SOL     OW31444   4.234   1.330   0.492
10182SOL    HW131445   4.319   1.375   0.518
10182SOL    HW231446   4.174   1.395   0.447
10183SOL     OW31447   2.241   1.520   6.366
10183SOL    HW131448   2.270   1.444   6.308
10183SOL    HW231449   2.142   1.517   6.379
10184SOL     OW31450   4.734   0.802   6.949
10184SOL    HW131451   4.659   0.861   6.977
10184SOL    HW231452   4.707   0.752   6.866
10185SOL     OW31453   4.456   1.300   0.166
10185SOL    HW131454   4.527   1.327   0.231
10185SOL    HW231455   4.396   1.231   0.208
10186SOL     OW31456   5.036   2.324   3.156
10186SOL    HW131457   5.110   2.368   3.106
10186SOL    HW231458   4.955   2.318   3.099
10187SOL     OW31459   1.265   2.096   2.487
10187SOL    HW131460   1.211   2.161   2.541
10187SOL    HW231461   1.328   2.048   2.548
10188SOL     OW31462   4.209   5.396   0.371
10188SOL    HW131463   4.182   5.304   0.398
10188SOL    HW231464   4.127   5.454   0.366
10189SOL     OW31465   1.344   6.818   5.326
10189SOL    HW131466   1.371   6.834   5.421
10189SOL    HW231467   1.405   6.868   5.264
10190SOL     OW31468   5.293   2.892   6.959
10190SOL    HW131469   5.382   2.907   7.002
10190SOL    HW231470   5.257   2.803   6.989
10191SOL     OW31471   6.981   4.473   6.537
10191SOL    HW131472   0.024   4.490   6.612
10191SOL    HW231473   6.920   4.551   6.527
10192SOL     OW31474   3.576   1.661   7.005
10192SOL    HW131475   3.505   1.593   0.004
10192SOL    HW231476   3.595   1.714   0.067
10193SOL     OW31477   4.761   4.270   0.694
10193SOL    HW131478   4.705   4.195   0.658
10193SOL    HW231479   4.785   4.251   0.789
10194SOL     OW31480   4.633   2.608   4.960
10194SOL    HW131481   4.569   2.623   5.036
10194SOL    HW231482   4.702   2.542   4.988
10195SOL     OW31483   5.808   4.021   2.075
10195SOL    HW131484   5.739   4.020   2.002
10195SOL    HW231485   5.900   4.016   2.034
10196SOL     OW31486   7.003   2.198   4.287
10196SOL    HW131487   7.014   2.209   4.386
10196SOL    HW231488   6.920   2.245   4.258
10197SOL     OW31489   5.547   0.670   0.054
10197SOL    HW131490   5.484   0.679   6.999
10197SOL    HW231491   5.511   0.604   0.120
10198SOL     OW31492   4.151   6.789   3.699
10198SOL    HW131493   4.154   6.714   3.633
10198SOL    HW231494   4.230   6.784   3.759
10199SOL     OW31495   0.774   2.221   5.501
10199SOL    HW131496   0.849   2.175   5.453
10199SOL    HW231497   0.742   2.162   5.576
10200SOL     OW31498   5.105   2.190   1.874
10200SOL    HW131499   5.051   2.106   1.878
10200SOL    HW231500   5.087   2.245   1.955
10201SOL     OW31501   1.584   3.866   0.922
10201SOL    HW131502   1.606   3.911   0.836
10201SOL    HW231503   1.513   3.918   0.970
10202SOL     OW31504   5.205   0.483   3.705
10202SOL    HW131505   5.134   0.537   3.660
10202SOL    HW231506   5.167   0.396   3.735
10203SOL     OW31507   0.099   2.723   4.994
10203SOL    HW131508   0.171   2.739   4.927
10203SOL    HW231509   0.064   2.630   4.984
10204SOL     OW31510   5.670   4.655   6.312
10204SOL    HW131511   5.698   4.749   6.291
10204SOL    HW231512   5.583   4.656   6.362
10205SOL     OW31513   6.987   1.650   6.575
10205SOL    HW131514   0.056   1.687   6.550
10205SOL    HW231515   6.932   1.722   6.616
10206SOL     OW31516   1.818   1.787   4.680
10206SOL    HW131517   1.835   1.743   4.769
10206SOL    HW231518   1.895   1.768   4.619
10207SOL     OW31519   2.575   2.437   5.854
10207SOL    HW131520   2.663   2.390   5.854
10207SOL    HW231521   2.514   2.395   5.786
10208SOL     OW31522   6.957   6.767   5.858
10208SOL    HW131523   6.891   6.832   5.894
10208SOL    HW231524   0.009   6.753   5.925
10209SOL     OW31525   6.753   6.551   5.734
10209SOL    HW131526   6.819   6.613   5.776
10209SOL    HW231527   6.697   6.508   5.806
10210SOL     OW31528   3.703   0.603   1.654
10210SOL    HW131529   3.642   0.591   1.732
10210SOL    HW231530   3.786   0.649   1.684
10211SOL     OW31531   4.986   5.231   6.199
10211SOL    HW131532   5.036   5.162   6.147
10211SOL    HW231533   4.962   5.194   6.289
10212SOL     OW31534   0.324   0.716   6.911
10212SOL    HW131535   0.328   0.815   6.925
10212SOL    HW231536   0.269   0.674   6.982
10213SOL     OW31537   6.823   2.734   1.231
10213SOL    HW131538   6.800   2.790   1.151
10213SOL    HW231539   6.919   2.750   1.256
10214SOL     OW31540   1.449   2.868   6.958
10214SOL    HW131541   1.358   2.898   6.932
10214SOL    HW231542   1.495   2.829   6.878
10215SOL     OW31543   3.577   3.986   2.697
10215SOL    HW131544   3.627   4.022   2.775
10215SOL    HW231545   3.586   4.048   2.619
10216SOL     OW31546   0.279   6.590   1.937
10216SOL    HW131547   0.308   6.644   1.859
10216SOL    HW231548   0.181   6.568   1.928
10217SOL     OW31549   4.540   1.615   5.238
10217SOL    HW131550   4.462   1.669   5.270
10217SOL    HW231551   4.508   1.546   5.172
10218SOL     OW31552   1.240   2.730   2.704
10218SOL    HW131553   1.334   2.752   2.677
10218SOL    HW231554   1.177   2.785   2.651
10219SOL     OW31555   6.692   6.304   2.723
10219SOL    HW131556   6.608   6.266   2.685
10219SOL    HW231557   6.730   6.371   2.660
10220SOL     OW31558   3.409   3.216   0.075
10220SOL    HW131559   3.351   3.296   0.059
10220SOL    HW231560   3.493   3.244   0.121
10221SOL     OW31561   1.216   5.148   3.169
10221SOL    HW131562   1.267   5.175   3.251
10221SOL    HW231563   1.129   5.198   3.165
10222SOL     OW31564   3.123   3.953   3.914
10222SOL    HW131565   3.107   3.998   3.826
10222SOL    HW231566   3.188   3.878   3.902
10223SOL     OW31567   2.562   6.647   0.565
10223SOL    HW131568   2.499   6.708   0.517
10223SOL    HW231569   2.516   6.561   0.588
10224SOL     OW31570   6.795   3.375   3.087
10224SOL    HW131571   6.819   3.417   3.175
10224SOL    HW231572   6.803   3.275   3.095
10225SOL     OW31573   1.633   3.856   5.711
10225SOL    HW131574   1.580   3.910   5.646
10225SOL    HW231575   1.609   3.883   5.804
10226SOL     OW31576   4.476   4.270   0.138
10226SOL    HW131577   4.575   4.269   0.125
10226SOL    HW231578   4.452   4.336   0.209
10227SOL     OW31579   5.623   4.003   1.191
10227SOL    HW131580   5.666   3.969   1.108
10227SOL    HW231581   5.562   4.079   1.169
10228SOL     OW31582   5.454   0.487   0.763
10228SOL    HW131583   5.394   0.407   0.764
10228SOL    HW231584   5.545   0.460   0.731
10229SOL     OW31585   0.468   2.218   4.905
10229SOL    HW131586   0.429   2.169   4.827
10229SOL    HW231587   0.565   2.194   4.914
10230SOL     OW31588   6.894   6.163   1.521
10230SOL    HW131589   6.931   6.192   1.609
10230SOL    HW231590   6.825   6.092   1.535
10231SOL     OW31591   0.253   3.858   2.358
10231SOL    HW131592   0.254   3.951   2.394
10231SOL    HW231593   0.299   3.796   2.422
10232SOL     OW31594   4.447   4.866   2.559
10232SOL    HW131595   4.409   4.948   2.601
10232SOL    HW231596   4.533   4.890   2.513
10233SOL     OW31597   2.994   3.967   5.875
10233SOL    HW131598   2.973   3.990   5.780
10233SOL    HW231599   3.043   4.043   5.918
10234SOL     OW31600   0.456   0.913   2.154
10234SOL    HW131601   0.422   0.826   2.190
10234SOL    HW231602   0.432   0.987   2.217
10235SOL     OW31603   1.329   1.112   3.180
10235SOL    HW131604   1.422   1.118   3.217
10235SOL    HW231605   1.313   1.020   3.145
10236SOL     OW31606   0.317   0.571   2.911
10236SOL    HW131607   0.265   0.520   2.843
10236SOL    HW231608   0.349   0.657   2.871
10237SOL     OW31609   6.989   3.508   5.636
10237SOL    HW131610   0.032   3.432   5.637
10237SOL    HW231611   6.930   3.501   5.555
10238SOL     OW31612   2.790   6.705   0.947
10238SOL    HW131613   2.804   6.730   0.851
10238SOL    HW231614   2.878   6.704   0.995
10239SOL     OW31615   1.347   2.506   5.094
10239SOL    HW131616   1.374   2.454   5.175
10239SOL    HW231617   1.260   2.552   5.111
10240SOL     OW31618   2.325   5.877   1.319
10240SOL    HW131619   2.236   5.921   1.329
10240SOL    HW231620   2.355   5.884   1.224
10241SOL     OW31621   4.083   3.707   1.620
10241SOL    HW131622   3.998   3.672   1.582
10241SOL    HW231623   4.140   3.630   1.649
10242SOL     OW31624   0.161   3.671   1.140
10242SOL    HW131625   0.173   3.766   1.169
10242SOL    HW231626   0.067   3.642   1.155
10243SOL     OW31627   3.327   5.446   2.363
10243SOL    HW131628   3.340   5.465   2.266
10243SOL    HW231629   3.407   5.476   2.415
10244SOL     OW31630   2.686   5.024   1.581
10244SOL    HW131631   2.700   5.017   1.482
10244SOL    HW231632   2.659   4.935   1.617
10245SOL     OW31633   6.063   4.227   1.057
10245SOL    HW131634   6.109   4.245   1.144
10245SOL    HW231635   5.966   4.248   1.066
10246SOL     OW31636   3.557   3.289   3.567
10246SOL    HW131637   3.503   3.332   3.639
10246SOL    HW231638   3.497   3.269   3.489
10247SOL     OW31639   0.664   3.277   4.571
10247SOL    HW131640   0.746   3.261   4.516
10247SOL    HW231641   0.585   3.236   4.525
10248SOL     OW31642   0.494   1.637   4.942
10248SOL    HW131643   0.437   1.629   5.023
10248SOL    HW231644   0.452   1.586   4.866
10249SOL     OW31645   2.456   4.791   5.772
10249SOL    HW131646   2.552   4.764   5.767
10249SOL    HW231647   2.405   4.745   5.699
10250SOL     OW31648   3.120   3.149   0.435
10250SOL    HW131649   3.141   3.082   0.364
10250SOL    HW231650   3.034   3.195   0.413
10251SOL     OW31651   1.124   0.874   4.363
10251SOL    HW131652   1.201   0.821   4.327
10251SOL    HW231653   1.040   0.846   4.317
10252SOL     OW31654   4.913   4.576   5.925
10252SOL    HW131655   4.993   4.632   5.946
10252SOL    HW231656   4.937   4.479   5.935
10253SOL     OW31657   3.706   5.624   6.818
10253SOL    HW131658   3.616   5.661   6.795
10253SOL    HW231659   3.716   5.622   6.917
10254SOL     OW31660   6.467   1.280   6.215
10254SOL    HW131661   6.399   1.255   6.145
10254SOL    HW231662   6.428   1.265   6.305
10255SOL     OW31663   3.882   4.567   1.613
10255SOL    HW131664   3.957   4.509   1.580
10255SOL    HW231665   3.810   4.509   1.650
10256SOL     OW31666   2.941   1.436   4.570
10256SOL    HW131667   2.991   1.523   4.574
10256SOL    HW231668   2.851   1.452   4.528
10257SOL     OW31669   3.362   5.772   3.028
10257SOL    HW131670   3.362   5.673   3.013
10257SOL    HW231671   3.402   5.817   2.949
10258SOL     OW31672   2.615   1.417   2.395
10258SOL    HW131673   2.617   1.500   2.340
10258SOL    HW231674   2.632   1.338   2.337
10259SOL     OW31675   1.785   4.034   3.900
10259SOL    HW131676   1.758   3.971   3.974
10259SOL    HW231677   1.883   4.051   3.907
10260SOL     OW31678   0.741   0.379   3.261
10260SOL    HW131679   0.688   0.298   3.238
10260SOL    HW231680   0.693   0.431   3.332
10261SOL     OW31681   0.127   3.972   1.200
10261SOL    HW131682   0.145   3.971   1.101
10261SOL    HW231683   0.028   3.962   1.216
10262SOL     OW31684   3.658   0.815   6.972
10262SOL    HW131685   3.559   0.811   6.985
10262SOL    HW231686   3.687   0.740   6.912
10263SOL     OW31687   5.572   0.221   2.894
10263SOL    HW131688   5.492   0.222   2.835
10263SOL    HW231689   5.654   0.204   2.839
10264SOL     OW31690   6.385   0.398   6.143
10264SOL    HW131691   6.359   0.377   6.237
10264SOL    HW231692   6.471   0.352   6.121
10265SOL     OW31693   2.069   1.291   1.866
10265SOL    HW131694   2.093   1.386   1.884
10265SOL    HW231695   2.143   1.231   1.899
10266SOL     OW31696   2.754   3.642   1.310
10266SOL    HW131697   2.844   3.646   1.266
10266SOL    HW231698   2.743   3.555   1.357
10267SOL     OW31699   6.642   0.279   0.873
10267SOL    HW131700   6.600   0.241   0.791
10267SOL    HW231701   6.578   0.273   0.950
10268SOL     OW31702   2.862   5.576   2.370
10268SOL    HW131703   2.831   5.646   2.306
10268SOL    HW231704   2.947   5.535   2.336
10269SOL     OW31705   2.304   1.384   6.938
10269SOL    HW131706   2.262   1.381   6.848
10269SOL    HW231707   2.375   1.314   6.944
10270SOL     OW31708   2.647   0.330   3.932
10270SOL    HW131709   2.731   0.366   3.891
10270SOL    HW231710   2.672   0.268   4.007
10271SOL     OW31711   1.965   1.001   6.928
10271SOL    HW131712   1.990   1.097   6.936
10271SOL    HW231713   1.956   0.960   7.019
10272SOL     OW31714   5.919   6.340   4.822
10272SOL    HW131715   5.887   6.314   4.913
10272SOL    HW231716   5.874   6.425   4.793
10273SOL     OW31717   1.822   5.559   3.175
10273SOL    HW131718   1.824   5.459   3.173
10273SOL    HW231719   1.914   5.594   3.158
10274SOL     OW31720   0.963   3.714   5.305
10274SOL    HW131721   0.900   3.678   5.236
10274SOL    HW231722   1.043   3.752   5.259
10275SOL     OW31723   6.905   1.097   2.009
10275SOL    HW131724   6.975   1.168   1.999
10275SOL    HW231725   6.898   1.070   2.105
10276SOL     OW31726   3.291   5.022   5.295
10276SOL    HW131727   3.287   5.088   5.370
10276SOL    HW231728   3.205   5.023   5.245
10277SOL     OW31729   1.163   5.181   3.680
10277SOL    HW131730   1.145   5.090   3.718
10277SOL    HW231731   1.077   5.232   3.674
10278SOL     OW31732   6.404   0.104   4.606
10278SOL    HW131733   6.456   0.073   4.686
10278SOL    HW231734   6.467   0.119   4.530
10279SOL     OW31735   1.364   4.714   4.065
10279SOL    HW131736   1.294   4.687   4.000
10279SOL    HW231737   1.322   4.757   4.144
10280SOL     OW31738   5.844   5.573   0.610
10280SOL    HW131739   5.877   5.516   0.685
10280SOL    HW231740   5.758   5.536   0.575
10281SOL     OW31741   6.188   0.272   4.598
10281SOL    HW131742   6.251   0.323   4.540
10281SOL    HW231743   6.234   0.191   4.634
10282SOL     OW31744   4.605   2.537   3.331
10282SOL    HW131745   4.630   2.441   3.345
10282SOL    HW231746   4.617   2.588   3.416
10283SOL     OW31747   0.312   2.202   1.140
10283SOL    HW131748   0.397   2.254   1.135
10283SOL    HW231749   0.281   2.180   1.047
10284SOL     OW31750   0.711   5.156   4.591
10284SOL    HW131751   0.707   5.253   4.568
10284SOL    HW231752   0.785   5.112   4.538
10285SOL     OW31753   0.204   6.827   6.563
10285SOL    HW131754   0.105   6.832   6.547
10285SOL    HW231755   0.224   6.855   6.657
10286SOL     OW31756   2.724   0.933   2.491
10286SOL    HW131757   2.805   0.893   2.449
10286SOL    HW231758   2.648   0.930   2.426
10287SOL     OW31759   0.690   5.898   2.652
10287SOL    HW131760   0.731   5.984   2.622
10287SOL    HW231761   0.631   5.915   2.731
10288SOL     OW31762   3.677   5.806   3.945
10288SOL    HW131763   3.578   5.819   3.935
10288SOL    HW231764   3.710   5.746   3.872
10289SOL     OW31765   3.915   6.080   6.911
10289SOL    HW131766   4.003   6.127   6.906
10289SOL    HW231767   3.920   5.995   6.859
10290SOL     OW31768   2.860   3.525   2.606
10290SOL    HW131769   2.872   3.549   2.509
10290SOL    HW231770   2.943   3.549   2.656
10291SOL     OW31771   3.002   1.850   2.331
10291SOL    HW131772   3.082   1.833   2.389
10291SOL    HW231773   3.002   1.945   2.301
10292SOL     OW31774   0.052   0.238   6.033
10292SOL    HW131775   0.124   0.168   6.036
10292SOL    HW231776   0.089   0.326   6.063
10293SOL     OW31777   1.188   3.477   5.075
10293SOL    HW131778   1.124   3.548   5.047
10293SOL    HW231779   1.162   3.443   5.166
10294SOL     OW31780   1.930   6.880   2.185
10294SOL    HW131781   1.957   6.957   2.127
10294SOL    HW231782   1.830   6.878   2.192
10295SOL     OW31783   1.559   1.233   0.632
10295SOL    HW131784   1.571   1.202   0.726
10295SOL    HW231785   1.642   1.215   0.579
10296SOL     OW31786   6.326   2.258   5.457
10296SOL    HW131787   6.276   2.269   5.371
10296SOL    HW231788   6.332   2.346   5.504
10297SOL     OW31789   4.635   0.699   1.027
10297SOL    HW131790   4.659   0.619   0.971
10297SOL    HW231791   4.673   0.781   0.985
10298SOL     OW31792   1.311   1.898   1.659
10298SOL    HW131793   1.233   1.950   1.624
10298SOL    HW231794   1.300   1.801   1.636
10299SOL     OW31795   4.869   0.305   2.541
10299SOL    HW131796   4.815   0.369   2.596
10299SOL    HW231797   4.859   0.327   2.444
10300SOL     OW31798   1.441   3.065   0.827
10300SOL    HW131799   1.375   3.039   0.898
10300SOL    HW231800   1.532   3.072   0.868
10301SOL     OW31801   4.003   1.046   0.301
10301SOL    HW131802   4.090   1.082   0.266
10301SOL    HW231803   3.928   1.078   0.244
10302SOL     OW31804   3.362   6.237   5.629
10302SOL    HW131805   3.308   6.302   5.576
10302SOL    HW231806   3.305   6.198   5.701
10303SOL     OW31807   0.509   4.276   4.769
10303SOL    HW131808   0.433   4.283   4.833
10303SOL    HW231809   0.550   4.366   4.755
10304SOL     OW31810   5.437   6.373   1.267
10304SOL    HW131811   5.408   6.420   1.351
10304SOL    HW231812   5.536   6.379   1.257
10305SOL     OW31813   2.825   3.694   5.318
10305SOL    HW131814   2.910   3.734   5.285
10305SOL    HW231815   2.816   3.600   5.283
10306SOL     OW31816   4.407   0.952   0.958
10306SOL    HW131817   4.343   1.016   1.001
10306SOL    HW231818   4.499   0.967   0.994
10307SOL     OW31819   1.954   0.131   5.115
10307SOL    HW131820   1.963   0.032   5.108
10307SOL    HW231821   1.916   0.167   5.029
10308SOL     OW31822   2.984   4.422   1.651
10308SOL    HW131823   3.038   4.347   1.687
10308SOL    HW231824   2.963   4.487   1.724
10309SOL     OW31825   0.153   1.061   5.451
10309SOL    HW131826   0.139   1.153   5.487
10309SOL    HW231827   0.212   1.009   5.512
10310SOL     OW31828   3.407   3.995   5.966
10310SOL    HW131829   3.484   3.977   5.904
10310SOL    HW231830   3.434   4.060   6.036
10311SOL     OW31831   5.768   6.081   0.010
10311SOL    HW131832   5.805   6.168   0.043
10311SOL    HW231833   5.835   6.037   6.971
10312SOL     OW31834   2.909   6.726   2.245
10312SOL    HW131835   2.836   6.713   2.178
10312SOL    HW231836   2.915   6.645   2.303
10313SOL     OW31837   5.030   6.706   2.829
10313SOL    HW131838   5.116   6.719   2.878
10313SOL    HW231839   5.049   6.676   2.735
10314SOL     OW31840   1.017   7.021   0.814
10314SOL    HW131841   0.999   6.975   0.727
10314SOL    HW231842   1.020   6.953   0.887
10315SOL     OW31843   4.817   4.593   3.845
10315SOL    HW131844   4.773   4.536   3.914
10315SOL    HW231845   4.799   4.690   3.865
10316SOL     OW31846   0.745   1.694   0.203
10316SOL    HW131847   0.815   1.686   0.273
10316SOL    HW231848   0.763   1.775   0.147
10317SOL     OW31849   3.914   6.213   4.883
10317SOL    HW131850   3.814   6.213   4.881
10317SOL    HW231851   3.948   6.135   4.830
10318SOL     OW31852   6.105   0.047   0.219
10318SOL    HW131853   6.182   0.028   0.159
10318SOL    HW231854   6.055   6.983   0.238
10319SOL     OW31855   0.615   4.243   4.167
10319SOL    HW131856   0.536   4.253   4.227
10319SOL    HW231857   0.618   4.320   4.102
10320SOL     OW31858   6.664   0.317   2.701
10320SOL    HW131859   6.574   0.315   2.744
10320SOL    HW231860   6.662   0.376   2.621
10321SOL     OW31861   5.963   2.613   2.927
10321SOL    HW131862   5.873   2.655   2.938
10321SOL    HW231863   5.969   2.532   2.986
10322SOL     OW31864   4.638   4.327   4.729
10322SOL    HW131865   4.699   4.249   4.740
10322SOL    HW231866   4.565   4.304   4.664
10323SOL     OW31867   1.380   4.575   6.026
10323SOL    HW131868   1.436   4.648   6.064
10323SOL    HW231869   1.428   4.487   6.035
10324SOL     OW31870   2.936   3.259   3.017
10324SOL    HW131871   2.879   3.337   3.045
10324SOL    HW231872   2.941   3.256   2.917
10325SOL     OW31873   5.611   6.090   5.021
10325SOL    HW131874   5.546   6.101   4.946
10325SOL    HW231875   5.609   5.996   5.054
10326SOL     OW31876   5.631   3.140   6.970
10326SOL    HW131877   5.672   3.170   6.884
10326SOL    HW231878   5.543   3.187   6.984
10327SOL     OW31879   1.693   5.978   6.458
10327SOL    HW131880   1.724   6.024   6.541
10327SOL    HW231881   1.764   5.984   6.388
10328SOL     OW31882   5.727   2.451   2.204
10328SOL    HW131883   5.660   2.408   2.143
10328SOL    HW231884   5.682   2.479   2.289
10329SOL     OW31885   3.502   1.881   2.050
10329SOL    HW131886   3.455   1.958   2.007
10329SOL    HW231887   3.484   1.798   1.999
10330SOL     OW31888   5.295   7.002   2.060
10330SOL    HW131889   5.252   0.069   2.079
10330SOL    HW231890   5.370   7.015   1.994
10331SOL     OW31891   5.137   5.379   5.842
10331SOL    HW131892   5.130   5.465   5.791
10331SOL    HW231893   5.085   5.308   5.795
10332SOL     OW31894   1.937   1.670   6.341
10332SOL    HW131895   1.842   1.649   6.361
10332SOL    HW231896   1.943   1.720   6.254
10333SOL     OW31897   1.299   3.623   4.507
10333SOL    HW131898   1.295   3.539   4.560
10333SOL    HW231899   1.393   3.658   4.506
10334SOL     OW31900   3.342   1.561   4.051
10334SOL    HW131901   3.365   1.466   4.032
10334SOL    HW231902   3.248   1.580   4.020
10335SOL     OW31903   1.890   2.969   4.947
10335SOL    HW131904   1.986   2.994   4.933
10335SOL    HW231905   1.849   3.031   5.014
10336SOL     OW31906   5.682   6.768   3.564
10336SOL    HW131907   5.747   6.703   3.525
10336SOL    HW231908   5.651   6.735   3.653
10337SOL     OW31909   6.326   5.950   0.148
10337SOL    HW131910   6.272   5.984   0.225
10337SOL    HW231911   6.393   5.884   0.180
10338SOL     OW31912   1.156   6.770   1.936
10338SOL    HW131913   1.235   6.736   1.885
10338SOL    HW231914   1.107   6.692   1.977
10339SOL     OW31915   5.543   2.485   5.791
10339SOL    HW131916   5.463   2.462   5.735
10339SOL    HW231917   5.617   2.421   5.771
10340SOL     OW31918   2.293   4.062   6.377
10340SOL    HW131919   2.201   4.100   6.386
10340SOL    HW231920   2.323   4.072   6.282
10341SOL     OW31921   2.674   4.700   3.394
10341SOL    HW131922   2.619   4.685   3.312
10341SOL    HW231923   2.705   4.612   3.430
10342SOL     OW31924   0.476   1.157   3.840
10342SOL    HW131925   0.392   1.148   3.786
10342SOL    HW231926   0.467   1.105   3.925
10343SOL     OW31927   3.932   5.381   1.803
10343SOL    HW131928   4.026   5.349   1.815
10343SOL    HW231929   3.916   5.403   1.707
10344SOL     OW31930   4.890   7.021   6.370
10344SOL    HW131931   4.816   6.964   6.336
10344SOL    HW231932   4.945   6.969   6.435
10345SOL     OW31933   1.363   4.037   4.837
10345SOL    HW131934   1.375   4.107   4.767
10345SOL    HW231935   1.359   3.947   4.794
10346SOL     OW31936   0.337   5.847   7.016
10346SOL    HW131937   0.239   5.836   7.000
10346SOL    HW231938   0.359   5.944   0.004
10347SOL     OW31939   5.691   2.022   5.017
10347SOL    HW131940   5.709   2.113   5.055
10347SOL    HW231941   5.744   1.954   5.068
10348SOL     OW31942   0.217   4.948   1.085
10348SOL    HW131943   0.140   4.888   1.107
10348SOL    HW231944   0.186   5.022   1.025
10349SOL     OW31945   6.969   6.777   6.549
10349SOL    HW131946   6.881   6.823   6.534
10349SOL    HW231947   6.954   6.691   6.598
10350SOL     OW31948   3.681   0.402   6.094
10350SOL    HW131949   3.587   0.413   6.062
10350SOL    HW231950   3.684   0.332   6.165
10351SOL     OW31951   4.374   5.417   6.046
10351SOL    HW131952   4.335   5.505   6.072
10351SOL    HW231953   4.464   5.407   6.088
10352SOL     OW31954   4.388   4.550   6.317
10352SOL    HW131955   4.298   4.506   6.315
10352SOL    HW231956   4.408   4.588   6.227
10353SOL     OW31957   0.564   3.438   5.188
10353SOL    HW131958   0.473   3.477   5.202
10353SOL    HW231959   0.558   3.358   5.129
10354SOL     OW31960   5.563   1.953   0.809
10354SOL    HW131961   5.554   2.031   0.871
10354SOL    HW231962   5.524   1.872   0.852
10355SOL     OW31963   1.354   4.331   3.450
10355SOL    HW131964   1.344   4.393   3.372
10355SOL    HW231965   1.433   4.358   3.505
10356SOL     OW31966   0.428   2.483   5.000
10356SOL    HW131967   0.502   2.491   5.066
10356SOL    HW231968   0.422   2.389   4.967
10357SOL     OW31969   3.071   3.169   6.340
10357SOL    HW131970   3.002   3.239   6.319
10357SOL    HW231971   3.026   3.084   6.365
10358SOL     OW31972   0.305   0.713   2.308
10358SOL    HW131973   0.261   0.624   2.305
10358SOL    HW231974   0.375   0.713   2.380
10359SOL     OW31975   0.495   1.484   0.874
10359SOL    HW131976   0.426   1.472   0.945
10359SOL    HW231977   0.583   1.508   0.916
10360SOL     OW31978   0.000   4.613   3.661
10360SOL    HW131979   6.987   4.559   3.739
10360SOL    HW231980   7.005   4.710   3.679
10361SOL     OW31981   2.631   5.197   0.617
10361SOL    HW131982   2.652   5.292   0.640
10361SOL    HW231983   2.649   5.139   0.697
10362SOL     OW31984   1.205   4.581   5.111
10362SOL    HW131985   1.184   4.645   5.038
10362SOL    HW231986   1.232   4.493   5.072
10363SOL     OW31987   5.561   6.864   3.929
10363SOL    HW131988   5.641   6.903   3.883
10363SOL    HW231989   5.534   6.779   3.883
10364SOL     OW31990   1.209   4.432   1.041
10364SOL    HW131991   1.264   4.429   0.958
10364SOL    HW231992   1.123   4.480   1.023
10365SOL     OW31993   5.321   5.164   0.199
10365SOL    HW131994   5.345   5.118   0.284
10365SOL    HW231995   5.278   5.099   0.136
10366SOL     OW31996   4.110   6.476   4.122
10366SOL    HW131997   4.156   6.562   4.145
10366SOL    HW231998   4.144   6.442   4.035
10367SOL     OW31999   6.592   1.115   2.822
10367SOL    HW132000   6.554   1.067   2.743
10367SOL    HW232001   6.523   1.175   2.862
10368SOL     OW32002   2.336   0.196   1.078
10368SOL    HW132003   2.273   0.200   1.000
10368SOL    HW232004   2.309   0.121   1.138
10369SOL     OW32005   4.135   2.670   6.542
10369SOL    HW132006   4.067   2.718   6.486
10369SOL    HW232007   4.221   2.722   6.541
10370SOL     OW32008   3.358   0.811   5.556
10370SOL    HW132009   3.375   0.821   5.458
10370SOL    HW232010   3.383   0.719   5.585
10371SOL     OW32011   4.700   6.877   5.369
10371SOL    HW132012   4.645   6.961   5.366
10371SOL    HW232013   4.737   6.858   5.278
10372SOL     OW32014   0.597   0.752   3.713
10372SOL    HW132015   0.543   0.727   3.794
10372SOL    HW232016   0.682   0.699   3.713
10373SOL     OW32017   1.457   5.845   5.101
10373SOL    HW132018   1.520   5.786   5.051
10373SOL    HW232019   1.413   5.794   5.174
10374SOL     OW32020   3.255   1.681   3.491
10374SOL    HW132021   3.315   1.746   3.538
10374SOL    HW232022   3.166   1.723   3.474
10375SOL     OW32023   0.260   1.836   1.359
10375SOL    HW132024   0.338   1.796   1.311
10375SOL    HW232025   0.233   1.776   1.434
10376SOL     OW32026   6.042   0.134   3.970
10376SOL    HW132027   6.125   0.184   3.946
10376SOL    HW232028   6.009   0.083   3.890
10377SOL     OW32029   7.005   6.320   3.656
10377SOL    HW132030   6.971   6.383   3.586
10377SOL    HW232031   0.082   6.337   3.670
10378SOL     OW32032   6.189   6.329   5.702
10378SOL    HW132033   6.217   6.360   5.611
10378SOL    HW232034   6.271   6.312   5.757
10379SOL     OW32035   4.088   1.703   4.263
10379SOL    HW132036   4.159   1.635   4.280
10379SOL    HW232037   4.050   1.734   4.350
10380SOL     OW32038   3.534   0.525   4.122
10380SOL    HW132039   3.579   0.557   4.039
10380SOL    HW232040   3.534   0.425   4.123
10381SOL     OW32041   3.601   5.284   4.400
10381SOL    HW132042   3.618   5.307   4.496
10381SOL    HW232043   3.517   5.229   4.394
10382SOL     OW32044   0.431   5.845   1.021
10382SOL    HW132045   0.336   5.848   1.053
10382SOL    HW232046   0.446   5.760   0.970
10383SOL     OW32047   5.523   2.993   0.780
10383SOL    HW132048   5.588   2.956   0.713
10383SOL    HW232049   5.543   2.954   0.870
10384SOL     OW32050   5.858   1.000   6.473
10384SOL    HW132051   5.834   1.097   6.462
10384SOL    HW232052   5.846   0.973   6.568
10385SOL     OW32053   0.376   2.932   6.649
10385SOL    HW132054   0.462   2.895   6.615
10385SOL    HW232055   0.394   3.017   6.700
10386SOL     OW32056   6.984   2.063   6.001
10386SOL    HW132057   6.936   2.151   5.989
10386SOL    HW232058   6.920   1.995   6.035
10387SOL     OW32059   1.711   3.929   2.783
10387SOL    HW132060   1.634   3.877   2.819
10387SOL    HW232061   1.721   3.911   2.685
10388SOL     OW32062   1.565   4.546   2.314
10388SOL    HW132063   1.623   4.543   2.394
10388SOL    HW232064   1.478   4.591   2.337
10389SOL     OW32065   0.969   5.374   3.664
10389SOL    HW132066   0.943   5.470   3.654
10389SOL    HW232067   0.904   5.327   3.723
10390SOL     OW32068   2.109   3.473   3.197
10390SOL    HW132069   2.139   3.382   3.168
10390SOL    HW232070   2.094   3.474   3.296
10391SOL     OW32071   3.909   5.804   4.131
10391SOL    HW132072   3.817   5.810   4.092
10391SOL    HW232073   3.921   5.875   4.201
10392SOL     OW32074   6.469   5.438   6.311
10392SOL    HW132075   6.468   5.475   6.404
10392SOL    HW232076   6.531   5.360   6.307
10393SOL     OW32077   0.426   1.687   4.507
10393SOL    HW132078   0.465   1.616   4.449
10393SOL    HW232079   0.478   1.772   4.495
10394SOL     OW32080   2.849   0.420   0.765
10394SOL    HW132081   2.923   0.355   0.781
10394SOL    HW232082   2.761   0.373   0.771
10395SOL     OW32083   1.415   0.736   4.082
10395SOL    HW132084   1.449   0.803   4.148
10395SOL    HW232085   1.324   0.706   4.110
10396SOL     OW32086   0.388   7.014   4.826
10396SOL    HW132087   0.310   0.033   4.875
10396SOL    HW232088   0.450   6.971   4.892
10397SOL     OW32089   4.315   2.372   2.459
10397SOL    HW132090   4.318   2.294   2.396
10397SOL    HW232091   4.249   2.353   2.532
10398SOL     OW32092   6.925   2.864   2.242
10398SOL    HW132093   6.928   2.772   2.279
10398SOL    HW232094   7.005   2.915   2.274
10399SOL     OW32095   6.590   3.169   5.970
10399SOL    HW132096   6.627   3.156   5.878
10399SOL    HW232097   6.599   3.265   5.997
10400SOL     OW32098   1.818   5.194   2.473
10400SOL    HW132099   1.809   5.237   2.383
10400SOL    HW232100   1.851   5.261   2.539
10401SOL     OW32101   1.449   5.691   1.235
10401SOL    HW132102   1.370   5.630   1.244
10401SOL    HW232103   1.440   5.766   1.301
10402SOL     OW32104   1.261   2.117   4.878
10402SOL    HW132105   1.274   2.077   4.787
10402SOL    HW232106   1.212   2.053   4.937
10403SOL     OW32107   5.245   1.297   3.201
10403SOL    HW132108   5.267   1.316   3.296
10403SOL    HW232109   5.200   1.208   3.194
10404SOL     OW32110   6.358   0.161   4.164
10404SOL    HW132111   6.409   0.128   4.084
10404SOL    HW232112   6.276   0.105   4.176
10405SOL     OW32113   3.181   6.957   6.551
10405SOL    HW132114   3.241   6.931   6.476
10405SOL    HW232115   3.235   6.968   6.634
10406SOL     OW32116   1.295   6.265   5.240
10406SOL    HW132117   1.288   6.200   5.316
10406SOL    HW232118   1.255   6.353   5.267
10407SOL     OW32119   2.984   0.886   6.679
10407SOL    HW132120   2.987   0.800   6.627
10407SOL    HW232121   3.051   0.950   6.642
10408SOL     OW32122   3.698   6.938   3.046
10408SOL    HW132123   3.606   6.948   3.084
10408SOL    HW232124   3.765   6.970   3.114
10409SOL     OW32125   0.190   5.076   2.593
10409SOL    HW132126   0.176   5.156   2.535
10409SOL    HW232127   0.287   5.068   2.616
10410SOL     OW32128   5.320   5.838   0.798
10410SOL    HW132129   5.320   5.763   0.864
10410SOL    HW232130   5.233   5.888   0.804
10411SOL     OW32131   2.315   5.092   2.132
10411SOL    HW132132   2.331   5.047   2.044
10411SOL    HW232133   2.220   5.080   2.159
10412SOL     OW32134   0.640   3.199   6.688
10412SOL    HW132135   0.570   3.183   6.757
10412SOL    HW232136   0.607   3.167   6.599
10413SOL     OW32137   6.775   1.309   4.403
10413SOL    HW132138   6.760   1.394   4.454
10413SOL    HW232139   6.786   1.234   4.467
10414SOL     OW32140   5.769   6.238   5.410
10414SOL    HW132141   5.841   6.188   5.458
10414SOL    HW232142   5.701   6.269   5.476
10415SOL     OW32143   0.118   4.594   3.418
10415SOL    HW132144   0.077   4.606   3.509
10415SOL    HW232145   0.070   4.522   3.369
10416SOL     OW32146   5.110   0.748   0.301
10416SOL    HW132147   5.100   0.659   0.345
10416SOL    HW232148   5.176   0.803   0.353
10417SOL     OW32149   4.911   4.462   4.626
10417SOL    HW132150   5.005   4.448   4.657
10417SOL    HW232151   4.906   4.445   4.527
10418SOL     OW32152   6.164   3.213   0.561
10418SOL    HW132153   6.083   3.222   0.503
10418SOL    HW232154   6.165   3.288   0.628
10419SOL     OW32155   1.113   6.996   5.059
10419SOL    HW132156   1.021   6.968   5.032
10419SOL    HW232157   1.139   0.058   5.010
10420SOL     OW32158   6.401   4.079   4.094
10420SOL    HW132159   6.304   4.091   4.117
10420SOL    HW232160   6.439   4.005   4.149
10421SOL     OW32161   0.178   3.696   4.425
10421SOL    HW132162   0.094   3.708   4.478
10421SOL    HW232163   0.158   3.708   4.328
10422SOL     OW32164   5.831   3.183   5.343
10422SOL    HW132165   5.912   3.129   5.320
10422SOL    HW232166   5.820   3.186   5.443
10423SOL     OW32167   2.372   5.824   2.129
10423SOL    HW132168   2.349   5.794   2.221
10423SOL    HW232169   2.291   5.862   2.084
10424SOL     OW32170   4.791   1.046   1.834
10424SOL    HW132171   4.855   1.029   1.909
10424SOL    HW232172   4.729   1.120   1.859
10425SOL     OW32173   0.576   4.421   0.535
10425SOL    HW132174   0.673   4.443   0.528
10425SOL    HW232175   0.550   4.360   0.460
10426SOL     OW32176   6.487   1.999   6.946
10426SOL    HW132177   6.509   1.943   0.005
10426SOL    HW232178   6.472   2.093   6.975
10427SOL     OW32179   5.978   0.368   4.275
10427SOL    HW132180   6.066   0.412   4.258
10427SOL    HW232181   5.932   0.350   4.188
10428SOL     OW32182   1.700   0.433   4.666
10428SOL    HW132183   1.641   0.456   4.743
10428SOL    HW232184   1.740   0.342   4.681
10429SOL     OW32185   2.067   4.718   1.644
10429SOL    HW132186   2.104   4.694   1.734
10429SOL    HW232187   2.097   4.810   1.618
10430SOL     OW32188   3.360   0.828   3.974
10430SOL    HW132189   3.389   0.877   4.056
10430SOL    HW232190   3.306   0.748   4.001
10431SOL     OW32191   4.326   2.403   3.715
10431SOL    HW132192   4.418   2.442   3.713
10431SOL    HW232193   4.259   2.474   3.692
10432SOL     OW32194   0.992   4.589   1.008
10432SOL    HW132195   0.924   4.594   0.935
10432SOL    HW232196   0.952   4.543   1.088
10433SOL     OW32197   3.492   6.445   4.588
10433SOL    HW132198   3.573   6.417   4.641
10433SOL    HW232199   3.443   6.363   4.557
10434SOL     OW32200   4.453   1.829   0.333
10434SOL    HW132201   4.427   1.742   0.292
10434SOL    HW232202   4.508   1.812   0.415
10435SOL     OW32203   2.385   1.565   1.741
10435SOL    HW132204   2.357   1.547   1.647
10435SOL    HW232205   2.303   1.573   1.799
10436SOL     OW32206   1.240   3.951   5.855
10436SOL    HW132207   1.222   4.038   5.810
10436SOL    HW232208   1.153   3.901   5.866
10437SOL     OW32209   0.036   6.815   4.863
10437SOL    HW132210   6.977   6.839   4.917
10437SOL    HW232211   0.032   6.718   4.840
10438SOL     OW32212   0.066   5.828   6.888
10438SOL    HW132213   0.024   5.888   6.820
10438SOL    HW232214   0.087   5.740   6.846
10439SOL     OW32215   5.951   5.410   5.098
10439SOL    HW132216   5.927   5.413   5.001
10439SOL    HW232217   6.041   5.369   5.110
10440SOL     OW32218   6.383   2.506   1.451
10440SOL    HW132219   6.290   2.543   1.443
10440SOL    HW232220   6.443   2.554   1.387
10441SOL     OW32221   4.966   1.591   6.110
10441SOL    HW132222   5.065   1.588   6.098
10441SOL    HW232223   4.941   1.672   6.165
10442SOL     OW32224   2.058   0.642   5.660
10442SOL    HW132225   2.039   0.586   5.741
10442SOL    HW232226   2.141   0.609   5.615
10443SOL     OW32227   0.586   0.790   0.178
10443SOL    HW132228   0.605   0.813   0.273
10443SOL    HW232229   0.558   0.873   0.128
10444SOL     OW32230   4.509   5.394   3.846
10444SOL    HW132231   4.479   5.302   3.822
10444SOL    HW232232   4.490   5.412   3.942
10445SOL     OW32233   1.534   3.484   3.876
10445SOL    HW132234   1.436   3.495   3.858
10445SOL    HW232235   1.585   3.499   3.791
10446SOL     OW32236   2.928   4.807   4.737
10446SOL    HW132237   2.866   4.772   4.667
10446SOL    HW232238   2.915   4.755   4.822
10447SOL     OW32239   1.616   2.170   2.663
10447SOL    HW132240   1.692   2.185   2.727
10447SOL    HW232241   1.575   2.258   2.640
10448SOL     OW32242   0.763   4.898   2.657
10448SOL    HW132243   0.750   4.976   2.718
10448SOL    HW232244   0.840   4.842   2.689
10449SOL     OW32245   3.693   4.938   4.266
10449SOL    HW132246   3.737   5.026   4.287
10449SOL    HW232247   3.689   4.883   4.349
10450SOL     OW32248   0.427   2.084   4.687
10450SOL    HW132249   0.336   2.083   4.646
10450SOL    HW232250   0.488   2.024   4.635
10451SOL     OW32251   2.140   1.622   4.658
10451SOL    HW132252   2.233   1.621   4.624
10451SOL    HW232253   2.076   1.628   4.582
10452SOL     OW32254   6.796   2.566   4.534
10452SOL    HW132255   6.774   2.561   4.436
10452SOL    HW232256   6.725   2.617   4.582
10453SOL     OW32257   3.063   5.801   4.296
10453SOL    HW132258   3.135   5.827   4.360
10453SOL    HW232259   3.099   5.735   4.231
10454SOL     OW32260   6.655   1.479   6.925
10454SOL    HW132261   6.749   1.489   6.892
10454SOL    HW232262   6.652   1.409   6.996
10455SOL     OW32263   0.920   5.773   2.546
10455SOL    HW132264   0.938   5.820   2.459
10455SOL    HW232265   0.835   5.807   2.585
10456SOL     OW32266   1.068   5.682   6.000
10456SOL    HW132267   0.987   5.651   5.950
10456SOL    HW232268   1.101   5.608   6.059
10457SOL     OW32269   4.151   1.400   1.042
10457SOL    HW132270   4.234   1.437   1.001
10457SOL    HW232271   4.078   1.468   1.035
10458SOL     OW32272   1.578   6.932   0.126
10458SOL    HW132273   1.542   0.004   0.127
10458SOL    HW232274   1.529   6.876   0.193
10459SOL     OW32275   5.063   6.211   0.970
10459SOL    HW132276   5.133   6.217   0.899
10459SOL    HW232277   5.093   6.262   1.051
10460SOL     OW32278   6.390   0.864   6.212
10460SOL    HW132279   6.459   0.841   6.281
10460SOL    HW232280   6.300   0.869   6.256
10461SOL     OW32281   6.736   3.938   5.766
10461SOL    HW132282   6.705   4.027   5.799
10461SOL    HW232283   6.834   3.929   5.780
10462SOL     OW32284   4.375   3.760   0.106
10462SOL    HW132285   4.427   3.840   0.137
10462SOL    HW232286   4.335   3.779   0.016
10463SOL     OW32287   4.805   2.419   5.076
10463SOL    HW132288   4.881   2.384   5.021
10463SOL    HW232289   4.839   2.487   5.141
10464SOL     OW32290   6.359   4.648   2.037
10464SOL    HW132291   6.440   4.660   1.980
10464SOL    HW232292   6.298   4.580   1.995
10465SOL     OW32293   5.369   4.351   1.114
10465SOL    HW132294   5.294   4.311   1.062
10465SOL    HW232295   5.381   4.447   1.087
10466SOL     OW32296   6.063   3.827   5.481
10466SOL    HW132297   6.081   3.757   5.551
10466SOL    HW232298   6.089   3.792   5.391
10467SOL     OW32299   0.442   3.548   0.125
10467SOL    HW132300   0.447   3.515   0.219
10467SOL    HW232301   0.534   3.556   0.087
10468SOL     OW32302   1.544   4.199   3.830
10468SOL    HW132303   1.620   4.155   3.880
10468SOL    HW232304   1.475   4.230   3.895
10469SOL     OW32305   0.879   0.834   4.219
10469SOL    HW132306   0.841   0.775   4.289
10469SOL    HW232307   0.905   0.780   4.139
10470SOL     OW32308   2.548   3.902   1.567
10470SOL    HW132309   2.574   3.837   1.638
10470SOL    HW232310   2.450   3.921   1.572
10471SOL     OW32311   2.365   4.492   5.811
10471SOL    HW132312   2.333   4.547   5.889
10471SOL    HW232313   2.448   4.443   5.837
10472SOL     OW32314   3.887   5.199   5.903
10472SOL    HW132315   3.972   5.248   5.887
10472SOL    HW232316   3.831   5.249   5.969
10473SOL     OW32317   6.097   5.685   0.225
10473SOL    HW132318   6.132   5.754   0.288
10473SOL    HW232319   6.132   5.595   0.251
10474SOL     OW32320   6.273   5.870   5.134
10474SOL    HW132321   6.252   5.924   5.052
10474SOL    HW232322   6.206   5.797   5.144
10475SOL     OW32323   0.329   5.816   1.608
10475SOL    HW132324   0.388   5.803   1.688
10475SOL    HW232325   0.254   5.879   1.631
10476SOL     OW32326   4.942   6.550   1.562
10476SOL    HW132327   4.883   6.578   1.486
10476SOL    HW232328   4.927   6.611   1.640
10477SOL     OW32329   6.957   5.672   3.730
10477SOL    HW132330   6.895   5.659   3.652
10477SOL    HW232331   0.031   5.667   3.699
10478SOL     OW32332   6.727   0.640   7.001
10478SOL    HW132333   6.741   0.595   0.068
10478SOL    HW232334   6.667   0.584   6.944
10479SOL     OW32335   6.961   3.938   2.884
10479SOL    HW132336   6.897   3.872   2.923
10479SOL    HW232337   7.004   3.899   2.803
10480SOL     OW32338   2.364   1.013   2.939
10480SOL    HW132339   2.283   0.959   2.965
10480SOL    HW232340   2.435   1.002   3.008
10481SOL     OW32341   6.501   0.892   1.606
10481SOL    HW132342   6.462   0.860   1.692
10481SOL    HW232343   6.436   0.951   1.559
10482SOL     OW32344   4.831   4.036   4.199
10482SOL    HW132345   4.911   4.095   4.188
10482SOL    HW232346   4.845   3.976   4.278
10483SOL     OW32347   5.888   0.554   6.806
10483SOL    HW132348   5.827   0.487   6.848
10483SOL    HW232349   5.839   0.604   6.735
10484SOL     OW32350   6.309   0.379   1.891
10484SOL    HW132351   6.265   0.406   1.976
10484SOL    HW232352   6.323   0.460   1.834
10485SOL     OW32353   5.481   3.263   6.068
10485SOL    HW132354   5.574   3.285   6.039
10485SOL    HW232355   5.425   3.241   5.989
10486SOL     OW32356   5.827   3.171   2.339
10486SOL    HW132357   5.812   3.072   2.335
10486SOL    HW232358   5.904   3.191   2.399
10487SOL     OW32359   3.548   6.541   2.718
10487SOL    HW132360   3.617   6.469   2.715
10487SOL    HW232361   3.471   6.512   2.774
10488SOL     OW32362   4.039   4.261   6.708
10488SOL    HW132363   4.046   4.183   6.771
10488SOL    HW232364   4.003   4.230   6.620
10489SOL     OW32365   2.113   5.307   5.351
10489SOL    HW132366   2.032   5.287   5.406
10489SOL    HW232367   2.099   5.273   5.259
10490SOL     OW32368   6.348   6.792   4.681
10490SOL    HW132369   6.289   6.846   4.621
10490SOL    HW232370   6.291   6.727   4.732
10491SOL     OW32371   6.436   5.741   4.761
10491SOL    HW132372   6.495   5.662   4.780
10491SOL    HW232373   6.343   5.709   4.744
10492SOL     OW32374   5.351   4.040   5.585
10492SOL    HW132375   5.341   3.959   5.644
10492SOL    HW232376   5.296   4.028   5.503
10493SOL     OW32377   3.019   1.678   0.649
10493SOL    HW132378   3.024   1.645   0.743
10493SOL    HW232379   2.976   1.608   0.592
10494SOL     OW32380   5.375   1.249   5.305
10494SOL    HW132381   5.399   1.176   5.369
10494SOL    HW232382   5.279   1.273   5.317
10495SOL     OW32383   1.423   0.450   6.543
10495SOL    HW132384   1.392   0.413   6.630
10495SOL    HW232385   1.406   0.549   6.540
10496SOL     OW32386   6.609   6.802   5.611
10496SOL    HW132387   6.642   6.723   5.663
10496SOL    HW232388   6.553   6.770   5.534
10497SOL     OW32389   2.174   1.325   6.693
10497SOL    HW132390   2.224   1.400   6.650
10497SOL    HW232391   2.092   1.304   6.639
10498SOL     OW32392   3.218   5.193   5.518
10498SOL    HW132393   3.197   5.147   5.604
10498SOL    HW232394   3.183   5.286   5.520
10499SOL     OW32395   2.664   5.735   2.600
10499SOL    HW132396   2.662   5.830   2.631
10499SOL    HW232397   2.663   5.732   2.500
10500SOL     OW32398   2.340   1.924   6.950
10500SOL    HW132399   2.336   1.981   6.869
10500SOL    HW232400   2.339   1.827   6.923
10501SOL     OW32401   2.181   3.896   3.233
10501SOL    HW132402   2.206   3.839   3.155
10501SOL    HW232403   2.145   3.837   3.306
10502SOL     OW32404   3.089   6.120   4.603
10502SOL    HW132405   3.090   6.203   4.547
10502SOL    HW232406   3.068   6.143   4.698
10503SOL     OW32407   2.220   3.149   6.856
10503SOL    HW132408   2.264   3.092   6.924
10503SOL    HW232409   2.238   3.113   6.765
10504SOL     OW32410   2.252   3.609   0.656
10504SOL    HW132411   2.237   3.612   0.557
10504SOL    HW232412   2.172   3.568   0.701
10505SOL     OW32413   0.766   6.230   6.815
10505SOL    HW132414   0.720   6.231   6.726
10505SOL    HW232415   0.698   6.221   6.888
10506SOL     OW32416   6.852   4.999   5.744
10506SOL    HW132417   6.939   5.024   5.702
10506SOL    HW232418   6.864   4.985   5.842
10507SOL     OW32419   2.711   0.668   3.254
10507SOL    HW132420   2.687   0.607   3.179
10507SOL    HW232421   2.781   0.733   3.223
10508SOL     OW32422   5.612   4.854   2.749
10508SOL    HW132423   5.685   4.920   2.729
10508SOL    HW232424   5.616   4.829   2.846
10509SOL     OW32425   2.276   1.208   5.391
10509SOL    HW132426   2.373   1.219   5.371
10509SOL    HW232427   2.222   1.272   5.337
10510SOL     OW32428   5.753   0.693   6.616
10510SOL    HW132429   5.669   0.734   6.652
10510SOL    HW232430   5.739   0.664   6.521
10511SOL     OW32431   6.979   2.714   1.969
10511SOL    HW132432   6.918   2.790   1.988
10511SOL    HW232433   0.039   2.721   2.028
10512SOL     OW32434   2.254   0.115   6.473
10512SOL    HW132435   2.166   0.102   6.519
10512SOL    HW232436   2.279   0.212   6.478
10513SOL     OW32437   0.341   2.466   0.669
10513SOL    HW132438   0.387   2.549   0.698
10513SOL    HW232439   0.242   2.479   0.675
10514SOL     OW32440   1.440   2.952   1.656
10514SOL    HW132441   1.472   2.858   1.658
10514SOL    HW232442   1.413   2.976   1.563
10515SOL     OW32443   0.217   3.223   5.057
10515SOL    HW132444   0.230   3.188   5.150
10515SOL    HW232445   0.248   3.155   4.991
10516SOL     OW32446   2.472   6.911   0.790
10516SOL    HW132447   2.512   6.880   0.704
10516SOL    HW232448   2.517   6.996   0.819
10517SOL     OW32449   0.642   2.574   3.393
10517SOL    HW132450   0.573   2.599   3.460
10517SOL    HW232451   0.690   2.657   3.363
10518SOL     OW32452   0.492   6.184   3.290
10518SOL    HW132453   0.586   6.217   3.287
10518SOL    HW232454   0.473   6.144   3.380
10519SOL     OW32455   4.451   2.691   5.626
10519SOL    HW132456   4.408   2.613   5.672
10519SOL    HW232457   4.537   2.713   5.672
10520SOL     OW32458   2.870   4.974   6.289
10520SOL    HW132459   2.907   5.067   6.283
10520SOL    HW232460   2.946   4.909   6.290
10521SOL     OW32461   6.542   5.488   2.046
10521SOL    HW132462   6.539   5.396   2.006
10521SOL    HW232463   6.481   5.548   1.995
10522SOL     OW32464   6.567   0.028   2.668
10522SOL    HW132465   6.630   6.975   2.693
10522SOL    HW232466   6.618   0.114   2.662
10523SOL     OW32467   5.982   6.378   6.293
10523SOL    HW132468   6.046   6.438   6.245
10523SOL    HW232469   6.030   6.326   6.363
10524SOL     OW32470   4.698   0.834   4.841
10524SOL    HW132471   4.775   0.897   4.846
10524SOL    HW232472   4.628   0.871   4.781
10525SOL     OW32473   2.616   0.024   4.913
10525SOL    HW132474   2.649   0.066   4.828
10525SOL    HW232475   2.523   7.013   4.901
10526SOL     OW32476   4.330   6.074   2.755
10526SOL    HW132477   4.392   6.000   2.727
10526SOL    HW232478   4.317   6.071   2.854
10527SOL     OW32479   2.165   2.595   4.172
10527SOL    HW132480   2.072   2.618   4.199
10527SOL    HW232481   2.228   2.667   4.204
10528SOL     OW32482   5.982   4.894   5.835
10528SOL    HW132483   6.055   4.946   5.878
10528SOL    HW232484   5.896   4.945   5.841
10529SOL     OW32485   0.045   5.633   5.029
10529SOL    HW132486   0.018   5.729   5.029
10529SOL    HW232487   0.086   5.610   4.941
10530SOL     OW32488   1.454   2.089   5.082
10530SOL    HW132489   1.411   2.126   4.999
10530SOL    HW232490   1.508   2.008   5.058
10531SOL     OW32491   2.501   2.555   4.542
10531SOL    HW132492   2.527   2.569   4.638
10531SOL    HW232493   2.432   2.622   4.516
10532SOL     OW32494   3.213   3.294   4.346
10532SOL    HW132495   3.278   3.332   4.281
10532SOL    HW232496   3.196   3.198   4.324
10533SOL     OW32497   3.728   0.665   6.221
10533SOL    HW132498   3.817   0.685   6.181
10533SOL    HW232499   3.719   0.567   6.235
10534SOL     OW32500   5.853   4.406   1.316
10534SOL    HW132501   5.889   4.439   1.229
10534SOL    HW232502   5.818   4.313   1.304
10535SOL     OW32503   0.098   1.171   1.790
10535SOL    HW132504   0.155   1.183   1.871
10535SOL    HW232505   0.032   1.246   1.785
10536SOL     OW32506   5.738   5.605   3.313
10536SOL    HW132507   5.776   5.515   3.293
10536SOL    HW232508   5.678   5.598   3.392
10537SOL     OW32509   6.301   5.676   1.779
10537SOL    HW132510   6.259   5.672   1.688
10537SOL    HW232511   6.401   5.679   1.769
10538SOL     OW32512   4.351   3.296   6.901
10538SOL    HW132513   4.417   3.363   6.866
10538SOL    HW232514   4.344   3.304   7.000
10539SOL     OW32515   1.109   3.093   4.710
10539SOL    HW132516   1.113   3.103   4.810
10539SOL    HW232517   1.067   3.175   4.671
10540SOL     OW32518   3.502   0.858   0.241
10540SOL    HW132519   3.474   0.821   0.152
10540SOL    HW232520   3.579   0.805   0.276
10541SOL     OW32521   3.347   2.596   1.728
10541SOL    HW132522   3.250   2.597   1.705
10541SOL    HW232523   3.396   2.535   1.665
10542SOL     OW32524   1.650   2.215   0.457
10542SOL    HW132525   1.658   2.293   0.395
10542SOL    HW232526   1.651   2.130   0.405
10543SOL     OW32527   2.680   0.650   4.358
10543SOL    HW132528   2.662   0.568   4.413
10543SOL    HW232529   2.667   0.628   4.261
10544SOL     OW32530   0.314   2.083   1.549
10544SOL    HW132531   0.297   2.007   1.486
10544SOL    HW232532   0.269   2.165   1.514
10545SOL     OW32533   4.431   1.502   2.850
10545SOL    HW132534   4.443   1.471   2.756
10545SOL    HW232535   4.347   1.464   2.888
10546SOL     OW32536   4.959   0.812   5.402
10546SOL    HW132537   4.976   0.716   5.377
10546SOL    HW232538   4.895   0.852   5.337
10547SOL     OW32539   4.629   6.212   1.864
10547SOL    HW132540   4.707   6.205   1.926
10547SOL    HW232541   4.648   6.282   1.795
10548SOL     OW32542   4.719   3.900   5.423
10548SOL    HW132543   4.741   3.968   5.354
10548SOL    HW232544   4.692   3.946   5.508
10549SOL     OW32545   0.861   1.545   1.760
10549SOL    HW132546   0.766   1.536   1.729
10549SOL    HW232547   0.922   1.503   1.692
10550SOL     OW32548   4.634   6.751   4.874
10550SOL    HW132549   4.691   6.833   4.872
10550SOL    HW232550   4.681   6.676   4.828
10551SOL     OW32551   1.526   2.972   6.147
10551SOL    HW132552   1.548   2.962   6.243
10551SOL    HW232553   1.430   2.999   6.137
10552SOL     OW32554   3.353   1.501   5.233
10552SOL    HW132555   3.374   1.432   5.303
10552SOL    HW232556   3.357   1.459   5.142
10553SOL     OW32557   2.660   5.280   6.279
10553SOL    HW132558   2.697   5.318   6.364
10553SOL    HW232559   2.681   5.183   6.274
10554SOL     OW32560   6.182   3.492   6.049
10554SOL    HW132561   6.200   3.394   6.045
10554SOL    HW232562   6.124   3.518   5.972
10555SOL     OW32563   3.457   2.866   1.763
10555SOL    HW132564   3.422   2.773   1.750
10555SOL    HW232565   3.393   2.932   1.723
10556SOL     OW32566   1.365   4.408   3.925
10556SOL    HW132567   1.273   4.385   3.891
10556SOL    HW232568   1.392   4.497   3.889
10557SOL     OW32569   5.448   1.608   3.167
10557SOL    HW132570   5.473   1.684   3.107
10557SOL    HW232571   5.359   1.572   3.141
10558SOL     OW32572   5.856   5.693   5.481
10558SOL    HW132573   5.904   5.770   5.523
10558SOL    HW232574   5.906   5.664   5.399
10559SOL     OW32575   4.089   2.702   0.954
10559SOL    HW132576   4.031   2.683   1.033
10559SOL    HW232577   4.073   2.795   0.922
10560SOL     OW32578   6.501   2.308   4.420
10560SOL    HW132579   6.534   2.243   4.489
10560SOL    HW232580   6.448   2.380   4.465
10561SOL     OW32581   2.075   3.885   6.559
10561SOL    HW132582   2.041   3.974   6.530
10561SOL    HW232583   2.164   3.868   6.516
10562SOL     OW32584   4.154   1.770   0.597
10562SOL    HW132585   4.102   1.855   0.590
10562SOL    HW232586   4.250   1.791   0.615
10563SOL     OW32587   1.398   2.320   2.827
10563SOL    HW132588   1.466   2.392   2.844
10563SOL    HW232589   1.334   2.351   2.756
10564SOL     OW32590   0.138   1.721   2.271
10564SOL    HW132591   0.102   1.635   2.308
10564SOL    HW232592   0.232   1.733   2.303
10565SOL     OW32593   5.120   1.511   4.962
10565SOL    HW132594   5.063   1.431   4.975
10565SOL    HW232595   5.066   1.594   4.977
10566SOL     OW32596   4.960   5.245   6.792
10566SOL    HW132597   4.893   5.309   6.755
10566SOL    HW232598   5.048   5.259   6.746
10567SOL     OW32599   2.542   5.722   4.989
10567SOL    HW132600   2.442   5.719   4.981
10567SOL    HW232601   2.583   5.719   4.898
10568SOL     OW32602   3.388   1.322   3.243
10568SOL    HW132603   3.340   1.340   3.329
10568SOL    HW232604   3.452   1.397   3.224
10569SOL     OW32605   6.717   2.165   3.827
10569SOL    HW132606   6.663   2.118   3.757
10569SOL    HW232607   6.657   2.222   3.884
10570SOL     OW32608   1.029   4.007   1.047
10570SOL    HW132609   0.933   3.985   1.061
10570SOL    HW232610   1.054   3.988   0.952
10571SOL     OW32611   6.490   6.601   4.523
10571SOL    HW132612   6.574   6.632   4.477
10571SOL    HW232613   6.455   6.674   4.582
10572SOL     OW32614   6.397   3.961   1.942
10572SOL    HW132615   6.388   3.905   2.025
10572SOL    HW232616   6.490   3.949   1.905
10573SOL     OW32617   6.411   5.544   5.546
10573SOL    HW132618   6.358   5.502   5.473
10573SOL    HW232619   6.474   5.476   5.584
10574SOL     OW32620   0.875   2.051   2.622
10574SOL    HW132621   0.918   1.961   2.621
10574SOL    HW232622   0.907   2.104   2.543
10575SOL     OW32623   0.032   6.826   6.274
10575SOL    HW132624   6.965   6.863   6.305
10575SOL    HW232625   0.104   6.893   6.290
10576SOL     OW32626   0.999   5.678   3.282
10576SOL    HW132627   1.033   5.766   3.315
10576SOL    HW232628   1.075   5.613   3.278
10577SOL     OW32629   0.376   2.614   5.840
10577SOL    HW132630   0.357   2.712   5.845
10577SOL    HW232631   0.290   2.563   5.844
10578SOL     OW32632   4.963   0.534   5.356
10578SOL    HW132633   5.031   0.526   5.283
10578SOL    HW232634   4.889   0.468   5.340
10579SOL     OW32635   5.708   6.886   0.850
10579SOL    HW132636   5.655   6.968   0.827
10579SOL    HW232637   5.678   6.810   0.791
10580SOL     OW32638   0.663   5.625   0.151
10580SOL    HW132639   0.627   5.656   0.063
10580SOL    HW232640   0.588   5.595   0.209
10581SOL     OW32641   4.195   2.239   2.997
10581SOL    HW132642   4.199   2.262   2.900
10581SOL    HW232643   4.288   2.240   3.035
10582SOL     OW32644   3.652   4.189   6.783
10582SOL    HW132645   3.704   4.111   6.747
10582SOL    HW232646   3.555   4.176   6.764
10583SOL     OW32647   4.694   1.072   1.250
10583SOL    HW132648   4.720   1.092   1.156
10583SOL    HW232649   4.594   1.073   1.259
10584SOL     OW32650   5.722   6.594   1.570
10584SOL    HW132651   5.819   6.596   1.544
10584SOL    HW232652   5.666   6.611   1.490
10585SOL     OW32653   2.766   4.400   6.556
10585SOL    HW132654   2.677   4.432   6.589
10585SOL    HW232655   2.754   4.352   6.469
10586SOL     OW32656   4.603   1.902   1.540
10586SOL    HW132657   4.543   1.916   1.619
10586SOL    HW232658   4.670   1.831   1.561
10587SOL     OW32659   6.995   3.236   0.268
10587SOL    HW132660   0.043   3.301   0.301
10587SOL    HW232661   6.992   3.157   0.330
10588SOL     OW32662   1.486   4.785   3.389
10588SOL    HW132663   1.526   4.769   3.299
10588SOL    HW232664   1.552   4.757   3.460
10589SOL     OW32665   6.070   0.794   4.609
10589SOL    HW132666   6.163   0.760   4.596
10589SOL    HW232667   6.008   0.745   4.548
10590SOL     OW32668   1.565   0.217   5.104
10590SOL    HW132669   1.609   0.221   5.014
10590SOL    HW232670   1.516   0.130   5.113
10591SOL     OW32671   1.640   2.198   1.714
10591SOL    HW132672   1.602   2.224   1.625
10591SOL    HW232673   1.697   2.272   1.749
10592SOL     OW32674   5.651   1.186   6.409
10592SOL    HW132675   5.596   1.254   6.360
10592SOL    HW232676   5.637   1.096   6.368
10593SOL     OW32677   1.537   3.613   2.129
10593SOL    HW132678   1.614   3.571   2.081
10593SOL    HW232679   1.511   3.556   2.207
10594SOL     OW32680   1.183   1.366   4.624
10594SOL    HW132681   1.239   1.283   4.627
10594SOL    HW232682   1.091   1.345   4.658
10595SOL     OW32683   1.823   5.873   4.689
10595SOL    HW132684   1.771   5.793   4.657
10595SOL    HW232685   1.760   5.939   4.729
10596SOL     OW32686   2.561   1.192   1.416
10596SOL    HW132687   2.629   1.245   1.366
10596SOL    HW232688   2.570   1.095   1.393
10597SOL     OW32689   1.393   0.931   3.913
10597SOL    HW132690   1.380   0.856   3.977
10597SOL    HW232691   1.304   0.959   3.876
10598SOL     OW32692   2.609   0.875   0.685
10598SOL    HW132693   2.608   0.799   0.750
10598SOL    HW232694   2.542   0.857   0.612
10599SOL     OW32695   4.771   0.198   6.236
10599SOL    HW132696   4.717   0.180   6.154
10599SOL    HW232697   4.816   0.114   6.266
10600SOL     OW32698   1.770   3.118   5.141
10600SOL    HW132699   1.783   3.144   5.237
10600SOL    HW232700   1.725   3.192   5.093
10601SOL     OW32701   3.879   6.241   5.526
10601SOL    HW132702   3.799   6.288   5.489
10601SOL    HW232703   3.908   6.286   5.610
10602SOL     OW32704   4.554   2.389   2.030
10602SOL    HW132705   4.481   2.410   1.965
10602SOL    HW232706   4.533   2.303   2.077
10603SOL     OW32707   0.561   5.397   4.711
10603SOL    HW132708   0.504   5.315   4.710
10603SOL    HW232709   0.589   5.417   4.806
10604SOL     OW32710   0.507   4.174   6.161
10604SOL    HW132711   0.529   4.271   6.156
10604SOL    HW232712   0.408   4.161   6.148
10605SOL     OW32713   1.117   5.229   6.279
10605SOL    HW132714   1.045   5.211   6.212
10605SOL    HW232715   1.083   5.207   6.371
10606SOL     OW32716   1.338   1.245   2.158
10606SOL    HW132717   1.296   1.191   2.231
10606SOL    HW232718   1.331   1.342   2.180
10607SOL     OW32719   5.793   3.698   6.490
10607SOL    HW132720   5.888   3.717   6.465
10607SOL    HW232721   5.746   3.657   6.412
10608SOL     OW32722   5.497   6.240   2.502
10608SOL    HW132723   5.542   6.313   2.555
10608SOL    HW232724   5.419   6.205   2.553
10609SOL     OW32725   4.106   6.660   2.884
10609SOL    HW132726   4.142   6.616   2.802
10609SOL    HW232727   4.037   6.601   2.927
10610SOL     OW32728   2.129   4.777   4.760
10610SOL    HW132729   2.145   4.865   4.805
10610SOL    HW232730   2.126   4.790   4.661
10611SOL     OW32731   4.967   2.168   5.599
10611SOL    HW132732   5.038   2.233   5.628
10611SOL    HW232733   4.886   2.180   5.657
10612SOL     OW32734   2.368   0.271   1.751
10612SOL    HW132735   2.340   0.361   1.784
10612SOL    HW232736   2.430   0.282   1.674
10613SOL     OW32737   0.832   6.374   0.169
10613SOL    HW132738   0.871   6.384   0.078
10613SOL    HW232739   0.750   6.318   0.164
10614SOL     OW32740   0.434   0.820   2.815
10614SOL    HW132741   0.371   0.885   2.858
10614SOL    HW232742   0.510   0.870   2.774
10615SOL     OW32743   0.256   6.754   5.335
10615SOL    HW132744   0.270   6.691   5.259
10615SOL    HW232745   0.167   6.798   5.326
10616SOL     OW32746   3.642   5.825   1.346
10616SOL    HW132747   3.579   5.753   1.375
10616SOL    HW232748   3.694   5.795   1.266
10617SOL     OW32749   6.675   1.750   6.526
10617SOL    HW132750   6.635   1.728   6.615
10617SOL    HW232751   6.710   1.843   6.527
10618SOL     OW32752   6.633   3.782   0.725
10618SOL    HW132753   6.651   3.700   0.670
10618SOL    HW232754   6.708   3.797   0.789
10619SOL     OW32755   0.051   3.359   3.494
10619SOL    HW132756   0.121   3.429   3.484
10619SOL    HW232757   0.078   3.293   3.564
10620SOL     OW32758   1.527   5.417   4.143
10620SOL    HW132759   1.485   5.447   4.058
10620SOL    HW232760   1.498   5.323   4.164
10621SOL     OW32761   3.449   0.163   1.126
10621SOL    HW132762   3.473   0.253   1.163
10621SOL    HW232763   3.497   0.092   1.178
10622SOL     OW32764   3.837   1.821   0.601
10622SOL    HW132765   3.866   1.891   0.667
10622SOL    HW232766   3.831   1.733   0.647
10623SOL     OW32767   0.337   1.514   4.745
10623SOL    HW132768   0.357   1.575   4.669
10623SOL    HW232769   0.347   1.419   4.714
10624SOL     OW32770   2.495   1.394   4.371
10624SOL    HW132771   2.457   1.319   4.317
10624SOL    HW232772   2.500   1.477   4.314
10625SOL     OW32773   0.825   3.168   0.749
10625SOL    HW132774   0.733   3.128   0.748
10625SOL    HW232775   0.885   3.113   0.808
10626SOL     OW32776   0.336   1.999   2.845
10626SOL    HW132777   0.370   2.088   2.813
10626SOL    HW232778   0.255   2.014   2.902
10627SOL     OW32779   4.427   5.540   4.655
10627SOL    HW132780   4.333   5.509   4.669
10627SOL    HW232781   4.439   5.564   4.558
10628SOL     OW32782   6.846   6.590   5.114
10628SOL    HW132783   6.768   6.529   5.123
10628SOL    HW232784   6.930   6.536   5.104
10629SOL     OW32785   2.796   4.163   6.394
10629SOL    HW132786   2.717   4.147   6.335
10629SOL    HW232787   2.790   4.104   6.474
10630SOL     OW32788   5.606   1.439   1.646
10630SOL    HW132789   5.634   1.503   1.718
10630SOL    HW232790   5.523   1.390   1.675
10631SOL     OW32791   1.420   7.001   4.457
10631SOL    HW132792   1.497   6.949   4.420
10631SOL    HW232793   1.415   6.987   4.556
10632SOL     OW32794   0.043   2.891   0.169
10632SOL    HW132795   0.091   2.806   0.150
10632SOL    HW232796   0.025   2.898   0.267
10633SOL     OW32797   1.413   5.340   6.890
10633SOL    HW132798   1.414   5.436   6.919
10633SOL    HW232799   1.495   5.322   6.834
10634SOL     OW32800   3.560   6.925   2.182
10634SOL    HW132801   3.490   6.991   2.210
10634SOL    HW232802   3.610   6.893   2.262
10635SOL     OW32803   1.317   0.617   1.205
10635SOL    HW132804   1.365   0.584   1.286
10635SOL    HW232805   1.350   0.708   1.180
10636SOL     OW32806   5.132   1.916   0.028
10636SOL    HW132807   5.146   1.820   0.055
10636SOL    HW232808   5.169   1.976   0.099
10637SOL     OW32809   3.210   3.844   6.327
10637SOL    HW132810   3.231   3.813   6.234
10637SOL    HW232811   3.145   3.780   6.370
10638SOL     OW32812   6.371   0.915   5.946
10638SOL    HW132813   6.365   0.876   6.038
10638SOL    HW232814   6.280   0.917   5.905
10639SOL     OW32815   3.576   2.160   5.108
10639SOL    HW132816   3.590   2.154   5.010
10639SOL    HW232817   3.517   2.085   5.139
10640SOL     OW32818   4.431   6.702   0.510
10640SOL    HW132819   4.499   6.712   0.438
10640SOL    HW232820   4.476   6.667   0.593
10641SOL     OW32821   3.435   6.790   6.976
10641SOL    HW132822   3.431   6.813   0.052
10641SOL    HW232823   3.381   6.707   6.959
10642SOL     OW32824   0.860   5.836   1.611
10642SOL    HW132825   0.867   5.906   1.540
10642SOL    HW232826   0.837   5.880   1.698
10643SOL     OW32827   3.485   3.531   5.804
10643SOL    HW132828   3.539   3.609   5.772
10643SOL    HW232829   3.387   3.552   5.794
10644SOL     OW32830   3.799   1.467   5.712
10644SOL    HW132831   3.763   1.380   5.677
10644SOL    HW232832   3.731   1.539   5.700
10645SOL     OW32833   1.975   0.465   4.343
10645SOL    HW132834   1.965   0.537   4.275
10645SOL    HW232835   1.889   0.453   4.392
10646SOL     OW32836   6.528   5.236   6.524
10646SOL    HW132837   6.500   5.329   6.546
10646SOL    HW232838   6.616   5.217   6.568
10647SOL     OW32839   6.878   5.754   0.939
10647SOL    HW132840   6.892   5.702   0.855
10647SOL    HW232841   6.965   5.791   0.970
10648SOL     OW32842   5.060   3.918   6.005
10648SOL    HW132843   5.018   3.857   5.938
10648SOL    HW232844   5.023   3.899   6.096
10649SOL     OW32845   7.011   4.918   6.523
10649SOL    HW132846   6.968   4.829   6.511
10649SOL    HW232847   0.080   4.906   6.564
10650SOL     OW32848   2.146   7.012   5.859
10650SOL    HW132849   2.221   6.958   5.823
10650SOL    HW232850   2.059   6.966   5.841
10651SOL     OW32851   1.562   1.131   5.187
10651SOL    HW132852   1.494   1.067   5.152
10651SOL    HW232853   1.517   1.214   5.219
10652SOL     OW32854   4.774   0.553   0.643
10652SOL    HW132855   4.847   0.535   0.710
10652SOL    HW232856   4.815   0.565   0.553
10653SOL     OW32857   6.277   3.811   4.613
10653SOL    HW132858   6.196   3.864   4.639
10653SOL    HW232859   6.315   3.848   4.528
10654SOL     OW32860   4.625   0.340   1.415
10654SOL    HW132861   4.655   0.428   1.452
10654SOL    HW232862   4.564   0.356   1.337
10655SOL     OW32863   2.467   5.840   1.063
10655SOL    HW132864   2.552   5.814   1.017
10655SOL    HW232865   2.424   5.916   1.015
10656SOL     OW32866   6.832   2.796   6.207
10656SOL    HW132867   6.850   2.736   6.285
10656SOL    HW232868   6.822   2.890   6.240
10657SOL     OW32869   6.121   0.169   0.507
10657SOL    HW132870   6.051   0.129   0.565
10657SOL    HW232871   6.149   0.103   0.438
10658SOL     OW32872   6.826   6.121   3.631
10658SOL    HW132873   6.877   6.207   3.630
10658SOL    HW232874   6.744   6.132   3.687
10659SOL     OW32875   5.166   1.067   1.543
10659SOL    HW132876   5.121   0.993   1.593
10659SOL    HW232877   5.099   1.115   1.486
10660SOL     OW32878   4.868   4.929   5.447
10660SOL    HW132879   4.769   4.941   5.440
10660SOL    HW232880   4.892   4.837   5.414
10661SOL     OW32881   6.948   1.372   1.809
10661SOL    HW132882   7.002   1.456   1.816
10661SOL    HW232883   6.865   1.391   1.756
10662SOL     OW32884   0.251   2.119   0.885
10662SOL    HW132885   0.169   2.086   0.838
10662SOL    HW232886   0.320   2.145   0.817
10663SOL     OW32887   0.907   2.548   1.782
10663SOL    HW132888   0.909   2.635   1.732
10663SOL    HW232889   0.823   2.543   1.836
10664SOL     OW32890   2.459   5.424   6.159
10664SOL    HW132891   2.545   5.377   6.180
10664SOL    HW232892   2.408   5.438   6.244
10665SOL     OW32893   5.526   2.029   0.053
10665SOL    HW132894   5.570   2.069   6.995
10665SOL    HW232895   5.433   2.065   0.063
10666SOL     OW32896   0.253   6.705   0.331
10666SOL    HW132897   0.180   6.766   0.301
10666SOL    HW232898   0.304   6.672   0.252
10667SOL     OW32899   3.179   2.080   5.941
10667SOL    HW132900   3.139   1.990   5.957
10667SOL    HW232901   3.172   2.101   5.843
10668SOL     OW32902   1.267   0.692   6.469
10668SOL    HW132903   1.172   0.661   6.466
10668SOL    HW232904   1.297   0.718   6.378
10669SOL     OW32905   2.091   5.933   6.635
10669SOL    HW132906   2.177   5.880   6.634
10669SOL    HW232907   2.088   5.991   6.553
10670SOL     OW32908   5.815   4.285   4.994
10670SOL    HW132909   5.861   4.246   4.915
10670SOL    HW232910   5.784   4.377   4.973
10671SOL     OW32911   2.201   2.999   3.243
10671SOL    HW132912   2.111   2.965   3.270
10671SOL    HW232913   2.269   2.972   3.312
10672SOL     OW32914   6.919   2.448   0.580
10672SOL    HW132915   6.918   2.356   0.619
10672SOL    HW232916   6.963   2.446   0.490
10673SOL     OW32917   3.509   4.192   3.973
10673SOL    HW132918   3.527   4.105   3.927
10673SOL    HW232919   3.430   4.181   4.034
10674SOL     OW32920   4.481   1.503   2.502
10674SOL    HW132921   4.411   1.439   2.535
10674SOL    HW232922   4.568   1.483   2.547
10675SOL     OW32923   1.255   1.683   5.745
10675SOL    HW132924   1.275   1.743   5.821
10675SOL    HW232925   1.339   1.638   5.715
10676SOL     OW32926   6.270   0.753   6.990
10676SOL    HW132927   6.174   0.781   6.996
10676SOL    HW232928   6.298   0.711   0.054
10677SOL     OW32929   5.212   1.416   0.113
10677SOL    HW132930   5.187   1.325   0.146
10677SOL    HW232931   5.307   1.436   0.137
10678SOL     OW32932   1.592   5.300   3.625
10678SOL    HW132933   1.596   5.382   3.567
10678SOL    HW232934   1.597   5.218   3.567
10679SOL     OW32935   5.825   5.358   3.717
10679SOL    HW132936   5.846   5.355   3.619
10679SOL    HW232937   5.726   5.353   3.730
10680SOL     OW32938   0.210   2.739   4.019
10680SOL    HW132939   0.234   2.661   4.077
10680SOL    HW232940   0.272   2.743   3.941
10681SOL     OW32941   0.829   3.351   0.186
10681SOL    HW132942   0.815   3.398   0.273
10681SOL    HW232943   0.816   3.252   0.199
10682SOL     OW32944   6.450   2.044   3.671
10682SOL    HW132945   6.407   2.120   3.622
10682SOL    HW232946   6.403   2.029   3.758
10683SOL     OW32947   0.425   0.242   4.062
10683SOL    HW132948   0.482   0.220   4.141
10683SOL    HW232949   0.331   0.258   4.093
10684SOL     OW32950   5.262   5.900   0.538
10684SOL    HW132951   5.162   5.896   0.544
10684SOL    HW232952   5.302   5.845   0.611
10685SOL     OW32953   6.380   2.503   3.331
10685SOL    HW132954   6.479   2.500   3.319
10685SOL    HW232955   6.337   2.431   3.276
10686SOL     OW32956   4.716   4.044   1.510
10686SOL    HW132957   4.762   4.069   1.595
10686SOL    HW232958   4.647   4.112   1.488
10687SOL     OW32959   0.107   5.543   1.098
10687SOL    HW132960   0.180   5.501   1.152
10687SOL    HW232961   0.108   5.505   1.006
10688SOL     OW32962   1.315   4.471   0.794
10688SOL    HW132963   1.394   4.507   0.844
10688SOL    HW232964   1.315   4.508   0.701
10689SOL     OW32965   0.239   0.326   1.414
10689SOL    HW132966   0.314   0.358   1.356
10689SOL    HW232967   0.194   0.248   1.371
10690SOL     OW32968   3.741   0.393   3.302
10690SOL    HW132969   3.761   0.309   3.352
10690SOL    HW232970   3.645   0.418   3.315
10691SOL     OW32971   5.478   1.449   1.410
10691SOL    HW132972   5.406   1.517   1.424
10691SOL    HW232973   5.533   1.442   1.494
10692SOL     OW32974   5.674   6.213   3.683
10692SOL    HW132975   5.606   6.219   3.756
10692SOL    HW232976   5.673   6.120   3.645
10693SOL     OW32977   4.837   2.428   4.242
10693SOL    HW132978   4.900   2.487   4.192
10693SOL    HW232979   4.769   2.391   4.178
10694SOL     OW32980   2.260   5.973   6.897
10694SOL    HW132981   2.173   6.006   6.935
10694SOL    HW232982   2.335   6.028   6.933
10695SOL     OW32983   5.943   2.910   5.832
10695SOL    HW132984   5.978   2.818   5.853
10695SOL    HW232985   5.867   2.902   5.767
10696SOL     OW32986   6.481   0.156   0.675
10696SOL    HW132987   6.434   0.209   0.605
10696SOL    HW232988   6.555   0.104   0.633
10697SOL     OW32989   2.668   6.147   2.749
10697SOL    HW132990   2.617   6.061   2.754
10697SOL    HW232991   2.605   6.224   2.753
10698SOL     OW32992   3.671   0.082   3.937
10698SOL    HW132993   3.625   0.123   4.015
10698SOL    HW232994   3.624   7.018   3.912
10699SOL     OW32995   0.324   3.430   3.531
10699SOL    HW132996   0.314   3.360   3.602
10699SOL    HW232997   0.366   3.512   3.571
10700SOL     OW32998   1.196   3.129   2.611
10700SOL    HW132999   1.169   3.049   2.558
10700SOL    HW233000   1.241   3.100   2.695
10701SOL     OW33001   2.905   6.857   1.282
10701SOL    HW133002   2.960   6.939   1.298
10701SOL    HW233003   2.945   6.779   1.331
10702SOL     OW33004   4.926   2.291   0.754
10702SOL    HW133005   4.974   2.244   0.679
10702SOL    HW233006   4.941   2.389   0.745
10703SOL     OW33007   3.791   3.681   4.101
10703SOL    HW133008   3.789   3.609   4.170
10703SOL    HW233009   3.881   3.724   4.100
10704SOL     OW33010   5.417   5.813   1.599
10704SOL    HW133011   5.485   5.751   1.559
10704SOL    HW233012   5.456   5.860   1.677
10705SOL     OW33013   1.153   3.008   6.927
10705SOL    HW133014   1.065   3.053   6.940
10705SOL    HW233015   1.152   2.957   6.841
10706SOL     OW33016   3.306   3.761   0.612
10706SOL    HW133017   3.220   3.737   0.656
10706SOL    HW233018   3.323   3.859   0.621
10707SOL     OW33019   5.968   0.428   6.409
10707SOL    HW133020   5.997   0.515   6.368
10707SOL    HW233021   5.887   0.394   6.361
10708SOL     OW33022   4.648   2.413   1.365
10708SOL    HW133023   4.684   2.416   1.458
10708SOL    HW233024   4.602   2.326   1.349
10709SOL     OW33025   0.759   1.167   6.623
10709SOL    HW133026   0.729   1.081   6.582
10709SOL    HW233027   0.828   1.210   6.564
10710SOL     OW33028   7.006   0.009   3.276
10710SOL    HW133029   0.011   0.066   3.354
10710SOL    HW233030   0.065   6.983   3.240
10711SOL     OW33031   1.688   4.168   5.560
10711SOL    HW133032   1.607   4.117   5.533
10711SOL    HW233033   1.770   4.115   5.538
10712SOL     OW33034   3.732   1.790   6.035
10712SOL    HW133035   3.781   1.799   6.121
10712SOL    HW233036   3.681   1.704   6.035
10713SOL     OW33037   2.868   0.228   0.140
10713SOL    HW133038   2.850   0.162   0.213
10713SOL    HW233039   2.845   0.186   0.052
10714SOL     OW33040   4.751   5.506   4.596
10714SOL    HW133041   4.690   5.495   4.675
10714SOL    HW233042   4.737   5.431   4.532
10715SOL     OW33043   5.711   7.017   2.608
10715SOL    HW133044   5.612   0.001   2.600
10715SOL    HW233045   5.735   6.950   2.678
10716SOL     OW33046   0.137   1.861   2.055
10716SOL    HW133047   0.227   1.902   2.043
10716SOL    HW233048   0.137   1.802   2.136
10717SOL     OW33049   0.600   6.849   1.574
10717SOL    HW133050   0.549   6.935   1.581
10717SOL    HW233051   0.689   6.866   1.533
10718SOL     OW33052   6.626   4.908   5.307
10718SOL    HW133053   6.580   4.941   5.225
10718SOL    HW233054   6.558   4.888   5.377
10719SOL     OW33055   3.237   6.454   3.721
10719SOL    HW133056   3.233   6.357   3.748
10719SOL    HW233057   3.322   6.472   3.672
10720SOL     OW33058   0.715   3.129   5.867
10720SOL    HW133059   0.787   3.197   5.856
10720SOL    HW233060   0.755   3.040   5.886
10721SOL     OW33061   5.469   1.575   3.909
10721SOL    HW133062   5.564   1.604   3.904
10721SOL    HW233063   5.457   1.509   3.982
10722SOL     OW33064   0.857   5.334   0.664
10722SOL    HW133065   0.813   5.300   0.581
10722SOL    HW233066   0.931   5.272   0.690
10723SOL     OW33067   0.346   3.888   6.109
10723SOL    HW133068   0.358   3.919   6.014
10723SOL    HW233069   0.345   3.788   6.111
10724SOL     OW33070   3.896   6.339   5.807
10724SOL    HW133071   3.817   6.278   5.809
10724SOL    HW233072   3.864   6.434   5.803
10725SOL     OW33073   7.004   0.236   5.435
10725SOL    HW133074   0.005   0.167   5.367
10725SOL    HW233075   6.904   0.243   5.444
10726SOL     OW33076   6.777   0.492   3.583
10726SOL    HW133077   6.842   0.476   3.657
10726SOL    HW233078   6.800   0.433   3.505
10727SOL     OW33079   5.117   5.781   6.447
10727SOL    HW133080   5.120   5.768   6.348
10727SOL    HW233081   5.162   5.867   6.471
10728SOL     OW33082   5.405   5.760   4.303
10728SOL    HW133083   5.363   5.670   4.298
10728SOL    HW233084   5.338   5.826   4.338
10729SOL     OW33085   6.664   3.065   4.286
10729SOL    HW133086   6.575   3.021   4.275
10729SOL    HW233087   6.733   2.996   4.306
10730SOL     OW33088   1.600   6.588   4.205
10730SOL    HW133089   1.533   6.555   4.139
10730SOL    HW233090   1.651   6.511   4.243
10731SOL     OW33091   5.158   3.949   4.882
10731SOL    HW133092   5.083   3.911   4.936
10731SOL    HW233093   5.169   3.896   4.798
10732SOL     OW33094   5.495   5.569   2.845
10732SOL    HW133095   5.551   5.650   2.827
10732SOL    HW233096   5.460   5.533   2.759
10733SOL     OW33097   0.556   2.084   5.631
10733SOL    HW133098   0.478   2.065   5.691
10733SOL    HW233099   0.536   2.051   5.539
10734SOL     OW33100   0.500   0.521   4.287
10734SOL    HW133101   0.462   0.506   4.195
10734SOL    HW233102   0.446   0.591   4.334
10735SOL     OW33103   7.006   0.800   1.891
10735SOL    HW133104   7.005   0.842   1.800
10735SOL    HW233105   6.979   0.868   1.959
10736SOL     OW33106   5.668   5.597   4.130
10736SOL    HW133107   5.643   5.524   4.066
10736SOL    HW233108   5.601   5.671   4.124
10737SOL     OW33109   6.165   0.780   0.377
10737SOL    HW133110   6.241   0.828   0.420
10737SOL    HW233111   6.198   0.695   0.336
10738SOL     OW33112   1.016   6.295   1.984
10738SOL    HW133113   1.061   6.213   2.017
10738SOL    HW233114   1.030   6.304   1.885
10739SOL     OW33115   5.273   2.659   4.283
10739SOL    HW133116   5.309   2.624   4.197
10739SOL    HW233117   5.230   2.748   4.268
10740SOL     OW33118   2.816   1.050   6.424
10740SOL    HW133119   2.896   1.057   6.484
10740SOL    HW233120   2.740   1.010   6.474
10741SOL     OW33121   2.310   2.936   4.119
10741SOL    HW133122   2.384   2.873   4.092
10741SOL    HW233123   2.291   2.924   4.216
10742SOL     OW33124   0.194   0.157   2.347
10742SOL    HW133125   0.187   0.117   2.256
10742SOL    HW233126   0.127   0.231   2.356
10743SOL     OW33127   3.722   2.867   5.897
10743SOL    HW133128   3.786   2.846   5.823
10743SOL    HW233129   3.767   2.852   5.985
10744SOL     OW33130   1.432   1.428   0.500
10744SOL    HW133131   1.474   1.519   0.490
10744SOL    HW233132   1.490   1.372   0.559
10745SOL     OW33133   3.723   5.624   1.713
10745SOL    HW133134   3.628   5.596   1.699
10745SOL    HW233135   3.784   5.564   1.660
10746SOL     OW33136   2.495   6.128   5.963
10746SOL    HW133137   2.434   6.134   6.041
10746SOL    HW233138   2.575   6.073   5.987
10747SOL     OW33139   6.898   0.199   4.717
10747SOL    HW133140   6.984   0.165   4.678
10747SOL    HW233141   6.826   0.193   4.649
10748SOL     OW33142   3.262   6.217   2.371
10748SOL    HW133143   3.205   6.296   2.391
10748SOL    HW233144   3.224   6.136   2.416
10749SOL     OW33145   5.052   2.838   2.658
10749SOL    HW133146   5.055   2.818   2.560
10749SOL    HW233147   4.993   2.918   2.673
10750SOL     OW33148   3.173   1.433   4.335
10750SOL    HW133149   3.258   1.468   4.295
10750SOL    HW233150   3.138   1.501   4.400
10751SOL     OW33151   6.031   6.007   3.699
10751SOL    HW133152   5.934   6.002   3.673
10751SOL    HW233153   6.064   5.915   3.719
10752SOL     OW33154   0.136   6.235   6.528
10752SOL    HW133155   0.117   6.193   6.616
10752SOL    HW233156   0.059   6.220   6.466
10753SOL     OW33157   5.365   6.718   4.991
10753SOL    HW133158   5.409   6.801   5.027
10753SOL    HW233159   5.319   6.739   4.905
10754SOL     OW33160   6.774   5.680   2.366
10754SOL    HW133161   6.783   5.603   2.303
10754SOL    HW233162   6.813   5.656   2.455
10755SOL     OW33163   0.924   1.752   2.207
10755SOL    HW133164   0.826   1.774   2.218
10755SOL    HW233165   0.937   1.702   2.122
10756SOL     OW33166   0.497   0.504   6.834
10756SOL    HW133167   0.519   0.455   6.750
10756SOL    HW233168   0.415   0.560   6.819
10757SOL     OW33169   0.232   2.537   1.881
10757SOL    HW133170   0.147   2.499   1.842
10757SOL    HW233171   0.214   2.575   1.971
10758SOL     OW33172   0.546   1.749   0.756
10758SOL    HW133173   0.572   1.659   0.791
10758SOL    HW233174   0.513   1.740   0.663
10759SOL     OW33175   3.585   5.253   5.051
10759SOL    HW133176   3.497   5.269   5.005
10759SOL    HW233177   3.589   5.158   5.083
10760SOL     OW33178   0.881   4.936   0.150
10760SOL    HW133179   0.957   4.962   0.208
10760SOL    HW233180   0.835   5.017   0.115
10761SOL     OW33181   1.699   1.488   6.504
10761SOL    HW133182   1.701   1.515   6.601
10761SOL    HW233183   1.667   1.394   6.496
10762SOL     OW33184   1.844   5.968   1.277
10762SOL    HW133185   1.753   6.000   1.304
10762SOL    HW233186   1.894   6.043   1.233
10763SOL     OW33187   4.935   1.538   2.557
10763SOL    HW133188   4.931   1.560   2.459
10763SOL    HW233189   5.031   1.535   2.586
10764SOL     OW33190   5.304   6.000   4.492
10764SOL    HW133191   5.211   6.023   4.523
10764SOL    HW233192   5.342   5.929   4.551
10765SOL     OW33193   7.008   3.110   1.261
10765SOL    HW133194   0.023   3.071   1.346
10765SOL    HW233195   0.029   3.065   1.183
10766SOL     OW33196   3.210   5.558   6.734
10766SOL    HW133197   3.121   5.518   6.754
10766SOL    HW233198   3.201   5.625   6.660
10767SOL     OW33199   1.462   5.170   6.481
10767SOL    HW133200   1.383   5.205   6.532
10767SOL    HW233201   1.429   5.114   6.404
10768SOL     OW33202   5.929   6.304   0.100
10768SOL    HW133203   5.982   6.245   0.161
10768SOL    HW233204   5.986   6.329   0.021
10769SOL     OW33205   3.262   3.725   4.643
10769SOL    HW133206   3.295   3.787   4.714
10769SOL    HW233207   3.282   3.630   4.669
10770SOL     OW33208   4.372   0.053   4.335
10770SOL    HW133209   4.274   0.066   4.352
10770SOL    HW233210   4.420   0.045   4.423
10771SOL     OW33211   5.019   6.211   5.775
10771SOL    HW133212   4.990   6.194   5.680
10771SOL    HW233213   5.097   6.272   5.775
10772SOL     OW33214   5.119   3.341   4.000
10772SOL    HW133215   5.059   3.413   4.035
10772SOL    HW233216   5.123   3.266   4.066
10773SOL     OW33217   1.105   4.482   0.424
10773SOL    HW133218   1.192   4.435   0.410
10773SOL    HW233219   1.066   4.455   0.512
10774SOL     OW33220   6.555   2.969   0.692
10774SOL    HW133221   6.461   2.989   0.722
10774SOL    HW233222   6.592   2.894   0.747
10775SOL     OW33223   1.886   4.612   6.023
10775SOL    HW133224   1.852   4.587   6.114
10775SOL    HW233225   1.928   4.532   5.980
10776SOL     OW33226   0.095   3.517   2.916
10776SOL    HW133227   0.118   3.540   2.822
10776SOL    HW233228   0.112   3.420   2.932
10777SOL     OW33229   0.706   6.282   1.933
10777SOL    HW133230   0.615   6.312   1.961
10777SOL    HW233231   0.774   6.324   1.993
10778SOL     OW33232   5.007   6.903   3.658
10778SOL    HW133233   5.013   6.919   3.559
10778SOL    HW233234   4.943   6.828   3.676
10779SOL     OW33235   5.738   2.912   5.617
10779SOL    HW133236   5.690   2.992   5.583
10779SOL    HW233237   5.683   2.867   5.688
10780SOL     OW33238   0.923   5.714   4.689
10780SOL    HW133239   0.950   5.626   4.650
10780SOL    HW233240   0.834   5.705   4.734
10781SOL     OW33241   6.130   2.214   5.702
10781SOL    HW133242   6.204   2.247   5.642
10781SOL    HW233243   6.143   2.250   5.794
10782SOL     OW33244   1.387   3.285   5.074
10782SOL    HW133245   1.300   3.335   5.082
10782SOL    HW233246   1.451   3.320   5.141
10783SOL     OW33247   1.465   4.041   4.109
10783SOL    HW133248   1.535   4.056   4.178
10783SOL    HW233249   1.417   3.955   4.127
10784SOL     OW33250   4.882   4.852   3.921
10784SOL    HW133251   4.859   4.946   3.894
10784SOL    HW233252   4.978   4.847   3.947
10785SOL     OW33253   1.759   5.304   1.811
10785SOL    HW133254   1.677   5.255   1.837
10785SOL    HW233255   1.807   5.255   1.739
10786SOL     OW33256   4.839   1.796   2.665
10786SOL    HW133257   4.861   1.699   2.665
10786SOL    HW233258   4.923   1.849   2.651
10787SOL     OW33259   3.097   1.634   3.960
10787SOL    HW133260   3.115   1.612   3.864
10787SOL    HW233261   3.082   1.732   3.970
10788SOL     OW33262   1.409   3.155   6.857
10788SOL    HW133263   1.344   3.104   6.914
10788SOL    HW233264   1.502   3.140   6.891
10789SOL     OW33265   6.634   2.537   2.731
10789SOL    HW133266   6.568   2.610   2.751
10789SOL    HW233267   6.618   2.502   2.639
10790SOL     OW33268   6.652   2.593   5.085
10790SOL    HW133269   6.706   2.648   5.022
10790SOL    HW233270   6.673   2.496   5.071
10791SOL     OW33271   2.017   2.841   2.959
10791SOL    HW133272   1.971   2.926   2.936
10791SOL    HW233273   2.013   2.826   3.058
10792SOL     OW33274   3.687   1.408   2.017
10792SOL    HW133275   3.616   1.478   2.011
10792SOL    HW233276   3.724   1.406   2.111
10793SOL     OW33277   3.935   2.220   4.061
10793SOL    HW133278   3.945   2.210   3.962
10793SOL    HW233279   3.845   2.258   4.082
10794SOL     OW33280   4.278   2.693   6.931
10794SOL    HW133281   4.309   2.603   6.962
10794SOL    HW233282   4.304   2.762   6.999
10795SOL     OW33283   6.184   2.769   2.815
10795SOL    HW133284   6.271   2.786   2.861
10795SOL    HW233285   6.124   2.714   2.874
10796SOL     OW33286   6.819   1.919   6.184
10796SOL    HW133287   6.800   1.825   6.214
10796SOL    HW233288   6.795   1.983   6.258
10797SOL     OW33289   5.741   4.547   6.666
10797SOL    HW133290   5.675   4.486   6.621
10797SOL    HW233291   5.822   4.557   6.608
10798SOL     OW33292   2.357   5.770   0.219
10798SOL    HW133293   2.335   5.761   0.316
10798SOL    HW233294   2.423   5.844   0.207
10799SOL     OW33295   1.893   1.080   3.375
10799SOL    HW133296   1.809   1.120   3.339
10799SOL    HW233297   1.966   1.148   3.374
10800SOL     OW33298   1.016   0.654   5.230
10800SOL    HW133299   1.043   0.747   5.206
10800SOL    HW233300   1.026   0.594   5.150
10801SOL     OW33301   3.005   6.243   6.967
10801SOL    HW133302   2.949   6.160   6.970
10801SOL    HW233303   3.102   6.217   6.960
10802SOL     OW33304   0.293   4.777   3.605
10802SOL    HW133305   0.245   4.858   3.637
10802SOL    HW233306   0.233   4.722   3.547
10803SOL     OW33307   6.985   4.386   4.826
10803SOL    HW133308   0.041   4.326   4.807
10803SOL    HW233309   6.955   4.373   4.921
10804SOL     OW33310   4.357   4.945   6.552
10804SOL    HW133311   4.345   4.988   6.462
10804SOL    HW233312   4.296   4.866   6.559
10805SOL     OW33313   5.233   5.920   0.116
10805SOL    HW133314   5.215   5.826   0.143
10805SOL    HW233315   5.321   5.950   0.153
10806SOL     OW33316   5.883   2.970   4.959
10806SOL    HW133317   5.956   2.921   4.910
10806SOL    HW233318   5.910   2.980   5.055
10807SOL     OW33319   4.457   2.604   5.176
10807SOL    HW133320   4.487   2.638   5.265
10807SOL    HW233321   4.359   2.586   5.178
10808SOL     OW33322   0.849   2.726   1.008
10808SOL    HW133323   0.917   2.714   0.937
10808SOL    HW233324   0.761   2.752   0.967
10809SOL     OW33325   0.898   1.079   3.205
10809SOL    HW133326   0.941   1.152   3.152
10809SOL    HW233327   0.929   0.991   3.170
10810SOL     OW33328   1.958   2.085   6.331
10810SOL    HW133329   2.022   2.023   6.376
10810SOL    HW233330   1.968   2.177   6.369
10811SOL     OW33331   3.758   5.519   6.559
10811SOL    HW133332   3.709   5.456   6.499
10811SOL    HW233333   3.712   5.523   6.647
10812SOL     OW33334   6.775   3.442   2.378
10812SOL    HW133335   6.724   3.496   2.445
10812SOL    HW233336   6.760   3.345   2.394
10813SOL     OW33337   3.454   6.269   2.121
10813SOL    HW133338   3.378   6.272   2.185
10813SOL    HW233339   3.448   6.347   2.059
10814SOL     OW33340   1.867   6.044   4.076
10814SOL    HW133341   1.794   6.112   4.070
10814SOL    HW233342   1.836   5.966   4.130
10815SOL     OW33343   5.566   2.780   5.819
10815SOL    HW133344   5.559   2.820   5.910
10815SOL    HW233345   5.558   2.681   5.825
10816SOL     OW33346   2.273   2.704   0.896
10816SOL    HW133347   2.243   2.799   0.887
10816SOL    HW233348   2.307   2.689   0.989
10817SOL     OW33349   3.973   1.707   1.753
10817SOL    HW133350   3.917   1.717   1.671
10817SOL    HW233351   4.067   1.688   1.727
10818SOL     OW33352   4.445   3.561   5.618
10818SOL    HW133353   4.494   3.559   5.531
10818SOL    HW233354   4.509   3.580   5.692
10819SOL     OW33355   2.176   3.189   5.087
10819SOL    HW133356   2.126   3.229   5.010
10819SOL    HW233357   2.237   3.117   5.053
10820SOL     OW33358   0.583   6.460   5.270
10820SOL    HW133359   0.614   6.434   5.178
10820SOL    HW233360   0.569   6.377   5.325
10821SOL     OW33361   6.902   0.388   0.057
10821SOL    HW133362   6.860   0.383   0.148
10821SOL    HW233363   6.977   0.453   0.058
10822SOL     OW33364   0.212   5.395   5.719
10822SOL    HW133365   0.140   5.461   5.741
10822SOL    HW233366   0.208   5.373   5.621
10823SOL     OW33367   2.688   2.427   0.624
10823SOL    HW133368   2.662   2.349   0.680
10823SOL    HW233369   2.645   2.510   0.660
10824SOL     OW33370   5.012   1.529   4.632
10824SOL    HW133371   4.958   1.606   4.666
10824SOL    HW233372   5.012   1.455   4.700
10825SOL     OW33373   3.960   1.332   1.947
10825SOL    HW133374   3.885   1.268   1.968
10825SOL    HW233375   3.956   1.356   1.850
10826SOL     OW33376   0.552   3.565   1.248
10826SOL    HW133377   0.557   3.649   1.194
10826SOL    HW233378   0.488   3.501   1.205
10827SOL     OW33379   6.925   2.477   4.897
10827SOL    HW133380   6.843   2.483   4.953
10827SOL    HW233381   6.966   2.386   4.908
10828SOL     OW33382   2.627   4.287   6.832
10828SOL    HW133383   2.671   4.371   6.803
10828SOL    HW233384   2.530   4.289   6.806
10829SOL     OW33385   2.167   3.552   1.045
10829SOL    HW133386   2.087   3.555   1.105
10829SOL    HW233387   2.156   3.620   0.973
10830SOL     OW33388   6.163   6.991   4.163
10830SOL    HW133389   6.109   0.045   4.127
10830SOL    HW233390   6.122   6.904   4.137
10831SOL     OW33391   5.556   2.909   2.440
10831SOL    HW133392   5.508   2.823   2.425
10831SOL    HW233393   5.645   2.905   2.394
10832SOL     OW33394   1.906   2.799   1.846
10832SOL    HW133395   1.969   2.829   1.918
10832SOL    HW233396   1.847   2.727   1.881
10833SOL     OW33397   3.383   6.890   4.635
10833SOL    HW133398   3.316   6.827   4.594
10833SOL    HW233399   3.456   6.836   4.677
10834SOL     OW33400   6.998   2.407   5.643
10834SOL    HW133401   6.921   2.464   5.613
10834SOL    HW233402   0.027   2.376   5.563
10835SOL     OW33403   0.652   1.323   0.487
10835SOL    HW133404   0.693   1.239   0.452
10835SOL    HW233405   0.615   1.377   0.411
10836SOL     OW33406   0.104   1.818   1.105
10836SOL    HW133407   0.014   1.861   1.118
10836SOL    HW233408   0.174   1.877   1.145
10837SOL     OW33409   1.603   5.468   0.510
10837SOL    HW133410   1.517   5.461   0.460
10837SOL    HW233411   1.609   5.392   0.576
10838SOL     OW33412   6.638   5.973   1.251
10838SOL    HW133413   6.703   6.041   1.216
10838SOL    HW233414   6.566   5.957   1.183
10839SOL     OW33415   2.683   1.781   6.413
10839SOL    HW133416   2.674   1.781   6.513
10839SOL    HW233417   2.725   1.867   6.384
10840SOL     OW33418   1.073   1.078   3.438
10840SOL    HW133419   1.012   1.068   3.359
10840SOL    HW233420   1.051   1.163   3.487
10841SOL     OW33421   4.748   4.259   0.105
10841SOL    HW133422   4.797   4.219   0.027
10841SOL    HW233423   4.802   4.335   0.143
10842SOL     OW33424   5.776   1.876   1.907
10842SOL    HW133425   5.690   1.925   1.924
10842SOL    HW233426   5.779   1.794   1.964
10843SOL     OW33427   1.064   2.068   1.272
10843SOL    HW133428   0.983   2.010   1.263
10843SOL    HW233429   1.146   2.015   1.251
10844SOL     OW33430   4.747   6.465   4.116
10844SOL    HW133431   4.654   6.437   4.140
10844SOL    HW233432   4.744   6.552   4.067
10845SOL     OW33433   2.415   3.667   1.340
10845SOL    HW133434   2.475   3.732   1.386
10845SOL    HW233435   2.351   3.628   1.406
10846SOL     OW33436   3.497   2.425   1.576
10846SOL    HW133437   3.508   2.442   1.478
10846SOL    HW233438   3.587   2.408   1.617
10847SOL     OW33439   5.196   1.784   5.406
10847SOL    HW133440   5.285   1.742   5.423
10847SOL    HW233441   5.208   1.866   5.351
10848SOL     OW33442   2.067   0.443   6.654
10848SOL    HW133443   2.165   0.447   6.672
10848SOL    HW233444   2.044   0.505   6.579
10849SOL     OW33445   0.839   4.201   5.091
10849SOL    HW133446   0.860   4.147   5.009
10849SOL    HW233447   0.921   4.209   5.148
10850SOL     OW33448   5.642   0.688   3.234
10850SOL    HW133449   5.657   0.781   3.268
10850SOL    HW233450   5.573   0.689   3.162
10851SOL     OW33451   4.605   2.768   0.388
10851SOL    HW133452   4.513   2.727   0.394
10851SOL    HW233453   4.610   2.848   0.447
10852SOL     OW33454   5.879   1.445   5.917
10852SOL    HW133455   5.834   1.374   5.863
10852SOL    HW233456   5.903   1.409   6.007
10853SOL     OW33457   2.218   6.938   5.449
10853SOL    HW133458   2.127   6.896   5.445
10853SOL    HW233459   2.219   7.009   5.519
10854SOL     OW33460   5.697   0.425   6.964
10854SOL    HW133461   5.630   0.376   6.907
10854SOL    HW233462   5.654   0.507   7.002
10855SOL     OW33463   1.035   5.796   7.006
10855SOL    HW133464   0.964   5.780   0.053
10855SOL    HW233465   1.047   5.894   6.992
10856SOL     OW33466   4.641   6.908   6.319
10856SOL    HW133467   4.611   6.826   6.368
10856SOL    HW233468   4.573   6.980   6.331
10857SOL     OW33469   6.570   6.473   4.786
10857SOL    HW133470   6.528   6.527   4.859
10857SOL    HW233471   6.585   6.531   4.706
10858SOL     OW33472   2.076   2.915   1.028
10858SOL    HW133473   2.015   2.978   1.076
10858SOL    HW233474   2.096   2.837   1.087
10859SOL     OW33475   2.453   5.190   1.767
10859SOL    HW133476   2.537   5.229   1.806
10859SOL    HW233477   2.375   5.247   1.792
10860SOL     OW33478   5.458   1.544   2.014
10860SOL    HW133479   5.415   1.588   1.935
10860SOL    HW233480   5.388   1.521   2.082
10861SOL     OW33481   2.820   4.895   0.640
10861SOL    HW133482   2.915   4.863   0.641
10861SOL    HW233483   2.810   4.973   0.702
10862SOL     OW33484   3.954   4.721   5.457
10862SOL    HW133485   3.876   4.670   5.492
10862SOL    HW233486   4.034   4.660   5.451
10863SOL     OW33487   0.195   6.972   3.875
10863SOL    HW133488   0.158   6.888   3.835
10863SOL    HW233489   0.196   6.964   3.974
10864SOL     OW33490   2.900   3.697   2.849
10864SOL    HW133491   2.931   3.792   2.850
10864SOL    HW233492   2.806   3.693   2.815
10865SOL     OW33493   3.248   2.128   2.324
10865SOL    HW133494   3.341   2.140   2.289
10865SOL    HW233495   3.186   2.112   2.247
10866SOL     OW33496   0.303   3.520   5.234
10866SOL    HW133497   0.261   3.525   5.143
10866SOL    HW233498   0.296   3.608   5.280
10867SOL     OW33499   4.903   3.199   0.569
10867SOL    HW133500   4.990   3.241   0.541
10867SOL    HW233501   4.829   3.266   0.559
10868SOL     OW33502   0.137   6.760   6.031
10868SOL    HW133503   0.201   6.683   6.022
10868SOL    HW233504   0.096   6.759   6.122
10869NA      NA33505   6.706   0.873   0.027
10870NA      NA33506   4.745   4.527   4.784
10871NA      NA33507   0.825   4.376   3.007
10872NA      NA33508   6.529   3.517   3.645
10873NA      NA33509   4.309   2.305   5.203
10874NA      NA33510   2.354   3.378   6.919
10875NA      NA33511   1.720   5.500   7.021
10876NA      NA33512   4.231   5.070   2.021
10877NA      NA33513   5.435   3.619   1.102
10878NA      NA33514   3.407   1.971   0.551
10879NA      NA33515   4.955   6.138   1.543
10880NA      NA33516   2.608   6.356   4.612
10881NA      NA33517   2.911   5.570   2.620
10882NA      NA33518   4.368   4.895   6.050
   7.02127   7.02127   7.02127
